Georgetown Riga Oslo Madrid Amsterdam Chisinau Stockholm
   59
    1LIG     C1    1  -1.201   0.252  -1.617
    1LIG     N1    2  -1.299   0.353  -1.625
    1LIG     C2    3  -1.270   0.439  -1.732
    1LIG     C3    4  -1.158   0.387  -1.794
    1LIG     C4    5  -1.118   0.271  -1.726
    1LIG     C5    6  -1.340   0.563  -1.768
    1LIG     C6    7  -1.453   0.555  -1.852
    1LIG     C7    8  -1.524   0.670  -1.887
    1LIG     C8    9  -1.486   0.794  -1.836
    1LIG     C9   10  -1.373   0.804  -1.756
    1LIG    C10   11  -1.303   0.689  -1.720
    1LIG      O   12  -1.552   0.912  -1.863
    1LIG    C11   13  -1.599   0.988  -1.758
    1LIG    C12   14  -1.678   0.939  -1.654
    1LIG    C13   15  -1.721   1.028  -1.558
    1LIG     N2   16  -1.687   1.159  -1.557
    1LIG    C14   17  -1.606   1.202  -1.656
    1LIG    HN1   18  -1.722   1.223  -1.485
    1LIG    C15   19  -1.559   1.121  -1.758
    1LIG    C16   20  -1.404   0.378  -1.526
    1LIG    C17   21  -1.544   0.334  -1.569
    1LIG     N3   22  -1.653   0.384  -1.504
    1LIG    C18   23  -1.776   0.355  -1.553
    1LIG    HN2   24  -1.643   0.443  -1.421
    1LIG    C19   25  -1.795   0.278  -1.665
    1LIG    C20   26  -1.684   0.222  -1.728
    1LIG    C21   27  -1.556   0.249  -1.678
    1LIG     N4   28  -1.885   0.413  -1.488
    1LIG     H1   29  -1.935   0.338  -1.441
    1LIG     H2   30  -1.944   0.465  -1.552
    1LIG    C22   31  -1.191   0.141  -1.518
    1LIG    C23   32  -1.224   0.010  -1.554
    1LIG    C24   33  -1.205  -0.099  -1.468
    1LIG    C25   34  -1.146  -0.080  -1.344
    1LIG    C26   35  -1.112   0.049  -1.304
    1LIG    C27   36  -1.137   0.159  -1.388
    1LIG     CL   37  -1.100   0.314  -1.319
    1LIG     HC   38  -1.109   0.429  -1.881
    1LIG    HC1   39  -1.036   0.207  -1.755
    1LIG    HC2   40  -1.485   0.459  -1.890
    1LIG    HC3   41  -1.609   0.663  -1.954
    1LIG    HC4   42  -1.339   0.901  -1.722
    1LIG    HC5   43  -1.218   0.697  -1.653
    1LIG    HC6   44  -1.704   0.834  -1.648
    1LIG    HC7   45  -1.786   0.992  -1.480
    1LIG    HC8   46  -1.575   1.306  -1.655
    1LIG    HC9   47  -1.495   1.160  -1.834
    1LIG   HC10   48  -1.407   0.485  -1.506
    1LIG   HC11   49  -1.378   0.326  -1.434
    1LIG   HC12   50  -1.894   0.262  -1.705
    1LIG   HC13   51  -1.696   0.158  -1.814
    1LIG   HC14   52  -1.469   0.206  -1.724
    1LIG   HC15   53  -1.265  -0.008  -1.652
    1LIG   HC16   54  -1.237  -0.198  -1.498
    1LIG   HC17   55  -1.127  -0.164  -1.279
    1LIG   HC18   56  -1.066   0.064  -1.208
    1LIG    H24   57  -1.634   1.005  -1.497
    1LIG    H25   58  -1.540   0.249  -1.500
    1LIG    LP1   59  -1.066   0.460  -1.254
   0.00000   0.00000   0.00000
