; Created by cgenff_charmm2gmx.py

[ moleculetype ]
; Name			   nrexcl
LIG				 3

[ atoms ]
;	 nr		  type	resnr residue  atom   cgnr	   charge		mass  typeB    chargeB		massB
; residue	 1 LIG rtp LIG q	qsum
     1       FGA2      1    LIG     F1      1     -0.208     18.998   ;
     2      CG312      1    LIG     C1      2      0.192     12.011   ;
     3       FGA2      1    LIG     F2      3     -0.208     18.998   ;
     4     CG2R61      1    LIG     C2      4      0.100     12.011   ;
     5     CG2R61      1    LIG     C3      5     -0.231     12.011   ;
     6     CG2R61      1    LIG     C4      6     -0.131     12.011   ;
     7     CG2R61      1    LIG     C5      7      0.025     12.011   ;
     8     CG2R61      1    LIG     C6      8     -0.116     12.011   ;
     9     CG2R61      1    LIG     C7      9     -0.220     12.011   ;
    10     CG3C50      1    LIG     C8     10      1.535     12.011   ;
    11      NG3P2      1    LIG     N1     11     -0.588     14.007   ;
    12       HGP2      1    LIG    HN3     12      0.336      1.008   ;
    13     CG3C53      1    LIG     C9     13      0.785     12.011   ;
    14     NG2R53      1    LIG     N2     14     -0.178     14.007   ;
    15      CG331      1    LIG    C10     15     -0.169     12.011   ;
    16     CG2R53      1    LIG    C11     16     -0.420     12.011   ;
    17      OG2D1      1    LIG      O     17     -0.325     15.999   ;
    18      CG321      1    LIG    C12     18     -0.240     12.011   ;
    19      CG301      1    LIG    C13     19      0.163     12.011   ;
    20      CG331      1    LIG    C14     20     -0.292     12.011   ;
    21      CG331      1    LIG    C15     21     -0.292     12.011   ;
    22      NG3P3      1    LIG     N3     22     -0.267     14.007   ;
    23       HGP2      1    LIG     H1     23      0.301      1.008   ;
    24       HGP2      1    LIG     H2     24      0.301      1.008   ;
    25     CG2DC1      1    LIG    C16     25     -0.086     12.011   ;
    26      CG321      1    LIG    C17     26      0.013     12.011   ;
    27      NG311      1    LIG     N4     27     -0.656     14.007   ;
    28      CG321      1    LIG    C18     28      0.131     12.011   ;
    29     HGPAM1      1    LIG    HN4     29      0.367      1.008   ;
    30      NG311      1    LIG     N5     30     -0.598     14.007   ;
    31     CG2D1O      1    LIG    C19     31     -0.097     12.011   ;
    32     HGPAM1      1    LIG    HN5     32      0.406      1.008   ;
    33      HGR61      1    LIG     HC     33      0.116      1.008   ;
    34      HGR61      1    LIG    HC1     34      0.116      1.008   ;
    35      HGR61      1    LIG    HC2     35      0.227      1.008   ;
    36       HGP2      1    LIG    HN2     36      0.336      1.008   ;
    37       HGA1      1    LIG    HC3     37      0.073      1.008   ;
    38       HGA3      1    LIG    HC4     38      0.090      1.008   ;
    39       HGA3      1    LIG    HC5     39      0.090      1.008   ;
    40       HGA3      1    LIG    HC6     40      0.090      1.008   ;
    41       HGA2      1    LIG    HC7     41      0.090      1.008   ;
    42       HGA2      1    LIG    HC8     42      0.090      1.008   ;
    43       HGA3      1    LIG    HC9     43      0.090      1.008   ;
    44       HGA3      1    LIG   HC10     44      0.090      1.008   ;
    45       HGA3      1    LIG   HC11     45      0.090      1.008   ;
    46       HGA3      1    LIG   HC12     46      0.090      1.008   ;
    47       HGA3      1    LIG   HC13     47      0.090      1.008   ;
    48       HGA3      1    LIG   HC14     48      0.090      1.008   ;
    49       HGP2      1    LIG    HN1     49      0.301      1.008   ;
    50       HGA2      1    LIG   HC15     50      0.090      1.008   ;
    51       HGA2      1    LIG   HC16     51      0.090      1.008   ;
    52       HGA4      1    LIG   HC17     52      0.148      1.008   ;
    53       HGA2      1    LIG    H26     53      0.090      1.008   ;
    54       HGA2      1    LIG    H27     54      0.090      1.008   ;

[ bonds ]
;	ai	  aj funct			  c0			c1			  c2			c3
    1     2	 1 ;        FGA2      CG312
    2     3	 1 ;       CG312       FGA2
    2     4	 1 ;       CG312     CG2R61
    2    19	 1 ;       CG312      CG301
    4     9	 1 ;      CG2R61     CG2R61
    4     5	 1 ;      CG2R61     CG2R61
    5     6	 1 ;      CG2R61     CG2R61
    5    10	 1 ;      CG2R61     CG3C50
    6     7	 1 ;      CG2R61     CG2R61
    6    33	 1 ;      CG2R61      HGR61
    7     8	 1 ;      CG2R61     CG2R61
    7    25	 1 ;      CG2R61     CG2DC1
    8     9	 1 ;      CG2R61     CG2R61
    8    34	 1 ;      CG2R61      HGR61
    9    35	 1 ;      CG2R61      HGR61
   10    11	 1 ;      CG3C50      NG3P2
   10    18	 1 ;      CG3C50      CG321
   10    16	 1 ;      CG3C50     CG2R53
   11    12	 1 ;       NG3P2       HGP2
   11    13	 1 ;       NG3P2     CG3C53
   11    36	 1 ;       NG3P2       HGP2
   13    22	 1 ;      CG3C53      NG3P3
   13    14	 1 ;      CG3C53     NG2R53
   13    37	 1 ;      CG3C53       HGA1
   14    15	 1 ;      NG2R53      CG331
   14    16	 1 ;      NG2R53     CG2R53
   15    38	 1 ;       CG331       HGA3
   15    39	 1 ;       CG331       HGA3
   15    40	 1 ;       CG331       HGA3
   16    17	 1 ;      CG2R53      OG2D1
   18    19	 1 ;       CG321      CG301
   18    41	 1 ;       CG321       HGA2
   18    42	 1 ;       CG321       HGA2
   19    20	 1 ;       CG301      CG331
   19    21	 1 ;       CG301      CG331
   20    43	 1 ;       CG331       HGA3
   20    44	 1 ;       CG331       HGA3
   20    45	 1 ;       CG331       HGA3
   21    46	 1 ;       CG331       HGA3
   21    47	 1 ;       CG331       HGA3
   21    48	 1 ;       CG331       HGA3
   22    24	 1 ;       NG3P3       HGP2
   22    23	 1 ;       NG3P3       HGP2
   22    49	 1 ;       NG3P3       HGP2
   25    31	 1 ;      CG2DC1     CG2D1O
   25    26	 1 ;      CG2DC1      CG321
   26    27	 1 ;       CG321      NG311
   26    50	 1 ;       CG321       HGA2
   26    53	 1 ;       CG321       HGA2
   27    28	 1 ;       NG311      CG321
   27    29	 1 ;       NG311     HGPAM1
   28    30	 1 ;       CG321      NG311
   28    51	 1 ;       CG321       HGA2
   28    54	 1 ;       CG321       HGA2
   30    32	 1 ;       NG311     HGPAM1
   30    31	 1 ;       NG311     CG2D1O
   31    52	 1 ;      CG2D1O       HGA4

[ pairs ]
;	ai	  aj funct			  c0			c1			  c2			c3
    1     9	 1
    1     5	 1
    1    20	 1
    1    21	 1
    1    18	 1
    2     8	 1
    2    35	 1
    2     6	 1
    2    10	 1
    2    41	 1
    2    42	 1
    2    43	 1
    2    44	 1
    2    45	 1
    2    46	 1
    2    47	 1
    2    48	 1
    3     9	 1
    3     5	 1
    3    20	 1
    3    21	 1
    3    18	 1
    4    20	 1
    4    21	 1
    4    18	 1
    4     7	 1
    4    33	 1
    4    11	 1
    4    16	 1
    4    34	 1
    5    19	 1
    5     8	 1
    5    35	 1
    5    25	 1
    5    12	 1
    5    13	 1
    5    36	 1
    5    41	 1
    5    42	 1
    5    14	 1
    5    17	 1
    6     9	 1
    6    11	 1
    6    18	 1
    6    16	 1
    6    34	 1
    6    31	 1
    6    26	 1
    7    10	 1
    7    35	 1
    7    30	 1
    7    52	 1
    7    27	 1
    7    50	 1
    7    53	 1
    8    33	 1
    8    31	 1
    8    26	 1
    9    19	 1
    9    10	 1
    9    25	 1
   10    33	 1
   10    22	 1
   10    37	 1
   10    15	 1
   10    20	 1
   10    21	 1
   11    19	 1
   11    41	 1
   11    42	 1
   11    17	 1
   11    24	 1
   11    23	 1
   11    49	 1
   11    15	 1
   12    18	 1
   12    16	 1
   12    22	 1
   12    14	 1
   12    37	 1
   13    18	 1
   13    38	 1
   13    39	 1
   13    40	 1
   13    17	 1
   14    18	 1
   14    36	 1
   14    24	 1
   14    23	 1
   14    49	 1
   15    22	 1
   15    37	 1
   15    17	 1
   16    36	 1
   16    19	 1
   16    41	 1
   16    42	 1
   16    22	 1
   16    37	 1
   16    38	 1
   16    39	 1
   16    40	 1
   17    18	 1
   18    36	 1
   18    43	 1
   18    44	 1
   18    45	 1
   18    46	 1
   18    47	 1
   18    48	 1
   20    41	 1
   20    42	 1
   20    46	 1
   20    47	 1
   20    48	 1
   21    41	 1
   21    42	 1
   21    43	 1
   21    44	 1
   21    45	 1
   22    36	 1
   23    37	 1
   24    37	 1
   25    33	 1
   25    34	 1
   25    28	 1
   25    29	 1
   25    32	 1
   26    30	 1
   26    52	 1
   26    51	 1
   26    54	 1
   27    31	 1
   27    32	 1
   28    50	 1
   28    53	 1
   28    52	 1
   29    50	 1
   29    53	 1
   29    30	 1
   29    51	 1
   29    54	 1
   31    50	 1
   31    53	 1
   31    51	 1
   31    54	 1
   32    51	 1
   32    54	 1
   32    52	 1
   34    35	 1
   36    37	 1
   37    49	 1

[ angles ]
;	ai	  aj	ak funct			c0			  c1			c2			  c3
    3     2     4	5 ;       FGA2      CG312     CG2R61
    3     2     1	5 ;       FGA2      CG312       FGA2
    3     2    19	5 ;       FGA2      CG312      CG301
    4     2     1	5 ;     CG2R61      CG312       FGA2
    4     2    19	5 ;     CG2R61      CG312      CG301
    1     2    19	5 ;       FGA2      CG312      CG301
    9     4     2	5 ;     CG2R61     CG2R61      CG312
    9     4     5	5 ;     CG2R61     CG2R61     CG2R61
    2     4     5	5 ;      CG312     CG2R61     CG2R61
    4     5     6	5 ;     CG2R61     CG2R61     CG2R61
    4     5    10	5 ;     CG2R61     CG2R61     CG3C50
    6     5    10	5 ;     CG2R61     CG2R61     CG3C50
    7     6     5	5 ;     CG2R61     CG2R61     CG2R61
    7     6    33	5 ;     CG2R61     CG2R61      HGR61
    5     6    33	5 ;     CG2R61     CG2R61      HGR61
    8     7    25	5 ;     CG2R61     CG2R61     CG2DC1
    8     7     6	5 ;     CG2R61     CG2R61     CG2R61
   25     7     6	5 ;     CG2DC1     CG2R61     CG2R61
    9     8     7	5 ;     CG2R61     CG2R61     CG2R61
    9     8    34	5 ;     CG2R61     CG2R61      HGR61
    7     8    34	5 ;     CG2R61     CG2R61      HGR61
    8     9     4	5 ;     CG2R61     CG2R61     CG2R61
    8     9    35	5 ;     CG2R61     CG2R61      HGR61
    4     9    35	5 ;     CG2R61     CG2R61      HGR61
    5    10    11	5 ;     CG2R61     CG3C50      NG3P2
    5    10    18	5 ;     CG2R61     CG3C50      CG321
    5    10    16	5 ;     CG2R61     CG3C50     CG2R53
   11    10    18	5 ;      NG3P2     CG3C50      CG321
   11    10    16	5 ;      NG3P2     CG3C50     CG2R53
   18    10    16	5 ;      CG321     CG3C50     CG2R53
   12    11    10	5 ;       HGP2      NG3P2     CG3C50
   12    11    13	5 ;       HGP2      NG3P2     CG3C53
   12    11    36	5 ;       HGP2      NG3P2       HGP2
   10    11    13	5 ;     CG3C50      NG3P2     CG3C53
   10    11    36	5 ;     CG3C50      NG3P2       HGP2
   13    11    36	5 ;     CG3C53      NG3P2       HGP2
   11    13    22	5 ;      NG3P2     CG3C53      NG3P3
   11    13    14	5 ;      NG3P2     CG3C53     NG2R53
   11    13    37	5 ;      NG3P2     CG3C53       HGA1
   22    13    14	5 ;      NG3P3     CG3C53     NG2R53
   22    13    37	5 ;      NG3P3     CG3C53       HGA1
   14    13    37	5 ;     NG2R53     CG3C53       HGA1
   15    14    13	5 ;      CG331     NG2R53     CG3C53
   15    14    16	5 ;      CG331     NG2R53     CG2R53
   13    14    16	5 ;     CG3C53     NG2R53     CG2R53
   14    15    38	5 ;     NG2R53      CG331       HGA3
   14    15    39	5 ;     NG2R53      CG331       HGA3
   14    15    40	5 ;     NG2R53      CG331       HGA3
   38    15    39	5 ;       HGA3      CG331       HGA3
   38    15    40	5 ;       HGA3      CG331       HGA3
   39    15    40	5 ;       HGA3      CG331       HGA3
   10    16    14	5 ;     CG3C50     CG2R53     NG2R53
   10    16    17	5 ;     CG3C50     CG2R53      OG2D1
   14    16    17	5 ;     NG2R53     CG2R53      OG2D1
   19    18    10	5 ;      CG301      CG321     CG3C50
   19    18    41	5 ;      CG301      CG321       HGA2
   19    18    42	5 ;      CG301      CG321       HGA2
   10    18    41	5 ;     CG3C50      CG321       HGA2
   10    18    42	5 ;     CG3C50      CG321       HGA2
   41    18    42	5 ;       HGA2      CG321       HGA2
    2    19    20	5 ;      CG312      CG301      CG331
    2    19    21	5 ;      CG312      CG301      CG331
    2    19    18	5 ;      CG312      CG301      CG321
   20    19    21	5 ;      CG331      CG301      CG331
   20    19    18	5 ;      CG331      CG301      CG321
   21    19    18	5 ;      CG331      CG301      CG321
   19    20    43	5 ;      CG301      CG331       HGA3
   19    20    44	5 ;      CG301      CG331       HGA3
   19    20    45	5 ;      CG301      CG331       HGA3
   43    20    44	5 ;       HGA3      CG331       HGA3
   43    20    45	5 ;       HGA3      CG331       HGA3
   44    20    45	5 ;       HGA3      CG331       HGA3
   19    21    46	5 ;      CG301      CG331       HGA3
   19    21    47	5 ;      CG301      CG331       HGA3
   19    21    48	5 ;      CG301      CG331       HGA3
   46    21    47	5 ;       HGA3      CG331       HGA3
   46    21    48	5 ;       HGA3      CG331       HGA3
   47    21    48	5 ;       HGA3      CG331       HGA3
   24    22    13	5 ;       HGP2      NG3P3     CG3C53
   24    22    23	5 ;       HGP2      NG3P3       HGP2
   24    22    49	5 ;       HGP2      NG3P3       HGP2
   13    22    23	5 ;     CG3C53      NG3P3       HGP2
   13    22    49	5 ;     CG3C53      NG3P3       HGP2
   23    22    49	5 ;       HGP2      NG3P3       HGP2
   31    25     7	5 ;     CG2D1O     CG2DC1     CG2R61
   31    25    26	5 ;     CG2D1O     CG2DC1      CG321
    7    25    26	5 ;     CG2R61     CG2DC1      CG321
   25    26    27	5 ;     CG2DC1      CG321      NG311
   25    26    50	5 ;     CG2DC1      CG321       HGA2
   25    26    53	5 ;     CG2DC1      CG321       HGA2
   27    26    50	5 ;      NG311      CG321       HGA2
   27    26    53	5 ;      NG311      CG321       HGA2
   50    26    53	5 ;       HGA2      CG321       HGA2
   28    27    26	5 ;      CG321      NG311      CG321
   28    27    29	5 ;      CG321      NG311     HGPAM1
   26    27    29	5 ;      CG321      NG311     HGPAM1
   30    28    27	5 ;      NG311      CG321      NG311
   30    28    51	5 ;      NG311      CG321       HGA2
   30    28    54	5 ;      NG311      CG321       HGA2
   27    28    51	5 ;      NG311      CG321       HGA2
   27    28    54	5 ;      NG311      CG321       HGA2
   51    28    54	5 ;       HGA2      CG321       HGA2
   32    30    31	5 ;     HGPAM1      NG311     CG2D1O
   32    30    28	5 ;     HGPAM1      NG311      CG321
   31    30    28	5 ;     CG2D1O      NG311      CG321
   30    31    25	5 ;      NG311     CG2D1O     CG2DC1
   30    31    52	5 ;      NG311     CG2D1O       HGA4
   25    31    52	5 ;     CG2DC1     CG2D1O       HGA4

[ dihedrals ]
;	ai	  aj	ak	  al funct			  c0			c1			  c2			c3			  c4			c5
    3     2     4     9	 9 ;       FGA2      CG312     CG2R61     CG2R61
    3     2     4     5	 9 ;       FGA2      CG312     CG2R61     CG2R61
    1     2     4     9	 9 ;       FGA2      CG312     CG2R61     CG2R61
    1     2     4     5	 9 ;       FGA2      CG312     CG2R61     CG2R61
   19     2     4     9	 9 ;      CG301      CG312     CG2R61     CG2R61
   19     2     4     5	 9 ;      CG301      CG312     CG2R61     CG2R61
    3     2    19    20	 9 ;       FGA2      CG312      CG301      CG331
    3     2    19    21	 9 ;       FGA2      CG312      CG301      CG331
    3     2    19    18	 9 ;       FGA2      CG312      CG301      CG321
    4     2    19    20	 9 ;     CG2R61      CG312      CG301      CG331
    4     2    19    21	 9 ;     CG2R61      CG312      CG301      CG331
    4     2    19    18	 9 ;     CG2R61      CG312      CG301      CG321
    1     2    19    20	 9 ;       FGA2      CG312      CG301      CG331
    1     2    19    21	 9 ;       FGA2      CG312      CG301      CG331
    1     2    19    18	 9 ;       FGA2      CG312      CG301      CG321
    2     4     9     8	 9 ;      CG312     CG2R61     CG2R61     CG2R61
    2     4     9    35	 9 ;      CG312     CG2R61     CG2R61      HGR61
    5     4     9     8	 9 ;     CG2R61     CG2R61     CG2R61     CG2R61
    5     4     9    35	 9 ;     CG2R61     CG2R61     CG2R61      HGR61
    9     4     5     6	 9 ;     CG2R61     CG2R61     CG2R61     CG2R61
    9     4     5    10	 9 ;     CG2R61     CG2R61     CG2R61     CG3C50
    2     4     5     6	 9 ;      CG312     CG2R61     CG2R61     CG2R61
    2     4     5    10	 9 ;      CG312     CG2R61     CG2R61     CG3C50
    4     5     6     7	 9 ;     CG2R61     CG2R61     CG2R61     CG2R61
    4     5     6    33	 9 ;     CG2R61     CG2R61     CG2R61      HGR61
   10     5     6     7	 9 ;     CG3C50     CG2R61     CG2R61     CG2R61
   10     5     6    33	 9 ;     CG3C50     CG2R61     CG2R61      HGR61
    4     5    10    11	 9 ;     CG2R61     CG2R61     CG3C50      NG3P2
    4     5    10    18	 9 ;     CG2R61     CG2R61     CG3C50      CG321
    4     5    10    16	 9 ;     CG2R61     CG2R61     CG3C50     CG2R53
    6     5    10    11	 9 ;     CG2R61     CG2R61     CG3C50      NG3P2
    6     5    10    18	 9 ;     CG2R61     CG2R61     CG3C50      CG321
    6     5    10    16	 9 ;     CG2R61     CG2R61     CG3C50     CG2R53
    5     6     7     8	 9 ;     CG2R61     CG2R61     CG2R61     CG2R61
    5     6     7    25	 9 ;     CG2R61     CG2R61     CG2R61     CG2DC1
   33     6     7     8	 9 ;      HGR61     CG2R61     CG2R61     CG2R61
   33     6     7    25	 9 ;      HGR61     CG2R61     CG2R61     CG2DC1
   25     7     8     9	 9 ;     CG2DC1     CG2R61     CG2R61     CG2R61
   25     7     8    34	 9 ;     CG2DC1     CG2R61     CG2R61      HGR61
    6     7     8     9	 9 ;     CG2R61     CG2R61     CG2R61     CG2R61
    6     7     8    34	 9 ;     CG2R61     CG2R61     CG2R61      HGR61
    8     7    25    31	 9 ;     CG2R61     CG2R61     CG2DC1     CG2D1O
    8     7    25    26	 9 ;     CG2R61     CG2R61     CG2DC1      CG321
    6     7    25    31	 9 ;     CG2R61     CG2R61     CG2DC1     CG2D1O
    6     7    25    26	 9 ;     CG2R61     CG2R61     CG2DC1      CG321
    7     8     9     4	 9 ;     CG2R61     CG2R61     CG2R61     CG2R61
    7     8     9    35	 9 ;     CG2R61     CG2R61     CG2R61      HGR61
   34     8     9     4	 9 ;      HGR61     CG2R61     CG2R61     CG2R61
   34     8     9    35	 9 ;      HGR61     CG2R61     CG2R61      HGR61
    5    10    11    12	 9 ;     CG2R61     CG3C50      NG3P2       HGP2
    5    10    11    13	 9 ;     CG2R61     CG3C50      NG3P2     CG3C53
    5    10    11    36	 9 ;     CG2R61     CG3C50      NG3P2       HGP2
   18    10    11    12	 9 ;      CG321     CG3C50      NG3P2       HGP2
   18    10    11    13	 9 ;      CG321     CG3C50      NG3P2     CG3C53
   18    10    11    36	 9 ;      CG321     CG3C50      NG3P2       HGP2
   16    10    11    12	 9 ;     CG2R53     CG3C50      NG3P2       HGP2
   16    10    11    13	 9 ;     CG2R53     CG3C50      NG3P2     CG3C53
   16    10    11    36	 9 ;     CG2R53     CG3C50      NG3P2       HGP2
    5    10    18    19	 9 ;     CG2R61     CG3C50      CG321      CG301
    5    10    18    41	 9 ;     CG2R61     CG3C50      CG321       HGA2
    5    10    18    42	 9 ;     CG2R61     CG3C50      CG321       HGA2
   11    10    18    19	 9 ;      NG3P2     CG3C50      CG321      CG301
   11    10    18    41	 9 ;      NG3P2     CG3C50      CG321       HGA2
   11    10    18    42	 9 ;      NG3P2     CG3C50      CG321       HGA2
   16    10    18    19	 9 ;     CG2R53     CG3C50      CG321      CG301
   16    10    18    41	 9 ;     CG2R53     CG3C50      CG321       HGA2
   16    10    18    42	 9 ;     CG2R53     CG3C50      CG321       HGA2
    5    10    16    14	 9 ;     CG2R61     CG3C50     CG2R53     NG2R53
    5    10    16    17	 9 ;     CG2R61     CG3C50     CG2R53      OG2D1
   11    10    16    14	 9 ;      NG3P2     CG3C50     CG2R53     NG2R53
   11    10    16    17	 9 ;      NG3P2     CG3C50     CG2R53      OG2D1
   18    10    16    14	 9 ;      CG321     CG3C50     CG2R53     NG2R53
   18    10    16    17	 9 ;      CG321     CG3C50     CG2R53      OG2D1
   12    11    13    22	 9 ;       HGP2      NG3P2     CG3C53      NG3P3
   12    11    13    14	 9 ;       HGP2      NG3P2     CG3C53     NG2R53
   12    11    13    37	 9 ;       HGP2      NG3P2     CG3C53       HGA1
   10    11    13    22	 9 ;     CG3C50      NG3P2     CG3C53      NG3P3
   10    11    13    14	 9 ;     CG3C50      NG3P2     CG3C53     NG2R53
   10    11    13    37	 9 ;     CG3C50      NG3P2     CG3C53       HGA1
   36    11    13    22	 9 ;       HGP2      NG3P2     CG3C53      NG3P3
   36    11    13    14	 9 ;       HGP2      NG3P2     CG3C53     NG2R53
   36    11    13    37	 9 ;       HGP2      NG3P2     CG3C53       HGA1
   11    13    22    24	 9 ;      NG3P2     CG3C53      NG3P3       HGP2
   11    13    22    23	 9 ;      NG3P2     CG3C53      NG3P3       HGP2
   11    13    22    49	 9 ;      NG3P2     CG3C53      NG3P3       HGP2
   14    13    22    24	 9 ;     NG2R53     CG3C53      NG3P3       HGP2
   14    13    22    23	 9 ;     NG2R53     CG3C53      NG3P3       HGP2
   14    13    22    49	 9 ;     NG2R53     CG3C53      NG3P3       HGP2
   37    13    22    24	 9 ;       HGA1     CG3C53      NG3P3       HGP2
   37    13    22    23	 9 ;       HGA1     CG3C53      NG3P3       HGP2
   37    13    22    49	 9 ;       HGA1     CG3C53      NG3P3       HGP2
   11    13    14    15	 9 ;      NG3P2     CG3C53     NG2R53      CG331
   11    13    14    16	 9 ;      NG3P2     CG3C53     NG2R53     CG2R53
   22    13    14    15	 9 ;      NG3P3     CG3C53     NG2R53      CG331
   22    13    14    16	 9 ;      NG3P3     CG3C53     NG2R53     CG2R53
   37    13    14    15	 9 ;       HGA1     CG3C53     NG2R53      CG331
   37    13    14    16	 9 ;       HGA1     CG3C53     NG2R53     CG2R53
   13    14    15    38	 9 ;     CG3C53     NG2R53      CG331       HGA3
   13    14    15    39	 9 ;     CG3C53     NG2R53      CG331       HGA3
   13    14    15    40	 9 ;     CG3C53     NG2R53      CG331       HGA3
   16    14    15    38	 9 ;     CG2R53     NG2R53      CG331       HGA3
   16    14    15    39	 9 ;     CG2R53     NG2R53      CG331       HGA3
   16    14    15    40	 9 ;     CG2R53     NG2R53      CG331       HGA3
   15    14    16    10	 9 ;      CG331     NG2R53     CG2R53     CG3C50
   15    14    16    17	 9 ;      CG331     NG2R53     CG2R53      OG2D1
   13    14    16    10	 9 ;     CG3C53     NG2R53     CG2R53     CG3C50
   13    14    16    17	 9 ;     CG3C53     NG2R53     CG2R53      OG2D1
   10    18    19     2	 9 ;     CG3C50      CG321      CG301      CG312
   10    18    19    20	 9 ;     CG3C50      CG321      CG301      CG331
   10    18    19    21	 9 ;     CG3C50      CG321      CG301      CG331
   41    18    19     2	 9 ;       HGA2      CG321      CG301      CG312
   41    18    19    20	 9 ;       HGA2      CG321      CG301      CG331
   41    18    19    21	 9 ;       HGA2      CG321      CG301      CG331
   42    18    19     2	 9 ;       HGA2      CG321      CG301      CG312
   42    18    19    20	 9 ;       HGA2      CG321      CG301      CG331
   42    18    19    21	 9 ;       HGA2      CG321      CG301      CG331
    2    19    20    43	 9 ;      CG312      CG301      CG331       HGA3
    2    19    20    44	 9 ;      CG312      CG301      CG331       HGA3
    2    19    20    45	 9 ;      CG312      CG301      CG331       HGA3
   21    19    20    43	 9 ;      CG331      CG301      CG331       HGA3
   21    19    20    44	 9 ;      CG331      CG301      CG331       HGA3
   21    19    20    45	 9 ;      CG331      CG301      CG331       HGA3
   18    19    20    43	 9 ;      CG321      CG301      CG331       HGA3
   18    19    20    44	 9 ;      CG321      CG301      CG331       HGA3
   18    19    20    45	 9 ;      CG321      CG301      CG331       HGA3
    2    19    21    46	 9 ;      CG312      CG301      CG331       HGA3
    2    19    21    47	 9 ;      CG312      CG301      CG331       HGA3
    2    19    21    48	 9 ;      CG312      CG301      CG331       HGA3
   20    19    21    46	 9 ;      CG331      CG301      CG331       HGA3
   20    19    21    47	 9 ;      CG331      CG301      CG331       HGA3
   20    19    21    48	 9 ;      CG331      CG301      CG331       HGA3
   18    19    21    46	 9 ;      CG321      CG301      CG331       HGA3
   18    19    21    47	 9 ;      CG321      CG301      CG331       HGA3
   18    19    21    48	 9 ;      CG321      CG301      CG331       HGA3
    7    25    31    30	 9 ;     CG2R61     CG2DC1     CG2D1O      NG311
    7    25    31    52	 9 ;     CG2R61     CG2DC1     CG2D1O       HGA4
   26    25    31    30	 9 ;      CG321     CG2DC1     CG2D1O      NG311
   26    25    31    52	 9 ;      CG321     CG2DC1     CG2D1O       HGA4
   31    25    26    27	 9 ;     CG2D1O     CG2DC1      CG321      NG311
   31    25    26    50	 9 ;     CG2D1O     CG2DC1      CG321       HGA2
   31    25    26    53	 9 ;     CG2D1O     CG2DC1      CG321       HGA2
    7    25    26    27	 9 ;     CG2R61     CG2DC1      CG321      NG311
    7    25    26    50	 9 ;     CG2R61     CG2DC1      CG321       HGA2
    7    25    26    53	 9 ;     CG2R61     CG2DC1      CG321       HGA2
   25    26    27    28	 9 ;     CG2DC1      CG321      NG311      CG321
   25    26    27    29	 9 ;     CG2DC1      CG321      NG311     HGPAM1
   50    26    27    28	 9 ;       HGA2      CG321      NG311      CG321
   50    26    27    29	 9 ;       HGA2      CG321      NG311     HGPAM1
   53    26    27    28	 9 ;       HGA2      CG321      NG311      CG321
   53    26    27    29	 9 ;       HGA2      CG321      NG311     HGPAM1
   26    27    28    30	 9 ;      CG321      NG311      CG321      NG311
   26    27    28    51	 9 ;      CG321      NG311      CG321       HGA2
   26    27    28    54	 9 ;      CG321      NG311      CG321       HGA2
   29    27    28    30	 9 ;     HGPAM1      NG311      CG321      NG311
   29    27    28    51	 9 ;     HGPAM1      NG311      CG321       HGA2
   29    27    28    54	 9 ;     HGPAM1      NG311      CG321       HGA2
   27    28    30    32	 9 ;      NG311      CG321      NG311     HGPAM1
   27    28    30    31	 9 ;      NG311      CG321      NG311     CG2D1O
   51    28    30    32	 9 ;       HGA2      CG321      NG311     HGPAM1
   51    28    30    31	 9 ;       HGA2      CG321      NG311     CG2D1O
   54    28    30    32	 9 ;       HGA2      CG321      NG311     HGPAM1
   54    28    30    31	 9 ;       HGA2      CG321      NG311     CG2D1O
   32    30    31    25	 9 ;     HGPAM1      NG311     CG2D1O     CG2DC1
   32    30    31    52	 9 ;     HGPAM1      NG311     CG2D1O       HGA4
   28    30    31    25	 9 ;      CG321      NG311     CG2D1O     CG2DC1
   28    30    31    52	 9 ;      CG321      NG311     CG2D1O       HGA4

[ dihedrals ]
;	ai	  aj	ak	  al funct			  c0			c1			  c2			c3
   16    10    14    17	 2
   31    25    30    52	 2

