Good ROcking Metal Altar for Chronical Sinners
   54
    1LIG     F1    1  -1.367   0.770  -1.527
    1LIG     C1    2  -1.400   0.704  -1.643
    1LIG     F2    3  -1.323   0.763  -1.739
    1LIG     C2    4  -1.366   0.557  -1.624
    1LIG     C3    5  -1.465   0.464  -1.592
    1LIG     C4    6  -1.424   0.346  -1.524
    1LIG     C5    7  -1.290   0.305  -1.511
    1LIG     C6    8  -1.194   0.393  -1.560
    1LIG     C7    9  -1.231   0.518  -1.612
    1LIG     C8   10  -1.613   0.492  -1.619
    1LIG     N1   11  -1.663   0.485  -1.760
    1LIG    HN3   12  -1.640   0.549  -1.836
    1LIG     C9   13  -1.741   0.383  -1.766
    1LIG     N2   14  -1.726   0.292  -1.668
    1LIG    C10   15  -1.618   0.202  -1.714
    1LIG    C11   16  -1.698   0.377  -1.562
    1LIG      O   17  -1.740   0.366  -1.448
    1LIG    C12   18  -1.639   0.640  -1.581
    1LIG    C13   19  -1.549   0.735  -1.671
    1LIG    C14   20  -1.574   0.722  -1.824
    1LIG    C15   21  -1.582   0.882  -1.638
    1LIG     N3   22  -1.829   0.357  -1.865
    1LIG     H1   23  -1.887   0.438  -1.889
    1LIG     H2   24  -1.782   0.321  -1.949
    1LIG    C16   25  -1.258   0.172  -1.454
    1LIG    C17   26  -1.260   0.146  -1.318
    1LIG     N4   27  -1.223   0.030  -1.260
    1LIG    C18   28  -1.181  -0.065  -1.343
    1LIG    HN4   29  -1.227   0.015  -1.159
    1LIG     N5   30  -1.174  -0.056  -1.476
    1LIG    C19   31  -1.214   0.063  -1.528
    1LIG    HN5   32  -1.142  -0.132  -1.535
    1LIG     HC   33  -1.500   0.284  -1.479
    1LIG    HC1   34  -1.090   0.364  -1.558
    1LIG    HC2   35  -1.154   0.587  -1.643
    1LIG    HN2   36  -1.585   0.426  -1.785
    1LIG    HC3   37  -1.818   0.435  -1.708
    1LIG    HC4   38  -1.658   0.133  -1.788
    1LIG    HC5   39  -1.538   0.261  -1.759
    1LIG    HC6   40  -1.579   0.145  -1.630
    1LIG    HC7   41  -1.614   0.655  -1.476
    1LIG    HC8   42  -1.744   0.663  -1.597
    1LIG    HC9   43  -1.545   0.815  -1.873
    1LIG   HC10   44  -1.513   0.640  -1.863
    1LIG   HC11   45  -1.679   0.702  -1.842
    1LIG   HC12   46  -1.568   0.899  -1.531
    1LIG   HC13   47  -1.517   0.948  -1.694
    1LIG   HC14   48  -1.686   0.902  -1.664
    1LIG    HN1   49  -1.891   0.285  -1.832
    1LIG   HC15   50  -1.294   0.225  -1.252
    1LIG   HC16   51  -1.148  -0.159  -1.299
    1LIG   HC17   52  -1.211   0.075  -1.635
    1LIG    H26   53  -1.158   0.183  -1.309
    1LIG    H27   54  -1.282  -0.104  -1.351
   0.00000   0.00000   0.00000
