; Created by cgenff_charmm2gmx.py

[ moleculetype ]
; Name			   nrexcl
LIG				 3

[ atoms ]
;	 nr		  type	resnr residue  atom   cgnr	   charge		mass  typeB    chargeB		massB
; residue	 1 LIG rtp LIG q	qsum
     1      CG311      1    LIG     C1      1     -0.003     12.011   ;
     2      CG311      1    LIG     C2      2      0.094     12.011   ;
     3      OG311      1    LIG     O1      3     -0.625     15.999   ;
     4       HGP1      1    LIG     H1      4      0.415      1.008   ;
     5      CG324      1    LIG     C3      5      0.178     12.011   ;
     6      NG3P2      1    LIG     N1      6     -0.444     14.007   ;
     7       HGP2      1    LIG     H2      7      0.348      1.008   ;
     8       HGP2      1    LIG     H3      8      0.348      1.008   ;
     9      CG324      1    LIG     C4      9      0.171     12.011   ;
    10     CG2R61      1    LIG     C5     10      0.035     12.011   ;
    11     CG2R61      1    LIG     C6     11     -0.117     12.011   ;
    12     CG2R61      1    LIG     C7     12     -0.017     12.011   ;
    13     CG2R61      1    LIG     C8     13     -0.114     12.011   ;
    14     CG2R61      1    LIG     C9     14     -0.109     12.011   ;
    15     CG2R61      1    LIG    C10     15     -0.119     12.011   ;
    16      CG311      1    LIG    C11     16     -0.088     12.011   ;
    17      CG331      1    LIG    C12     17     -0.264     12.011   ;
    18      CG331      1    LIG    C13     18     -0.264     12.011   ;
    19      NG2S1      1    LIG     N2     19     -0.388     14.007   ;
    20      CG2O1      1    LIG    C14     20      0.469     12.011   ;
    21      OG2D1      1    LIG     O2     21     -0.508     15.999   ;
    22       HGP1      1    LIG     H4     22      0.269      1.008   ;
    23      CG311      1    LIG    C15     23      0.084     12.011   ;
    24      CG321      1    LIG    C16     24     -0.139     12.011   ;
    25      CG311      1    LIG    C17     25     -0.220     12.011   ;
    26      CG321      1    LIG    C18     26     -0.076     12.011   ;
    27      CG321      1    LIG    C19     27     -0.215     12.011   ;
    28      CG321      1    LIG    C20     28     -0.231     12.011   ;
    29      CG301      1    LIG    C21     29      0.067     12.011   ;
    30      CG331      1    LIG    C22     30     -0.271     12.011   ;
    31      CG331      1    LIG    C23     31     -0.271     12.011   ;
    32      NG2S1      1    LIG     N3     32     -0.292     14.007   ;
    33      CG2O1      1    LIG    C24     33      0.367     12.011   ;
    34      OG2D1      1    LIG     O3     34     -0.516     15.999   ;
    35       HGP1      1    LIG     H5     35      0.265      1.008   ;
    36      CG321      1    LIG    C25     36     -0.104     12.011   ;
    37      CG331      1    LIG    C26     37     -0.283     12.011   ;
    38      CG321      1    LIG    C27     38     -0.111     12.011   ;
    39     CG2R61      1    LIG    C28     39     -0.019     12.011   ;
    40     CG2R61      1    LIG    C29     40     -0.123     12.011   ;
    41     CG2R61      1    LIG    C30     41     -0.112     12.011   ;
    42     CG2R61      1    LIG    C31     42     -0.116     12.011   ;
    43     CG2R61      1    LIG    C32     43     -0.112     12.011   ;
    44     CG2R61      1    LIG    C33     44     -0.123     12.011   ;
    45       HGA1      1    LIG     HC     45      0.090      1.008   ;
    46       HGA1      1    LIG    HC1     46      0.090      1.008   ;
    47       HGA2      1    LIG    HC2     47      0.090      1.008   ;
    48       HGA2      1    LIG    HC3     48      0.090      1.008   ;
    49       HGA2      1    LIG    HC4     49      0.090      1.008   ;
    50       HGA2      1    LIG    HC5     50      0.090      1.008   ;
    51      HGR61      1    LIG    HC6     51      0.116      1.008   ;
    52      HGR61      1    LIG    HC7     52      0.116      1.008   ;
    53      HGR61      1    LIG    HC8     53      0.116      1.008   ;
    54      HGR61      1    LIG    HC9     54      0.116      1.008   ;
    55       HGA1      1    LIG   HC10     55      0.090      1.008   ;
    56       HGA3      1    LIG   HC11     56      0.090      1.008   ;
    57       HGA3      1    LIG   HC12     57      0.090      1.008   ;
    58       HGA3      1    LIG   HC13     58      0.090      1.008   ;
    59       HGA3      1    LIG   HC14     59      0.090      1.008   ;
    60       HGA3      1    LIG   HC15     60      0.090      1.008   ;
    61       HGA3      1    LIG   HC16     61      0.090      1.008   ;
    62       HGA1      1    LIG   HC17     62      0.090      1.008   ;
    63       HGA2      1    LIG   HC18     63      0.090      1.008   ;
    64       HGA2      1    LIG   HC19     64      0.090      1.008   ;
    65       HGA1      1    LIG   HC20     65      0.090      1.008   ;
    66       HGA2      1    LIG   HC21     66      0.090      1.008   ;
    67       HGA2      1    LIG   HC22     67      0.090      1.008   ;
    68       HGA2      1    LIG   HC23     68      0.090      1.008   ;
    69       HGA2      1    LIG   HC24     69      0.090      1.008   ;
    70       HGA2      1    LIG   HC25     70      0.090      1.008   ;
    71       HGA2      1    LIG   HC26     71      0.090      1.008   ;
    72       HGA3      1    LIG   HC27     72      0.090      1.008   ;
    73       HGA3      1    LIG   HC28     73      0.090      1.008   ;
    74       HGA3      1    LIG   HC29     74      0.090      1.008   ;
    75       HGA3      1    LIG   HC30     75      0.090      1.008   ;
    76       HGA3      1    LIG   HC31     76      0.090      1.008   ;
    77       HGA3      1    LIG   HC32     77      0.090      1.008   ;
    78       HGA2      1    LIG   HC33     78      0.090      1.008   ;
    79       HGA2      1    LIG   HC34     79      0.090      1.008   ;
    80       HGA3      1    LIG   HC35     80      0.090      1.008   ;
    81       HGA3      1    LIG   HC36     81      0.090      1.008   ;
    82       HGA3      1    LIG   HC37     82      0.090      1.008   ;
    83       HGA2      1    LIG   HC38     83      0.090      1.008   ;
    84       HGA2      1    LIG   HC39     84      0.090      1.008   ;
    85      HGR61      1    LIG   HC40     85      0.116      1.008   ;
    86      HGR61      1    LIG   HC41     86      0.116      1.008   ;
    87      HGR61      1    LIG   HC42     87      0.116      1.008   ;
    88      HGR61      1    LIG   HC43     88      0.116      1.008   ;
    89      HGR61      1    LIG   HC44     89      0.116      1.008   ;

[ bonds ]
;	ai	  aj funct			  c0			c1			  c2			c3
    1     2	 1 ;       CG311      CG311
    1    38	 1 ;       CG311      CG321
    1    19	 1 ;       CG311      NG2S1
    1    45	 1 ;       CG311       HGA1
    2     5	 1 ;       CG311      CG324
    2     3	 1 ;       CG311      OG311
    2    46	 1 ;       CG311       HGA1
    3     4	 1 ;       OG311       HGP1
    5     6	 1 ;       CG324      NG3P2
    5    47	 1 ;       CG324       HGA2
    5    48	 1 ;       CG324       HGA2
    6     8	 1 ;       NG3P2       HGP2
    6     9	 1 ;       NG3P2      CG324
    6     7	 1 ;       NG3P2       HGP2
    9    10	 1 ;       CG324     CG2R61
    9    49	 1 ;       CG324       HGA2
    9    50	 1 ;       CG324       HGA2
   10    11	 1 ;      CG2R61     CG2R61
   10    15	 1 ;      CG2R61     CG2R61
   11    12	 1 ;      CG2R61     CG2R61
   11    51	 1 ;      CG2R61      HGR61
   12    16	 1 ;      CG2R61      CG311
   12    13	 1 ;      CG2R61     CG2R61
   13    14	 1 ;      CG2R61     CG2R61
   13    52	 1 ;      CG2R61      HGR61
   14    15	 1 ;      CG2R61     CG2R61
   14    53	 1 ;      CG2R61      HGR61
   15    54	 1 ;      CG2R61      HGR61
   16    17	 1 ;       CG311      CG331
   16    18	 1 ;       CG311      CG331
   16    55	 1 ;       CG311       HGA1
   17    56	 1 ;       CG331       HGA3
   17    57	 1 ;       CG331       HGA3
   17    58	 1 ;       CG331       HGA3
   18    59	 1 ;       CG331       HGA3
   18    60	 1 ;       CG331       HGA3
   18    61	 1 ;       CG331       HGA3
   19    22	 1 ;       NG2S1       HGP1
   19    20	 1 ;       NG2S1      CG2O1
   20    21	 1 ;       CG2O1      OG2D1
   20    23	 1 ;       CG2O1      CG311
   23    28	 1 ;       CG311      CG321
   23    24	 1 ;       CG311      CG321
   23    62	 1 ;       CG311       HGA1
   24    25	 1 ;       CG321      CG311
   24    63	 1 ;       CG321       HGA2
   24    64	 1 ;       CG321       HGA2
   25    26	 1 ;       CG311      CG321
   25    29	 1 ;       CG311      CG301
   25    65	 1 ;       CG311       HGA1
   26    27	 1 ;       CG321      CG321
   26    66	 1 ;       CG321       HGA2
   26    67	 1 ;       CG321       HGA2
   27    28	 1 ;       CG321      CG321
   27    68	 1 ;       CG321       HGA2
   27    69	 1 ;       CG321       HGA2
   28    70	 1 ;       CG321       HGA2
   28    71	 1 ;       CG321       HGA2
   29    32	 1 ;       CG301      NG2S1
   29    30	 1 ;       CG301      CG331
   29    31	 1 ;       CG301      CG331
   30    72	 1 ;       CG331       HGA3
   30    73	 1 ;       CG331       HGA3
   30    74	 1 ;       CG331       HGA3
   31    75	 1 ;       CG331       HGA3
   31    76	 1 ;       CG331       HGA3
   31    77	 1 ;       CG331       HGA3
   32    33	 1 ;       NG2S1      CG2O1
   32    35	 1 ;       NG2S1       HGP1
   33    36	 1 ;       CG2O1      CG321
   33    34	 1 ;       CG2O1      OG2D1
   36    37	 1 ;       CG321      CG331
   36    78	 1 ;       CG321       HGA2
   36    79	 1 ;       CG321       HGA2
   37    80	 1 ;       CG331       HGA3
   37    81	 1 ;       CG331       HGA3
   37    82	 1 ;       CG331       HGA3
   38    39	 1 ;       CG321     CG2R61
   38    83	 1 ;       CG321       HGA2
   38    84	 1 ;       CG321       HGA2
   39    40	 1 ;      CG2R61     CG2R61
   39    44	 1 ;      CG2R61     CG2R61
   40    41	 1 ;      CG2R61     CG2R61
   40    85	 1 ;      CG2R61      HGR61
   41    42	 1 ;      CG2R61     CG2R61
   41    86	 1 ;      CG2R61      HGR61
   42    43	 1 ;      CG2R61     CG2R61
   42    87	 1 ;      CG2R61      HGR61
   43    44	 1 ;      CG2R61     CG2R61
   43    88	 1 ;      CG2R61      HGR61
   44    89	 1 ;      CG2R61      HGR61

[ pairs ]
;	ai	  aj funct			  c0			c1			  c2			c3
    1     6	 1
    1    47	 1
    1    48	 1
    1     4	 1
    1    21	 1
    1    23	 1
    1    40	 1
    1    44	 1
    2    39	 1
    2    83	 1
    2    84	 1
    2    22	 1
    2    20	 1
    2     8	 1
    2     9	 1
    2     7	 1
    3    38	 1
    3    19	 1
    3    45	 1
    3     6	 1
    3    47	 1
    3    48	 1
    4     5	 1
    4    46	 1
    5    38	 1
    5    19	 1
    5    45	 1
    5    10	 1
    5    49	 1
    5    50	 1
    6    46	 1
    6    11	 1
    6    15	 1
    7    47	 1
    7    48	 1
    7    10	 1
    7    49	 1
    7    50	 1
    8    47	 1
    8    48	 1
    8    10	 1
    8    49	 1
    8    50	 1
    9    47	 1
    9    48	 1
    9    12	 1
    9    51	 1
    9    14	 1
    9    54	 1
   10    16	 1
   10    13	 1
   10    53	 1
   11    49	 1
   11    50	 1
   11    14	 1
   11    54	 1
   11    17	 1
   11    18	 1
   11    55	 1
   11    52	 1
   12    15	 1
   12    53	 1
   12    56	 1
   12    57	 1
   12    58	 1
   12    59	 1
   12    60	 1
   12    61	 1
   13    51	 1
   13    17	 1
   13    18	 1
   13    55	 1
   13    54	 1
   14    16	 1
   15    49	 1
   15    50	 1
   15    51	 1
   15    52	 1
   16    51	 1
   16    52	 1
   17    59	 1
   17    60	 1
   17    61	 1
   18    56	 1
   18    57	 1
   18    58	 1
   19    46	 1
   19    39	 1
   19    83	 1
   19    84	 1
   19    28	 1
   19    24	 1
   19    62	 1
   20    38	 1
   20    45	 1
   20    27	 1
   20    70	 1
   20    71	 1
   20    25	 1
   20    63	 1
   20    64	 1
   21    22	 1
   21    28	 1
   21    24	 1
   21    62	 1
   22    38	 1
   22    45	 1
   22    23	 1
   23    26	 1
   23    29	 1
   23    65	 1
   23    68	 1
   23    69	 1
   24    27	 1
   24    70	 1
   24    71	 1
   24    66	 1
   24    67	 1
   24    32	 1
   24    30	 1
   24    31	 1
   25    28	 1
   25    62	 1
   25    68	 1
   25    69	 1
   25    33	 1
   25    35	 1
   25    72	 1
   25    73	 1
   25    74	 1
   25    75	 1
   25    76	 1
   25    77	 1
   26    63	 1
   26    64	 1
   26    32	 1
   26    30	 1
   26    31	 1
   26    70	 1
   26    71	 1
   27    62	 1
   27    29	 1
   27    65	 1
   28    63	 1
   28    64	 1
   28    66	 1
   28    67	 1
   29    63	 1
   29    64	 1
   29    66	 1
   29    67	 1
   29    36	 1
   29    34	 1
   30    65	 1
   30    33	 1
   30    35	 1
   30    75	 1
   30    76	 1
   30    77	 1
   31    65	 1
   31    33	 1
   31    35	 1
   31    72	 1
   31    73	 1
   31    74	 1
   32    65	 1
   32    72	 1
   32    73	 1
   32    74	 1
   32    75	 1
   32    76	 1
   32    77	 1
   32    37	 1
   32    78	 1
   32    79	 1
   33    80	 1
   33    81	 1
   33    82	 1
   34    35	 1
   34    37	 1
   34    78	 1
   34    79	 1
   35    36	 1
   38    46	 1
   38    41	 1
   38    85	 1
   38    43	 1
   38    89	 1
   39    45	 1
   39    42	 1
   39    86	 1
   39    88	 1
   40    83	 1
   40    84	 1
   40    43	 1
   40    89	 1
   40    87	 1
   41    44	 1
   41    88	 1
   42    85	 1
   42    89	 1
   43    86	 1
   44    83	 1
   44    84	 1
   44    85	 1
   44    87	 1
   45    46	 1
   45    83	 1
   45    84	 1
   46    47	 1
   46    48	 1
   52    53	 1
   53    54	 1
   55    56	 1
   55    57	 1
   55    58	 1
   55    59	 1
   55    60	 1
   55    61	 1
   62    70	 1
   62    71	 1
   62    63	 1
   62    64	 1
   63    65	 1
   64    65	 1
   65    66	 1
   65    67	 1
   66    68	 1
   66    69	 1
   67    68	 1
   67    69	 1
   68    70	 1
   68    71	 1
   69    70	 1
   69    71	 1
   78    80	 1
   78    81	 1
   78    82	 1
   79    80	 1
   79    81	 1
   79    82	 1
   85    86	 1
   86    87	 1
   87    88	 1
   88    89	 1

[ angles ]
;	ai	  aj	ak funct			c0			  c1			c2			  c3
    2     1    38	5 ;      CG311      CG311      CG321
    2     1    19	5 ;      CG311      CG311      NG2S1
    2     1    45	5 ;      CG311      CG311       HGA1
   38     1    19	5 ;      CG321      CG311      NG2S1
   38     1    45	5 ;      CG321      CG311       HGA1
   19     1    45	5 ;      NG2S1      CG311       HGA1
    5     2     3	5 ;      CG324      CG311      OG311
    5     2     1	5 ;      CG324      CG311      CG311
    5     2    46	5 ;      CG324      CG311       HGA1
    3     2     1	5 ;      OG311      CG311      CG311
    3     2    46	5 ;      OG311      CG311       HGA1
    1     2    46	5 ;      CG311      CG311       HGA1
    4     3     2	5 ;       HGP1      OG311      CG311
    2     5     6	5 ;      CG311      CG324      NG3P2
    2     5    47	5 ;      CG311      CG324       HGA2
    2     5    48	5 ;      CG311      CG324       HGA2
    6     5    47	5 ;      NG3P2      CG324       HGA2
    6     5    48	5 ;      NG3P2      CG324       HGA2
   47     5    48	5 ;       HGA2      CG324       HGA2
    5     6     8	5 ;      CG324      NG3P2       HGP2
    5     6     9	5 ;      CG324      NG3P2      CG324
    5     6     7	5 ;      CG324      NG3P2       HGP2
    8     6     9	5 ;       HGP2      NG3P2      CG324
    8     6     7	5 ;       HGP2      NG3P2       HGP2
    9     6     7	5 ;      CG324      NG3P2       HGP2
    6     9    10	5 ;      NG3P2      CG324     CG2R61
    6     9    49	5 ;      NG3P2      CG324       HGA2
    6     9    50	5 ;      NG3P2      CG324       HGA2
   10     9    49	5 ;     CG2R61      CG324       HGA2
   10     9    50	5 ;     CG2R61      CG324       HGA2
   49     9    50	5 ;       HGA2      CG324       HGA2
    9    10    11	5 ;      CG324     CG2R61     CG2R61
    9    10    15	5 ;      CG324     CG2R61     CG2R61
   11    10    15	5 ;     CG2R61     CG2R61     CG2R61
   10    11    12	5 ;     CG2R61     CG2R61     CG2R61
   10    11    51	5 ;     CG2R61     CG2R61      HGR61
   12    11    51	5 ;     CG2R61     CG2R61      HGR61
   11    12    16	5 ;     CG2R61     CG2R61      CG311
   11    12    13	5 ;     CG2R61     CG2R61     CG2R61
   16    12    13	5 ;      CG311     CG2R61     CG2R61
   12    13    14	5 ;     CG2R61     CG2R61     CG2R61
   12    13    52	5 ;     CG2R61     CG2R61      HGR61
   14    13    52	5 ;     CG2R61     CG2R61      HGR61
   15    14    13	5 ;     CG2R61     CG2R61     CG2R61
   15    14    53	5 ;     CG2R61     CG2R61      HGR61
   13    14    53	5 ;     CG2R61     CG2R61      HGR61
   10    15    14	5 ;     CG2R61     CG2R61     CG2R61
   10    15    54	5 ;     CG2R61     CG2R61      HGR61
   14    15    54	5 ;     CG2R61     CG2R61      HGR61
   17    16    12	5 ;      CG331      CG311     CG2R61
   17    16    18	5 ;      CG331      CG311      CG331
   17    16    55	5 ;      CG331      CG311       HGA1
   12    16    18	5 ;     CG2R61      CG311      CG331
   12    16    55	5 ;     CG2R61      CG311       HGA1
   18    16    55	5 ;      CG331      CG311       HGA1
   16    17    56	5 ;      CG311      CG331       HGA3
   16    17    57	5 ;      CG311      CG331       HGA3
   16    17    58	5 ;      CG311      CG331       HGA3
   56    17    57	5 ;       HGA3      CG331       HGA3
   56    17    58	5 ;       HGA3      CG331       HGA3
   57    17    58	5 ;       HGA3      CG331       HGA3
   16    18    59	5 ;      CG311      CG331       HGA3
   16    18    60	5 ;      CG311      CG331       HGA3
   16    18    61	5 ;      CG311      CG331       HGA3
   59    18    60	5 ;       HGA3      CG331       HGA3
   59    18    61	5 ;       HGA3      CG331       HGA3
   60    18    61	5 ;       HGA3      CG331       HGA3
    1    19    22	5 ;      CG311      NG2S1       HGP1
    1    19    20	5 ;      CG311      NG2S1      CG2O1
   22    19    20	5 ;       HGP1      NG2S1      CG2O1
   19    20    21	5 ;      NG2S1      CG2O1      OG2D1
   19    20    23	5 ;      NG2S1      CG2O1      CG311
   21    20    23	5 ;      OG2D1      CG2O1      CG311
   20    23    28	5 ;      CG2O1      CG311      CG321
   20    23    24	5 ;      CG2O1      CG311      CG321
   20    23    62	5 ;      CG2O1      CG311       HGA1
   28    23    24	5 ;      CG321      CG311      CG321
   28    23    62	5 ;      CG321      CG311       HGA1
   24    23    62	5 ;      CG321      CG311       HGA1
   23    24    25	5 ;      CG311      CG321      CG311
   23    24    63	5 ;      CG311      CG321       HGA2
   23    24    64	5 ;      CG311      CG321       HGA2
   25    24    63	5 ;      CG311      CG321       HGA2
   25    24    64	5 ;      CG311      CG321       HGA2
   63    24    64	5 ;       HGA2      CG321       HGA2
   24    25    26	5 ;      CG321      CG311      CG321
   24    25    29	5 ;      CG321      CG311      CG301
   24    25    65	5 ;      CG321      CG311       HGA1
   26    25    29	5 ;      CG321      CG311      CG301
   26    25    65	5 ;      CG321      CG311       HGA1
   29    25    65	5 ;      CG301      CG311       HGA1
   27    26    25	5 ;      CG321      CG321      CG311
   27    26    66	5 ;      CG321      CG321       HGA2
   27    26    67	5 ;      CG321      CG321       HGA2
   25    26    66	5 ;      CG311      CG321       HGA2
   25    26    67	5 ;      CG311      CG321       HGA2
   66    26    67	5 ;       HGA2      CG321       HGA2
   28    27    26	5 ;      CG321      CG321      CG321
   28    27    68	5 ;      CG321      CG321       HGA2
   28    27    69	5 ;      CG321      CG321       HGA2
   26    27    68	5 ;      CG321      CG321       HGA2
   26    27    69	5 ;      CG321      CG321       HGA2
   68    27    69	5 ;       HGA2      CG321       HGA2
   23    28    27	5 ;      CG311      CG321      CG321
   23    28    70	5 ;      CG311      CG321       HGA2
   23    28    71	5 ;      CG311      CG321       HGA2
   27    28    70	5 ;      CG321      CG321       HGA2
   27    28    71	5 ;      CG321      CG321       HGA2
   70    28    71	5 ;       HGA2      CG321       HGA2
   32    29    30	5 ;      NG2S1      CG301      CG331
   32    29    25	5 ;      NG2S1      CG301      CG311
   32    29    31	5 ;      NG2S1      CG301      CG331
   30    29    25	5 ;      CG331      CG301      CG311
   30    29    31	5 ;      CG331      CG301      CG331
   25    29    31	5 ;      CG311      CG301      CG331
   29    30    72	5 ;      CG301      CG331       HGA3
   29    30    73	5 ;      CG301      CG331       HGA3
   29    30    74	5 ;      CG301      CG331       HGA3
   72    30    73	5 ;       HGA3      CG331       HGA3
   72    30    74	5 ;       HGA3      CG331       HGA3
   73    30    74	5 ;       HGA3      CG331       HGA3
   29    31    75	5 ;      CG301      CG331       HGA3
   29    31    76	5 ;      CG301      CG331       HGA3
   29    31    77	5 ;      CG301      CG331       HGA3
   75    31    76	5 ;       HGA3      CG331       HGA3
   75    31    77	5 ;       HGA3      CG331       HGA3
   76    31    77	5 ;       HGA3      CG331       HGA3
   33    32    35	5 ;      CG2O1      NG2S1       HGP1
   33    32    29	5 ;      CG2O1      NG2S1      CG301
   35    32    29	5 ;       HGP1      NG2S1      CG301
   36    33    34	5 ;      CG321      CG2O1      OG2D1
   36    33    32	5 ;      CG321      CG2O1      NG2S1
   34    33    32	5 ;      OG2D1      CG2O1      NG2S1
   37    36    33	5 ;      CG331      CG321      CG2O1
   37    36    78	5 ;      CG331      CG321       HGA2
   37    36    79	5 ;      CG331      CG321       HGA2
   33    36    78	5 ;      CG2O1      CG321       HGA2
   33    36    79	5 ;      CG2O1      CG321       HGA2
   78    36    79	5 ;       HGA2      CG321       HGA2
   36    37    80	5 ;      CG321      CG331       HGA3
   36    37    81	5 ;      CG321      CG331       HGA3
   36    37    82	5 ;      CG321      CG331       HGA3
   80    37    81	5 ;       HGA3      CG331       HGA3
   80    37    82	5 ;       HGA3      CG331       HGA3
   81    37    82	5 ;       HGA3      CG331       HGA3
   39    38     1	5 ;     CG2R61      CG321      CG311
   39    38    83	5 ;     CG2R61      CG321       HGA2
   39    38    84	5 ;     CG2R61      CG321       HGA2
    1    38    83	5 ;      CG311      CG321       HGA2
    1    38    84	5 ;      CG311      CG321       HGA2
   83    38    84	5 ;       HGA2      CG321       HGA2
   40    39    38	5 ;     CG2R61     CG2R61      CG321
   40    39    44	5 ;     CG2R61     CG2R61     CG2R61
   38    39    44	5 ;      CG321     CG2R61     CG2R61
   41    40    39	5 ;     CG2R61     CG2R61     CG2R61
   41    40    85	5 ;     CG2R61     CG2R61      HGR61
   39    40    85	5 ;     CG2R61     CG2R61      HGR61
   40    41    42	5 ;     CG2R61     CG2R61     CG2R61
   40    41    86	5 ;     CG2R61     CG2R61      HGR61
   42    41    86	5 ;     CG2R61     CG2R61      HGR61
   41    42    43	5 ;     CG2R61     CG2R61     CG2R61
   41    42    87	5 ;     CG2R61     CG2R61      HGR61
   43    42    87	5 ;     CG2R61     CG2R61      HGR61
   42    43    44	5 ;     CG2R61     CG2R61     CG2R61
   42    43    88	5 ;     CG2R61     CG2R61      HGR61
   44    43    88	5 ;     CG2R61     CG2R61      HGR61
   39    44    43	5 ;     CG2R61     CG2R61     CG2R61
   39    44    89	5 ;     CG2R61     CG2R61      HGR61
   43    44    89	5 ;     CG2R61     CG2R61      HGR61

[ dihedrals ]
;	ai	  aj	ak	  al funct			  c0			c1			  c2			c3			  c4			c5
   38     1     2     5	 9 ;      CG321      CG311      CG311      CG324
   38     1     2     3	 9 ;      CG321      CG311      CG311      OG311
   38     1     2    46	 9 ;      CG321      CG311      CG311       HGA1
   19     1     2     5	 9 ;      NG2S1      CG311      CG311      CG324
   19     1     2     3	 9 ;      NG2S1      CG311      CG311      OG311
   19     1     2    46	 9 ;      NG2S1      CG311      CG311       HGA1
   45     1     2     5	 9 ;       HGA1      CG311      CG311      CG324
   45     1     2     3	 9 ;       HGA1      CG311      CG311      OG311
   45     1     2    46	 9 ;       HGA1      CG311      CG311       HGA1
    2     1    38    39	 9 ;      CG311      CG311      CG321     CG2R61
    2     1    38    83	 9 ;      CG311      CG311      CG321       HGA2
    2     1    38    84	 9 ;      CG311      CG311      CG321       HGA2
   19     1    38    39	 9 ;      NG2S1      CG311      CG321     CG2R61
   19     1    38    83	 9 ;      NG2S1      CG311      CG321       HGA2
   19     1    38    84	 9 ;      NG2S1      CG311      CG321       HGA2
   45     1    38    39	 9 ;       HGA1      CG311      CG321     CG2R61
   45     1    38    83	 9 ;       HGA1      CG311      CG321       HGA2
   45     1    38    84	 9 ;       HGA1      CG311      CG321       HGA2
    2     1    19    22	 9 ;      CG311      CG311      NG2S1       HGP1
    2     1    19    20	 9 ;      CG311      CG311      NG2S1      CG2O1
   38     1    19    22	 9 ;      CG321      CG311      NG2S1       HGP1
   38     1    19    20	 9 ;      CG321      CG311      NG2S1      CG2O1
   45     1    19    22	 9 ;       HGA1      CG311      NG2S1       HGP1
   45     1    19    20	 9 ;       HGA1      CG311      NG2S1      CG2O1
    3     2     5     6	 9 ;      OG311      CG311      CG324      NG3P2
    3     2     5    47	 9 ;      OG311      CG311      CG324       HGA2
    3     2     5    48	 9 ;      OG311      CG311      CG324       HGA2
    1     2     5     6	 9 ;      CG311      CG311      CG324      NG3P2
    1     2     5    47	 9 ;      CG311      CG311      CG324       HGA2
    1     2     5    48	 9 ;      CG311      CG311      CG324       HGA2
   46     2     5     6	 9 ;       HGA1      CG311      CG324      NG3P2
   46     2     5    47	 9 ;       HGA1      CG311      CG324       HGA2
   46     2     5    48	 9 ;       HGA1      CG311      CG324       HGA2
    5     2     3     4	 9 ;      CG324      CG311      OG311       HGP1
    1     2     3     4	 9 ;      CG311      CG311      OG311       HGP1
   46     2     3     4	 9 ;       HGA1      CG311      OG311       HGP1
    2     5     6     8	 9 ;      CG311      CG324      NG3P2       HGP2
    2     5     6     9	 9 ;      CG311      CG324      NG3P2      CG324
    2     5     6     7	 9 ;      CG311      CG324      NG3P2       HGP2
   47     5     6     8	 9 ;       HGA2      CG324      NG3P2       HGP2
   47     5     6     9	 9 ;       HGA2      CG324      NG3P2      CG324
   47     5     6     7	 9 ;       HGA2      CG324      NG3P2       HGP2
   48     5     6     8	 9 ;       HGA2      CG324      NG3P2       HGP2
   48     5     6     9	 9 ;       HGA2      CG324      NG3P2      CG324
   48     5     6     7	 9 ;       HGA2      CG324      NG3P2       HGP2
    5     6     9    10	 9 ;      CG324      NG3P2      CG324     CG2R61
    5     6     9    49	 9 ;      CG324      NG3P2      CG324       HGA2
    5     6     9    50	 9 ;      CG324      NG3P2      CG324       HGA2
    8     6     9    10	 9 ;       HGP2      NG3P2      CG324     CG2R61
    8     6     9    49	 9 ;       HGP2      NG3P2      CG324       HGA2
    8     6     9    50	 9 ;       HGP2      NG3P2      CG324       HGA2
    7     6     9    10	 9 ;       HGP2      NG3P2      CG324     CG2R61
    7     6     9    49	 9 ;       HGP2      NG3P2      CG324       HGA2
    7     6     9    50	 9 ;       HGP2      NG3P2      CG324       HGA2
    6     9    10    11	 9 ;      NG3P2      CG324     CG2R61     CG2R61
    6     9    10    15	 9 ;      NG3P2      CG324     CG2R61     CG2R61
   49     9    10    11	 9 ;       HGA2      CG324     CG2R61     CG2R61
   49     9    10    15	 9 ;       HGA2      CG324     CG2R61     CG2R61
   50     9    10    11	 9 ;       HGA2      CG324     CG2R61     CG2R61
   50     9    10    15	 9 ;       HGA2      CG324     CG2R61     CG2R61
    9    10    11    12	 9 ;      CG324     CG2R61     CG2R61     CG2R61
    9    10    11    51	 9 ;      CG324     CG2R61     CG2R61      HGR61
   15    10    11    12	 9 ;     CG2R61     CG2R61     CG2R61     CG2R61
   15    10    11    51	 9 ;     CG2R61     CG2R61     CG2R61      HGR61
    9    10    15    14	 9 ;      CG324     CG2R61     CG2R61     CG2R61
    9    10    15    54	 9 ;      CG324     CG2R61     CG2R61      HGR61
   11    10    15    14	 9 ;     CG2R61     CG2R61     CG2R61     CG2R61
   11    10    15    54	 9 ;     CG2R61     CG2R61     CG2R61      HGR61
   10    11    12    16	 9 ;     CG2R61     CG2R61     CG2R61      CG311
   10    11    12    13	 9 ;     CG2R61     CG2R61     CG2R61     CG2R61
   51    11    12    16	 9 ;      HGR61     CG2R61     CG2R61      CG311
   51    11    12    13	 9 ;      HGR61     CG2R61     CG2R61     CG2R61
   11    12    16    17	 9 ;     CG2R61     CG2R61      CG311      CG331
   11    12    16    18	 9 ;     CG2R61     CG2R61      CG311      CG331
   11    12    16    55	 9 ;     CG2R61     CG2R61      CG311       HGA1
   13    12    16    17	 9 ;     CG2R61     CG2R61      CG311      CG331
   13    12    16    18	 9 ;     CG2R61     CG2R61      CG311      CG331
   13    12    16    55	 9 ;     CG2R61     CG2R61      CG311       HGA1
   11    12    13    14	 9 ;     CG2R61     CG2R61     CG2R61     CG2R61
   11    12    13    52	 9 ;     CG2R61     CG2R61     CG2R61      HGR61
   16    12    13    14	 9 ;      CG311     CG2R61     CG2R61     CG2R61
   16    12    13    52	 9 ;      CG311     CG2R61     CG2R61      HGR61
   12    13    14    15	 9 ;     CG2R61     CG2R61     CG2R61     CG2R61
   12    13    14    53	 9 ;     CG2R61     CG2R61     CG2R61      HGR61
   52    13    14    15	 9 ;      HGR61     CG2R61     CG2R61     CG2R61
   52    13    14    53	 9 ;      HGR61     CG2R61     CG2R61      HGR61
   13    14    15    10	 9 ;     CG2R61     CG2R61     CG2R61     CG2R61
   13    14    15    54	 9 ;     CG2R61     CG2R61     CG2R61      HGR61
   53    14    15    10	 9 ;      HGR61     CG2R61     CG2R61     CG2R61
   53    14    15    54	 9 ;      HGR61     CG2R61     CG2R61      HGR61
   12    16    17    56	 9 ;     CG2R61      CG311      CG331       HGA3
   12    16    17    57	 9 ;     CG2R61      CG311      CG331       HGA3
   12    16    17    58	 9 ;     CG2R61      CG311      CG331       HGA3
   18    16    17    56	 9 ;      CG331      CG311      CG331       HGA3
   18    16    17    57	 9 ;      CG331      CG311      CG331       HGA3
   18    16    17    58	 9 ;      CG331      CG311      CG331       HGA3
   55    16    17    56	 9 ;       HGA1      CG311      CG331       HGA3
   55    16    17    57	 9 ;       HGA1      CG311      CG331       HGA3
   55    16    17    58	 9 ;       HGA1      CG311      CG331       HGA3
   17    16    18    59	 9 ;      CG331      CG311      CG331       HGA3
   17    16    18    60	 9 ;      CG331      CG311      CG331       HGA3
   17    16    18    61	 9 ;      CG331      CG311      CG331       HGA3
   12    16    18    59	 9 ;     CG2R61      CG311      CG331       HGA3
   12    16    18    60	 9 ;     CG2R61      CG311      CG331       HGA3
   12    16    18    61	 9 ;     CG2R61      CG311      CG331       HGA3
   55    16    18    59	 9 ;       HGA1      CG311      CG331       HGA3
   55    16    18    60	 9 ;       HGA1      CG311      CG331       HGA3
   55    16    18    61	 9 ;       HGA1      CG311      CG331       HGA3
    1    19    20    21	 9 ;      CG311      NG2S1      CG2O1      OG2D1
    1    19    20    23	 9 ;      CG311      NG2S1      CG2O1      CG311
   22    19    20    21	 9 ;       HGP1      NG2S1      CG2O1      OG2D1
   22    19    20    23	 9 ;       HGP1      NG2S1      CG2O1      CG311
   19    20    23    28	 9 ;      NG2S1      CG2O1      CG311      CG321
   19    20    23    24	 9 ;      NG2S1      CG2O1      CG311      CG321
   19    20    23    62	 9 ;      NG2S1      CG2O1      CG311       HGA1
   21    20    23    28	 9 ;      OG2D1      CG2O1      CG311      CG321
   21    20    23    24	 9 ;      OG2D1      CG2O1      CG311      CG321
   21    20    23    62	 9 ;      OG2D1      CG2O1      CG311       HGA1
   20    23    28    27	 9 ;      CG2O1      CG311      CG321      CG321
   20    23    28    70	 9 ;      CG2O1      CG311      CG321       HGA2
   20    23    28    71	 9 ;      CG2O1      CG311      CG321       HGA2
   24    23    28    27	 9 ;      CG321      CG311      CG321      CG321
   24    23    28    70	 9 ;      CG321      CG311      CG321       HGA2
   24    23    28    71	 9 ;      CG321      CG311      CG321       HGA2
   62    23    28    27	 9 ;       HGA1      CG311      CG321      CG321
   62    23    28    70	 9 ;       HGA1      CG311      CG321       HGA2
   62    23    28    71	 9 ;       HGA1      CG311      CG321       HGA2
   20    23    24    25	 9 ;      CG2O1      CG311      CG321      CG311
   20    23    24    63	 9 ;      CG2O1      CG311      CG321       HGA2
   20    23    24    64	 9 ;      CG2O1      CG311      CG321       HGA2
   28    23    24    25	 9 ;      CG321      CG311      CG321      CG311
   28    23    24    63	 9 ;      CG321      CG311      CG321       HGA2
   28    23    24    64	 9 ;      CG321      CG311      CG321       HGA2
   62    23    24    25	 9 ;       HGA1      CG311      CG321      CG311
   62    23    24    63	 9 ;       HGA1      CG311      CG321       HGA2
   62    23    24    64	 9 ;       HGA1      CG311      CG321       HGA2
   23    24    25    26	 9 ;      CG311      CG321      CG311      CG321
   23    24    25    29	 9 ;      CG311      CG321      CG311      CG301
   23    24    25    65	 9 ;      CG311      CG321      CG311       HGA1
   63    24    25    26	 9 ;       HGA2      CG321      CG311      CG321
   63    24    25    29	 9 ;       HGA2      CG321      CG311      CG301
   63    24    25    65	 9 ;       HGA2      CG321      CG311       HGA1
   64    24    25    26	 9 ;       HGA2      CG321      CG311      CG321
   64    24    25    29	 9 ;       HGA2      CG321      CG311      CG301
   64    24    25    65	 9 ;       HGA2      CG321      CG311       HGA1
   24    25    26    27	 9 ;      CG321      CG311      CG321      CG321
   24    25    26    66	 9 ;      CG321      CG311      CG321       HGA2
   24    25    26    67	 9 ;      CG321      CG311      CG321       HGA2
   29    25    26    27	 9 ;      CG301      CG311      CG321      CG321
   29    25    26    66	 9 ;      CG301      CG311      CG321       HGA2
   29    25    26    67	 9 ;      CG301      CG311      CG321       HGA2
   65    25    26    27	 9 ;       HGA1      CG311      CG321      CG321
   65    25    26    66	 9 ;       HGA1      CG311      CG321       HGA2
   65    25    26    67	 9 ;       HGA1      CG311      CG321       HGA2
   24    25    29    32	 9 ;      CG321      CG311      CG301      NG2S1
   24    25    29    30	 9 ;      CG321      CG311      CG301      CG331
   24    25    29    31	 9 ;      CG321      CG311      CG301      CG331
   26    25    29    32	 9 ;      CG321      CG311      CG301      NG2S1
   26    25    29    30	 9 ;      CG321      CG311      CG301      CG331
   26    25    29    31	 9 ;      CG321      CG311      CG301      CG331
   65    25    29    32	 9 ;       HGA1      CG311      CG301      NG2S1
   65    25    29    30	 9 ;       HGA1      CG311      CG301      CG331
   65    25    29    31	 9 ;       HGA1      CG311      CG301      CG331
   25    26    27    28	 9 ;      CG311      CG321      CG321      CG321
   25    26    27    68	 9 ;      CG311      CG321      CG321       HGA2
   25    26    27    69	 9 ;      CG311      CG321      CG321       HGA2
   66    26    27    28	 9 ;       HGA2      CG321      CG321      CG321
   66    26    27    68	 9 ;       HGA2      CG321      CG321       HGA2
   66    26    27    69	 9 ;       HGA2      CG321      CG321       HGA2
   67    26    27    28	 9 ;       HGA2      CG321      CG321      CG321
   67    26    27    68	 9 ;       HGA2      CG321      CG321       HGA2
   67    26    27    69	 9 ;       HGA2      CG321      CG321       HGA2
   26    27    28    23	 9 ;      CG321      CG321      CG321      CG311
   26    27    28    70	 9 ;      CG321      CG321      CG321       HGA2
   26    27    28    71	 9 ;      CG321      CG321      CG321       HGA2
   68    27    28    23	 9 ;       HGA2      CG321      CG321      CG311
   68    27    28    70	 9 ;       HGA2      CG321      CG321       HGA2
   68    27    28    71	 9 ;       HGA2      CG321      CG321       HGA2
   69    27    28    23	 9 ;       HGA2      CG321      CG321      CG311
   69    27    28    70	 9 ;       HGA2      CG321      CG321       HGA2
   69    27    28    71	 9 ;       HGA2      CG321      CG321       HGA2
   30    29    32    33	 9 ;      CG331      CG301      NG2S1      CG2O1
   30    29    32    35	 9 ;      CG331      CG301      NG2S1       HGP1
   25    29    32    33	 9 ;      CG311      CG301      NG2S1      CG2O1
   25    29    32    35	 9 ;      CG311      CG301      NG2S1       HGP1
   31    29    32    33	 9 ;      CG331      CG301      NG2S1      CG2O1
   31    29    32    35	 9 ;      CG331      CG301      NG2S1       HGP1
   32    29    30    72	 9 ;      NG2S1      CG301      CG331       HGA3
   32    29    30    73	 9 ;      NG2S1      CG301      CG331       HGA3
   32    29    30    74	 9 ;      NG2S1      CG301      CG331       HGA3
   25    29    30    72	 9 ;      CG311      CG301      CG331       HGA3
   25    29    30    73	 9 ;      CG311      CG301      CG331       HGA3
   25    29    30    74	 9 ;      CG311      CG301      CG331       HGA3
   31    29    30    72	 9 ;      CG331      CG301      CG331       HGA3
   31    29    30    73	 9 ;      CG331      CG301      CG331       HGA3
   31    29    30    74	 9 ;      CG331      CG301      CG331       HGA3
   32    29    31    75	 9 ;      NG2S1      CG301      CG331       HGA3
   32    29    31    76	 9 ;      NG2S1      CG301      CG331       HGA3
   32    29    31    77	 9 ;      NG2S1      CG301      CG331       HGA3
   30    29    31    75	 9 ;      CG331      CG301      CG331       HGA3
   30    29    31    76	 9 ;      CG331      CG301      CG331       HGA3
   30    29    31    77	 9 ;      CG331      CG301      CG331       HGA3
   25    29    31    75	 9 ;      CG311      CG301      CG331       HGA3
   25    29    31    76	 9 ;      CG311      CG301      CG331       HGA3
   25    29    31    77	 9 ;      CG311      CG301      CG331       HGA3
   35    32    33    36	 9 ;       HGP1      NG2S1      CG2O1      CG321
   35    32    33    34	 9 ;       HGP1      NG2S1      CG2O1      OG2D1
   29    32    33    36	 9 ;      CG301      NG2S1      CG2O1      CG321
   29    32    33    34	 9 ;      CG301      NG2S1      CG2O1      OG2D1
   34    33    36    37	 9 ;      OG2D1      CG2O1      CG321      CG331
   34    33    36    78	 9 ;      OG2D1      CG2O1      CG321       HGA2
   34    33    36    79	 9 ;      OG2D1      CG2O1      CG321       HGA2
   32    33    36    37	 9 ;      NG2S1      CG2O1      CG321      CG331
   32    33    36    78	 9 ;      NG2S1      CG2O1      CG321       HGA2
   32    33    36    79	 9 ;      NG2S1      CG2O1      CG321       HGA2
   33    36    37    80	 9 ;      CG2O1      CG321      CG331       HGA3
   33    36    37    81	 9 ;      CG2O1      CG321      CG331       HGA3
   33    36    37    82	 9 ;      CG2O1      CG321      CG331       HGA3
   78    36    37    80	 9 ;       HGA2      CG321      CG331       HGA3
   78    36    37    81	 9 ;       HGA2      CG321      CG331       HGA3
   78    36    37    82	 9 ;       HGA2      CG321      CG331       HGA3
   79    36    37    80	 9 ;       HGA2      CG321      CG331       HGA3
   79    36    37    81	 9 ;       HGA2      CG321      CG331       HGA3
   79    36    37    82	 9 ;       HGA2      CG321      CG331       HGA3
    1    38    39    40	 9 ;      CG311      CG321     CG2R61     CG2R61
    1    38    39    44	 9 ;      CG311      CG321     CG2R61     CG2R61
   83    38    39    40	 9 ;       HGA2      CG321     CG2R61     CG2R61
   83    38    39    44	 9 ;       HGA2      CG321     CG2R61     CG2R61
   84    38    39    40	 9 ;       HGA2      CG321     CG2R61     CG2R61
   84    38    39    44	 9 ;       HGA2      CG321     CG2R61     CG2R61
   38    39    40    41	 9 ;      CG321     CG2R61     CG2R61     CG2R61
   38    39    40    85	 9 ;      CG321     CG2R61     CG2R61      HGR61
   44    39    40    41	 9 ;     CG2R61     CG2R61     CG2R61     CG2R61
   44    39    40    85	 9 ;     CG2R61     CG2R61     CG2R61      HGR61
   40    39    44    43	 9 ;     CG2R61     CG2R61     CG2R61     CG2R61
   40    39    44    89	 9 ;     CG2R61     CG2R61     CG2R61      HGR61
   38    39    44    43	 9 ;      CG321     CG2R61     CG2R61     CG2R61
   38    39    44    89	 9 ;      CG321     CG2R61     CG2R61      HGR61
   39    40    41    42	 9 ;     CG2R61     CG2R61     CG2R61     CG2R61
   39    40    41    86	 9 ;     CG2R61     CG2R61     CG2R61      HGR61
   85    40    41    42	 9 ;      HGR61     CG2R61     CG2R61     CG2R61
   85    40    41    86	 9 ;      HGR61     CG2R61     CG2R61      HGR61
   40    41    42    43	 9 ;     CG2R61     CG2R61     CG2R61     CG2R61
   40    41    42    87	 9 ;     CG2R61     CG2R61     CG2R61      HGR61
   86    41    42    43	 9 ;      HGR61     CG2R61     CG2R61     CG2R61
   86    41    42    87	 9 ;      HGR61     CG2R61     CG2R61      HGR61
   41    42    43    44	 9 ;     CG2R61     CG2R61     CG2R61     CG2R61
   41    42    43    88	 9 ;     CG2R61     CG2R61     CG2R61      HGR61
   87    42    43    44	 9 ;      HGR61     CG2R61     CG2R61     CG2R61
   87    42    43    88	 9 ;      HGR61     CG2R61     CG2R61      HGR61
   42    43    44    39	 9 ;     CG2R61     CG2R61     CG2R61     CG2R61
   42    43    44    89	 9 ;     CG2R61     CG2R61     CG2R61      HGR61
   88    43    44    39	 9 ;      HGR61     CG2R61     CG2R61     CG2R61
   88    43    44    89	 9 ;      HGR61     CG2R61     CG2R61      HGR61

[ dihedrals ]
;	ai	  aj	ak	  al funct			  c0			c1			  c2			c3
   20    23    19    21	 2
   33    36    32    34	 2

