Gyas ROwers Mature At Cryogenic Speed
   89
    1LIG     C1    1  -1.363   0.590  -1.887
    1LIG     C2    2  -1.274   0.537  -2.007
    1LIG     O1    3  -1.344   0.451  -2.098
    1LIG     H1    4  -1.311   0.470  -2.188
    1LIG     C3    5  -1.148   0.455  -1.967
    1LIG     N1    6  -1.178   0.352  -1.858
    1LIG     H2    7  -1.275   0.363  -1.826
    1LIG     H3    8  -1.173   0.259  -1.903
    1LIG     C4    9  -1.089   0.350  -1.737
    1LIG     C5   10  -1.151   0.282  -1.616
    1LIG     C6   11  -1.127   0.146  -1.589
    1LIG     C7   12  -1.174   0.083  -1.471
    1LIG     C8   13  -1.250   0.160  -1.382
    1LIG     C9   14  -1.278   0.294  -1.408
    1LIG    C10   15  -1.229   0.355  -1.524
    1LIG    C11   16  -1.140  -0.061  -1.435
    1LIG    C12   17  -0.990  -0.091  -1.441
    1LIG    C13   18  -1.195  -0.100  -1.297
    1LIG     N2   19  -1.412   0.492  -1.785
    1LIG    C14   20  -1.543   0.481  -1.743
    1LIG     O2   21  -1.631   0.543  -1.799
    1LIG     H4   22  -1.344   0.462  -1.717
    1LIG    C15   23  -1.573   0.376  -1.630
    1LIG    C16   24  -1.678   0.405  -1.521
    1LIG    C17   25  -1.830   0.389  -1.555
    1LIG    C18   26  -1.853   0.266  -1.646
    1LIG    C19   27  -1.748   0.243  -1.753
    1LIG    C20   28  -1.607   0.241  -1.695
    1LIG    C21   29  -1.906   0.521  -1.595
    1LIG    C22   30  -1.964   0.514  -1.737
    1LIG    C23   31  -2.026   0.549  -1.501
    1LIG     N3   32  -1.818   0.639  -1.574
    1LIG    C24   33  -1.831   0.767  -1.623
    1LIG     O3   34  -1.922   0.806  -1.695
    1LIG     H5   35  -1.731   0.619  -1.526
    1LIG    C25   36  -1.720   0.860  -1.577
    1LIG    C26   37  -1.587   0.789  -1.558
    1LIG    C27   38  -1.307   0.715  -1.814
    1LIG    C28   39  -1.199   0.707  -1.707
    1LIG    C29   40  -1.065   0.721  -1.748
    1LIG    C30   41  -0.964   0.752  -1.656
    1LIG    C31   42  -0.996   0.767  -1.521
    1LIG    C32   43  -1.126   0.746  -1.478
    1LIG    C33   44  -1.227   0.715  -1.570
    1LIG     HC   45  -1.454   0.627  -1.935
    1LIG    HC1   46  -1.240   0.624  -2.063
    1LIG    HC2   47  -1.111   0.403  -2.056
    1LIG    HC3   48  -1.071   0.524  -1.932
    1LIG    HC4   49  -0.998   0.296  -1.763
    1LIG    HC5   50  -1.064   0.452  -1.711
    1LIG    HC6   51  -1.070   0.087  -1.660
    1LIG    HC7   52  -1.288   0.115  -1.291
    1LIG    HC8   53  -1.338   0.351  -1.339
    1LIG    HC9   54  -1.250   0.459  -1.543
    1LIG   HC10   55  -1.189  -0.125  -1.508
    1LIG   HC11   56  -0.951  -0.063  -1.539
    1LIG   HC12   57  -0.973  -0.197  -1.424
    1LIG   HC13   58  -0.938  -0.033  -1.364
    1LIG   HC14   59  -1.164  -0.201  -1.273
    1LIG   HC15   60  -1.155  -0.031  -1.222
    1LIG   HC16   61  -1.304  -0.093  -1.298
    1LIG   HC17   62  -1.478   0.361  -1.578
    1LIG   HC18   63  -1.663   0.508  -1.488
    1LIG   HC19   64  -1.656   0.340  -1.436
    1LIG   HC20   65  -1.875   0.361  -1.460
    1LIG   HC21   66  -1.949   0.279  -1.696
    1LIG   HC22   67  -1.859   0.177  -1.583
    1LIG   HC23   68  -1.767   0.147  -1.801
    1LIG   HC24   69  -1.754   0.322  -1.828
    1LIG   HC25   70  -1.535   0.221  -1.774
    1LIG   HC26   71  -1.600   0.163  -1.619
    1LIG   HC27   72  -2.004   0.612  -1.764
    1LIG   HC28   73  -2.044   0.440  -1.740
    1LIG   HC29   74  -1.886   0.486  -1.807
    1LIG   HC30   75  -1.990   0.555  -1.398
    1LIG   HC31   76  -2.073   0.643  -1.529
    1LIG   HC32   77  -2.099   0.468  -1.510
    1LIG   HC33   78  -1.707   0.939  -1.651
    1LIG   HC34   79  -1.749   0.905  -1.482
    1LIG   HC35   80  -1.506   0.861  -1.570
    1LIG   HC36   81  -1.577   0.710  -1.632
    1LIG   HC37   82  -1.583   0.747  -1.458
    1LIG   HC38   83  -1.392   0.764  -1.767
    1LIG   HC39   84  -1.270   0.783  -1.891
    1LIG   HC40   85  -1.040   0.708  -1.852
    1LIG   HC41   86  -0.862   0.763  -1.689
    1LIG   HC42   87  -0.919   0.796  -1.451
    1LIG   HC43   88  -1.150   0.754  -1.373
    1LIG   HC44   89  -1.327   0.696  -1.534
   0.00000   0.00000   0.00000
