Great Red Oystrich Makes All Chemists Sane
   79
    1LIG      S    1  -1.857   0.691  -1.559
    1LIG     O1    2  -1.793   0.756  -1.673
    1LIG     O2    3  -1.999   0.701  -1.536
    1LIG     C1    4  -1.810   0.520  -1.561
    1LIG     C2    5  -1.657   0.500  -1.555
    1LIG     C3    6  -1.594   0.578  -1.436
    1LIG     C4    7  -1.624   0.731  -1.429
    1LIG     C5    8  -1.774   0.755  -1.418
    1LIG     C6    9  -1.589   0.519  -1.694
    1LIG     C7   10  -1.505   0.403  -1.740
    1LIG     C8   11  -1.476   0.297  -1.652
    1LIG     C9   12  -1.389   0.193  -1.686
    1LIG    C10   13  -1.341   0.185  -1.817
    1LIG    C11   14  -1.374   0.287  -1.907
    1LIG     F1   15  -1.325   0.285  -2.032
    1LIG    C12   16  -1.456   0.395  -1.870
    1LIG     O3   17  -1.350   0.095  -1.599
    1LIG    C13   18  -1.227   0.117  -1.526
    1LIG    C14   19  -1.252   0.170  -1.384
    1LIG     F2   20  -1.138   0.209  -1.322
    1LIG     F3   21  -1.338   0.274  -1.379
    1LIG     F4   22  -1.304   0.070  -1.308
    1LIG    C15   23  -1.150  -0.015  -1.516
    1LIG     O4   24  -1.207  -0.113  -1.603
    1LIG    C16   25  -1.201  -0.243  -1.543
    1LIG    C17   26  -1.229  -0.232  -1.394
    1LIG     N1   27  -1.243   0.089  -1.851
    1LIG     H1   28  -1.274  -0.007  -1.836
    1LIG     H2   29  -1.153   0.109  -1.808
    1LIG     O5   30  -1.647   0.520  -1.316
    1LIG     H3   31  -1.588   0.541  -1.241
    1LIG     N2   32  -1.556   0.806  -1.542
    1LIG     H4   33  -1.576   0.758  -1.631
    1LIG     H5   34  -1.593   0.902  -1.549
    1LIG    C18   35  -1.407   0.827  -1.538
    1LIG    C19   36  -1.341   0.786  -1.666
    1LIG    C20   37  -1.230   0.700  -1.660
    1LIG    C21   38  -1.182   0.633  -1.773
    1LIG    C22   39  -1.243   0.665  -1.896
    1LIG    C23   40  -1.346   0.759  -1.905
    1LIG    C24   41  -1.398   0.817  -1.789
    1LIG    C25   42  -1.079   0.520  -1.759
    1LIG    C26   43  -1.120   0.433  -1.638
    1LIG    C27   44  -1.071   0.432  -1.885
    1LIG    C28   45  -0.935   0.572  -1.732
    1LIG    HC2   46  -1.847   0.473  -1.652
    1LIG    HC3   47  -1.855   0.470  -1.474
    1LIG     HC   48  -1.643   0.395  -1.531
    1LIG    HC1   49  -1.487   0.563  -1.438
    1LIG    HC4   50  -1.580   0.767  -1.336
    1LIG    HC5   51  -1.793   0.862  -1.411
    1LIG    HC6   52  -1.813   0.706  -1.329
    1LIG    HC7   53  -1.668   0.536  -1.768
    1LIG    HC8   54  -1.526   0.608  -1.690
    1LIG    HC9   55  -1.522   0.296  -1.554
    1LIG   HC10   56  -1.480   0.471  -1.943
    1LIG   HC11   57  -1.166   0.190  -1.581
    1LIG   HC12   58  -1.153  -0.051  -1.413
    1LIG   HC13   59  -1.046   0.002  -1.544
    1LIG   HC14   60  -1.102  -0.286  -1.558
    1LIG   HC15   61  -1.276  -0.308  -1.589
    1LIG   HC16   62  -1.386   0.932  -1.520
    1LIG   HC17   63  -1.365   0.768  -1.456
    1LIG   HC18   64  -1.180   0.686  -1.566
    1LIG   HC19   65  -1.208   0.616  -1.986
    1LIG   HC20   66  -1.387   0.785  -2.001
    1LIG   HC21   67  -1.480   0.887  -1.796
    1LIG   HC22   68  -1.170   0.394  -1.908
    1LIG   HC23   69  -1.035   0.492  -1.969
    1LIG   HC24   70  -1.003   0.349  -1.867
    1LIG   HC25   71  -1.221   0.395  -1.654
    1LIG   HC26   72  -1.118   0.493  -1.548
    1LIG   HC27   73  -1.051   0.349  -1.628
    1LIG   HC28   74  -0.935   0.635  -1.643
    1LIG   HC29   75  -0.868   0.487  -1.716
    1LIG   HC30   76  -0.900   0.630  -1.817
    1LIG   HC31   77  -1.273  -0.325  -1.358
    1LIG   HC32   78  -1.298  -0.149  -1.376
    1LIG   HC33   79  -1.135  -0.213  -1.341
   0.00000   0.00000   0.00000
