; Created by cgenff_charmm2gmx.py

[ moleculetype ]
; Name			   nrexcl
LIG				 3

[ atoms ]
;	 nr		  type	resnr residue  atom   cgnr	   charge		mass  typeB    chargeB		massB
; residue	 1 LIG rtp LIG q	qsum
     1      SG3O2      1    LIG      S      1      0.113     32.060   ;
     2      OG2P1      1    LIG     O1      2     -0.300     15.999   ;
     3      OG2P1      1    LIG     O2      3     -0.300     15.999   ;
     4      CG321      1    LIG     C1      4      0.180     12.011   ;
     5      CG311      1    LIG     C2      5     -0.145     12.011   ;
     6      CG311      1    LIG     C3      6      0.100     12.011   ;
     7      CG314      1    LIG     C4      7     -0.043     12.011   ;
     8      CG321      1    LIG     C5      8      0.224     12.011   ;
     9      CG321      1    LIG     C6      9     -0.108     12.011   ;
    10     CG2R61      1    LIG     C7     10      0.006     12.011   ;
    11     CG2R61      1    LIG     C8     11     -0.111     12.011   ;
    12     CG2R61      1    LIG     C9     12      0.227     12.011   ;
    13     CG2R61      1    LIG    C10     13     -0.028     12.011   ;
    14     CG2R66      1    LIG    C11     14      0.028     12.011   ;
    15       FGR1      1    LIG     F1     15     -0.230     18.998   ;
    16     CG2R61      1    LIG    C12     16     -0.121     12.011   ;
    17      OG301      1    LIG     O3     17     -0.317     15.999   ;
    18      CG311      1    LIG    C13     18      0.349     12.011   ;
    19      CG302      1    LIG    C14     19      0.178     12.011   ;
    20       FGA3      1    LIG     F2     20     -0.115     18.998   ;
    21       FGA3      1    LIG     F3     21     -0.115     18.998   ;
    22       FGA3      1    LIG     F4     22     -0.115     18.998   ;
    23      CG321      1    LIG    C15     23     -0.044     12.011   ;
    24      OG301      1    LIG     O4     24     -0.336     15.999   ;
    25      CG321      1    LIG    C16     25      0.001     12.011   ;
    26      CG331      1    LIG    C17     26     -0.270     12.011   ;
    27      NG2S3      1    LIG     N1     27     -0.731     14.007   ;
    28       HGP4      1    LIG     H1     28      0.357      1.008   ;
    29       HGP4      1    LIG     H2     29      0.357      1.008   ;
    30      OG311      1    LIG     O5     30     -0.595     15.999   ;
    31       HGP1      1    LIG     H3     31      0.422      1.008   ;
    32      NG3P2      1    LIG     N2     32     -0.444     14.007   ;
    33       HGP2      1    LIG     H4     33      0.346      1.008   ;
    34       HGP2      1    LIG     H5     34      0.346      1.008   ;
    35      CG324      1    LIG    C18     35      0.178     12.011   ;
    36     CG2R61      1    LIG    C19     36      0.036     12.011   ;
    37     CG2R61      1    LIG    C20     37     -0.124     12.011   ;
    38     CG2R61      1    LIG    C21     38      0.084     12.011   ;
    39     CG2R61      1    LIG    C22     39     -0.121     12.011   ;
    40     CG2R61      1    LIG    C23     40     -0.108     12.011   ;
    41     CG2R61      1    LIG    C24     41     -0.119     12.011   ;
    42      CG301      1    LIG    C25     42     -0.018     12.011   ;
    43      CG331      1    LIG    C26     43     -0.289     12.011   ;
    44      CG331      1    LIG    C27     44     -0.289     12.011   ;
    45      CG331      1    LIG    C28     45     -0.289     12.011   ;
    46       HGA2      1    LIG    HC2     46      0.090      1.008   ;
    47       HGA2      1    LIG    HC3     47      0.090      1.008   ;
    48       HGA1      1    LIG     HC     48      0.090      1.008   ;
    49       HGA1      1    LIG    HC1     49      0.090      1.008   ;
    50       HGA1      1    LIG    HC4     50      0.109      1.008   ;
    51       HGA2      1    LIG    HC5     51      0.090      1.008   ;
    52       HGA2      1    LIG    HC6     52      0.090      1.008   ;
    53       HGA2      1    LIG    HC7     53      0.090      1.008   ;
    54       HGA2      1    LIG    HC8     54      0.090      1.008   ;
    55      HGR61      1    LIG    HC9     55      0.116      1.008   ;
    56      HGR62      1    LIG   HC10     56      0.174      1.008   ;
    57       HGA1      1    LIG   HC11     57      0.090      1.008   ;
    58       HGA2      1    LIG   HC12     58      0.090      1.008   ;
    59       HGA2      1    LIG   HC13     59      0.090      1.008   ;
    60       HGA2      1    LIG   HC14     60      0.090      1.008   ;
    61       HGA2      1    LIG   HC15     61      0.090      1.008   ;
    62       HGA2      1    LIG   HC16     62      0.090      1.008   ;
    63       HGA2      1    LIG   HC17     63      0.090      1.008   ;
    64      HGR61      1    LIG   HC18     64      0.116      1.008   ;
    65      HGR61      1    LIG   HC19     65      0.116      1.008   ;
    66      HGR61      1    LIG   HC20     66      0.116      1.008   ;
    67      HGR61      1    LIG   HC21     67      0.116      1.008   ;
    68       HGA3      1    LIG   HC22     68      0.090      1.008   ;
    69       HGA3      1    LIG   HC23     69      0.090      1.008   ;
    70       HGA3      1    LIG   HC24     70      0.090      1.008   ;
    71       HGA3      1    LIG   HC25     71      0.090      1.008   ;
    72       HGA3      1    LIG   HC26     72      0.090      1.008   ;
    73       HGA3      1    LIG   HC27     73      0.090      1.008   ;
    74       HGA3      1    LIG   HC28     74      0.090      1.008   ;
    75       HGA3      1    LIG   HC29     75      0.090      1.008   ;
    76       HGA3      1    LIG   HC30     76      0.090      1.008   ;
    77       HGA3      1    LIG   HC31     77      0.090      1.008   ;
    78       HGA3      1    LIG   HC32     78      0.090      1.008   ;
    79       HGA3      1    LIG   HC33     79      0.090      1.008   ;

[ bonds ]
;	ai	  aj funct			  c0			c1			  c2			c3
    1     2	 1 ;       SG3O2      OG2P1
    1     4	 1 ;       SG3O2      CG321
    1     8	 1 ;       SG3O2      CG321
    1     3	 1 ;       SG3O2      OG2P1
    4     5	 1 ;       CG321      CG311
    4    46	 1 ;       CG321       HGA2
    4    47	 1 ;       CG321       HGA2
    5     9	 1 ;       CG311      CG321
    5     6	 1 ;       CG311      CG311
    5    48	 1 ;       CG311       HGA1
    6     7	 1 ;       CG311      CG314
    6    30	 1 ;       CG311      OG311
    6    49	 1 ;       CG311       HGA1
    7    32	 1 ;       CG314      NG3P2
    7     8	 1 ;       CG314      CG321
    7    50	 1 ;       CG314       HGA1
    8    51	 1 ;       CG321       HGA2
    8    52	 1 ;       CG321       HGA2
    9    10	 1 ;       CG321     CG2R61
    9    53	 1 ;       CG321       HGA2
    9    54	 1 ;       CG321       HGA2
   10    16	 1 ;      CG2R61     CG2R61
   10    11	 1 ;      CG2R61     CG2R61
   11    12	 1 ;      CG2R61     CG2R61
   11    55	 1 ;      CG2R61      HGR61
   12    13	 1 ;      CG2R61     CG2R61
   12    17	 1 ;      CG2R61      OG301
   13    27	 1 ;      CG2R61      NG2S3
   13    14	 1 ;      CG2R61     CG2R66
   14    15	 1 ;      CG2R66       FGR1
   14    16	 1 ;      CG2R66     CG2R61
   16    56	 1 ;      CG2R61      HGR62
   17    18	 1 ;       OG301      CG311
   18    23	 1 ;       CG311      CG321
   18    19	 1 ;       CG311      CG302
   18    57	 1 ;       CG311       HGA1
   19    20	 1 ;       CG302       FGA3
   19    21	 1 ;       CG302       FGA3
   19    22	 1 ;       CG302       FGA3
   23    24	 1 ;       CG321      OG301
   23    58	 1 ;       CG321       HGA2
   23    59	 1 ;       CG321       HGA2
   24    25	 1 ;       OG301      CG321
   25    26	 1 ;       CG321      CG331
   25    60	 1 ;       CG321       HGA2
   25    61	 1 ;       CG321       HGA2
   26    77	 1 ;       CG331       HGA3
   26    78	 1 ;       CG331       HGA3
   26    79	 1 ;       CG331       HGA3
   27    29	 1 ;       NG2S3       HGP4
   27    28	 1 ;       NG2S3       HGP4
   30    31	 1 ;       OG311       HGP1
   32    33	 1 ;       NG3P2       HGP2
   32    35	 1 ;       NG3P2      CG324
   32    34	 1 ;       NG3P2       HGP2
   35    36	 1 ;       CG324     CG2R61
   35    62	 1 ;       CG324       HGA2
   35    63	 1 ;       CG324       HGA2
   36    41	 1 ;      CG2R61     CG2R61
   36    37	 1 ;      CG2R61     CG2R61
   37    38	 1 ;      CG2R61     CG2R61
   37    64	 1 ;      CG2R61      HGR61
   38    39	 1 ;      CG2R61     CG2R61
   38    42	 1 ;      CG2R61      CG301
   39    40	 1 ;      CG2R61     CG2R61
   39    65	 1 ;      CG2R61      HGR61
   40    41	 1 ;      CG2R61     CG2R61
   40    66	 1 ;      CG2R61      HGR61
   41    67	 1 ;      CG2R61      HGR61
   42    44	 1 ;       CG301      CG331
   42    45	 1 ;       CG301      CG331
   42    43	 1 ;       CG301      CG331
   43    71	 1 ;       CG331       HGA3
   43    72	 1 ;       CG331       HGA3
   43    73	 1 ;       CG331       HGA3
   44    68	 1 ;       CG331       HGA3
   44    69	 1 ;       CG331       HGA3
   44    70	 1 ;       CG331       HGA3
   45    74	 1 ;       CG331       HGA3
   45    75	 1 ;       CG331       HGA3
   45    76	 1 ;       CG331       HGA3

[ pairs ]
;	ai	  aj funct			  c0			c1			  c2			c3
    1     9	 1
    1     6	 1
    1    48	 1
    1    32	 1
    1    50	 1
    2     5	 1
    2    46	 1
    2    47	 1
    2     7	 1
    2    51	 1
    2    52	 1
    3     5	 1
    3    46	 1
    3    47	 1
    3     7	 1
    3    51	 1
    3    52	 1
    4     7	 1
    4    51	 1
    4    52	 1
    4    10	 1
    4    53	 1
    4    54	 1
    4    30	 1
    4    49	 1
    5     8	 1
    5    32	 1
    5    50	 1
    5    31	 1
    5    16	 1
    5    11	 1
    6    46	 1
    6    47	 1
    6    10	 1
    6    53	 1
    6    54	 1
    6    33	 1
    6    35	 1
    6    34	 1
    6    51	 1
    6    52	 1
    7     9	 1
    7    48	 1
    7    31	 1
    7    36	 1
    7    62	 1
    7    63	 1
    8    46	 1
    8    47	 1
    8    30	 1
    8    49	 1
    8    33	 1
    8    35	 1
    8    34	 1
    9    46	 1
    9    47	 1
    9    30	 1
    9    49	 1
    9    14	 1
    9    56	 1
    9    12	 1
    9    55	 1
   10    48	 1
   10    13	 1
   10    17	 1
   10    15	 1
   11    53	 1
   11    54	 1
   11    14	 1
   11    56	 1
   11    27	 1
   11    18	 1
   12    16	 1
   12    29	 1
   12    28	 1
   12    15	 1
   12    23	 1
   12    19	 1
   12    57	 1
   13    55	 1
   13    18	 1
   13    56	 1
   14    17	 1
   14    29	 1
   14    28	 1
   15    27	 1
   15    56	 1
   16    53	 1
   16    54	 1
   16    55	 1
   16    27	 1
   17    55	 1
   17    27	 1
   17    24	 1
   17    58	 1
   17    59	 1
   17    20	 1
   17    21	 1
   17    22	 1
   18    25	 1
   19    24	 1
   19    58	 1
   19    59	 1
   20    23	 1
   20    57	 1
   21    23	 1
   21    57	 1
   22    23	 1
   22    57	 1
   23    26	 1
   23    60	 1
   23    61	 1
   24    57	 1
   24    77	 1
   24    78	 1
   24    79	 1
   25    58	 1
   25    59	 1
   30    48	 1
   30    32	 1
   30    50	 1
   31    49	 1
   32    49	 1
   32    51	 1
   32    52	 1
   32    41	 1
   32    37	 1
   33    50	 1
   33    36	 1
   33    62	 1
   33    63	 1
   34    50	 1
   34    36	 1
   34    62	 1
   34    63	 1
   35    50	 1
   35    40	 1
   35    67	 1
   35    38	 1
   35    64	 1
   36    39	 1
   36    42	 1
   36    66	 1
   37    62	 1
   37    63	 1
   37    40	 1
   37    67	 1
   37    65	 1
   37    44	 1
   37    45	 1
   37    43	 1
   38    41	 1
   38    66	 1
   38    68	 1
   38    69	 1
   38    70	 1
   38    74	 1
   38    75	 1
   38    76	 1
   38    71	 1
   38    72	 1
   38    73	 1
   39    64	 1
   39    44	 1
   39    45	 1
   39    43	 1
   39    67	 1
   40    42	 1
   41    62	 1
   41    63	 1
   41    64	 1
   41    65	 1
   42    64	 1
   42    65	 1
   43    68	 1
   43    69	 1
   43    70	 1
   43    74	 1
   43    75	 1
   43    76	 1
   44    74	 1
   44    75	 1
   44    76	 1
   44    71	 1
   44    72	 1
   44    73	 1
   45    68	 1
   45    69	 1
   45    70	 1
   45    71	 1
   45    72	 1
   45    73	 1
   46    48	 1
   47    48	 1
   48    53	 1
   48    54	 1
   48    49	 1
   49    50	 1
   50    51	 1
   50    52	 1
   57    58	 1
   57    59	 1
   60    77	 1
   60    78	 1
   60    79	 1
   61    77	 1
   61    78	 1
   61    79	 1
   65    66	 1
   66    67	 1

[ angles ]
;	ai	  aj	ak funct			c0			  c1			c2			  c3
    2     1     4	5 ;      OG2P1      SG3O2      CG321
    2     1     8	5 ;      OG2P1      SG3O2      CG321
    2     1     3	5 ;      OG2P1      SG3O2      OG2P1
    4     1     8	5 ;      CG321      SG3O2      CG321
    4     1     3	5 ;      CG321      SG3O2      OG2P1
    8     1     3	5 ;      CG321      SG3O2      OG2P1
    5     4     1	5 ;      CG311      CG321      SG3O2
    5     4    46	5 ;      CG311      CG321       HGA2
    5     4    47	5 ;      CG311      CG321       HGA2
    1     4    46	5 ;      SG3O2      CG321       HGA2
    1     4    47	5 ;      SG3O2      CG321       HGA2
   46     4    47	5 ;       HGA2      CG321       HGA2
    9     5     4	5 ;      CG321      CG311      CG321
    9     5     6	5 ;      CG321      CG311      CG311
    9     5    48	5 ;      CG321      CG311       HGA1
    4     5     6	5 ;      CG321      CG311      CG311
    4     5    48	5 ;      CG321      CG311       HGA1
    6     5    48	5 ;      CG311      CG311       HGA1
    5     6     7	5 ;      CG311      CG311      CG314
    5     6    30	5 ;      CG311      CG311      OG311
    5     6    49	5 ;      CG311      CG311       HGA1
    7     6    30	5 ;      CG314      CG311      OG311
    7     6    49	5 ;      CG314      CG311       HGA1
   30     6    49	5 ;      OG311      CG311       HGA1
   32     7     6	5 ;      NG3P2      CG314      CG311
   32     7     8	5 ;      NG3P2      CG314      CG321
   32     7    50	5 ;      NG3P2      CG314       HGA1
    6     7     8	5 ;      CG311      CG314      CG321
    6     7    50	5 ;      CG311      CG314       HGA1
    8     7    50	5 ;      CG321      CG314       HGA1
    1     8     7	5 ;      SG3O2      CG321      CG314
    1     8    51	5 ;      SG3O2      CG321       HGA2
    1     8    52	5 ;      SG3O2      CG321       HGA2
    7     8    51	5 ;      CG314      CG321       HGA2
    7     8    52	5 ;      CG314      CG321       HGA2
   51     8    52	5 ;       HGA2      CG321       HGA2
   10     9     5	5 ;     CG2R61      CG321      CG311
   10     9    53	5 ;     CG2R61      CG321       HGA2
   10     9    54	5 ;     CG2R61      CG321       HGA2
    5     9    53	5 ;      CG311      CG321       HGA2
    5     9    54	5 ;      CG311      CG321       HGA2
   53     9    54	5 ;       HGA2      CG321       HGA2
   16    10    11	5 ;     CG2R61     CG2R61     CG2R61
   16    10     9	5 ;     CG2R61     CG2R61      CG321
   11    10     9	5 ;     CG2R61     CG2R61      CG321
   12    11    10	5 ;     CG2R61     CG2R61     CG2R61
   12    11    55	5 ;     CG2R61     CG2R61      HGR61
   10    11    55	5 ;     CG2R61     CG2R61      HGR61
   13    12    17	5 ;     CG2R61     CG2R61      OG301
   13    12    11	5 ;     CG2R61     CG2R61     CG2R61
   17    12    11	5 ;      OG301     CG2R61     CG2R61
   27    13    14	5 ;      NG2S3     CG2R61     CG2R66
   27    13    12	5 ;      NG2S3     CG2R61     CG2R61
   14    13    12	5 ;     CG2R66     CG2R61     CG2R61
   15    14    13	5 ;       FGR1     CG2R66     CG2R61
   15    14    16	5 ;       FGR1     CG2R66     CG2R61
   13    14    16	5 ;     CG2R61     CG2R66     CG2R61
   14    16    10	5 ;     CG2R66     CG2R61     CG2R61
   14    16    56	5 ;     CG2R66     CG2R61      HGR62
   10    16    56	5 ;     CG2R61     CG2R61      HGR62
   12    17    18	5 ;     CG2R61      OG301      CG311
   23    18    17	5 ;      CG321      CG311      OG301
   23    18    19	5 ;      CG321      CG311      CG302
   23    18    57	5 ;      CG321      CG311       HGA1
   17    18    19	5 ;      OG301      CG311      CG302
   17    18    57	5 ;      OG301      CG311       HGA1
   19    18    57	5 ;      CG302      CG311       HGA1
   18    19    20	5 ;      CG311      CG302       FGA3
   18    19    21	5 ;      CG311      CG302       FGA3
   18    19    22	5 ;      CG311      CG302       FGA3
   20    19    21	5 ;       FGA3      CG302       FGA3
   20    19    22	5 ;       FGA3      CG302       FGA3
   21    19    22	5 ;       FGA3      CG302       FGA3
   24    23    18	5 ;      OG301      CG321      CG311
   24    23    58	5 ;      OG301      CG321       HGA2
   24    23    59	5 ;      OG301      CG321       HGA2
   18    23    58	5 ;      CG311      CG321       HGA2
   18    23    59	5 ;      CG311      CG321       HGA2
   58    23    59	5 ;       HGA2      CG321       HGA2
   25    24    23	5 ;      CG321      OG301      CG321
   24    25    26	5 ;      OG301      CG321      CG331
   24    25    60	5 ;      OG301      CG321       HGA2
   24    25    61	5 ;      OG301      CG321       HGA2
   26    25    60	5 ;      CG331      CG321       HGA2
   26    25    61	5 ;      CG331      CG321       HGA2
   60    25    61	5 ;       HGA2      CG321       HGA2
   25    26    77	5 ;      CG321      CG331       HGA3
   25    26    78	5 ;      CG321      CG331       HGA3
   25    26    79	5 ;      CG321      CG331       HGA3
   77    26    78	5 ;       HGA3      CG331       HGA3
   77    26    79	5 ;       HGA3      CG331       HGA3
   78    26    79	5 ;       HGA3      CG331       HGA3
   29    27    28	5 ;       HGP4      NG2S3       HGP4
   29    27    13	5 ;       HGP4      NG2S3     CG2R61
   28    27    13	5 ;       HGP4      NG2S3     CG2R61
    6    30    31	5 ;      CG311      OG311       HGP1
   33    32    35	5 ;       HGP2      NG3P2      CG324
   33    32    34	5 ;       HGP2      NG3P2       HGP2
   33    32     7	5 ;       HGP2      NG3P2      CG314
   35    32    34	5 ;      CG324      NG3P2       HGP2
   35    32     7	5 ;      CG324      NG3P2      CG314
   34    32     7	5 ;       HGP2      NG3P2      CG314
   36    35    32	5 ;     CG2R61      CG324      NG3P2
   36    35    62	5 ;     CG2R61      CG324       HGA2
   36    35    63	5 ;     CG2R61      CG324       HGA2
   32    35    62	5 ;      NG3P2      CG324       HGA2
   32    35    63	5 ;      NG3P2      CG324       HGA2
   62    35    63	5 ;       HGA2      CG324       HGA2
   41    36    37	5 ;     CG2R61     CG2R61     CG2R61
   41    36    35	5 ;     CG2R61     CG2R61      CG324
   37    36    35	5 ;     CG2R61     CG2R61      CG324
   38    37    36	5 ;     CG2R61     CG2R61     CG2R61
   38    37    64	5 ;     CG2R61     CG2R61      HGR61
   36    37    64	5 ;     CG2R61     CG2R61      HGR61
   39    38    42	5 ;     CG2R61     CG2R61      CG301
   39    38    37	5 ;     CG2R61     CG2R61     CG2R61
   42    38    37	5 ;      CG301     CG2R61     CG2R61
   40    39    38	5 ;     CG2R61     CG2R61     CG2R61
   40    39    65	5 ;     CG2R61     CG2R61      HGR61
   38    39    65	5 ;     CG2R61     CG2R61      HGR61
   39    40    41	5 ;     CG2R61     CG2R61     CG2R61
   39    40    66	5 ;     CG2R61     CG2R61      HGR61
   41    40    66	5 ;     CG2R61     CG2R61      HGR61
   40    41    36	5 ;     CG2R61     CG2R61     CG2R61
   40    41    67	5 ;     CG2R61     CG2R61      HGR61
   36    41    67	5 ;     CG2R61     CG2R61      HGR61
   44    42    45	5 ;      CG331      CG301      CG331
   44    42    38	5 ;      CG331      CG301     CG2R61
   44    42    43	5 ;      CG331      CG301      CG331
   45    42    38	5 ;      CG331      CG301     CG2R61
   45    42    43	5 ;      CG331      CG301      CG331
   38    42    43	5 ;     CG2R61      CG301      CG331
   42    43    71	5 ;      CG301      CG331       HGA3
   42    43    72	5 ;      CG301      CG331       HGA3
   42    43    73	5 ;      CG301      CG331       HGA3
   71    43    72	5 ;       HGA3      CG331       HGA3
   71    43    73	5 ;       HGA3      CG331       HGA3
   72    43    73	5 ;       HGA3      CG331       HGA3
   42    44    68	5 ;      CG301      CG331       HGA3
   42    44    69	5 ;      CG301      CG331       HGA3
   42    44    70	5 ;      CG301      CG331       HGA3
   68    44    69	5 ;       HGA3      CG331       HGA3
   68    44    70	5 ;       HGA3      CG331       HGA3
   69    44    70	5 ;       HGA3      CG331       HGA3
   42    45    74	5 ;      CG301      CG331       HGA3
   42    45    75	5 ;      CG301      CG331       HGA3
   42    45    76	5 ;      CG301      CG331       HGA3
   74    45    75	5 ;       HGA3      CG331       HGA3
   74    45    76	5 ;       HGA3      CG331       HGA3
   75    45    76	5 ;       HGA3      CG331       HGA3

[ dihedrals ]
;	ai	  aj	ak	  al funct			  c0			c1			  c2			c3			  c4			c5
    2     1     4     5	 9 ;      OG2P1      SG3O2      CG321      CG311
    2     1     4    46	 9 ;      OG2P1      SG3O2      CG321       HGA2
    2     1     4    47	 9 ;      OG2P1      SG3O2      CG321       HGA2
    8     1     4     5	 9 ;      CG321      SG3O2      CG321      CG311
    8     1     4    46	 9 ;      CG321      SG3O2      CG321       HGA2
    8     1     4    47	 9 ;      CG321      SG3O2      CG321       HGA2
    3     1     4     5	 9 ;      OG2P1      SG3O2      CG321      CG311
    3     1     4    46	 9 ;      OG2P1      SG3O2      CG321       HGA2
    3     1     4    47	 9 ;      OG2P1      SG3O2      CG321       HGA2
    2     1     8     7	 9 ;      OG2P1      SG3O2      CG321      CG314
    2     1     8    51	 9 ;      OG2P1      SG3O2      CG321       HGA2
    2     1     8    52	 9 ;      OG2P1      SG3O2      CG321       HGA2
    4     1     8     7	 9 ;      CG321      SG3O2      CG321      CG314
    4     1     8    51	 9 ;      CG321      SG3O2      CG321       HGA2
    4     1     8    52	 9 ;      CG321      SG3O2      CG321       HGA2
    3     1     8     7	 9 ;      OG2P1      SG3O2      CG321      CG314
    3     1     8    51	 9 ;      OG2P1      SG3O2      CG321       HGA2
    3     1     8    52	 9 ;      OG2P1      SG3O2      CG321       HGA2
    1     4     5     9	 9 ;      SG3O2      CG321      CG311      CG321
    1     4     5     6	 9 ;      SG3O2      CG321      CG311      CG311
    1     4     5    48	 9 ;      SG3O2      CG321      CG311       HGA1
   46     4     5     9	 9 ;       HGA2      CG321      CG311      CG321
   46     4     5     6	 9 ;       HGA2      CG321      CG311      CG311
   46     4     5    48	 9 ;       HGA2      CG321      CG311       HGA1
   47     4     5     9	 9 ;       HGA2      CG321      CG311      CG321
   47     4     5     6	 9 ;       HGA2      CG321      CG311      CG311
   47     4     5    48	 9 ;       HGA2      CG321      CG311       HGA1
    4     5     9    10	 9 ;      CG321      CG311      CG321     CG2R61
    4     5     9    53	 9 ;      CG321      CG311      CG321       HGA2
    4     5     9    54	 9 ;      CG321      CG311      CG321       HGA2
    6     5     9    10	 9 ;      CG311      CG311      CG321     CG2R61
    6     5     9    53	 9 ;      CG311      CG311      CG321       HGA2
    6     5     9    54	 9 ;      CG311      CG311      CG321       HGA2
   48     5     9    10	 9 ;       HGA1      CG311      CG321     CG2R61
   48     5     9    53	 9 ;       HGA1      CG311      CG321       HGA2
   48     5     9    54	 9 ;       HGA1      CG311      CG321       HGA2
    9     5     6     7	 9 ;      CG321      CG311      CG311      CG314
    9     5     6    30	 9 ;      CG321      CG311      CG311      OG311
    9     5     6    49	 9 ;      CG321      CG311      CG311       HGA1
    4     5     6     7	 9 ;      CG321      CG311      CG311      CG314
    4     5     6    30	 9 ;      CG321      CG311      CG311      OG311
    4     5     6    49	 9 ;      CG321      CG311      CG311       HGA1
   48     5     6     7	 9 ;       HGA1      CG311      CG311      CG314
   48     5     6    30	 9 ;       HGA1      CG311      CG311      OG311
   48     5     6    49	 9 ;       HGA1      CG311      CG311       HGA1
    5     6     7    32	 9 ;      CG311      CG311      CG314      NG3P2
    5     6     7     8	 9 ;      CG311      CG311      CG314      CG321
    5     6     7    50	 9 ;      CG311      CG311      CG314       HGA1
   30     6     7    32	 9 ;      OG311      CG311      CG314      NG3P2
   30     6     7     8	 9 ;      OG311      CG311      CG314      CG321
   30     6     7    50	 9 ;      OG311      CG311      CG314       HGA1
   49     6     7    32	 9 ;       HGA1      CG311      CG314      NG3P2
   49     6     7     8	 9 ;       HGA1      CG311      CG314      CG321
   49     6     7    50	 9 ;       HGA1      CG311      CG314       HGA1
    5     6    30    31	 9 ;      CG311      CG311      OG311       HGP1
    7     6    30    31	 9 ;      CG314      CG311      OG311       HGP1
   49     6    30    31	 9 ;       HGA1      CG311      OG311       HGP1
    6     7    32    33	 9 ;      CG311      CG314      NG3P2       HGP2
    6     7    32    35	 9 ;      CG311      CG314      NG3P2      CG324
    6     7    32    34	 9 ;      CG311      CG314      NG3P2       HGP2
    8     7    32    33	 9 ;      CG321      CG314      NG3P2       HGP2
    8     7    32    35	 9 ;      CG321      CG314      NG3P2      CG324
    8     7    32    34	 9 ;      CG321      CG314      NG3P2       HGP2
   50     7    32    33	 9 ;       HGA1      CG314      NG3P2       HGP2
   50     7    32    35	 9 ;       HGA1      CG314      NG3P2      CG324
   50     7    32    34	 9 ;       HGA1      CG314      NG3P2       HGP2
   32     7     8     1	 9 ;      NG3P2      CG314      CG321      SG3O2
   32     7     8    51	 9 ;      NG3P2      CG314      CG321       HGA2
   32     7     8    52	 9 ;      NG3P2      CG314      CG321       HGA2
    6     7     8     1	 9 ;      CG311      CG314      CG321      SG3O2
    6     7     8    51	 9 ;      CG311      CG314      CG321       HGA2
    6     7     8    52	 9 ;      CG311      CG314      CG321       HGA2
   50     7     8     1	 9 ;       HGA1      CG314      CG321      SG3O2
   50     7     8    51	 9 ;       HGA1      CG314      CG321       HGA2
   50     7     8    52	 9 ;       HGA1      CG314      CG321       HGA2
    5     9    10    16	 9 ;      CG311      CG321     CG2R61     CG2R61
    5     9    10    11	 9 ;      CG311      CG321     CG2R61     CG2R61
   53     9    10    16	 9 ;       HGA2      CG321     CG2R61     CG2R61
   53     9    10    11	 9 ;       HGA2      CG321     CG2R61     CG2R61
   54     9    10    16	 9 ;       HGA2      CG321     CG2R61     CG2R61
   54     9    10    11	 9 ;       HGA2      CG321     CG2R61     CG2R61
   11    10    16    14	 9 ;     CG2R61     CG2R61     CG2R61     CG2R66
   11    10    16    56	 9 ;     CG2R61     CG2R61     CG2R61      HGR62
    9    10    16    14	 9 ;      CG321     CG2R61     CG2R61     CG2R66
    9    10    16    56	 9 ;      CG321     CG2R61     CG2R61      HGR62
   16    10    11    12	 9 ;     CG2R61     CG2R61     CG2R61     CG2R61
   16    10    11    55	 9 ;     CG2R61     CG2R61     CG2R61      HGR61
    9    10    11    12	 9 ;      CG321     CG2R61     CG2R61     CG2R61
    9    10    11    55	 9 ;      CG321     CG2R61     CG2R61      HGR61
   10    11    12    13	 9 ;     CG2R61     CG2R61     CG2R61     CG2R61
   10    11    12    17	 9 ;     CG2R61     CG2R61     CG2R61      OG301
   55    11    12    13	 9 ;      HGR61     CG2R61     CG2R61     CG2R61
   55    11    12    17	 9 ;      HGR61     CG2R61     CG2R61      OG301
   17    12    13    27	 9 ;      OG301     CG2R61     CG2R61      NG2S3
   17    12    13    14	 9 ;      OG301     CG2R61     CG2R61     CG2R66
   11    12    13    27	 9 ;     CG2R61     CG2R61     CG2R61      NG2S3
   11    12    13    14	 9 ;     CG2R61     CG2R61     CG2R61     CG2R66
   13    12    17    18	 9 ;     CG2R61     CG2R61      OG301      CG311
   11    12    17    18	 9 ;     CG2R61     CG2R61      OG301      CG311
   14    13    27    29	 9 ;     CG2R66     CG2R61      NG2S3       HGP4
   14    13    27    28	 9 ;     CG2R66     CG2R61      NG2S3       HGP4
   12    13    27    29	 9 ;     CG2R61     CG2R61      NG2S3       HGP4
   12    13    27    28	 9 ;     CG2R61     CG2R61      NG2S3       HGP4
   27    13    14    15	 9 ;      NG2S3     CG2R61     CG2R66       FGR1
   27    13    14    16	 9 ;      NG2S3     CG2R61     CG2R66     CG2R61
   12    13    14    15	 9 ;     CG2R61     CG2R61     CG2R66       FGR1
   12    13    14    16	 9 ;     CG2R61     CG2R61     CG2R66     CG2R61
   15    14    16    10	 9 ;       FGR1     CG2R66     CG2R61     CG2R61
   15    14    16    56	 9 ;       FGR1     CG2R66     CG2R61      HGR62
   13    14    16    10	 9 ;     CG2R61     CG2R66     CG2R61     CG2R61
   13    14    16    56	 9 ;     CG2R61     CG2R66     CG2R61      HGR62
   12    17    18    23	 9 ;     CG2R61      OG301      CG311      CG321
   12    17    18    19	 9 ;     CG2R61      OG301      CG311      CG302
   12    17    18    57	 9 ;     CG2R61      OG301      CG311       HGA1
   17    18    23    24	 9 ;      OG301      CG311      CG321      OG301
   17    18    23    58	 9 ;      OG301      CG311      CG321       HGA2
   17    18    23    59	 9 ;      OG301      CG311      CG321       HGA2
   19    18    23    24	 9 ;      CG302      CG311      CG321      OG301
   19    18    23    58	 9 ;      CG302      CG311      CG321       HGA2
   19    18    23    59	 9 ;      CG302      CG311      CG321       HGA2
   57    18    23    24	 9 ;       HGA1      CG311      CG321      OG301
   57    18    23    58	 9 ;       HGA1      CG311      CG321       HGA2
   57    18    23    59	 9 ;       HGA1      CG311      CG321       HGA2
   23    18    19    20	 9 ;      CG321      CG311      CG302       FGA3
   23    18    19    21	 9 ;      CG321      CG311      CG302       FGA3
   23    18    19    22	 9 ;      CG321      CG311      CG302       FGA3
   17    18    19    20	 9 ;      OG301      CG311      CG302       FGA3
   17    18    19    21	 9 ;      OG301      CG311      CG302       FGA3
   17    18    19    22	 9 ;      OG301      CG311      CG302       FGA3
   57    18    19    20	 9 ;       HGA1      CG311      CG302       FGA3
   57    18    19    21	 9 ;       HGA1      CG311      CG302       FGA3
   57    18    19    22	 9 ;       HGA1      CG311      CG302       FGA3
   18    23    24    25	 9 ;      CG311      CG321      OG301      CG321
   58    23    24    25	 9 ;       HGA2      CG321      OG301      CG321
   59    23    24    25	 9 ;       HGA2      CG321      OG301      CG321
   23    24    25    26	 9 ;      CG321      OG301      CG321      CG331
   23    24    25    60	 9 ;      CG321      OG301      CG321       HGA2
   23    24    25    61	 9 ;      CG321      OG301      CG321       HGA2
   24    25    26    77	 9 ;      OG301      CG321      CG331       HGA3
   24    25    26    78	 9 ;      OG301      CG321      CG331       HGA3
   24    25    26    79	 9 ;      OG301      CG321      CG331       HGA3
   60    25    26    77	 9 ;       HGA2      CG321      CG331       HGA3
   60    25    26    78	 9 ;       HGA2      CG321      CG331       HGA3
   60    25    26    79	 9 ;       HGA2      CG321      CG331       HGA3
   61    25    26    77	 9 ;       HGA2      CG321      CG331       HGA3
   61    25    26    78	 9 ;       HGA2      CG321      CG331       HGA3
   61    25    26    79	 9 ;       HGA2      CG321      CG331       HGA3
   33    32    35    36	 9 ;       HGP2      NG3P2      CG324     CG2R61
   33    32    35    62	 9 ;       HGP2      NG3P2      CG324       HGA2
   33    32    35    63	 9 ;       HGP2      NG3P2      CG324       HGA2
   34    32    35    36	 9 ;       HGP2      NG3P2      CG324     CG2R61
   34    32    35    62	 9 ;       HGP2      NG3P2      CG324       HGA2
   34    32    35    63	 9 ;       HGP2      NG3P2      CG324       HGA2
    7    32    35    36	 9 ;      CG314      NG3P2      CG324     CG2R61
    7    32    35    62	 9 ;      CG314      NG3P2      CG324       HGA2
    7    32    35    63	 9 ;      CG314      NG3P2      CG324       HGA2
   32    35    36    41	 9 ;      NG3P2      CG324     CG2R61     CG2R61
   32    35    36    37	 9 ;      NG3P2      CG324     CG2R61     CG2R61
   62    35    36    41	 9 ;       HGA2      CG324     CG2R61     CG2R61
   62    35    36    37	 9 ;       HGA2      CG324     CG2R61     CG2R61
   63    35    36    41	 9 ;       HGA2      CG324     CG2R61     CG2R61
   63    35    36    37	 9 ;       HGA2      CG324     CG2R61     CG2R61
   37    36    41    40	 9 ;     CG2R61     CG2R61     CG2R61     CG2R61
   37    36    41    67	 9 ;     CG2R61     CG2R61     CG2R61      HGR61
   35    36    41    40	 9 ;      CG324     CG2R61     CG2R61     CG2R61
   35    36    41    67	 9 ;      CG324     CG2R61     CG2R61      HGR61
   41    36    37    38	 9 ;     CG2R61     CG2R61     CG2R61     CG2R61
   41    36    37    64	 9 ;     CG2R61     CG2R61     CG2R61      HGR61
   35    36    37    38	 9 ;      CG324     CG2R61     CG2R61     CG2R61
   35    36    37    64	 9 ;      CG324     CG2R61     CG2R61      HGR61
   36    37    38    39	 9 ;     CG2R61     CG2R61     CG2R61     CG2R61
   36    37    38    42	 9 ;     CG2R61     CG2R61     CG2R61      CG301
   64    37    38    39	 9 ;      HGR61     CG2R61     CG2R61     CG2R61
   64    37    38    42	 9 ;      HGR61     CG2R61     CG2R61      CG301
   42    38    39    40	 9 ;      CG301     CG2R61     CG2R61     CG2R61
   42    38    39    65	 9 ;      CG301     CG2R61     CG2R61      HGR61
   37    38    39    40	 9 ;     CG2R61     CG2R61     CG2R61     CG2R61
   37    38    39    65	 9 ;     CG2R61     CG2R61     CG2R61      HGR61
   39    38    42    44	 9 ;     CG2R61     CG2R61      CG301      CG331
   39    38    42    45	 9 ;     CG2R61     CG2R61      CG301      CG331
   39    38    42    43	 9 ;     CG2R61     CG2R61      CG301      CG331
   37    38    42    44	 9 ;     CG2R61     CG2R61      CG301      CG331
   37    38    42    45	 9 ;     CG2R61     CG2R61      CG301      CG331
   37    38    42    43	 9 ;     CG2R61     CG2R61      CG301      CG331
   38    39    40    41	 9 ;     CG2R61     CG2R61     CG2R61     CG2R61
   38    39    40    66	 9 ;     CG2R61     CG2R61     CG2R61      HGR61
   65    39    40    41	 9 ;      HGR61     CG2R61     CG2R61     CG2R61
   65    39    40    66	 9 ;      HGR61     CG2R61     CG2R61      HGR61
   39    40    41    36	 9 ;     CG2R61     CG2R61     CG2R61     CG2R61
   39    40    41    67	 9 ;     CG2R61     CG2R61     CG2R61      HGR61
   66    40    41    36	 9 ;      HGR61     CG2R61     CG2R61     CG2R61
   66    40    41    67	 9 ;      HGR61     CG2R61     CG2R61      HGR61
   45    42    44    68	 9 ;      CG331      CG301      CG331       HGA3
   45    42    44    69	 9 ;      CG331      CG301      CG331       HGA3
   45    42    44    70	 9 ;      CG331      CG301      CG331       HGA3
   38    42    44    68	 9 ;     CG2R61      CG301      CG331       HGA3
   38    42    44    69	 9 ;     CG2R61      CG301      CG331       HGA3
   38    42    44    70	 9 ;     CG2R61      CG301      CG331       HGA3
   43    42    44    68	 9 ;      CG331      CG301      CG331       HGA3
   43    42    44    69	 9 ;      CG331      CG301      CG331       HGA3
   43    42    44    70	 9 ;      CG331      CG301      CG331       HGA3
   44    42    45    74	 9 ;      CG331      CG301      CG331       HGA3
   44    42    45    75	 9 ;      CG331      CG301      CG331       HGA3
   44    42    45    76	 9 ;      CG331      CG301      CG331       HGA3
   38    42    45    74	 9 ;     CG2R61      CG301      CG331       HGA3
   38    42    45    75	 9 ;     CG2R61      CG301      CG331       HGA3
   38    42    45    76	 9 ;     CG2R61      CG301      CG331       HGA3
   43    42    45    74	 9 ;      CG331      CG301      CG331       HGA3
   43    42    45    75	 9 ;      CG331      CG301      CG331       HGA3
   43    42    45    76	 9 ;      CG331      CG301      CG331       HGA3
   44    42    43    71	 9 ;      CG331      CG301      CG331       HGA3
   44    42    43    72	 9 ;      CG331      CG301      CG331       HGA3
   44    42    43    73	 9 ;      CG331      CG301      CG331       HGA3
   45    42    43    71	 9 ;      CG331      CG301      CG331       HGA3
   45    42    43    72	 9 ;      CG331      CG301      CG331       HGA3
   45    42    43    73	 9 ;      CG331      CG301      CG331       HGA3
   38    42    43    71	 9 ;     CG2R61      CG301      CG331       HGA3
   38    42    43    72	 9 ;     CG2R61      CG301      CG331       HGA3
   38    42    43    73	 9 ;     CG2R61      CG301      CG331       HGA3

[ dihedrals ]
;	ai	  aj	ak	  al funct			  c0			c1			  c2			c3
   27    29    28    13	 2

