; Created by cgenff_charmm2gmx.py

[ moleculetype ]
; Name			   nrexcl
LIG				 3

[ atoms ]
;	 nr		  type	resnr residue  atom   cgnr	   charge		mass  typeB    chargeB		massB
; residue	 1 LIG rtp LIG q	qsum
     1      CG311      1    LIG     C1      1      0.089     12.011   ;
     2      OG311      1    LIG     O1      2     -0.625     15.999   ;
     3       HGP1      1    LIG     H1      3      0.415      1.008   ;
     4      CG324      1    LIG     C2      4      0.191     12.011   ;
     5      NG3P2      1    LIG     N1      5     -0.445     14.007   ;
     6       HGP2      1    LIG     H2      6      0.339      1.008   ;
     7       HGP2      1    LIG     H3      7      0.339      1.008   ;
     8      CG314      1    LIG     C3      8      0.361     12.011   ;
     9     CG2DC1      1    LIG     C4      9     -0.330     12.011   ;
    10     CG2DC1      1    LIG     C5     10     -0.108     12.011   ;
    11      CG311      1    LIG     C6     11      0.450     12.011   ;
    12     CG2DC2      1    LIG     C7     12      0.091     12.011   ;
    13     CG2D2O      1    LIG     C8     13     -0.109     12.011   ;
    14      NG311      1    LIG     N2     14     -0.567     14.007   ;
    15     HGPAM1      1    LIG    HN1     15      0.368      1.008   ;
    16     OG3C61      1    LIG     O2     16     -0.389     15.999   ;
    17     CG3C41      1    LIG     C9     17      0.278     12.011   ;
    18      CG321      1    LIG    C10     18     -0.254     12.011   ;
    19     CG3C41      1    LIG    C11     19     -0.203     12.011   ;
    20     CG3C41      1    LIG    C12     20     -0.203     12.011   ;
    21     CG3C41      1    LIG    C13     21     -0.168     12.011   ;
    22      CG321      1    LIG    C14     22     -0.131     12.011   ;
    23      CG301      1    LIG    C15     23     -0.287     12.011   ;
    24      CG331      1    LIG    C16     24     -0.197     12.011   ;
    25      CG331      1    LIG    C17     25     -0.197     12.011   ;
    26      CG331      1    LIG    C18     26     -0.197     12.011   ;
    27      CG311      1    LIG    C19     27     -0.004     12.011   ;
    28      CG321      1    LIG    C20     28     -0.111     12.011   ;
    29     CG2R61      1    LIG    C21     29     -0.017     12.011   ;
    30     CG2R61      1    LIG    C22     30     -0.119     12.011   ;
    31     CG2R61      1    LIG    C23     31     -0.189     12.011   ;
    32     CG2R61      1    LIG    C24     32     -0.112     12.011   ;
    33     CG2R61      1    LIG    C25     33     -0.110     12.011   ;
    34     CG2R61      1    LIG    C26     34     -0.123     12.011   ;
    35      CG311      1    LIG    C27     35      0.386     12.011   ;
    36      NG311      1    LIG     N3     36     -0.528     14.007   ;
    37     CG2D1O      1    LIG    C28     37     -0.061     12.011   ;
    38     HGPAM1      1    LIG    HN2     38      0.359      1.008   ;
    39     CG2DC1      1    LIG    C29     39     -0.242     12.011   ;
    40     CG2DC2      1    LIG    C30     40     -0.170     12.011   ;
    41     CG2DC2      1    LIG    C31     41     -0.265     12.011   ;
    42      NG2S1      1    LIG     N4     42     -0.388     14.007   ;
    43      CG2O1      1    LIG    C32     43      0.541     12.011   ;
    44      OG2D1      1    LIG     O3     44     -0.453     15.999   ;
    45       HGP1      1    LIG     H4     45      0.281      1.008   ;
    46      CG321      1    LIG    C33     46      0.138     12.011   ;
    47      OG301      1    LIG     O4     47     -0.578     15.999   ;
    48      CG331      1    LIG    C34     48     -0.093     12.011   ;
    49       HGA1      1    LIG     H5     49      0.090      1.008   ;
    50       HGA2      1    LIG     H6     50      0.090      1.008   ;
    51       HGA2      1    LIG     H7     51      0.090      1.008   ;
    52       HGA1      1    LIG     H8     52      0.090      1.008   ;
    53       HGA4      1    LIG     H9     53      0.143      1.008   ;
    54       HGA1      1    LIG    H10     54      0.090      1.008   ;
    55       HGA4      1    LIG    H11     55      0.158      1.008   ;
    56       HGA2      1    LIG    H12     56      0.090      1.008   ;
    57       HGA2      1    LIG    H13     57      0.090      1.008   ;
    58       HGA2      1    LIG    H14     58      0.090      1.008   ;
    59       HGA2      1    LIG    H15     59      0.090      1.008   ;
    60       HGA2      1    LIG    H16     60      0.090      1.008   ;
    61       HGA2      1    LIG    H17     61      0.090      1.008   ;
    62       HGA2      1    LIG    H18     62      0.090      1.008   ;
    63       HGA2      1    LIG    H19     63      0.090      1.008   ;
    64       HGA2      1    LIG    H20     64      0.090      1.008   ;
    65       HGA2      1    LIG    H21     65      0.090      1.008   ;
    66       HGA3      1    LIG    H22     66      0.090      1.008   ;
    67       HGA3      1    LIG    H23     67      0.090      1.008   ;
    68       HGA3      1    LIG    H24     68      0.090      1.008   ;
    69       HGA3      1    LIG    H25     69      0.090      1.008   ;
    70       HGA3      1    LIG    H26     70      0.090      1.008   ;
    71       HGA3      1    LIG    H27     71      0.090      1.008   ;
    72       HGA3      1    LIG    H28     72      0.090      1.008   ;
    73       HGA3      1    LIG    H29     73      0.090      1.008   ;
    74       HGA3      1    LIG    H30     74      0.090      1.008   ;
    75       HGA1      1    LIG    H31     75      0.090      1.008   ;
    76       HGA2      1    LIG    H32     76      0.090      1.008   ;
    77       HGA2      1    LIG    H33     77      0.090      1.008   ;
    78      HGR61      1    LIG    H34     78      0.116      1.008   ;
    79      HGR61      1    LIG    H35     79      0.116      1.008   ;
    80      HGR61      1    LIG    H36     80      0.116      1.008   ;
    81      HGR61      1    LIG    H37     81      0.116      1.008   ;
    82       HGA1      1    LIG    H38     82      0.090      1.008   ;
    83       HGA4      1    LIG    H39     83      0.162      1.008   ;
    84       HGA4      1    LIG    H40     84      0.150      1.008   ;
    85       HGA4      1    LIG    H41     85      0.150      1.008   ;
    86       HGA4      1    LIG    H42     86      0.150      1.008   ;
    87       HGA2      1    LIG    H43     87      0.090      1.008   ;
    88       HGA2      1    LIG    H44     88      0.090      1.008   ;
    89       HGA3      1    LIG    H45     89      0.090      1.008   ;
    90       HGA3      1    LIG    H46     90      0.090      1.008   ;
    91       HGA3      1    LIG    H47     91      0.090      1.008   ;

[ bonds ]
;	ai	  aj funct			  c0			c1			  c2			c3
    1     4	 1 ;       CG311      CG324
    1     2	 1 ;       CG311      OG311
    1    27	 1 ;       CG311      CG311
    1    49	 1 ;       CG311       HGA1
    2     3	 1 ;       OG311       HGP1
    4     5	 1 ;       CG324      NG3P2
    4    50	 1 ;       CG324       HGA2
    4    51	 1 ;       CG324       HGA2
    5     6	 1 ;       NG3P2       HGP2
    5     8	 1 ;       NG3P2      CG314
    5     7	 1 ;       NG3P2       HGP2
    8    18	 1 ;       CG314      CG321
    8     9	 1 ;       CG314     CG2DC1
    8    52	 1 ;       CG314       HGA1
    9    11	 1 ;      CG2DC1      CG311
    9    10	 1 ;      CG2DC1     CG2DC1
   10    12	 1 ;      CG2DC1     CG2DC2
   10    53	 1 ;      CG2DC1       HGA4
   11    16	 1 ;       CG311     OG3C61
   11    14	 1 ;       CG311      NG311
   11    54	 1 ;       CG311       HGA1
   12    13	 1 ;      CG2DC2     CG2D2O
   12    22	 1 ;      CG2DC2      CG321
   13    14	 1 ;      CG2D2O      NG311
   13    55	 1 ;      CG2D2O       HGA4
   14    15	 1 ;       NG311     HGPAM1
   16    17	 1 ;      OG3C61     CG3C41
   17    20	 1 ;      CG3C41     CG3C41
   17    19	 1 ;      CG3C41     CG3C41
   17    18	 1 ;      CG3C41      CG321
   18    56	 1 ;       CG321       HGA2
   18    57	 1 ;       CG321       HGA2
   19    21	 1 ;      CG3C41     CG3C41
   19    58	 1 ;      CG3C41       HGA2
   19    59	 1 ;      CG3C41       HGA2
   20    21	 1 ;      CG3C41     CG3C41
   20    60	 1 ;      CG3C41       HGA2
   20    61	 1 ;      CG3C41       HGA2
   21    62	 1 ;      CG3C41       HGA2
   21    63	 1 ;      CG3C41       HGA2
   22    23	 1 ;       CG321      CG301
   22    64	 1 ;       CG321       HGA2
   22    65	 1 ;       CG321       HGA2
   23    25	 1 ;       CG301      CG331
   23    24	 1 ;       CG301      CG331
   23    26	 1 ;       CG301      CG331
   24    66	 1 ;       CG331       HGA3
   24    67	 1 ;       CG331       HGA3
   24    68	 1 ;       CG331       HGA3
   25    69	 1 ;       CG331       HGA3
   25    70	 1 ;       CG331       HGA3
   25    71	 1 ;       CG331       HGA3
   26    72	 1 ;       CG331       HGA3
   26    73	 1 ;       CG331       HGA3
   26    74	 1 ;       CG331       HGA3
   27    42	 1 ;       CG311      NG2S1
   27    28	 1 ;       CG311      CG321
   27    75	 1 ;       CG311       HGA1
   28    29	 1 ;       CG321     CG2R61
   28    76	 1 ;       CG321       HGA2
   28    77	 1 ;       CG321       HGA2
   29    34	 1 ;      CG2R61     CG2R61
   29    30	 1 ;      CG2R61     CG2R61
   30    31	 1 ;      CG2R61     CG2R61
   30    78	 1 ;      CG2R61      HGR61
   31    32	 1 ;      CG2R61     CG2R61
   31    35	 1 ;      CG2R61      CG311
   32    33	 1 ;      CG2R61     CG2R61
   32    79	 1 ;      CG2R61      HGR61
   33    34	 1 ;      CG2R61     CG2R61
   33    80	 1 ;      CG2R61      HGR61
   34    81	 1 ;      CG2R61      HGR61
   35    36	 1 ;       CG311      NG311
   35    41	 1 ;       CG311     CG2DC2
   35    82	 1 ;       CG311       HGA1
   36    38	 1 ;       NG311     HGPAM1
   36    37	 1 ;       NG311     CG2D1O
   37    39	 1 ;      CG2D1O     CG2DC1
   37    83	 1 ;      CG2D1O       HGA4
   39    40	 1 ;      CG2DC1     CG2DC2
   39    84	 1 ;      CG2DC1       HGA4
   40    41	 1 ;      CG2DC2     CG2DC2
   40    85	 1 ;      CG2DC2       HGA4
   41    86	 1 ;      CG2DC2       HGA4
   42    45	 1 ;       NG2S1       HGP1
   42    43	 1 ;       NG2S1      CG2O1
   43    46	 1 ;       CG2O1      CG321
   43    44	 1 ;       CG2O1      OG2D1
   46    47	 1 ;       CG321      OG301
   46    87	 1 ;       CG321       HGA2
   46    88	 1 ;       CG321       HGA2
   47    48	 1 ;       OG301      CG331
   48    89	 1 ;       CG331       HGA3
   48    90	 1 ;       CG331       HGA3
   48    91	 1 ;       CG331       HGA3

[ pairs ]
;	ai	  aj funct			  c0			c1			  c2			c3
    1     6	 1
    1     8	 1
    1     7	 1
    1    45	 1
    1    43	 1
    1    29	 1
    1    76	 1
    1    77	 1
    2     5	 1
    2    50	 1
    2    51	 1
    2    42	 1
    2    28	 1
    2    75	 1
    3     4	 1
    3    27	 1
    3    49	 1
    4    42	 1
    4    28	 1
    4    75	 1
    4    18	 1
    4     9	 1
    4    52	 1
    5    27	 1
    5    49	 1
    5    17	 1
    5    56	 1
    5    57	 1
    5    11	 1
    5    10	 1
    6    50	 1
    6    51	 1
    6    18	 1
    6     9	 1
    6    52	 1
    7    50	 1
    7    51	 1
    7    18	 1
    7     9	 1
    7    52	 1
    8    50	 1
    8    51	 1
    8    16	 1
    8    14	 1
    8    54	 1
    8    12	 1
    8    53	 1
    8    20	 1
    8    19	 1
    9    17	 1
    9    56	 1
    9    57	 1
    9    13	 1
    9    22	 1
    9    15	 1
   10    18	 1
   10    52	 1
   10    16	 1
   10    14	 1
   10    54	 1
   10    55	 1
   10    23	 1
   10    64	 1
   10    65	 1
   11    18	 1
   11    52	 1
   11    12	 1
   11    53	 1
   11    55	 1
   11    20	 1
   11    19	 1
   12    15	 1
   12    25	 1
   12    24	 1
   12    26	 1
   13    53	 1
   13    16	 1
   13    54	 1
   13    23	 1
   13    64	 1
   13    65	 1
   14    17	 1
   14    22	 1
   15    16	 1
   15    54	 1
   15    55	 1
   16    21	 1
   16    60	 1
   16    61	 1
   16    58	 1
   16    59	 1
   16    56	 1
   16    57	 1
   17    52	 1
   17    54	 1
   17    62	 1
   17    63	 1
   18    21	 1
   18    60	 1
   18    61	 1
   18    58	 1
   18    59	 1
   19    60	 1
   19    61	 1
   19    56	 1
   19    57	 1
   20    58	 1
   20    59	 1
   20    56	 1
   20    57	 1
   22    53	 1
   22    55	 1
   22    69	 1
   22    70	 1
   22    71	 1
   22    66	 1
   22    67	 1
   22    68	 1
   22    72	 1
   22    73	 1
   22    74	 1
   24    64	 1
   24    65	 1
   24    69	 1
   24    70	 1
   24    71	 1
   24    72	 1
   24    73	 1
   24    74	 1
   25    64	 1
   25    65	 1
   25    66	 1
   25    67	 1
   25    68	 1
   25    72	 1
   25    73	 1
   25    74	 1
   26    64	 1
   26    65	 1
   26    69	 1
   26    70	 1
   26    71	 1
   26    66	 1
   26    67	 1
   26    68	 1
   27    50	 1
   27    51	 1
   27    34	 1
   27    30	 1
   27    46	 1
   27    44	 1
   28    49	 1
   28    45	 1
   28    43	 1
   28    33	 1
   28    81	 1
   28    31	 1
   28    78	 1
   29    42	 1
   29    75	 1
   29    32	 1
   29    35	 1
   29    80	 1
   30    76	 1
   30    77	 1
   30    33	 1
   30    81	 1
   30    79	 1
   30    36	 1
   30    41	 1
   30    82	 1
   31    34	 1
   31    80	 1
   31    38	 1
   31    37	 1
   31    40	 1
   31    86	 1
   32    78	 1
   32    36	 1
   32    41	 1
   32    82	 1
   32    81	 1
   33    35	 1
   34    76	 1
   34    77	 1
   34    78	 1
   34    79	 1
   35    78	 1
   35    79	 1
   35    39	 1
   35    83	 1
   35    85	 1
   36    40	 1
   36    86	 1
   36    84	 1
   37    41	 1
   37    82	 1
   37    85	 1
   38    41	 1
   38    82	 1
   38    39	 1
   38    83	 1
   39    86	 1
   40    82	 1
   40    83	 1
   41    84	 1
   42    49	 1
   42    76	 1
   42    77	 1
   42    47	 1
   42    87	 1
   42    88	 1
   43    75	 1
   43    48	 1
   44    45	 1
   44    47	 1
   44    87	 1
   44    88	 1
   45    75	 1
   45    46	 1
   46    89	 1
   46    90	 1
   46    91	 1
   48    87	 1
   48    88	 1
   49    50	 1
   49    51	 1
   49    75	 1
   52    56	 1
   52    57	 1
   58    62	 1
   58    63	 1
   59    62	 1
   59    63	 1
   60    62	 1
   60    63	 1
   61    62	 1
   61    63	 1
   75    76	 1
   75    77	 1
   79    80	 1
   80    81	 1
   82    86	 1
   83    84	 1
   84    85	 1
   85    86	 1

[ angles ]
;	ai	  aj	ak funct			c0			  c1			c2			  c3
    4     1     2	5 ;      CG324      CG311      OG311
    4     1    27	5 ;      CG324      CG311      CG311
    4     1    49	5 ;      CG324      CG311       HGA1
    2     1    27	5 ;      OG311      CG311      CG311
    2     1    49	5 ;      OG311      CG311       HGA1
   27     1    49	5 ;      CG311      CG311       HGA1
    1     2     3	5 ;      CG311      OG311       HGP1
    5     4     1	5 ;      NG3P2      CG324      CG311
    5     4    50	5 ;      NG3P2      CG324       HGA2
    5     4    51	5 ;      NG3P2      CG324       HGA2
    1     4    50	5 ;      CG311      CG324       HGA2
    1     4    51	5 ;      CG311      CG324       HGA2
   50     4    51	5 ;       HGA2      CG324       HGA2
    6     5     8	5 ;       HGP2      NG3P2      CG314
    6     5     7	5 ;       HGP2      NG3P2       HGP2
    6     5     4	5 ;       HGP2      NG3P2      CG324
    8     5     7	5 ;      CG314      NG3P2       HGP2
    8     5     4	5 ;      CG314      NG3P2      CG324
    7     5     4	5 ;       HGP2      NG3P2      CG324
   18     8     9	5 ;      CG321      CG314     CG2DC1
   18     8     5	5 ;      CG321      CG314      NG3P2
   18     8    52	5 ;      CG321      CG314       HGA1
    9     8     5	5 ;     CG2DC1      CG314      NG3P2
    9     8    52	5 ;     CG2DC1      CG314       HGA1
    5     8    52	5 ;      NG3P2      CG314       HGA1
    8     9    11	5 ;      CG314     CG2DC1      CG311
    8     9    10	5 ;      CG314     CG2DC1     CG2DC1
   11     9    10	5 ;      CG311     CG2DC1     CG2DC1
    9    10    12	5 ;     CG2DC1     CG2DC1     CG2DC2
    9    10    53	5 ;     CG2DC1     CG2DC1       HGA4
   12    10    53	5 ;     CG2DC2     CG2DC1       HGA4
   16    11    14	5 ;     OG3C61      CG311      NG311
   16    11     9	5 ;     OG3C61      CG311     CG2DC1
   16    11    54	5 ;     OG3C61      CG311       HGA1
   14    11     9	5 ;      NG311      CG311     CG2DC1
   14    11    54	5 ;      NG311      CG311       HGA1
    9    11    54	5 ;     CG2DC1      CG311       HGA1
   13    12    10	5 ;     CG2D2O     CG2DC2     CG2DC1
   13    12    22	5 ;     CG2D2O     CG2DC2      CG321
   10    12    22	5 ;     CG2DC1     CG2DC2      CG321
   14    13    12	5 ;      NG311     CG2D2O     CG2DC2
   14    13    55	5 ;      NG311     CG2D2O       HGA4
   12    13    55	5 ;     CG2DC2     CG2D2O       HGA4
   15    14    11	5 ;     HGPAM1      NG311      CG311
   15    14    13	5 ;     HGPAM1      NG311     CG2D2O
   11    14    13	5 ;      CG311      NG311     CG2D2O
   17    16    11	5 ;     CG3C41     OG3C61      CG311
   20    17    16	5 ;     CG3C41     CG3C41     OG3C61
   20    17    19	5 ;     CG3C41     CG3C41     CG3C41
   20    17    18	5 ;     CG3C41     CG3C41      CG321
   16    17    19	5 ;     OG3C61     CG3C41     CG3C41
   16    17    18	5 ;     OG3C61     CG3C41      CG321
   19    17    18	5 ;     CG3C41     CG3C41      CG321
   17    18     8	5 ;     CG3C41      CG321      CG314
   17    18    56	5 ;     CG3C41      CG321       HGA2
   17    18    57	5 ;     CG3C41      CG321       HGA2
    8    18    56	5 ;      CG314      CG321       HGA2
    8    18    57	5 ;      CG314      CG321       HGA2
   56    18    57	5 ;       HGA2      CG321       HGA2
   21    19    17	5 ;     CG3C41     CG3C41     CG3C41
   21    19    58	5 ;     CG3C41     CG3C41       HGA2
   21    19    59	5 ;     CG3C41     CG3C41       HGA2
   17    19    58	5 ;     CG3C41     CG3C41       HGA2
   17    19    59	5 ;     CG3C41     CG3C41       HGA2
   58    19    59	5 ;       HGA2     CG3C41       HGA2
   21    20    17	5 ;     CG3C41     CG3C41     CG3C41
   21    20    60	5 ;     CG3C41     CG3C41       HGA2
   21    20    61	5 ;     CG3C41     CG3C41       HGA2
   17    20    60	5 ;     CG3C41     CG3C41       HGA2
   17    20    61	5 ;     CG3C41     CG3C41       HGA2
   60    20    61	5 ;       HGA2     CG3C41       HGA2
   20    21    19	5 ;     CG3C41     CG3C41     CG3C41
   20    21    62	5 ;     CG3C41     CG3C41       HGA2
   20    21    63	5 ;     CG3C41     CG3C41       HGA2
   19    21    62	5 ;     CG3C41     CG3C41       HGA2
   19    21    63	5 ;     CG3C41     CG3C41       HGA2
   62    21    63	5 ;       HGA2     CG3C41       HGA2
   23    22    12	5 ;      CG301      CG321     CG2DC2
   23    22    64	5 ;      CG301      CG321       HGA2
   23    22    65	5 ;      CG301      CG321       HGA2
   12    22    64	5 ;     CG2DC2      CG321       HGA2
   12    22    65	5 ;     CG2DC2      CG321       HGA2
   64    22    65	5 ;       HGA2      CG321       HGA2
   25    23    24	5 ;      CG331      CG301      CG331
   25    23    26	5 ;      CG331      CG301      CG331
   25    23    22	5 ;      CG331      CG301      CG321
   24    23    26	5 ;      CG331      CG301      CG331
   24    23    22	5 ;      CG331      CG301      CG321
   26    23    22	5 ;      CG331      CG301      CG321
   23    24    66	5 ;      CG301      CG331       HGA3
   23    24    67	5 ;      CG301      CG331       HGA3
   23    24    68	5 ;      CG301      CG331       HGA3
   66    24    67	5 ;       HGA3      CG331       HGA3
   66    24    68	5 ;       HGA3      CG331       HGA3
   67    24    68	5 ;       HGA3      CG331       HGA3
   23    25    69	5 ;      CG301      CG331       HGA3
   23    25    70	5 ;      CG301      CG331       HGA3
   23    25    71	5 ;      CG301      CG331       HGA3
   69    25    70	5 ;       HGA3      CG331       HGA3
   69    25    71	5 ;       HGA3      CG331       HGA3
   70    25    71	5 ;       HGA3      CG331       HGA3
   23    26    72	5 ;      CG301      CG331       HGA3
   23    26    73	5 ;      CG301      CG331       HGA3
   23    26    74	5 ;      CG301      CG331       HGA3
   72    26    73	5 ;       HGA3      CG331       HGA3
   72    26    74	5 ;       HGA3      CG331       HGA3
   73    26    74	5 ;       HGA3      CG331       HGA3
    1    27    42	5 ;      CG311      CG311      NG2S1
    1    27    28	5 ;      CG311      CG311      CG321
    1    27    75	5 ;      CG311      CG311       HGA1
   42    27    28	5 ;      NG2S1      CG311      CG321
   42    27    75	5 ;      NG2S1      CG311       HGA1
   28    27    75	5 ;      CG321      CG311       HGA1
   27    28    29	5 ;      CG311      CG321     CG2R61
   27    28    76	5 ;      CG311      CG321       HGA2
   27    28    77	5 ;      CG311      CG321       HGA2
   29    28    76	5 ;     CG2R61      CG321       HGA2
   29    28    77	5 ;     CG2R61      CG321       HGA2
   76    28    77	5 ;       HGA2      CG321       HGA2
   28    29    34	5 ;      CG321     CG2R61     CG2R61
   28    29    30	5 ;      CG321     CG2R61     CG2R61
   34    29    30	5 ;     CG2R61     CG2R61     CG2R61
   29    30    31	5 ;     CG2R61     CG2R61     CG2R61
   29    30    78	5 ;     CG2R61     CG2R61      HGR61
   31    30    78	5 ;     CG2R61     CG2R61      HGR61
   30    31    32	5 ;     CG2R61     CG2R61     CG2R61
   30    31    35	5 ;     CG2R61     CG2R61      CG311
   32    31    35	5 ;     CG2R61     CG2R61      CG311
   33    32    31	5 ;     CG2R61     CG2R61     CG2R61
   33    32    79	5 ;     CG2R61     CG2R61      HGR61
   31    32    79	5 ;     CG2R61     CG2R61      HGR61
   34    33    32	5 ;     CG2R61     CG2R61     CG2R61
   34    33    80	5 ;     CG2R61     CG2R61      HGR61
   32    33    80	5 ;     CG2R61     CG2R61      HGR61
   29    34    33	5 ;     CG2R61     CG2R61     CG2R61
   29    34    81	5 ;     CG2R61     CG2R61      HGR61
   33    34    81	5 ;     CG2R61     CG2R61      HGR61
   31    35    36	5 ;     CG2R61      CG311      NG311
   31    35    41	5 ;     CG2R61      CG311     CG2DC2
   31    35    82	5 ;     CG2R61      CG311       HGA1
   36    35    41	5 ;      NG311      CG311     CG2DC2
   36    35    82	5 ;      NG311      CG311       HGA1
   41    35    82	5 ;     CG2DC2      CG311       HGA1
   38    36    35	5 ;     HGPAM1      NG311      CG311
   38    36    37	5 ;     HGPAM1      NG311     CG2D1O
   35    36    37	5 ;      CG311      NG311     CG2D1O
   36    37    39	5 ;      NG311     CG2D1O     CG2DC1
   36    37    83	5 ;      NG311     CG2D1O       HGA4
   39    37    83	5 ;     CG2DC1     CG2D1O       HGA4
   37    39    40	5 ;     CG2D1O     CG2DC1     CG2DC2
   37    39    84	5 ;     CG2D1O     CG2DC1       HGA4
   40    39    84	5 ;     CG2DC2     CG2DC1       HGA4
   41    40    39	5 ;     CG2DC2     CG2DC2     CG2DC1
   41    40    85	5 ;     CG2DC2     CG2DC2       HGA4
   39    40    85	5 ;     CG2DC1     CG2DC2       HGA4
   35    41    40	5 ;      CG311     CG2DC2     CG2DC2
   35    41    86	5 ;      CG311     CG2DC2       HGA4
   40    41    86	5 ;     CG2DC2     CG2DC2       HGA4
   45    42    43	5 ;       HGP1      NG2S1      CG2O1
   45    42    27	5 ;       HGP1      NG2S1      CG311
   43    42    27	5 ;      CG2O1      NG2S1      CG311
   46    43    42	5 ;      CG321      CG2O1      NG2S1
   46    43    44	5 ;      CG321      CG2O1      OG2D1
   42    43    44	5 ;      NG2S1      CG2O1      OG2D1
   47    46    43	5 ;      OG301      CG321      CG2O1
   47    46    87	5 ;      OG301      CG321       HGA2
   47    46    88	5 ;      OG301      CG321       HGA2
   43    46    87	5 ;      CG2O1      CG321       HGA2
   43    46    88	5 ;      CG2O1      CG321       HGA2
   87    46    88	5 ;       HGA2      CG321       HGA2
   48    47    46	5 ;      CG331      OG301      CG321
   47    48    89	5 ;      OG301      CG331       HGA3
   47    48    90	5 ;      OG301      CG331       HGA3
   47    48    91	5 ;      OG301      CG331       HGA3
   89    48    90	5 ;       HGA3      CG331       HGA3
   89    48    91	5 ;       HGA3      CG331       HGA3
   90    48    91	5 ;       HGA3      CG331       HGA3

[ dihedrals ]
;	ai	  aj	ak	  al funct			  c0			c1			  c2			c3			  c4			c5
    2     1     4     5	 9 ;      OG311      CG311      CG324      NG3P2
    2     1     4    50	 9 ;      OG311      CG311      CG324       HGA2
    2     1     4    51	 9 ;      OG311      CG311      CG324       HGA2
   27     1     4     5	 9 ;      CG311      CG311      CG324      NG3P2
   27     1     4    50	 9 ;      CG311      CG311      CG324       HGA2
   27     1     4    51	 9 ;      CG311      CG311      CG324       HGA2
   49     1     4     5	 9 ;       HGA1      CG311      CG324      NG3P2
   49     1     4    50	 9 ;       HGA1      CG311      CG324       HGA2
   49     1     4    51	 9 ;       HGA1      CG311      CG324       HGA2
    4     1     2     3	 9 ;      CG324      CG311      OG311       HGP1
   27     1     2     3	 9 ;      CG311      CG311      OG311       HGP1
   49     1     2     3	 9 ;       HGA1      CG311      OG311       HGP1
    4     1    27    42	 9 ;      CG324      CG311      CG311      NG2S1
    4     1    27    28	 9 ;      CG324      CG311      CG311      CG321
    4     1    27    75	 9 ;      CG324      CG311      CG311       HGA1
    2     1    27    42	 9 ;      OG311      CG311      CG311      NG2S1
    2     1    27    28	 9 ;      OG311      CG311      CG311      CG321
    2     1    27    75	 9 ;      OG311      CG311      CG311       HGA1
   49     1    27    42	 9 ;       HGA1      CG311      CG311      NG2S1
   49     1    27    28	 9 ;       HGA1      CG311      CG311      CG321
   49     1    27    75	 9 ;       HGA1      CG311      CG311       HGA1
    1     4     5     6	 9 ;      CG311      CG324      NG3P2       HGP2
    1     4     5     8	 9 ;      CG311      CG324      NG3P2      CG314
    1     4     5     7	 9 ;      CG311      CG324      NG3P2       HGP2
   50     4     5     6	 9 ;       HGA2      CG324      NG3P2       HGP2
   50     4     5     8	 9 ;       HGA2      CG324      NG3P2      CG314
   50     4     5     7	 9 ;       HGA2      CG324      NG3P2       HGP2
   51     4     5     6	 9 ;       HGA2      CG324      NG3P2       HGP2
   51     4     5     8	 9 ;       HGA2      CG324      NG3P2      CG314
   51     4     5     7	 9 ;       HGA2      CG324      NG3P2       HGP2
    6     5     8    18	 9 ;       HGP2      NG3P2      CG314      CG321
    6     5     8     9	 9 ;       HGP2      NG3P2      CG314     CG2DC1
    6     5     8    52	 9 ;       HGP2      NG3P2      CG314       HGA1
    7     5     8    18	 9 ;       HGP2      NG3P2      CG314      CG321
    7     5     8     9	 9 ;       HGP2      NG3P2      CG314     CG2DC1
    7     5     8    52	 9 ;       HGP2      NG3P2      CG314       HGA1
    4     5     8    18	 9 ;      CG324      NG3P2      CG314      CG321
    4     5     8     9	 9 ;      CG324      NG3P2      CG314     CG2DC1
    4     5     8    52	 9 ;      CG324      NG3P2      CG314       HGA1
    9     8    18    17	 9 ;     CG2DC1      CG314      CG321     CG3C41
    9     8    18    56	 9 ;     CG2DC1      CG314      CG321       HGA2
    9     8    18    57	 9 ;     CG2DC1      CG314      CG321       HGA2
    5     8    18    17	 9 ;      NG3P2      CG314      CG321     CG3C41
    5     8    18    56	 9 ;      NG3P2      CG314      CG321       HGA2
    5     8    18    57	 9 ;      NG3P2      CG314      CG321       HGA2
   52     8    18    17	 9 ;       HGA1      CG314      CG321     CG3C41
   52     8    18    56	 9 ;       HGA1      CG314      CG321       HGA2
   52     8    18    57	 9 ;       HGA1      CG314      CG321       HGA2
   18     8     9    11	 9 ;      CG321      CG314     CG2DC1      CG311
   18     8     9    10	 9 ;      CG321      CG314     CG2DC1     CG2DC1
    5     8     9    11	 9 ;      NG3P2      CG314     CG2DC1      CG311
    5     8     9    10	 9 ;      NG3P2      CG314     CG2DC1     CG2DC1
   52     8     9    11	 9 ;       HGA1      CG314     CG2DC1      CG311
   52     8     9    10	 9 ;       HGA1      CG314     CG2DC1     CG2DC1
    8     9    11    16	 9 ;      CG314     CG2DC1      CG311     OG3C61
    8     9    11    14	 9 ;      CG314     CG2DC1      CG311      NG311
    8     9    11    54	 9 ;      CG314     CG2DC1      CG311       HGA1
   10     9    11    16	 9 ;     CG2DC1     CG2DC1      CG311     OG3C61
   10     9    11    14	 9 ;     CG2DC1     CG2DC1      CG311      NG311
   10     9    11    54	 9 ;     CG2DC1     CG2DC1      CG311       HGA1
    8     9    10    12	 9 ;      CG314     CG2DC1     CG2DC1     CG2DC2
    8     9    10    53	 9 ;      CG314     CG2DC1     CG2DC1       HGA4
   11     9    10    12	 9 ;      CG311     CG2DC1     CG2DC1     CG2DC2
   11     9    10    53	 9 ;      CG311     CG2DC1     CG2DC1       HGA4
    9    10    12    13	 9 ;     CG2DC1     CG2DC1     CG2DC2     CG2D2O
    9    10    12    22	 9 ;     CG2DC1     CG2DC1     CG2DC2      CG321
   53    10    12    13	 9 ;       HGA4     CG2DC1     CG2DC2     CG2D2O
   53    10    12    22	 9 ;       HGA4     CG2DC1     CG2DC2      CG321
   14    11    16    17	 9 ;      NG311      CG311     OG3C61     CG3C41
    9    11    16    17	 9 ;     CG2DC1      CG311     OG3C61     CG3C41
   54    11    16    17	 9 ;       HGA1      CG311     OG3C61     CG3C41
   16    11    14    15	 9 ;     OG3C61      CG311      NG311     HGPAM1
   16    11    14    13	 9 ;     OG3C61      CG311      NG311     CG2D2O
    9    11    14    15	 9 ;     CG2DC1      CG311      NG311     HGPAM1
    9    11    14    13	 9 ;     CG2DC1      CG311      NG311     CG2D2O
   54    11    14    15	 9 ;       HGA1      CG311      NG311     HGPAM1
   54    11    14    13	 9 ;       HGA1      CG311      NG311     CG2D2O
   10    12    13    14	 9 ;     CG2DC1     CG2DC2     CG2D2O      NG311
   10    12    13    55	 9 ;     CG2DC1     CG2DC2     CG2D2O       HGA4
   22    12    13    14	 9 ;      CG321     CG2DC2     CG2D2O      NG311
   22    12    13    55	 9 ;      CG321     CG2DC2     CG2D2O       HGA4
   13    12    22    23	 9 ;     CG2D2O     CG2DC2      CG321      CG301
   13    12    22    64	 9 ;     CG2D2O     CG2DC2      CG321       HGA2
   13    12    22    65	 9 ;     CG2D2O     CG2DC2      CG321       HGA2
   10    12    22    23	 9 ;     CG2DC1     CG2DC2      CG321      CG301
   10    12    22    64	 9 ;     CG2DC1     CG2DC2      CG321       HGA2
   10    12    22    65	 9 ;     CG2DC1     CG2DC2      CG321       HGA2
   12    13    14    15	 9 ;     CG2DC2     CG2D2O      NG311     HGPAM1
   12    13    14    11	 9 ;     CG2DC2     CG2D2O      NG311      CG311
   55    13    14    15	 9 ;       HGA4     CG2D2O      NG311     HGPAM1
   55    13    14    11	 9 ;       HGA4     CG2D2O      NG311      CG311
   11    16    17    20	 9 ;      CG311     OG3C61     CG3C41     CG3C41
   11    16    17    19	 9 ;      CG311     OG3C61     CG3C41     CG3C41
   11    16    17    18	 9 ;      CG311     OG3C61     CG3C41      CG321
   16    17    20    21	 9 ;     OG3C61     CG3C41     CG3C41     CG3C41
   16    17    20    60	 9 ;     OG3C61     CG3C41     CG3C41       HGA2
   16    17    20    61	 9 ;     OG3C61     CG3C41     CG3C41       HGA2
   19    17    20    21	 9 ;     CG3C41     CG3C41     CG3C41     CG3C41
   19    17    20    60	 9 ;     CG3C41     CG3C41     CG3C41       HGA2
   19    17    20    61	 9 ;     CG3C41     CG3C41     CG3C41       HGA2
   18    17    20    21	 9 ;      CG321     CG3C41     CG3C41     CG3C41
   18    17    20    60	 9 ;      CG321     CG3C41     CG3C41       HGA2
   18    17    20    61	 9 ;      CG321     CG3C41     CG3C41       HGA2
   20    17    19    21	 9 ;     CG3C41     CG3C41     CG3C41     CG3C41
   20    17    19    58	 9 ;     CG3C41     CG3C41     CG3C41       HGA2
   20    17    19    59	 9 ;     CG3C41     CG3C41     CG3C41       HGA2
   16    17    19    21	 9 ;     OG3C61     CG3C41     CG3C41     CG3C41
   16    17    19    58	 9 ;     OG3C61     CG3C41     CG3C41       HGA2
   16    17    19    59	 9 ;     OG3C61     CG3C41     CG3C41       HGA2
   18    17    19    21	 9 ;      CG321     CG3C41     CG3C41     CG3C41
   18    17    19    58	 9 ;      CG321     CG3C41     CG3C41       HGA2
   18    17    19    59	 9 ;      CG321     CG3C41     CG3C41       HGA2
   20    17    18     8	 9 ;     CG3C41     CG3C41      CG321      CG314
   20    17    18    56	 9 ;     CG3C41     CG3C41      CG321       HGA2
   20    17    18    57	 9 ;     CG3C41     CG3C41      CG321       HGA2
   16    17    18     8	 9 ;     OG3C61     CG3C41      CG321      CG314
   16    17    18    56	 9 ;     OG3C61     CG3C41      CG321       HGA2
   16    17    18    57	 9 ;     OG3C61     CG3C41      CG321       HGA2
   19    17    18     8	 9 ;     CG3C41     CG3C41      CG321      CG314
   19    17    18    56	 9 ;     CG3C41     CG3C41      CG321       HGA2
   19    17    18    57	 9 ;     CG3C41     CG3C41      CG321       HGA2
   17    19    21    20	 9 ;     CG3C41     CG3C41     CG3C41     CG3C41
   17    19    21    62	 9 ;     CG3C41     CG3C41     CG3C41       HGA2
   17    19    21    63	 9 ;     CG3C41     CG3C41     CG3C41       HGA2
   58    19    21    20	 9 ;       HGA2     CG3C41     CG3C41     CG3C41
   58    19    21    62	 9 ;       HGA2     CG3C41     CG3C41       HGA2
   58    19    21    63	 9 ;       HGA2     CG3C41     CG3C41       HGA2
   59    19    21    20	 9 ;       HGA2     CG3C41     CG3C41     CG3C41
   59    19    21    62	 9 ;       HGA2     CG3C41     CG3C41       HGA2
   59    19    21    63	 9 ;       HGA2     CG3C41     CG3C41       HGA2
   17    20    21    19	 9 ;     CG3C41     CG3C41     CG3C41     CG3C41
   17    20    21    62	 9 ;     CG3C41     CG3C41     CG3C41       HGA2
   17    20    21    63	 9 ;     CG3C41     CG3C41     CG3C41       HGA2
   60    20    21    19	 9 ;       HGA2     CG3C41     CG3C41     CG3C41
   60    20    21    62	 9 ;       HGA2     CG3C41     CG3C41       HGA2
   60    20    21    63	 9 ;       HGA2     CG3C41     CG3C41       HGA2
   61    20    21    19	 9 ;       HGA2     CG3C41     CG3C41     CG3C41
   61    20    21    62	 9 ;       HGA2     CG3C41     CG3C41       HGA2
   61    20    21    63	 9 ;       HGA2     CG3C41     CG3C41       HGA2
   12    22    23    25	 9 ;     CG2DC2      CG321      CG301      CG331
   12    22    23    24	 9 ;     CG2DC2      CG321      CG301      CG331
   12    22    23    26	 9 ;     CG2DC2      CG321      CG301      CG331
   64    22    23    25	 9 ;       HGA2      CG321      CG301      CG331
   64    22    23    24	 9 ;       HGA2      CG321      CG301      CG331
   64    22    23    26	 9 ;       HGA2      CG321      CG301      CG331
   65    22    23    25	 9 ;       HGA2      CG321      CG301      CG331
   65    22    23    24	 9 ;       HGA2      CG321      CG301      CG331
   65    22    23    26	 9 ;       HGA2      CG321      CG301      CG331
   24    23    25    69	 9 ;      CG331      CG301      CG331       HGA3
   24    23    25    70	 9 ;      CG331      CG301      CG331       HGA3
   24    23    25    71	 9 ;      CG331      CG301      CG331       HGA3
   26    23    25    69	 9 ;      CG331      CG301      CG331       HGA3
   26    23    25    70	 9 ;      CG331      CG301      CG331       HGA3
   26    23    25    71	 9 ;      CG331      CG301      CG331       HGA3
   22    23    25    69	 9 ;      CG321      CG301      CG331       HGA3
   22    23    25    70	 9 ;      CG321      CG301      CG331       HGA3
   22    23    25    71	 9 ;      CG321      CG301      CG331       HGA3
   25    23    24    66	 9 ;      CG331      CG301      CG331       HGA3
   25    23    24    67	 9 ;      CG331      CG301      CG331       HGA3
   25    23    24    68	 9 ;      CG331      CG301      CG331       HGA3
   26    23    24    66	 9 ;      CG331      CG301      CG331       HGA3
   26    23    24    67	 9 ;      CG331      CG301      CG331       HGA3
   26    23    24    68	 9 ;      CG331      CG301      CG331       HGA3
   22    23    24    66	 9 ;      CG321      CG301      CG331       HGA3
   22    23    24    67	 9 ;      CG321      CG301      CG331       HGA3
   22    23    24    68	 9 ;      CG321      CG301      CG331       HGA3
   25    23    26    72	 9 ;      CG331      CG301      CG331       HGA3
   25    23    26    73	 9 ;      CG331      CG301      CG331       HGA3
   25    23    26    74	 9 ;      CG331      CG301      CG331       HGA3
   24    23    26    72	 9 ;      CG331      CG301      CG331       HGA3
   24    23    26    73	 9 ;      CG331      CG301      CG331       HGA3
   24    23    26    74	 9 ;      CG331      CG301      CG331       HGA3
   22    23    26    72	 9 ;      CG321      CG301      CG331       HGA3
   22    23    26    73	 9 ;      CG321      CG301      CG331       HGA3
   22    23    26    74	 9 ;      CG321      CG301      CG331       HGA3
    1    27    42    45	 9 ;      CG311      CG311      NG2S1       HGP1
    1    27    42    43	 9 ;      CG311      CG311      NG2S1      CG2O1
   28    27    42    45	 9 ;      CG321      CG311      NG2S1       HGP1
   28    27    42    43	 9 ;      CG321      CG311      NG2S1      CG2O1
   75    27    42    45	 9 ;       HGA1      CG311      NG2S1       HGP1
   75    27    42    43	 9 ;       HGA1      CG311      NG2S1      CG2O1
    1    27    28    29	 9 ;      CG311      CG311      CG321     CG2R61
    1    27    28    76	 9 ;      CG311      CG311      CG321       HGA2
    1    27    28    77	 9 ;      CG311      CG311      CG321       HGA2
   42    27    28    29	 9 ;      NG2S1      CG311      CG321     CG2R61
   42    27    28    76	 9 ;      NG2S1      CG311      CG321       HGA2
   42    27    28    77	 9 ;      NG2S1      CG311      CG321       HGA2
   75    27    28    29	 9 ;       HGA1      CG311      CG321     CG2R61
   75    27    28    76	 9 ;       HGA1      CG311      CG321       HGA2
   75    27    28    77	 9 ;       HGA1      CG311      CG321       HGA2
   27    28    29    34	 9 ;      CG311      CG321     CG2R61     CG2R61
   27    28    29    30	 9 ;      CG311      CG321     CG2R61     CG2R61
   76    28    29    34	 9 ;       HGA2      CG321     CG2R61     CG2R61
   76    28    29    30	 9 ;       HGA2      CG321     CG2R61     CG2R61
   77    28    29    34	 9 ;       HGA2      CG321     CG2R61     CG2R61
   77    28    29    30	 9 ;       HGA2      CG321     CG2R61     CG2R61
   28    29    34    33	 9 ;      CG321     CG2R61     CG2R61     CG2R61
   28    29    34    81	 9 ;      CG321     CG2R61     CG2R61      HGR61
   30    29    34    33	 9 ;     CG2R61     CG2R61     CG2R61     CG2R61
   30    29    34    81	 9 ;     CG2R61     CG2R61     CG2R61      HGR61
   28    29    30    31	 9 ;      CG321     CG2R61     CG2R61     CG2R61
   28    29    30    78	 9 ;      CG321     CG2R61     CG2R61      HGR61
   34    29    30    31	 9 ;     CG2R61     CG2R61     CG2R61     CG2R61
   34    29    30    78	 9 ;     CG2R61     CG2R61     CG2R61      HGR61
   29    30    31    32	 9 ;     CG2R61     CG2R61     CG2R61     CG2R61
   29    30    31    35	 9 ;     CG2R61     CG2R61     CG2R61      CG311
   78    30    31    32	 9 ;      HGR61     CG2R61     CG2R61     CG2R61
   78    30    31    35	 9 ;      HGR61     CG2R61     CG2R61      CG311
   30    31    32    33	 9 ;     CG2R61     CG2R61     CG2R61     CG2R61
   30    31    32    79	 9 ;     CG2R61     CG2R61     CG2R61      HGR61
   35    31    32    33	 9 ;      CG311     CG2R61     CG2R61     CG2R61
   35    31    32    79	 9 ;      CG311     CG2R61     CG2R61      HGR61
   30    31    35    36	 9 ;     CG2R61     CG2R61      CG311      NG311
   30    31    35    41	 9 ;     CG2R61     CG2R61      CG311     CG2DC2
   30    31    35    82	 9 ;     CG2R61     CG2R61      CG311       HGA1
   32    31    35    36	 9 ;     CG2R61     CG2R61      CG311      NG311
   32    31    35    41	 9 ;     CG2R61     CG2R61      CG311     CG2DC2
   32    31    35    82	 9 ;     CG2R61     CG2R61      CG311       HGA1
   31    32    33    34	 9 ;     CG2R61     CG2R61     CG2R61     CG2R61
   31    32    33    80	 9 ;     CG2R61     CG2R61     CG2R61      HGR61
   79    32    33    34	 9 ;      HGR61     CG2R61     CG2R61     CG2R61
   79    32    33    80	 9 ;      HGR61     CG2R61     CG2R61      HGR61
   32    33    34    29	 9 ;     CG2R61     CG2R61     CG2R61     CG2R61
   32    33    34    81	 9 ;     CG2R61     CG2R61     CG2R61      HGR61
   80    33    34    29	 9 ;      HGR61     CG2R61     CG2R61     CG2R61
   80    33    34    81	 9 ;      HGR61     CG2R61     CG2R61      HGR61
   31    35    36    38	 9 ;     CG2R61      CG311      NG311     HGPAM1
   31    35    36    37	 9 ;     CG2R61      CG311      NG311     CG2D1O
   41    35    36    38	 9 ;     CG2DC2      CG311      NG311     HGPAM1
   41    35    36    37	 9 ;     CG2DC2      CG311      NG311     CG2D1O
   82    35    36    38	 9 ;       HGA1      CG311      NG311     HGPAM1
   82    35    36    37	 9 ;       HGA1      CG311      NG311     CG2D1O
   31    35    41    40	 9 ;     CG2R61      CG311     CG2DC2     CG2DC2
   31    35    41    86	 9 ;     CG2R61      CG311     CG2DC2       HGA4
   36    35    41    40	 9 ;      NG311      CG311     CG2DC2     CG2DC2
   36    35    41    86	 9 ;      NG311      CG311     CG2DC2       HGA4
   82    35    41    40	 9 ;       HGA1      CG311     CG2DC2     CG2DC2
   82    35    41    86	 9 ;       HGA1      CG311     CG2DC2       HGA4
   38    36    37    39	 9 ;     HGPAM1      NG311     CG2D1O     CG2DC1
   38    36    37    83	 9 ;     HGPAM1      NG311     CG2D1O       HGA4
   35    36    37    39	 9 ;      CG311      NG311     CG2D1O     CG2DC1
   35    36    37    83	 9 ;      CG311      NG311     CG2D1O       HGA4
   36    37    39    40	 9 ;      NG311     CG2D1O     CG2DC1     CG2DC2
   36    37    39    84	 9 ;      NG311     CG2D1O     CG2DC1       HGA4
   83    37    39    40	 9 ;       HGA4     CG2D1O     CG2DC1     CG2DC2
   83    37    39    84	 9 ;       HGA4     CG2D1O     CG2DC1       HGA4
   37    39    40    41	 9 ;     CG2D1O     CG2DC1     CG2DC2     CG2DC2
   37    39    40    85	 9 ;     CG2D1O     CG2DC1     CG2DC2       HGA4
   84    39    40    41	 9 ;       HGA4     CG2DC1     CG2DC2     CG2DC2
   84    39    40    85	 9 ;       HGA4     CG2DC1     CG2DC2       HGA4
   39    40    41    35	 9 ;     CG2DC1     CG2DC2     CG2DC2      CG311
   39    40    41    86	 9 ;     CG2DC1     CG2DC2     CG2DC2       HGA4
   85    40    41    35	 9 ;       HGA4     CG2DC2     CG2DC2      CG311
   85    40    41    86	 9 ;       HGA4     CG2DC2     CG2DC2       HGA4
   45    42    43    46	 9 ;       HGP1      NG2S1      CG2O1      CG321
   45    42    43    44	 9 ;       HGP1      NG2S1      CG2O1      OG2D1
   27    42    43    46	 9 ;      CG311      NG2S1      CG2O1      CG321
   27    42    43    44	 9 ;      CG311      NG2S1      CG2O1      OG2D1
   42    43    46    47	 9 ;      NG2S1      CG2O1      CG321      OG301
   42    43    46    87	 9 ;      NG2S1      CG2O1      CG321       HGA2
   42    43    46    88	 9 ;      NG2S1      CG2O1      CG321       HGA2
   44    43    46    47	 9 ;      OG2D1      CG2O1      CG321      OG301
   44    43    46    87	 9 ;      OG2D1      CG2O1      CG321       HGA2
   44    43    46    88	 9 ;      OG2D1      CG2O1      CG321       HGA2
   43    46    47    48	 9 ;      CG2O1      CG321      OG301      CG331
   87    46    47    48	 9 ;       HGA2      CG321      OG301      CG331
   88    46    47    48	 9 ;       HGA2      CG321      OG301      CG331
   46    47    48    89	 9 ;      CG321      OG301      CG331       HGA3
   46    47    48    90	 9 ;      CG321      OG301      CG331       HGA3
   46    47    48    91	 9 ;      CG321      OG301      CG331       HGA3

[ dihedrals ]
;	ai	  aj	ak	  al funct			  c0			c1			  c2			c3
   13    12    14    55	 2
   37    39    36    83	 2
   43    46    42    44	 2

