Grunge ROck MAChoS
   91
    1LIG     C1    1  -1.635   0.356  -1.373
    1LIG     O1    2  -1.706   0.248  -1.313
    1LIG     H1    3  -1.750   0.280  -1.232
    1LIG     C2    4  -1.681   0.355  -1.521
    1LIG     N1    5  -1.569   0.315  -1.621
    1LIG     H2    6  -1.613   0.264  -1.698
    1LIG     H3    7  -1.512   0.244  -1.572
    1LIG     C3    8  -1.463   0.407  -1.687
    1LIG     C4    9  -1.320   0.397  -1.647
    1LIG     C5   10  -1.260   0.280  -1.598
    1LIG     C6   11  -1.234   0.499  -1.683
    1LIG     C7   12  -1.121   0.272  -1.584
    1LIG     C8   13  -1.045   0.383  -1.620
    1LIG     N2   14  -1.100   0.495  -1.669
    1LIG    HN1   15  -1.042   0.575  -1.695
    1LIG     O2   16  -1.274   0.605  -1.758
    1LIG     C9   17  -1.412   0.647  -1.763
    1LIG    C10   18  -1.515   0.551  -1.701
    1LIG    C11   19  -1.430   0.794  -1.712
    1LIG    C12   20  -1.450   0.703  -1.904
    1LIG    C13   21  -1.520   0.821  -1.834
    1LIG    C14   22  -1.056   0.146  -1.533
    1LIG    C15   23  -1.046   0.031  -1.636
    1LIG    C16   24  -1.185  -0.014  -1.685
    1LIG    C17   25  -0.967   0.082  -1.758
    1LIG    C18   26  -0.972  -0.090  -1.576
    1LIG    C19   27  -1.653   0.488  -1.284
    1LIG    C20   28  -1.589   0.488  -1.139
    1LIG    C21   29  -1.661   0.417  -1.021
    1LIG    C22   30  -1.594   0.316  -0.946
    1LIG    C23   31  -1.657   0.235  -0.846
    1LIG    C24   32  -1.792   0.265  -0.819
    1LIG    C25   33  -1.859   0.365  -0.888
    1LIG    C26   34  -1.795   0.440  -0.988
    1LIG    C27   35  -1.589   0.117  -0.783
    1LIG     N3   36  -1.661   0.003  -0.779
    1LIG    C28   37  -1.611  -0.103  -0.710
    1LIG    HN2   38  -1.751  -0.004  -0.826
    1LIG    C29   39  -1.490  -0.103  -0.644
    1LIG    C30   40  -1.414   0.012  -0.651
    1LIG    C31   41  -1.462   0.123  -0.721
    1LIG     N4   42  -1.618   0.607  -1.364
    1LIG    C32   43  -1.682   0.729  -1.340
    1LIG     O3   44  -1.746   0.751  -1.238
    1LIG     H4   45  -1.561   0.599  -1.448
    1LIG    C33   46  -1.685   0.824  -1.460
    1LIG     O4   47  -1.643   0.953  -1.414
    1LIG    C34   48  -1.624   1.048  -1.519
    1LIG     H5   49  -1.528   0.350  -1.377
    1LIG     H6   50  -1.761   0.285  -1.530
    1LIG     H7   51  -1.710   0.454  -1.545
    1LIG     H8   52  -1.455   0.364  -1.784
    1LIG     H9   53  -1.319   0.199  -1.573
    1LIG    H10   54  -1.274   0.493  -1.584
    1LIG    H11   55  -0.943   0.378  -1.608
    1LIG    H12   56  -1.602   0.550  -1.763
    1LIG    H13   57  -1.535   0.586  -1.602
    1LIG    H14   58  -1.480   0.803  -1.618
    1LIG    H15   59  -1.345   0.857  -1.691
    1LIG    H16   60  -1.367   0.731  -1.965
    1LIG    H17   61  -1.502   0.643  -1.976
    1LIG    H18   62  -1.624   0.807  -1.816
    1LIG    H19   63  -1.525   0.918  -1.880
    1LIG    H20   64  -0.957   0.171  -1.501
    1LIG    H21   65  -1.119   0.110  -1.454
    1LIG    H22   66  -1.174  -0.094  -1.755
    1LIG    H23   67  -1.235   0.068  -1.732
    1LIG    H24   68  -1.243  -0.048  -1.602
    1LIG    H25   69  -0.959   0.004  -1.831
    1LIG    H26   70  -0.870   0.112  -1.727
    1LIG    H27   71  -1.019   0.165  -1.801
    1LIG    H28   72  -0.966  -0.168  -1.648
    1LIG    H29   73  -1.024  -0.124  -1.489
    1LIG    H30   74  -0.873  -0.060  -1.548
    1LIG    H31   75  -1.756   0.491  -1.257
    1LIG    H32   76  -1.578   0.591  -1.110
    1LIG    H33   77  -1.500   0.430  -1.152
    1LIG    H34   78  -1.493   0.300  -0.965
    1LIG    H35   79  -1.842   0.211  -0.747
    1LIG    H36   80  -1.958   0.384  -0.866
    1LIG    H37   81  -1.848   0.513  -1.038
    1LIG    H38   82  -1.497   0.139  -0.833
    1LIG    H39   83  -1.668  -0.189  -0.707
    1LIG    H40   84  -1.457  -0.186  -0.591
    1LIG    H41   85  -1.321   0.016  -0.606
    1LIG    H42   86  -1.406   0.209  -0.727
    1LIG    H43   87  -1.619   0.789  -1.536
    1LIG    H44   88  -1.784   0.830  -1.500
    1LIG    H45   89  -1.593   1.142  -1.478
    1LIG    H46   90  -1.717   1.062  -1.572
    1LIG    H47   91  -1.549   1.013  -1.587
   0.00000   0.00000   0.00000
