GROningen MAchine for Chemical Simulation
   72
    1LIG     C1    1  -1.552   0.849  -1.590
    1LIG     C2    2  -1.433   0.820  -1.522
    1LIG     C3    3  -1.354   0.711  -1.561
    1LIG     C4    4  -1.388   0.642  -1.679
    1LIG     C5    5  -1.500   0.677  -1.755
    1LIG     C6    6  -1.583   0.781  -1.708
    1LIG     C7    7  -1.530   0.604  -1.883
    1LIG     N1    8  -1.590   0.473  -1.857
    1LIG     C8    9  -1.726   0.460  -1.835
    1LIG     O1   10  -1.804   0.552  -1.858
    1LIG     H1   11  -1.526   0.407  -1.817
    1LIG     C9   12  -1.782   0.316  -1.811
    1LIG    C10   13  -1.933   0.322  -1.785
    1LIG     N2   14  -1.771   0.242  -1.945
    1LIG     H2   15  -1.696   0.172  -1.944
    1LIG     H3   16  -1.859   0.196  -1.972
    1LIG     H4   17  -1.747   0.310  -2.018
    1LIG    C11   18  -1.706   0.231  -1.706
    1LIG    C12   19  -1.728   0.269  -1.561
    1LIG    C13   20  -1.833   0.214  -1.486
    1LIG    C14   21  -1.861   0.258  -1.357
    1LIG    C15   22  -1.777   0.349  -1.295
    1LIG    C16   23  -1.664   0.393  -1.363
    1LIG    C17   24  -1.640   0.357  -1.496
    1LIG    C18   25  -1.240   0.658  -1.481
    1LIG     O2   26  -1.154   0.736  -1.440
    1LIG     N3   27  -1.232   0.521  -1.461
    1LIG     H5   28  -1.298   0.458  -1.502
    1LIG    C19   29  -1.114   0.460  -1.400
    1LIG    C20   30  -1.113   0.486  -1.249
    1LIG    C21   31  -1.110   0.312  -1.437
    1LIG    C22   32  -1.216   0.258  -1.512
    1LIG    C23   33  -1.217   0.122  -1.547
    1LIG    C24   34  -1.113   0.041  -1.506
    1LIG      F   35  -1.114  -0.089  -1.539
    1LIG    C25   36  -1.008   0.091  -1.431
    1LIG    C26   37  -1.007   0.226  -1.396
    1LIG     N4   38  -1.645   0.951  -1.541
    1LIG    C27   39  -1.668   1.065  -1.632
    1LIG      S   40  -1.776   0.891  -1.453
    1LIG     O3   41  -1.832   1.003  -1.379
    1LIG     O4   42  -1.733   0.771  -1.385
    1LIG    C28   43  -1.900   0.848  -1.573
    1LIG     HC   44  -1.402   0.882  -1.439
    1LIG    HC1   45  -1.326   0.560  -1.711
    1LIG    HC2   46  -1.671   0.808  -1.764
    1LIG    HC3   47  -1.599   0.663  -1.943
    1LIG    HC4   48  -1.437   0.590  -1.939
    1LIG    HC5   49  -1.981   0.383  -1.862
    1LIG    HC6   50  -1.951   0.367  -1.687
    1LIG    HC7   51  -1.975   0.222  -1.787
    1LIG    HC8   52  -1.599   0.240  -1.726
    1LIG    HC9   53  -1.735   0.127  -1.718
    1LIG   HC10   54  -1.895   0.137  -1.530
    1LIG   HC11   55  -1.948   0.220  -1.304
    1LIG   HC12   56  -1.798   0.385  -1.196
    1LIG   HC13   57  -1.594   0.457  -1.312
    1LIG   HC14   58  -1.555   0.397  -1.548
    1LIG   HC15   59  -1.026   0.507  -1.442
    1LIG   HC16   60  -1.025   0.439  -1.204
    1LIG   HC17   61  -1.110   0.593  -1.230
    1LIG   HC18   62  -1.203   0.443  -1.204
    1LIG   HC19   63  -1.298   0.321  -1.543
    1LIG   HC20   64  -1.299   0.082  -1.605
    1LIG   HC21   65  -0.927   0.026  -1.400
    1LIG   HC22   66  -0.926   0.266  -1.336
    1LIG   HC23   67  -1.738   1.135  -1.586
    1LIG   HC24   68  -1.709   1.029  -1.726
    1LIG   HC25   69  -1.574   1.117  -1.651
    1LIG   HC26   70  -1.967   0.773  -1.531
    1LIG   HC27   71  -1.957   0.937  -1.599
    1LIG   HC28   72  -1.852   0.808  -1.662
   0.00000   0.00000   0.00000
