; Created by cgenff_charmm2gmx.py

[ moleculetype ]
; Name			   nrexcl
LIG				 3

[ atoms ]
;	 nr		  type	resnr residue  atom   cgnr	   charge		mass  typeB    chargeB		massB
; residue	 1 LIG rtp LIG q	qsum
     1     CG2R61      1    LIG     C1      1      0.140     12.011   ;
     2     CG2R61      1    LIG     C2      2     -0.064     12.011   ;
     3     CG2R61      1    LIG     C3      3     -0.099     12.011   ;
     4     CG2R61      1    LIG     C4      4     -0.067     12.011   ;
     5     CG2R61      1    LIG     C5      5      0.010     12.011   ;
     6     CG2R61      1    LIG     C6      6     -0.127     12.011   ;
     7      CG321      1    LIG     C7      7     -0.023     12.011   ;
     8      NG2S1      1    LIG     N1      8     -0.473     14.007   ;
     9      CG2O1      1    LIG     C8      9      0.440     12.011   ;
    10      OG2D1      1    LIG     O1     10     -0.526     15.999   ;
    11       HGP1      1    LIG     H1     11      0.311      1.008   ;
    12      CG301      1    LIG     C9     12      0.588     12.011   ;
    13      CG331      1    LIG    C10     13     -0.180     12.011   ;
    14      NG3P3      1    LIG     N2     14     -0.554     14.007   ;
    15       HGP2      1    LIG     H2     15      0.348      1.008   ;
    16       HGP2      1    LIG     H3     16      0.348      1.008   ;
    17       HGP2      1    LIG     H4     17      0.348      1.008   ;
    18      CG321      1    LIG    C11     18     -0.231     12.011   ;
    19     CG2R61      1    LIG    C12     19     -0.018     12.011   ;
    20     CG2R61      1    LIG    C13     20     -0.123     12.011   ;
    21     CG2R61      1    LIG    C14     21     -0.112     12.011   ;
    22     CG2R61      1    LIG    C15     22     -0.116     12.011   ;
    23     CG2R61      1    LIG    C16     23     -0.112     12.011   ;
    24     CG2R61      1    LIG    C17     24     -0.123     12.011   ;
    25      CG2O1      1    LIG    C18     25      0.320     12.011   ;
    26      OG2D1      1    LIG     O2     26     -0.463     15.999   ;
    27      NG2S1      1    LIG     N3     27     -0.366     14.007   ;
    28       HGP1      1    LIG     H5     28      0.314      1.008   ;
    29      CG311      1    LIG    C19     29      0.138     12.011   ;
    30      CG331      1    LIG    C20     30     -0.265     12.011   ;
    31     CG2R61      1    LIG    C21     31     -0.081     12.011   ;
    32     CG2R61      1    LIG    C22     32     -0.121     12.011   ;
    33     CG2R61      1    LIG    C23     33     -0.105     12.011   ;
    34     CG2R66      1    LIG    C24     34      0.107     12.011   ;
    35       FGR1      1    LIG      F     35     -0.211     18.998   ;
    36     CG2R61      1    LIG    C25     36     -0.105     12.011   ;
    37     CG2R61      1    LIG    C26     37     -0.121     12.011   ;
    38      NG301      1    LIG     N4     38     -0.228     14.007   ;
    39      CG331      1    LIG    C27     39     -0.103     12.011   ;
    40      SG3O2      1    LIG      S     40      0.397     32.060   ;
    41      OG2P1      1    LIG     O3     41     -0.388     15.999   ;
    42      OG2P1      1    LIG     O4     42     -0.388     15.999   ;
    43      CG331      1    LIG    C28     43      0.036     12.011   ;
    44      HGR61      1    LIG     HC     44      0.116      1.008   ;
    45      HGR61      1    LIG    HC1     45      0.116      1.008   ;
    46      HGR61      1    LIG    HC2     46      0.116      1.008   ;
    47       HGA2      1    LIG    HC3     47      0.090      1.008   ;
    48       HGA2      1    LIG    HC4     48      0.090      1.008   ;
    49       HGA3      1    LIG    HC5     49      0.090      1.008   ;
    50       HGA3      1    LIG    HC6     50      0.090      1.008   ;
    51       HGA3      1    LIG    HC7     51      0.090      1.008   ;
    52       HGA2      1    LIG    HC8     52      0.090      1.008   ;
    53       HGA2      1    LIG    HC9     53      0.090      1.008   ;
    54      HGR61      1    LIG   HC10     54      0.116      1.008   ;
    55      HGR61      1    LIG   HC11     55      0.116      1.008   ;
    56      HGR61      1    LIG   HC12     56      0.116      1.008   ;
    57      HGR61      1    LIG   HC13     57      0.116      1.008   ;
    58      HGR61      1    LIG   HC14     58      0.116      1.008   ;
    59       HGA1      1    LIG   HC15     59      0.090      1.008   ;
    60       HGA3      1    LIG   HC16     60      0.090      1.008   ;
    61       HGA3      1    LIG   HC17     61      0.090      1.008   ;
    62       HGA3      1    LIG   HC18     62      0.090      1.008   ;
    63      HGR61      1    LIG   HC19     63      0.116      1.008   ;
    64      HGR62      1    LIG   HC20     64      0.179      1.008   ;
    65      HGR62      1    LIG   HC21     65      0.179      1.008   ;
    66      HGR61      1    LIG   HC22     66      0.116      1.008   ;
    67       HGA3      1    LIG   HC23     67      0.090      1.008   ;
    68       HGA3      1    LIG   HC24     68      0.090      1.008   ;
    69       HGA3      1    LIG   HC25     69      0.090      1.008   ;
    70       HGA3      1    LIG   HC26     70      0.090      1.008   ;
    71       HGA3      1    LIG   HC27     71      0.090      1.008   ;
    72       HGA3      1    LIG   HC28     72      0.090      1.008   ;

[ bonds ]
;	ai	  aj funct			  c0			c1			  c2			c3
    1     6	 1 ;      CG2R61     CG2R61
    1     2	 1 ;      CG2R61     CG2R61
    1    38	 1 ;      CG2R61      NG301
    2     3	 1 ;      CG2R61     CG2R61
    2    44	 1 ;      CG2R61      HGR61
    3     4	 1 ;      CG2R61     CG2R61
    3    25	 1 ;      CG2R61      CG2O1
    4     5	 1 ;      CG2R61     CG2R61
    4    45	 1 ;      CG2R61      HGR61
    5     7	 1 ;      CG2R61      CG321
    5     6	 1 ;      CG2R61     CG2R61
    6    46	 1 ;      CG2R61      HGR61
    7     8	 1 ;       CG321      NG2S1
    7    47	 1 ;       CG321       HGA2
    7    48	 1 ;       CG321       HGA2
    8    11	 1 ;       NG2S1       HGP1
    8     9	 1 ;       NG2S1      CG2O1
    9    10	 1 ;       CG2O1      OG2D1
    9    12	 1 ;       CG2O1      CG301
   12    14	 1 ;       CG301      NG3P3
   12    18	 1 ;       CG301      CG321
   12    13	 1 ;       CG301      CG331
   13    49	 1 ;       CG331       HGA3
   13    50	 1 ;       CG331       HGA3
   13    51	 1 ;       CG331       HGA3
   14    17	 1 ;       NG3P3       HGP2
   14    15	 1 ;       NG3P3       HGP2
   14    16	 1 ;       NG3P3       HGP2
   18    19	 1 ;       CG321     CG2R61
   18    52	 1 ;       CG321       HGA2
   18    53	 1 ;       CG321       HGA2
   19    24	 1 ;      CG2R61     CG2R61
   19    20	 1 ;      CG2R61     CG2R61
   20    21	 1 ;      CG2R61     CG2R61
   20    54	 1 ;      CG2R61      HGR61
   21    22	 1 ;      CG2R61     CG2R61
   21    55	 1 ;      CG2R61      HGR61
   22    23	 1 ;      CG2R61     CG2R61
   22    56	 1 ;      CG2R61      HGR61
   23    24	 1 ;      CG2R61     CG2R61
   23    57	 1 ;      CG2R61      HGR61
   24    58	 1 ;      CG2R61      HGR61
   25    26	 1 ;       CG2O1      OG2D1
   25    27	 1 ;       CG2O1      NG2S1
   27    29	 1 ;       NG2S1      CG311
   27    28	 1 ;       NG2S1       HGP1
   29    31	 1 ;       CG311     CG2R61
   29    30	 1 ;       CG311      CG331
   29    59	 1 ;       CG311       HGA1
   30    60	 1 ;       CG331       HGA3
   30    61	 1 ;       CG331       HGA3
   30    62	 1 ;       CG331       HGA3
   31    37	 1 ;      CG2R61     CG2R61
   31    32	 1 ;      CG2R61     CG2R61
   32    33	 1 ;      CG2R61     CG2R61
   32    63	 1 ;      CG2R61      HGR61
   33    34	 1 ;      CG2R61     CG2R66
   33    64	 1 ;      CG2R61      HGR62
   34    36	 1 ;      CG2R66     CG2R61
   34    35	 1 ;      CG2R66       FGR1
   36    37	 1 ;      CG2R61     CG2R61
   36    65	 1 ;      CG2R61      HGR62
   37    66	 1 ;      CG2R61      HGR61
   38    39	 1 ;       NG301      CG331
   38    40	 1 ;       NG301      SG3O2
   39    67	 1 ;       CG331       HGA3
   39    68	 1 ;       CG331       HGA3
   39    69	 1 ;       CG331       HGA3
   40    43	 1 ;       SG3O2      CG331
   40    41	 1 ;       SG3O2      OG2P1
   40    42	 1 ;       SG3O2      OG2P1
   43    70	 1 ;       CG331       HGA3
   43    71	 1 ;       CG331       HGA3
   43    72	 1 ;       CG331       HGA3

[ pairs ]
;	ai	  aj funct			  c0			c1			  c2			c3
    1     4	 1
    1    25	 1
    1     7	 1
    1    67	 1
    1    68	 1
    1    69	 1
    1    43	 1
    1    41	 1
    1    42	 1
    2     5	 1
    2    46	 1
    2    39	 1
    2    40	 1
    2    45	 1
    2    26	 1
    2    27	 1
    3     6	 1
    3    38	 1
    3     7	 1
    3    29	 1
    3    28	 1
    4    44	 1
    4    26	 1
    4    27	 1
    4     8	 1
    4    47	 1
    4    48	 1
    4    46	 1
    5    38	 1
    5    25	 1
    5    11	 1
    5     9	 1
    6    44	 1
    6    39	 1
    6    40	 1
    6    45	 1
    6     8	 1
    6    47	 1
    6    48	 1
    7    45	 1
    7    46	 1
    7    10	 1
    7    12	 1
    8    14	 1
    8    18	 1
    8    13	 1
    9    47	 1
    9    48	 1
    9    17	 1
    9    15	 1
    9    16	 1
    9    19	 1
    9    52	 1
    9    53	 1
    9    49	 1
    9    50	 1
    9    51	 1
   10    11	 1
   10    14	 1
   10    18	 1
   10    13	 1
   11    47	 1
   11    48	 1
   11    12	 1
   12    24	 1
   12    20	 1
   13    17	 1
   13    15	 1
   13    16	 1
   13    19	 1
   13    52	 1
   13    53	 1
   14    19	 1
   14    52	 1
   14    53	 1
   14    49	 1
   14    50	 1
   14    51	 1
   15    18	 1
   16    18	 1
   17    18	 1
   18    49	 1
   18    50	 1
   18    51	 1
   18    23	 1
   18    58	 1
   18    21	 1
   18    54	 1
   19    22	 1
   19    55	 1
   19    57	 1
   20    52	 1
   20    53	 1
   20    23	 1
   20    58	 1
   20    56	 1
   21    24	 1
   21    57	 1
   22    54	 1
   22    58	 1
   23    55	 1
   24    52	 1
   24    53	 1
   24    54	 1
   24    56	 1
   25    44	 1
   25    45	 1
   25    31	 1
   25    30	 1
   25    59	 1
   26    29	 1
   26    28	 1
   27    37	 1
   27    32	 1
   27    60	 1
   27    61	 1
   27    62	 1
   28    31	 1
   28    30	 1
   28    59	 1
   29    36	 1
   29    66	 1
   29    33	 1
   29    63	 1
   30    37	 1
   30    32	 1
   31    60	 1
   31    61	 1
   31    62	 1
   31    34	 1
   31    64	 1
   31    65	 1
   32    59	 1
   32    36	 1
   32    66	 1
   32    35	 1
   33    37	 1
   33    65	 1
   34    63	 1
   34    66	 1
   35    64	 1
   35    37	 1
   35    65	 1
   36    64	 1
   37    59	 1
   37    63	 1
   38    46	 1
   38    44	 1
   38    70	 1
   38    71	 1
   38    72	 1
   39    43	 1
   39    41	 1
   39    42	 1
   40    67	 1
   40    68	 1
   40    69	 1
   41    70	 1
   41    71	 1
   41    72	 1
   42    70	 1
   42    71	 1
   42    72	 1
   54    55	 1
   55    56	 1
   56    57	 1
   57    58	 1
   59    60	 1
   59    61	 1
   59    62	 1
   63    64	 1
   65    66	 1

[ angles ]
;	ai	  aj	ak funct			c0			  c1			c2			  c3
    6     1     2	5 ;     CG2R61     CG2R61     CG2R61
    6     1    38	5 ;     CG2R61     CG2R61      NG301
    2     1    38	5 ;     CG2R61     CG2R61      NG301
    3     2     1	5 ;     CG2R61     CG2R61     CG2R61
    3     2    44	5 ;     CG2R61     CG2R61      HGR61
    1     2    44	5 ;     CG2R61     CG2R61      HGR61
    4     3    25	5 ;     CG2R61     CG2R61      CG2O1
    4     3     2	5 ;     CG2R61     CG2R61     CG2R61
   25     3     2	5 ;      CG2O1     CG2R61     CG2R61
    5     4     3	5 ;     CG2R61     CG2R61     CG2R61
    5     4    45	5 ;     CG2R61     CG2R61      HGR61
    3     4    45	5 ;     CG2R61     CG2R61      HGR61
    7     5     4	5 ;      CG321     CG2R61     CG2R61
    7     5     6	5 ;      CG321     CG2R61     CG2R61
    4     5     6	5 ;     CG2R61     CG2R61     CG2R61
    5     6     1	5 ;     CG2R61     CG2R61     CG2R61
    5     6    46	5 ;     CG2R61     CG2R61      HGR61
    1     6    46	5 ;     CG2R61     CG2R61      HGR61
    5     7     8	5 ;     CG2R61      CG321      NG2S1
    5     7    47	5 ;     CG2R61      CG321       HGA2
    5     7    48	5 ;     CG2R61      CG321       HGA2
    8     7    47	5 ;      NG2S1      CG321       HGA2
    8     7    48	5 ;      NG2S1      CG321       HGA2
   47     7    48	5 ;       HGA2      CG321       HGA2
    7     8    11	5 ;      CG321      NG2S1       HGP1
    7     8     9	5 ;      CG321      NG2S1      CG2O1
   11     8     9	5 ;       HGP1      NG2S1      CG2O1
    8     9    10	5 ;      NG2S1      CG2O1      OG2D1
    8     9    12	5 ;      NG2S1      CG2O1      CG301
   10     9    12	5 ;      OG2D1      CG2O1      CG301
    9    12    14	5 ;      CG2O1      CG301      NG3P3
    9    12    18	5 ;      CG2O1      CG301      CG321
    9    12    13	5 ;      CG2O1      CG301      CG331
   14    12    18	5 ;      NG3P3      CG301      CG321
   14    12    13	5 ;      NG3P3      CG301      CG331
   18    12    13	5 ;      CG321      CG301      CG331
   12    13    49	5 ;      CG301      CG331       HGA3
   12    13    50	5 ;      CG301      CG331       HGA3
   12    13    51	5 ;      CG301      CG331       HGA3
   49    13    50	5 ;       HGA3      CG331       HGA3
   49    13    51	5 ;       HGA3      CG331       HGA3
   50    13    51	5 ;       HGA3      CG331       HGA3
   17    14    15	5 ;       HGP2      NG3P3       HGP2
   17    14    16	5 ;       HGP2      NG3P3       HGP2
   17    14    12	5 ;       HGP2      NG3P3      CG301
   15    14    16	5 ;       HGP2      NG3P3       HGP2
   15    14    12	5 ;       HGP2      NG3P3      CG301
   16    14    12	5 ;       HGP2      NG3P3      CG301
   12    18    19	5 ;      CG301      CG321     CG2R61
   12    18    52	5 ;      CG301      CG321       HGA2
   12    18    53	5 ;      CG301      CG321       HGA2
   19    18    52	5 ;     CG2R61      CG321       HGA2
   19    18    53	5 ;     CG2R61      CG321       HGA2
   52    18    53	5 ;       HGA2      CG321       HGA2
   18    19    24	5 ;      CG321     CG2R61     CG2R61
   18    19    20	5 ;      CG321     CG2R61     CG2R61
   24    19    20	5 ;     CG2R61     CG2R61     CG2R61
   19    20    21	5 ;     CG2R61     CG2R61     CG2R61
   19    20    54	5 ;     CG2R61     CG2R61      HGR61
   21    20    54	5 ;     CG2R61     CG2R61      HGR61
   20    21    22	5 ;     CG2R61     CG2R61     CG2R61
   20    21    55	5 ;     CG2R61     CG2R61      HGR61
   22    21    55	5 ;     CG2R61     CG2R61      HGR61
   23    22    21	5 ;     CG2R61     CG2R61     CG2R61
   23    22    56	5 ;     CG2R61     CG2R61      HGR61
   21    22    56	5 ;     CG2R61     CG2R61      HGR61
   24    23    22	5 ;     CG2R61     CG2R61     CG2R61
   24    23    57	5 ;     CG2R61     CG2R61      HGR61
   22    23    57	5 ;     CG2R61     CG2R61      HGR61
   19    24    23	5 ;     CG2R61     CG2R61     CG2R61
   19    24    58	5 ;     CG2R61     CG2R61      HGR61
   23    24    58	5 ;     CG2R61     CG2R61      HGR61
   26    25     3	5 ;      OG2D1      CG2O1     CG2R61
   26    25    27	5 ;      OG2D1      CG2O1      NG2S1
    3    25    27	5 ;     CG2R61      CG2O1      NG2S1
   25    27    29	5 ;      CG2O1      NG2S1      CG311
   25    27    28	5 ;      CG2O1      NG2S1       HGP1
   29    27    28	5 ;      CG311      NG2S1       HGP1
   27    29    31	5 ;      NG2S1      CG311     CG2R61
   27    29    30	5 ;      NG2S1      CG311      CG331
   27    29    59	5 ;      NG2S1      CG311       HGA1
   31    29    30	5 ;     CG2R61      CG311      CG331
   31    29    59	5 ;     CG2R61      CG311       HGA1
   30    29    59	5 ;      CG331      CG311       HGA1
   29    30    60	5 ;      CG311      CG331       HGA3
   29    30    61	5 ;      CG311      CG331       HGA3
   29    30    62	5 ;      CG311      CG331       HGA3
   60    30    61	5 ;       HGA3      CG331       HGA3
   60    30    62	5 ;       HGA3      CG331       HGA3
   61    30    62	5 ;       HGA3      CG331       HGA3
   29    31    37	5 ;      CG311     CG2R61     CG2R61
   29    31    32	5 ;      CG311     CG2R61     CG2R61
   37    31    32	5 ;     CG2R61     CG2R61     CG2R61
   31    32    33	5 ;     CG2R61     CG2R61     CG2R61
   31    32    63	5 ;     CG2R61     CG2R61      HGR61
   33    32    63	5 ;     CG2R61     CG2R61      HGR61
   32    33    34	5 ;     CG2R61     CG2R61     CG2R66
   32    33    64	5 ;     CG2R61     CG2R61      HGR62
   34    33    64	5 ;     CG2R66     CG2R61      HGR62
   36    34    33	5 ;     CG2R61     CG2R66     CG2R61
   36    34    35	5 ;     CG2R61     CG2R66       FGR1
   33    34    35	5 ;     CG2R61     CG2R66       FGR1
   37    36    34	5 ;     CG2R61     CG2R61     CG2R66
   37    36    65	5 ;     CG2R61     CG2R61      HGR62
   34    36    65	5 ;     CG2R66     CG2R61      HGR62
   31    37    36	5 ;     CG2R61     CG2R61     CG2R61
   31    37    66	5 ;     CG2R61     CG2R61      HGR61
   36    37    66	5 ;     CG2R61     CG2R61      HGR61
   39    38     1	5 ;      CG331      NG301     CG2R61
   39    38    40	5 ;      CG331      NG301      SG3O2
    1    38    40	5 ;     CG2R61      NG301      SG3O2
   38    39    67	5 ;      NG301      CG331       HGA3
   38    39    68	5 ;      NG301      CG331       HGA3
   38    39    69	5 ;      NG301      CG331       HGA3
   67    39    68	5 ;       HGA3      CG331       HGA3
   67    39    69	5 ;       HGA3      CG331       HGA3
   68    39    69	5 ;       HGA3      CG331       HGA3
   38    40    43	5 ;      NG301      SG3O2      CG331
   38    40    41	5 ;      NG301      SG3O2      OG2P1
   38    40    42	5 ;      NG301      SG3O2      OG2P1
   43    40    41	5 ;      CG331      SG3O2      OG2P1
   43    40    42	5 ;      CG331      SG3O2      OG2P1
   41    40    42	5 ;      OG2P1      SG3O2      OG2P1
   40    43    70	5 ;      SG3O2      CG331       HGA3
   40    43    71	5 ;      SG3O2      CG331       HGA3
   40    43    72	5 ;      SG3O2      CG331       HGA3
   70    43    71	5 ;       HGA3      CG331       HGA3
   70    43    72	5 ;       HGA3      CG331       HGA3
   71    43    72	5 ;       HGA3      CG331       HGA3

[ dihedrals ]
;	ai	  aj	ak	  al funct			  c0			c1			  c2			c3			  c4			c5
    2     1     6     5	 9 ;     CG2R61     CG2R61     CG2R61     CG2R61
    2     1     6    46	 9 ;     CG2R61     CG2R61     CG2R61      HGR61
   38     1     6     5	 9 ;      NG301     CG2R61     CG2R61     CG2R61
   38     1     6    46	 9 ;      NG301     CG2R61     CG2R61      HGR61
    6     1     2     3	 9 ;     CG2R61     CG2R61     CG2R61     CG2R61
    6     1     2    44	 9 ;     CG2R61     CG2R61     CG2R61      HGR61
   38     1     2     3	 9 ;      NG301     CG2R61     CG2R61     CG2R61
   38     1     2    44	 9 ;      NG301     CG2R61     CG2R61      HGR61
    6     1    38    39	 9 ;     CG2R61     CG2R61      NG301      CG331
    6     1    38    40	 9 ;     CG2R61     CG2R61      NG301      SG3O2
    2     1    38    39	 9 ;     CG2R61     CG2R61      NG301      CG331
    2     1    38    40	 9 ;     CG2R61     CG2R61      NG301      SG3O2
    1     2     3     4	 9 ;     CG2R61     CG2R61     CG2R61     CG2R61
    1     2     3    25	 9 ;     CG2R61     CG2R61     CG2R61      CG2O1
   44     2     3     4	 9 ;      HGR61     CG2R61     CG2R61     CG2R61
   44     2     3    25	 9 ;      HGR61     CG2R61     CG2R61      CG2O1
   25     3     4     5	 9 ;      CG2O1     CG2R61     CG2R61     CG2R61
   25     3     4    45	 9 ;      CG2O1     CG2R61     CG2R61      HGR61
    2     3     4     5	 9 ;     CG2R61     CG2R61     CG2R61     CG2R61
    2     3     4    45	 9 ;     CG2R61     CG2R61     CG2R61      HGR61
    4     3    25    26	 9 ;     CG2R61     CG2R61      CG2O1      OG2D1
    4     3    25    27	 9 ;     CG2R61     CG2R61      CG2O1      NG2S1
    2     3    25    26	 9 ;     CG2R61     CG2R61      CG2O1      OG2D1
    2     3    25    27	 9 ;     CG2R61     CG2R61      CG2O1      NG2S1
    3     4     5     7	 9 ;     CG2R61     CG2R61     CG2R61      CG321
    3     4     5     6	 9 ;     CG2R61     CG2R61     CG2R61     CG2R61
   45     4     5     7	 9 ;      HGR61     CG2R61     CG2R61      CG321
   45     4     5     6	 9 ;      HGR61     CG2R61     CG2R61     CG2R61
    4     5     7     8	 9 ;     CG2R61     CG2R61      CG321      NG2S1
    4     5     7    47	 9 ;     CG2R61     CG2R61      CG321       HGA2
    4     5     7    48	 9 ;     CG2R61     CG2R61      CG321       HGA2
    6     5     7     8	 9 ;     CG2R61     CG2R61      CG321      NG2S1
    6     5     7    47	 9 ;     CG2R61     CG2R61      CG321       HGA2
    6     5     7    48	 9 ;     CG2R61     CG2R61      CG321       HGA2
    7     5     6     1	 9 ;      CG321     CG2R61     CG2R61     CG2R61
    7     5     6    46	 9 ;      CG321     CG2R61     CG2R61      HGR61
    4     5     6     1	 9 ;     CG2R61     CG2R61     CG2R61     CG2R61
    4     5     6    46	 9 ;     CG2R61     CG2R61     CG2R61      HGR61
    5     7     8    11	 9 ;     CG2R61      CG321      NG2S1       HGP1
    5     7     8     9	 9 ;     CG2R61      CG321      NG2S1      CG2O1
   47     7     8    11	 9 ;       HGA2      CG321      NG2S1       HGP1
   47     7     8     9	 9 ;       HGA2      CG321      NG2S1      CG2O1
   48     7     8    11	 9 ;       HGA2      CG321      NG2S1       HGP1
   48     7     8     9	 9 ;       HGA2      CG321      NG2S1      CG2O1
    7     8     9    10	 9 ;      CG321      NG2S1      CG2O1      OG2D1
    7     8     9    12	 9 ;      CG321      NG2S1      CG2O1      CG301
   11     8     9    10	 9 ;       HGP1      NG2S1      CG2O1      OG2D1
   11     8     9    12	 9 ;       HGP1      NG2S1      CG2O1      CG301
    8     9    12    14	 9 ;      NG2S1      CG2O1      CG301      NG3P3
    8     9    12    18	 9 ;      NG2S1      CG2O1      CG301      CG321
    8     9    12    13	 9 ;      NG2S1      CG2O1      CG301      CG331
   10     9    12    14	 9 ;      OG2D1      CG2O1      CG301      NG3P3
   10     9    12    18	 9 ;      OG2D1      CG2O1      CG301      CG321
   10     9    12    13	 9 ;      OG2D1      CG2O1      CG301      CG331
    9    12    14    17	 9 ;      CG2O1      CG301      NG3P3       HGP2
    9    12    14    15	 9 ;      CG2O1      CG301      NG3P3       HGP2
    9    12    14    16	 9 ;      CG2O1      CG301      NG3P3       HGP2
   18    12    14    17	 9 ;      CG321      CG301      NG3P3       HGP2
   18    12    14    15	 9 ;      CG321      CG301      NG3P3       HGP2
   18    12    14    16	 9 ;      CG321      CG301      NG3P3       HGP2
   13    12    14    17	 9 ;      CG331      CG301      NG3P3       HGP2
   13    12    14    15	 9 ;      CG331      CG301      NG3P3       HGP2
   13    12    14    16	 9 ;      CG331      CG301      NG3P3       HGP2
    9    12    18    19	 9 ;      CG2O1      CG301      CG321     CG2R61
    9    12    18    52	 9 ;      CG2O1      CG301      CG321       HGA2
    9    12    18    53	 9 ;      CG2O1      CG301      CG321       HGA2
   14    12    18    19	 9 ;      NG3P3      CG301      CG321     CG2R61
   14    12    18    52	 9 ;      NG3P3      CG301      CG321       HGA2
   14    12    18    53	 9 ;      NG3P3      CG301      CG321       HGA2
   13    12    18    19	 9 ;      CG331      CG301      CG321     CG2R61
   13    12    18    52	 9 ;      CG331      CG301      CG321       HGA2
   13    12    18    53	 9 ;      CG331      CG301      CG321       HGA2
    9    12    13    49	 9 ;      CG2O1      CG301      CG331       HGA3
    9    12    13    50	 9 ;      CG2O1      CG301      CG331       HGA3
    9    12    13    51	 9 ;      CG2O1      CG301      CG331       HGA3
   14    12    13    49	 9 ;      NG3P3      CG301      CG331       HGA3
   14    12    13    50	 9 ;      NG3P3      CG301      CG331       HGA3
   14    12    13    51	 9 ;      NG3P3      CG301      CG331       HGA3
   18    12    13    49	 9 ;      CG321      CG301      CG331       HGA3
   18    12    13    50	 9 ;      CG321      CG301      CG331       HGA3
   18    12    13    51	 9 ;      CG321      CG301      CG331       HGA3
   12    18    19    24	 9 ;      CG301      CG321     CG2R61     CG2R61
   12    18    19    20	 9 ;      CG301      CG321     CG2R61     CG2R61
   52    18    19    24	 9 ;       HGA2      CG321     CG2R61     CG2R61
   52    18    19    20	 9 ;       HGA2      CG321     CG2R61     CG2R61
   53    18    19    24	 9 ;       HGA2      CG321     CG2R61     CG2R61
   53    18    19    20	 9 ;       HGA2      CG321     CG2R61     CG2R61
   18    19    24    23	 9 ;      CG321     CG2R61     CG2R61     CG2R61
   18    19    24    58	 9 ;      CG321     CG2R61     CG2R61      HGR61
   20    19    24    23	 9 ;     CG2R61     CG2R61     CG2R61     CG2R61
   20    19    24    58	 9 ;     CG2R61     CG2R61     CG2R61      HGR61
   18    19    20    21	 9 ;      CG321     CG2R61     CG2R61     CG2R61
   18    19    20    54	 9 ;      CG321     CG2R61     CG2R61      HGR61
   24    19    20    21	 9 ;     CG2R61     CG2R61     CG2R61     CG2R61
   24    19    20    54	 9 ;     CG2R61     CG2R61     CG2R61      HGR61
   19    20    21    22	 9 ;     CG2R61     CG2R61     CG2R61     CG2R61
   19    20    21    55	 9 ;     CG2R61     CG2R61     CG2R61      HGR61
   54    20    21    22	 9 ;      HGR61     CG2R61     CG2R61     CG2R61
   54    20    21    55	 9 ;      HGR61     CG2R61     CG2R61      HGR61
   20    21    22    23	 9 ;     CG2R61     CG2R61     CG2R61     CG2R61
   20    21    22    56	 9 ;     CG2R61     CG2R61     CG2R61      HGR61
   55    21    22    23	 9 ;      HGR61     CG2R61     CG2R61     CG2R61
   55    21    22    56	 9 ;      HGR61     CG2R61     CG2R61      HGR61
   21    22    23    24	 9 ;     CG2R61     CG2R61     CG2R61     CG2R61
   21    22    23    57	 9 ;     CG2R61     CG2R61     CG2R61      HGR61
   56    22    23    24	 9 ;      HGR61     CG2R61     CG2R61     CG2R61
   56    22    23    57	 9 ;      HGR61     CG2R61     CG2R61      HGR61
   22    23    24    19	 9 ;     CG2R61     CG2R61     CG2R61     CG2R61
   22    23    24    58	 9 ;     CG2R61     CG2R61     CG2R61      HGR61
   57    23    24    19	 9 ;      HGR61     CG2R61     CG2R61     CG2R61
   57    23    24    58	 9 ;      HGR61     CG2R61     CG2R61      HGR61
   26    25    27    29	 9 ;      OG2D1      CG2O1      NG2S1      CG311
   26    25    27    28	 9 ;      OG2D1      CG2O1      NG2S1       HGP1
    3    25    27    29	 9 ;     CG2R61      CG2O1      NG2S1      CG311
    3    25    27    28	 9 ;     CG2R61      CG2O1      NG2S1       HGP1
   25    27    29    31	 9 ;      CG2O1      NG2S1      CG311     CG2R61
   25    27    29    30	 9 ;      CG2O1      NG2S1      CG311      CG331
   25    27    29    59	 9 ;      CG2O1      NG2S1      CG311       HGA1
   28    27    29    31	 9 ;       HGP1      NG2S1      CG311     CG2R61
   28    27    29    30	 9 ;       HGP1      NG2S1      CG311      CG331
   28    27    29    59	 9 ;       HGP1      NG2S1      CG311       HGA1
   27    29    31    37	 9 ;      NG2S1      CG311     CG2R61     CG2R61
   27    29    31    32	 9 ;      NG2S1      CG311     CG2R61     CG2R61
   30    29    31    37	 9 ;      CG331      CG311     CG2R61     CG2R61
   30    29    31    32	 9 ;      CG331      CG311     CG2R61     CG2R61
   59    29    31    37	 9 ;       HGA1      CG311     CG2R61     CG2R61
   59    29    31    32	 9 ;       HGA1      CG311     CG2R61     CG2R61
   27    29    30    60	 9 ;      NG2S1      CG311      CG331       HGA3
   27    29    30    61	 9 ;      NG2S1      CG311      CG331       HGA3
   27    29    30    62	 9 ;      NG2S1      CG311      CG331       HGA3
   31    29    30    60	 9 ;     CG2R61      CG311      CG331       HGA3
   31    29    30    61	 9 ;     CG2R61      CG311      CG331       HGA3
   31    29    30    62	 9 ;     CG2R61      CG311      CG331       HGA3
   59    29    30    60	 9 ;       HGA1      CG311      CG331       HGA3
   59    29    30    61	 9 ;       HGA1      CG311      CG331       HGA3
   59    29    30    62	 9 ;       HGA1      CG311      CG331       HGA3
   29    31    37    36	 9 ;      CG311     CG2R61     CG2R61     CG2R61
   29    31    37    66	 9 ;      CG311     CG2R61     CG2R61      HGR61
   32    31    37    36	 9 ;     CG2R61     CG2R61     CG2R61     CG2R61
   32    31    37    66	 9 ;     CG2R61     CG2R61     CG2R61      HGR61
   29    31    32    33	 9 ;      CG311     CG2R61     CG2R61     CG2R61
   29    31    32    63	 9 ;      CG311     CG2R61     CG2R61      HGR61
   37    31    32    33	 9 ;     CG2R61     CG2R61     CG2R61     CG2R61
   37    31    32    63	 9 ;     CG2R61     CG2R61     CG2R61      HGR61
   31    32    33    34	 9 ;     CG2R61     CG2R61     CG2R61     CG2R66
   31    32    33    64	 9 ;     CG2R61     CG2R61     CG2R61      HGR62
   63    32    33    34	 9 ;      HGR61     CG2R61     CG2R61     CG2R66
   63    32    33    64	 9 ;      HGR61     CG2R61     CG2R61      HGR62
   32    33    34    36	 9 ;     CG2R61     CG2R61     CG2R66     CG2R61
   32    33    34    35	 9 ;     CG2R61     CG2R61     CG2R66       FGR1
   64    33    34    36	 9 ;      HGR62     CG2R61     CG2R66     CG2R61
   64    33    34    35	 9 ;      HGR62     CG2R61     CG2R66       FGR1
   33    34    36    37	 9 ;     CG2R61     CG2R66     CG2R61     CG2R61
   33    34    36    65	 9 ;     CG2R61     CG2R66     CG2R61      HGR62
   35    34    36    37	 9 ;       FGR1     CG2R66     CG2R61     CG2R61
   35    34    36    65	 9 ;       FGR1     CG2R66     CG2R61      HGR62
   34    36    37    31	 9 ;     CG2R66     CG2R61     CG2R61     CG2R61
   34    36    37    66	 9 ;     CG2R66     CG2R61     CG2R61      HGR61
   65    36    37    31	 9 ;      HGR62     CG2R61     CG2R61     CG2R61
   65    36    37    66	 9 ;      HGR62     CG2R61     CG2R61      HGR61
    1    38    39    67	 9 ;     CG2R61      NG301      CG331       HGA3
    1    38    39    68	 9 ;     CG2R61      NG301      CG331       HGA3
    1    38    39    69	 9 ;     CG2R61      NG301      CG331       HGA3
   40    38    39    67	 9 ;      SG3O2      NG301      CG331       HGA3
   40    38    39    68	 9 ;      SG3O2      NG301      CG331       HGA3
   40    38    39    69	 9 ;      SG3O2      NG301      CG331       HGA3
   39    38    40    43	 9 ;      CG331      NG301      SG3O2      CG331
   39    38    40    41	 9 ;      CG331      NG301      SG3O2      OG2P1
   39    38    40    42	 9 ;      CG331      NG301      SG3O2      OG2P1
    1    38    40    43	 9 ;     CG2R61      NG301      SG3O2      CG331
    1    38    40    41	 9 ;     CG2R61      NG301      SG3O2      OG2P1
    1    38    40    42	 9 ;     CG2R61      NG301      SG3O2      OG2P1
   38    40    43    70	 9 ;      NG301      SG3O2      CG331       HGA3
   38    40    43    71	 9 ;      NG301      SG3O2      CG331       HGA3
   38    40    43    72	 9 ;      NG301      SG3O2      CG331       HGA3
   41    40    43    70	 9 ;      OG2P1      SG3O2      CG331       HGA3
   41    40    43    71	 9 ;      OG2P1      SG3O2      CG331       HGA3
   41    40    43    72	 9 ;      OG2P1      SG3O2      CG331       HGA3
   42    40    43    70	 9 ;      OG2P1      SG3O2      CG331       HGA3
   42    40    43    71	 9 ;      OG2P1      SG3O2      CG331       HGA3
   42    40    43    72	 9 ;      OG2P1      SG3O2      CG331       HGA3

[ dihedrals ]
;	ai	  aj	ak	  al funct			  c0			c1			  c2			c3
    9    12     8    10	 2
   25     3    27    26	 2

