GRoups of Organic Molecules in ACtion for Science
   61
    1LIG     C1    1  -1.775   0.665  -1.628
    1LIG     C2    2  -1.724   0.807  -1.598
    1LIG     O1    3  -1.731   0.820  -1.455
    1LIG     H1    4  -1.643   0.807  -1.416
    1LIG     C3    5  -1.584   0.838  -1.658
    1LIG     N1    6  -1.564   0.983  -1.658
    1LIG     C4    7  -1.549   1.069  -1.763
    1LIG     O2    8  -1.562   1.189  -1.741
    1LIG     C5    9  -1.521   1.013  -1.899
    1LIG     H2   10  -1.569   1.033  -1.570
    1LIG     C6   11  -1.467   0.767  -1.583
    1LIG     C7   12  -1.392   0.664  -1.664
    1LIG     C8   13  -1.450   0.604  -1.778
    1LIG     C9   14  -1.383   0.503  -1.846
    1LIG     F1   15  -1.442   0.445  -1.951
    1LIG    C10   16  -1.257   0.460  -1.806
    1LIG    C11   17  -1.198   0.521  -1.697
    1LIG    C12   18  -1.263   0.622  -1.626
    1LIG     F2   19  -1.077   0.481  -1.656
    1LIG     N2   20  -1.772   0.590  -1.497
    1LIG     H3   21  -1.678   0.610  -1.458
    1LIG     H4   22  -1.838   0.632  -1.431
    1LIG    C13   23  -1.790   0.444  -1.500
    1LIG    C14   24  -1.931   0.392  -1.509
    1LIG    C15   25  -1.857   0.384  -1.379
    1LIG    C16   26  -1.674   0.370  -1.563
    1LIG    C17   27  -1.548   0.369  -1.501
    1LIG    C18   28  -1.445   0.285  -1.546
    1LIG    C19   29  -1.465   0.204  -1.658
    1LIG    C20   30  -1.588   0.207  -1.723
    1LIG    C21   31  -1.691   0.288  -1.676
    1LIG     N3   32  -1.324   0.280  -1.471
    1LIG     N4   33  -1.226   0.192  -1.505
    1LIG    C22   34  -1.126   0.218  -1.420
    1LIG     HN   35  -1.229   0.122  -1.579
    1LIG    C23   36  -1.157   0.322  -1.332
    1LIG    C24   37  -1.285   0.360  -1.366
    1LIG    HC2   38  -1.877   0.668  -1.667
    1LIG    HC3   39  -1.709   0.616  -1.701
    1LIG     HC   40  -1.794   0.878  -1.641
    1LIG    HC1   41  -1.583   0.803  -1.761
    1LIG    HC4   42  -1.501   1.095  -1.969
    1LIG    HC5   43  -1.433   0.948  -1.895
    1LIG    HC6   44  -1.607   0.956  -1.934
    1LIG    HC7   45  -1.396   0.843  -1.551
    1LIG    HC8   46  -1.507   0.719  -1.494
    1LIG    HC9   47  -1.546   0.638  -1.812
    1LIG   HC10   48  -1.207   0.380  -1.858
    1LIG   HC11   49  -1.215   0.669  -1.542
    1LIG   HC12   50  -1.952   0.301  -1.565
    1LIG   HC13   51  -2.008   0.468  -1.514
    1LIG   HC14   52  -1.887   0.448  -1.296
    1LIG   HC15   53  -1.823   0.284  -1.351
    1LIG   HC16   54  -1.530   0.435  -1.417
    1LIG   HC17   55  -1.386   0.140  -1.693
    1LIG   HC18   56  -1.604   0.146  -1.811
    1LIG   HC19   57  -1.786   0.289  -1.728
    1LIG   HC20   58  -1.032   0.164  -1.420
    1LIG   HC21   59  -1.094   0.364  -1.255
    1LIG   HC22   60  -1.343   0.438  -1.320
    1LIG    H29   61  -1.167   0.146  -1.350
   0.00000   0.00000   0.00000
