GROtesk MACabre and Sinister
   60
    1LIG     C1    1  -1.209   0.262  -1.613
    1LIG     N1    2  -1.306   0.364  -1.617
    1LIG     C2    3  -1.277   0.455  -1.720
    1LIG     C3    4  -1.163   0.408  -1.782
    1LIG     C4    5  -1.124   0.289  -1.719
    1LIG     C5    6  -1.413   0.384  -1.517
    1LIG     C6    7  -1.551   0.340  -1.563
    1LIG     N2    8  -1.662   0.387  -1.498
    1LIG     C7    9  -1.784   0.355  -1.546
    1LIG     HN   10  -1.652   0.444  -1.414
    1LIG     C8   11  -1.801   0.280  -1.660
    1LIG     C9   12  -1.689   0.228  -1.724
    1LIG    C10   13  -1.562   0.258  -1.674
    1LIG     N3   14  -1.893   0.409  -1.479
    1LIG     H1   15  -1.942   0.331  -1.434
    1LIG     H2   16  -1.954   0.460  -1.541
    1LIG    C11   17  -1.202   0.145  -1.519
    1LIG    C12   18  -1.238   0.017  -1.563
    1LIG    C13   19  -1.224  -0.097  -1.484
    1LIG    C14   20  -1.168  -0.087  -1.358
    1LIG    C15   21  -1.130   0.038  -1.310
    1LIG    C16   22  -1.150   0.153  -1.388
    1LIG     CL   23  -1.110   0.303  -1.309
    1LIG    C17   24  -1.352   0.578  -1.751
    1LIG    C18   25  -1.457   0.576  -1.844
    1LIG    C19   26  -1.525   0.694  -1.880
    1LIG    C20   27  -1.486   0.816  -1.824
    1LIG    C21   28  -1.384   0.818  -1.730
    1LIG    C22   29  -1.321   0.701  -1.691
    1LIG      O   30  -1.538   0.938  -1.854
    1LIG    C23   31  -1.587   1.016  -1.745
    1LIG    C24   32  -1.720   0.957  -1.698
    1LIG    C25   33  -1.718   0.891  -1.559
    1LIG    C26   34  -1.730   0.740  -1.559
    1LIG     HC   35  -1.113   0.455  -1.866
    1LIG    HC1   36  -1.040   0.227  -1.748
    1LIG    HC2   37  -1.417   0.491  -1.494
    1LIG    HC3   38  -1.387   0.330  -1.427
    1LIG    HC4   39  -1.900   0.260  -1.699
    1LIG    HC5   40  -1.700   0.167  -1.812
    1LIG    HC6   41  -1.474   0.218  -1.722
    1LIG    HC7   42  -1.278   0.005  -1.663
    1LIG    HC8   43  -1.258  -0.193  -1.520
    1LIG    HC9   44  -1.152  -0.176  -1.298
    1LIG   HC10   45  -1.085   0.046  -1.212
    1LIG   HC11   46  -1.486   0.482  -1.888
    1LIG   HC12   47  -1.606   0.690  -1.950
    1LIG   HC13   48  -1.354   0.912  -1.687
    1LIG   HC14   49  -1.248   0.704  -1.612
    1LIG   HC15   50  -1.602   1.119  -1.777
    1LIG   HC16   51  -1.515   1.013  -1.663
    1LIG   HC17   52  -1.793   1.037  -1.696
    1LIG   HC18   53  -1.752   0.883  -1.770
    1LIG   HC19   54  -1.801   0.932  -1.502
    1LIG   HC20   55  -1.625   0.919  -1.509
    1LIG   HC21   56  -1.728   0.703  -1.457
    1LIG   HC22   57  -1.647   0.697  -1.615
    1LIG   HC23   58  -1.824   0.711  -1.607
    1LIG    H28   59  -1.547   0.253  -1.497
    1LIG    LP1   60  -1.072   0.444  -1.235
   0.00000   0.00000   0.00000
