; Created by cgenff_charmm2gmx.py

[ moleculetype ]
; Name			   nrexcl
LIG				 3

[ atoms ]
;	 nr		  type	resnr residue  atom   cgnr	   charge		mass  typeB    chargeB		massB
; residue	 1 LIG rtp LIG q	qsum
     1     CG2R51      1    LIG     C1      1     -0.204     12.011   ;
     2     NG2R51      1    LIG     N1      2     -0.093     14.007   ;
     3     CG2R51      1    LIG     C2      3     -0.202     12.011   ;
     4     CG2R51      1    LIG     C3      4     -0.231     12.011   ;
     5     CG2R51      1    LIG     C4      5     -0.231     12.011   ;
     6      CG321      1    LIG     C5      6      0.137     12.011   ;
     7      CG311      1    LIG     C6      7      0.189     12.011   ;
     8      NG311      1    LIG     N2      8     -0.486     14.007   ;
     9     CG2D1O      1    LIG     C7      9      0.215     12.011   ;
    10     HGPAM1      1    LIG     HN     10      0.358      1.008   ;
    11     CG2DC1      1    LIG     C8     11     -0.435     12.011   ;
    12     CG2DC2      1    LIG     C9     12     -0.142     12.011   ;
    13     CG2DC2      1    LIG    C10     13     -0.306     12.011   ;
    14      NG321      1    LIG     N3     14     -0.745     14.007   ;
    15     HGPAM2      1    LIG     H1     15      0.404      1.008   ;
    16     HGPAM2      1    LIG     H2     16      0.404      1.008   ;
    17     CG2R61      1    LIG    C11     17      0.182     12.011   ;
    18     CG2R61      1    LIG    C12     18     -0.118     12.011   ;
    19     CG2R61      1    LIG    C13     19     -0.111     12.011   ;
    20     CG2R61      1    LIG    C14     20     -0.116     12.011   ;
    21     CG2R61      1    LIG    C15     21     -0.104     12.011   ;
    22     CG2R61      1    LIG    C16     22      0.032     12.011   ;
    23      CLGR1      1    LIG     CL     23     -0.190     35.453   ;
    24     CG2R61      1    LIG    C17     24      0.129     12.011   ;
    25     CG2R61      1    LIG    C18     25     -0.118     12.011   ;
    26     CG2R61      1    LIG    C19     26     -0.118     12.011   ;
    27     CG2R61      1    LIG    C20     27      0.222     12.011   ;
    28     CG2R61      1    LIG    C21     28     -0.118     12.011   ;
    29     CG2R61      1    LIG    C22     29     -0.118     12.011   ;
    30      OG301      1    LIG      O     30     -0.398     15.999   ;
    31      CG321      1    LIG    C23     31     -0.006     12.011   ;
    32      CG321      1    LIG    C24     32     -0.182     12.011   ;
    33      CG321      1    LIG    C25     33     -0.176     12.011   ;
    34      CG331      1    LIG    C26     34     -0.270     12.011   ;
    35      HGR51      1    LIG     HC     35      0.202      1.008   ;
    36      HGR51      1    LIG    HC1     36      0.202      1.008   ;
    37       HGA2      1    LIG    HC2     37      0.090      1.008   ;
    38       HGA2      1    LIG    HC3     38      0.090      1.008   ;
    39       HGA4      1    LIG    HC4     39      0.150      1.008   ;
    40       HGA4      1    LIG    HC5     40      0.150      1.008   ;
    41       HGA4      1    LIG    HC6     41      0.150      1.008   ;
    42      HGR61      1    LIG    HC7     42      0.116      1.008   ;
    43      HGR61      1    LIG    HC8     43      0.116      1.008   ;
    44      HGR61      1    LIG    HC9     44      0.116      1.008   ;
    45      HGR62      1    LIG   HC10     45      0.150      1.008   ;
    46      HGR61      1    LIG   HC11     46      0.116      1.008   ;
    47      HGR61      1    LIG   HC12     47      0.116      1.008   ;
    48      HGR61      1    LIG   HC13     48      0.116      1.008   ;
    49      HGR61      1    LIG   HC14     49      0.116      1.008   ;
    50       HGA2      1    LIG   HC15     50      0.090      1.008   ;
    51       HGA2      1    LIG   HC16     51      0.090      1.008   ;
    52       HGA2      1    LIG   HC17     52      0.090      1.008   ;
    53       HGA2      1    LIG   HC18     53      0.090      1.008   ;
    54       HGA2      1    LIG   HC19     54      0.090      1.008   ;
    55       HGA2      1    LIG   HC20     55      0.090      1.008   ;
    56       HGA3      1    LIG   HC21     56      0.090      1.008   ;
    57       HGA3      1    LIG   HC22     57      0.090      1.008   ;
    58       HGA3      1    LIG   HC23     58      0.090      1.008   ;
    59       HGA1      1    LIG    H28     59      0.090      1.008   ;
    60        LPH      1    LIG    LP1     60      0.050      0.000   ;

[ bonds ]
;	ai	  aj funct			  c0			c1			  c2			c3
    1     5	 1 ;      CG2R51     CG2R51
    1     2	 1 ;      CG2R51     NG2R51
    1    17	 1 ;      CG2R51     CG2R61
    2     3	 1 ;      NG2R51     CG2R51
    2     6	 1 ;      NG2R51      CG321
    3     4	 1 ;      CG2R51     CG2R51
    3    24	 1 ;      CG2R51     CG2R61
    4     5	 1 ;      CG2R51     CG2R51
    4    35	 1 ;      CG2R51      HGR51
    5    36	 1 ;      CG2R51      HGR51
    6     7	 1 ;       CG321      CG311
    6    37	 1 ;       CG321       HGA2
    6    38	 1 ;       CG321       HGA2
    7    13	 1 ;       CG311     CG2DC2
    7     8	 1 ;       CG311      NG311
    7    59	 1 ;       CG311       HGA1
    8    10	 1 ;       NG311     HGPAM1
    8     9	 1 ;       NG311     CG2D1O
    9    11	 1 ;      CG2D1O     CG2DC1
    9    14	 1 ;      CG2D1O      NG321
   11    12	 1 ;      CG2DC1     CG2DC2
   11    39	 1 ;      CG2DC1       HGA4
   12    13	 1 ;      CG2DC2     CG2DC2
   12    40	 1 ;      CG2DC2       HGA4
   13    41	 1 ;      CG2DC2       HGA4
   14    16	 1 ;       NG321     HGPAM2
   14    15	 1 ;       NG321     HGPAM2
   17    18	 1 ;      CG2R61     CG2R61
   17    22	 1 ;      CG2R61     CG2R61
   18    19	 1 ;      CG2R61     CG2R61
   18    42	 1 ;      CG2R61      HGR61
   19    20	 1 ;      CG2R61     CG2R61
   19    43	 1 ;      CG2R61      HGR61
   20    21	 1 ;      CG2R61     CG2R61
   20    44	 1 ;      CG2R61      HGR61
   21    22	 1 ;      CG2R61     CG2R61
   21    45	 1 ;      CG2R61      HGR62
   22    23	 1 ;      CG2R61      CLGR1
   24    29	 1 ;      CG2R61     CG2R61
   24    25	 1 ;      CG2R61     CG2R61
   25    26	 1 ;      CG2R61     CG2R61
   25    46	 1 ;      CG2R61      HGR61
   26    27	 1 ;      CG2R61     CG2R61
   26    47	 1 ;      CG2R61      HGR61
   27    28	 1 ;      CG2R61     CG2R61
   27    30	 1 ;      CG2R61      OG301
   28    29	 1 ;      CG2R61     CG2R61
   28    48	 1 ;      CG2R61      HGR61
   29    49	 1 ;      CG2R61      HGR61
   30    31	 1 ;       OG301      CG321
   31    32	 1 ;       CG321      CG321
   31    50	 1 ;       CG321       HGA2
   31    51	 1 ;       CG321       HGA2
   32    33	 1 ;       CG321      CG321
   32    52	 1 ;       CG321       HGA2
   32    53	 1 ;       CG321       HGA2
   33    34	 1 ;       CG321      CG331
   33    54	 1 ;       CG321       HGA2
   33    55	 1 ;       CG321       HGA2
   34    56	 1 ;       CG331       HGA3
   34    57	 1 ;       CG331       HGA3
   34    58	 1 ;       CG331       HGA3

[ pairs ]
;	ai	  aj funct			  c0			c1			  c2			c3
    1    24	 1
    1     7	 1
    1    37	 1
    1    38	 1
    1    35	 1
    1    19	 1
    1    42	 1
    1    23	 1
   60     1	 1
    1    21	 1
    2    36	 1
    2    18	 1
    2    22	 1
    2    35	 1
    2    29	 1
    2    25	 1
    2    13	 1
    2     8	 1
    2    59	 1
    3    17	 1
    3     7	 1
    3    37	 1
    3    38	 1
    3    36	 1
    3    28	 1
    3    49	 1
    3    26	 1
    3    46	 1
    4    17	 1
    4     6	 1
    4    29	 1
    4    25	 1
    5     6	 1
    5    18	 1
    5    22	 1
    5    24	 1
    6    17	 1
    6    24	 1
    6    12	 1
    6    41	 1
    6    10	 1
    6     9	 1
    7    11	 1
    7    14	 1
    7    40	 1
    8    37	 1
    8    38	 1
    8    12	 1
    8    41	 1
    8    39	 1
    8    16	 1
    8    15	 1
    9    13	 1
    9    59	 1
    9    40	 1
   10    13	 1
   10    59	 1
   10    11	 1
   10    14	 1
   11    16	 1
   11    15	 1
   11    41	 1
   12    59	 1
   12    14	 1
   13    37	 1
   13    38	 1
   13    39	 1
   14    39	 1
   17    36	 1
   17    20	 1
   17    43	 1
   17    45	 1
   18    23	 1
   60    18	 1
   18    21	 1
   18    44	 1
   19    22	 1
   19    45	 1
   20    42	 1
   20    23	 1
   60    20	 1
   21    43	 1
   22    42	 1
   22    44	 1
   23    45	 1
   60    45	 1
   24    35	 1
   24    27	 1
   24    47	 1
   24    48	 1
   25    28	 1
   25    49	 1
   25    30	 1
   26    29	 1
   26    48	 1
   26    31	 1
   27    46	 1
   27    49	 1
   27    32	 1
   27    50	 1
   27    51	 1
   28    47	 1
   28    31	 1
   29    46	 1
   29    30	 1
   30    47	 1
   30    48	 1
   30    33	 1
   30    52	 1
   30    53	 1
   31    34	 1
   31    54	 1
   31    55	 1
   32    56	 1
   32    57	 1
   32    58	 1
   33    50	 1
   33    51	 1
   34    52	 1
   34    53	 1
   35    36	 1
   37    59	 1
   38    59	 1
   39    40	 1
   40    41	 1
   41    59	 1
   42    43	 1
   43    44	 1
   44    45	 1
   46    47	 1
   48    49	 1
   50    52	 1
   50    53	 1
   51    52	 1
   51    53	 1
   52    54	 1
   52    55	 1
   53    54	 1
   53    55	 1
   54    56	 1
   54    57	 1
   54    58	 1
   55    56	 1
   55    57	 1
   55    58	 1

[ angles ]
;	ai	  aj	ak funct			c0			  c1			c2			  c3
    5     1     2	5 ;     CG2R51     CG2R51     NG2R51
    5     1    17	5 ;     CG2R51     CG2R51     CG2R61
    2     1    17	5 ;     NG2R51     CG2R51     CG2R61
    3     2     1	5 ;     CG2R51     NG2R51     CG2R51
    3     2     6	5 ;     CG2R51     NG2R51      CG321
    1     2     6	5 ;     CG2R51     NG2R51      CG321
    4     3    24	5 ;     CG2R51     CG2R51     CG2R61
    4     3     2	5 ;     CG2R51     CG2R51     NG2R51
   24     3     2	5 ;     CG2R61     CG2R51     NG2R51
    5     4     3	5 ;     CG2R51     CG2R51     CG2R51
    5     4    35	5 ;     CG2R51     CG2R51      HGR51
    3     4    35	5 ;     CG2R51     CG2R51      HGR51
    4     5     1	5 ;     CG2R51     CG2R51     CG2R51
    4     5    36	5 ;     CG2R51     CG2R51      HGR51
    1     5    36	5 ;     CG2R51     CG2R51      HGR51
    2     6     7	5 ;     NG2R51      CG321      CG311
    2     6    37	5 ;     NG2R51      CG321       HGA2
    2     6    38	5 ;     NG2R51      CG321       HGA2
    7     6    37	5 ;      CG311      CG321       HGA2
    7     6    38	5 ;      CG311      CG321       HGA2
   37     6    38	5 ;       HGA2      CG321       HGA2
    6     7    13	5 ;      CG321      CG311     CG2DC2
    6     7     8	5 ;      CG321      CG311      NG311
    6     7    59	5 ;      CG321      CG311       HGA1
   13     7     8	5 ;     CG2DC2      CG311      NG311
   13     7    59	5 ;     CG2DC2      CG311       HGA1
    8     7    59	5 ;      NG311      CG311       HGA1
    7     8    10	5 ;      CG311      NG311     HGPAM1
    7     8     9	5 ;      CG311      NG311     CG2D1O
   10     8     9	5 ;     HGPAM1      NG311     CG2D1O
    8     9    11	5 ;      NG311     CG2D1O     CG2DC1
    8     9    14	5 ;      NG311     CG2D1O      NG321
   11     9    14	5 ;     CG2DC1     CG2D1O      NG321
   12    11     9	5 ;     CG2DC2     CG2DC1     CG2D1O
   12    11    39	5 ;     CG2DC2     CG2DC1       HGA4
    9    11    39	5 ;     CG2D1O     CG2DC1       HGA4
   13    12    11	5 ;     CG2DC2     CG2DC2     CG2DC1
   13    12    40	5 ;     CG2DC2     CG2DC2       HGA4
   11    12    40	5 ;     CG2DC1     CG2DC2       HGA4
    7    13    12	5 ;      CG311     CG2DC2     CG2DC2
    7    13    41	5 ;      CG311     CG2DC2       HGA4
   12    13    41	5 ;     CG2DC2     CG2DC2       HGA4
    9    14    16	5 ;     CG2D1O      NG321     HGPAM2
    9    14    15	5 ;     CG2D1O      NG321     HGPAM2
   16    14    15	5 ;     HGPAM2      NG321     HGPAM2
    1    17    18	5 ;     CG2R51     CG2R61     CG2R61
    1    17    22	5 ;     CG2R51     CG2R61     CG2R61
   18    17    22	5 ;     CG2R61     CG2R61     CG2R61
   17    18    19	5 ;     CG2R61     CG2R61     CG2R61
   17    18    42	5 ;     CG2R61     CG2R61      HGR61
   19    18    42	5 ;     CG2R61     CG2R61      HGR61
   18    19    20	5 ;     CG2R61     CG2R61     CG2R61
   18    19    43	5 ;     CG2R61     CG2R61      HGR61
   20    19    43	5 ;     CG2R61     CG2R61      HGR61
   21    20    19	5 ;     CG2R61     CG2R61     CG2R61
   21    20    44	5 ;     CG2R61     CG2R61      HGR61
   19    20    44	5 ;     CG2R61     CG2R61      HGR61
   22    21    20	5 ;     CG2R61     CG2R61     CG2R61
   22    21    45	5 ;     CG2R61     CG2R61      HGR62
   20    21    45	5 ;     CG2R61     CG2R61      HGR62
   17    22    23	5 ;     CG2R61     CG2R61      CLGR1
   17    22    21	5 ;     CG2R61     CG2R61     CG2R61
   23    22    21	5 ;      CLGR1     CG2R61     CG2R61
    3    24    29	5 ;     CG2R51     CG2R61     CG2R61
    3    24    25	5 ;     CG2R51     CG2R61     CG2R61
   29    24    25	5 ;     CG2R61     CG2R61     CG2R61
   24    25    26	5 ;     CG2R61     CG2R61     CG2R61
   24    25    46	5 ;     CG2R61     CG2R61      HGR61
   26    25    46	5 ;     CG2R61     CG2R61      HGR61
   27    26    25	5 ;     CG2R61     CG2R61     CG2R61
   27    26    47	5 ;     CG2R61     CG2R61      HGR61
   25    26    47	5 ;     CG2R61     CG2R61      HGR61
   28    27    30	5 ;     CG2R61     CG2R61      OG301
   28    27    26	5 ;     CG2R61     CG2R61     CG2R61
   30    27    26	5 ;      OG301     CG2R61     CG2R61
   29    28    27	5 ;     CG2R61     CG2R61     CG2R61
   29    28    48	5 ;     CG2R61     CG2R61      HGR61
   27    28    48	5 ;     CG2R61     CG2R61      HGR61
   28    29    24	5 ;     CG2R61     CG2R61     CG2R61
   28    29    49	5 ;     CG2R61     CG2R61      HGR61
   24    29    49	5 ;     CG2R61     CG2R61      HGR61
   27    30    31	5 ;     CG2R61      OG301      CG321
   30    31    32	5 ;      OG301      CG321      CG321
   30    31    50	5 ;      OG301      CG321       HGA2
   30    31    51	5 ;      OG301      CG321       HGA2
   32    31    50	5 ;      CG321      CG321       HGA2
   32    31    51	5 ;      CG321      CG321       HGA2
   50    31    51	5 ;       HGA2      CG321       HGA2
   31    32    33	5 ;      CG321      CG321      CG321
   31    32    52	5 ;      CG321      CG321       HGA2
   31    32    53	5 ;      CG321      CG321       HGA2
   33    32    52	5 ;      CG321      CG321       HGA2
   33    32    53	5 ;      CG321      CG321       HGA2
   52    32    53	5 ;       HGA2      CG321       HGA2
   32    33    34	5 ;      CG321      CG321      CG331
   32    33    54	5 ;      CG321      CG321       HGA2
   32    33    55	5 ;      CG321      CG321       HGA2
   34    33    54	5 ;      CG331      CG321       HGA2
   34    33    55	5 ;      CG331      CG321       HGA2
   54    33    55	5 ;       HGA2      CG321       HGA2
   33    34    56	5 ;      CG321      CG331       HGA3
   33    34    57	5 ;      CG321      CG331       HGA3
   33    34    58	5 ;      CG321      CG331       HGA3
   56    34    57	5 ;       HGA3      CG331       HGA3
   56    34    58	5 ;       HGA3      CG331       HGA3
   57    34    58	5 ;       HGA3      CG331       HGA3

[ dihedrals ]
;	ai	  aj	ak	  al funct			  c0			c1			  c2			c3			  c4			c5
    2     1     5     4	 9 ;     NG2R51     CG2R51     CG2R51     CG2R51
    2     1     5    36	 9 ;     NG2R51     CG2R51     CG2R51      HGR51
   17     1     5     4	 9 ;     CG2R61     CG2R51     CG2R51     CG2R51
   17     1     5    36	 9 ;     CG2R61     CG2R51     CG2R51      HGR51
    5     1     2     3	 9 ;     CG2R51     CG2R51     NG2R51     CG2R51
    5     1     2     6	 9 ;     CG2R51     CG2R51     NG2R51      CG321
   17     1     2     3	 9 ;     CG2R61     CG2R51     NG2R51     CG2R51
   17     1     2     6	 9 ;     CG2R61     CG2R51     NG2R51      CG321
    5     1    17    18	 9 ;     CG2R51     CG2R51     CG2R61     CG2R61
    5     1    17    22	 9 ;     CG2R51     CG2R51     CG2R61     CG2R61
    2     1    17    18	 9 ;     NG2R51     CG2R51     CG2R61     CG2R61
    2     1    17    22	 9 ;     NG2R51     CG2R51     CG2R61     CG2R61
    1     2     3     4	 9 ;     CG2R51     NG2R51     CG2R51     CG2R51
    1     2     3    24	 9 ;     CG2R51     NG2R51     CG2R51     CG2R61
    6     2     3     4	 9 ;      CG321     NG2R51     CG2R51     CG2R51
    6     2     3    24	 9 ;      CG321     NG2R51     CG2R51     CG2R61
    3     2     6     7	 9 ;     CG2R51     NG2R51      CG321      CG311
    3     2     6    37	 9 ;     CG2R51     NG2R51      CG321       HGA2
    3     2     6    38	 9 ;     CG2R51     NG2R51      CG321       HGA2
    1     2     6     7	 9 ;     CG2R51     NG2R51      CG321      CG311
    1     2     6    37	 9 ;     CG2R51     NG2R51      CG321       HGA2
    1     2     6    38	 9 ;     CG2R51     NG2R51      CG321       HGA2
   24     3     4     5	 9 ;     CG2R61     CG2R51     CG2R51     CG2R51
   24     3     4    35	 9 ;     CG2R61     CG2R51     CG2R51      HGR51
    2     3     4     5	 9 ;     NG2R51     CG2R51     CG2R51     CG2R51
    2     3     4    35	 9 ;     NG2R51     CG2R51     CG2R51      HGR51
    4     3    24    29	 9 ;     CG2R51     CG2R51     CG2R61     CG2R61
    4     3    24    25	 9 ;     CG2R51     CG2R51     CG2R61     CG2R61
    2     3    24    29	 9 ;     NG2R51     CG2R51     CG2R61     CG2R61
    2     3    24    25	 9 ;     NG2R51     CG2R51     CG2R61     CG2R61
    3     4     5     1	 9 ;     CG2R51     CG2R51     CG2R51     CG2R51
    3     4     5    36	 9 ;     CG2R51     CG2R51     CG2R51      HGR51
   35     4     5     1	 9 ;      HGR51     CG2R51     CG2R51     CG2R51
   35     4     5    36	 9 ;      HGR51     CG2R51     CG2R51      HGR51
    2     6     7    13	 9 ;     NG2R51      CG321      CG311     CG2DC2
    2     6     7     8	 9 ;     NG2R51      CG321      CG311      NG311
    2     6     7    59	 9 ;     NG2R51      CG321      CG311       HGA1
   37     6     7    13	 9 ;       HGA2      CG321      CG311     CG2DC2
   37     6     7     8	 9 ;       HGA2      CG321      CG311      NG311
   37     6     7    59	 9 ;       HGA2      CG321      CG311       HGA1
   38     6     7    13	 9 ;       HGA2      CG321      CG311     CG2DC2
   38     6     7     8	 9 ;       HGA2      CG321      CG311      NG311
   38     6     7    59	 9 ;       HGA2      CG321      CG311       HGA1
    6     7    13    12	 9 ;      CG321      CG311     CG2DC2     CG2DC2
    6     7    13    41	 9 ;      CG321      CG311     CG2DC2       HGA4
    8     7    13    12	 9 ;      NG311      CG311     CG2DC2     CG2DC2
    8     7    13    41	 9 ;      NG311      CG311     CG2DC2       HGA4
   59     7    13    12	 9 ;       HGA1      CG311     CG2DC2     CG2DC2
   59     7    13    41	 9 ;       HGA1      CG311     CG2DC2       HGA4
    6     7     8    10	 9 ;      CG321      CG311      NG311     HGPAM1
    6     7     8     9	 9 ;      CG321      CG311      NG311     CG2D1O
   13     7     8    10	 9 ;     CG2DC2      CG311      NG311     HGPAM1
   13     7     8     9	 9 ;     CG2DC2      CG311      NG311     CG2D1O
   59     7     8    10	 9 ;       HGA1      CG311      NG311     HGPAM1
   59     7     8     9	 9 ;       HGA1      CG311      NG311     CG2D1O
    7     8     9    11	 9 ;      CG311      NG311     CG2D1O     CG2DC1
    7     8     9    14	 9 ;      CG311      NG311     CG2D1O      NG321
   10     8     9    11	 9 ;     HGPAM1      NG311     CG2D1O     CG2DC1
   10     8     9    14	 9 ;     HGPAM1      NG311     CG2D1O      NG321
    8     9    11    12	 9 ;      NG311     CG2D1O     CG2DC1     CG2DC2
    8     9    11    39	 9 ;      NG311     CG2D1O     CG2DC1       HGA4
   14     9    11    12	 9 ;      NG321     CG2D1O     CG2DC1     CG2DC2
   14     9    11    39	 9 ;      NG321     CG2D1O     CG2DC1       HGA4
    8     9    14    16	 9 ;      NG311     CG2D1O      NG321     HGPAM2
    8     9    14    15	 9 ;      NG311     CG2D1O      NG321     HGPAM2
   11     9    14    16	 9 ;     CG2DC1     CG2D1O      NG321     HGPAM2
   11     9    14    15	 9 ;     CG2DC1     CG2D1O      NG321     HGPAM2
    9    11    12    13	 9 ;     CG2D1O     CG2DC1     CG2DC2     CG2DC2
    9    11    12    40	 9 ;     CG2D1O     CG2DC1     CG2DC2       HGA4
   39    11    12    13	 9 ;       HGA4     CG2DC1     CG2DC2     CG2DC2
   39    11    12    40	 9 ;       HGA4     CG2DC1     CG2DC2       HGA4
   11    12    13     7	 9 ;     CG2DC1     CG2DC2     CG2DC2      CG311
   11    12    13    41	 9 ;     CG2DC1     CG2DC2     CG2DC2       HGA4
   40    12    13     7	 9 ;       HGA4     CG2DC2     CG2DC2      CG311
   40    12    13    41	 9 ;       HGA4     CG2DC2     CG2DC2       HGA4
    1    17    18    19	 9 ;     CG2R51     CG2R61     CG2R61     CG2R61
    1    17    18    42	 9 ;     CG2R51     CG2R61     CG2R61      HGR61
   22    17    18    19	 9 ;     CG2R61     CG2R61     CG2R61     CG2R61
   22    17    18    42	 9 ;     CG2R61     CG2R61     CG2R61      HGR61
    1    17    22    23	 9 ;     CG2R51     CG2R61     CG2R61      CLGR1
    1    17    22    21	 9 ;     CG2R51     CG2R61     CG2R61     CG2R61
   18    17    22    23	 9 ;     CG2R61     CG2R61     CG2R61      CLGR1
   18    17    22    21	 9 ;     CG2R61     CG2R61     CG2R61     CG2R61
   17    18    19    20	 9 ;     CG2R61     CG2R61     CG2R61     CG2R61
   17    18    19    43	 9 ;     CG2R61     CG2R61     CG2R61      HGR61
   42    18    19    20	 9 ;      HGR61     CG2R61     CG2R61     CG2R61
   42    18    19    43	 9 ;      HGR61     CG2R61     CG2R61      HGR61
   18    19    20    21	 9 ;     CG2R61     CG2R61     CG2R61     CG2R61
   18    19    20    44	 9 ;     CG2R61     CG2R61     CG2R61      HGR61
   43    19    20    21	 9 ;      HGR61     CG2R61     CG2R61     CG2R61
   43    19    20    44	 9 ;      HGR61     CG2R61     CG2R61      HGR61
   19    20    21    22	 9 ;     CG2R61     CG2R61     CG2R61     CG2R61
   19    20    21    45	 9 ;     CG2R61     CG2R61     CG2R61      HGR62
   44    20    21    22	 9 ;      HGR61     CG2R61     CG2R61     CG2R61
   44    20    21    45	 9 ;      HGR61     CG2R61     CG2R61      HGR62
   20    21    22    17	 9 ;     CG2R61     CG2R61     CG2R61     CG2R61
   20    21    22    23	 9 ;     CG2R61     CG2R61     CG2R61      CLGR1
   45    21    22    17	 9 ;      HGR62     CG2R61     CG2R61     CG2R61
   45    21    22    23	 9 ;      HGR62     CG2R61     CG2R61      CLGR1
    3    24    29    28	 9 ;     CG2R51     CG2R61     CG2R61     CG2R61
    3    24    29    49	 9 ;     CG2R51     CG2R61     CG2R61      HGR61
   25    24    29    28	 9 ;     CG2R61     CG2R61     CG2R61     CG2R61
   25    24    29    49	 9 ;     CG2R61     CG2R61     CG2R61      HGR61
    3    24    25    26	 9 ;     CG2R51     CG2R61     CG2R61     CG2R61
    3    24    25    46	 9 ;     CG2R51     CG2R61     CG2R61      HGR61
   29    24    25    26	 9 ;     CG2R61     CG2R61     CG2R61     CG2R61
   29    24    25    46	 9 ;     CG2R61     CG2R61     CG2R61      HGR61
   24    25    26    27	 9 ;     CG2R61     CG2R61     CG2R61     CG2R61
   24    25    26    47	 9 ;     CG2R61     CG2R61     CG2R61      HGR61
   46    25    26    27	 9 ;      HGR61     CG2R61     CG2R61     CG2R61
   46    25    26    47	 9 ;      HGR61     CG2R61     CG2R61      HGR61
   25    26    27    28	 9 ;     CG2R61     CG2R61     CG2R61     CG2R61
   25    26    27    30	 9 ;     CG2R61     CG2R61     CG2R61      OG301
   47    26    27    28	 9 ;      HGR61     CG2R61     CG2R61     CG2R61
   47    26    27    30	 9 ;      HGR61     CG2R61     CG2R61      OG301
   30    27    28    29	 9 ;      OG301     CG2R61     CG2R61     CG2R61
   30    27    28    48	 9 ;      OG301     CG2R61     CG2R61      HGR61
   26    27    28    29	 9 ;     CG2R61     CG2R61     CG2R61     CG2R61
   26    27    28    48	 9 ;     CG2R61     CG2R61     CG2R61      HGR61
   28    27    30    31	 9 ;     CG2R61     CG2R61      OG301      CG321
   26    27    30    31	 9 ;     CG2R61     CG2R61      OG301      CG321
   27    28    29    24	 9 ;     CG2R61     CG2R61     CG2R61     CG2R61
   27    28    29    49	 9 ;     CG2R61     CG2R61     CG2R61      HGR61
   48    28    29    24	 9 ;      HGR61     CG2R61     CG2R61     CG2R61
   48    28    29    49	 9 ;      HGR61     CG2R61     CG2R61      HGR61
   27    30    31    32	 9 ;     CG2R61      OG301      CG321      CG321
   27    30    31    50	 9 ;     CG2R61      OG301      CG321       HGA2
   27    30    31    51	 9 ;     CG2R61      OG301      CG321       HGA2
   30    31    32    33	 9 ;      OG301      CG321      CG321      CG321
   30    31    32    52	 9 ;      OG301      CG321      CG321       HGA2
   30    31    32    53	 9 ;      OG301      CG321      CG321       HGA2
   50    31    32    33	 9 ;       HGA2      CG321      CG321      CG321
   50    31    32    52	 9 ;       HGA2      CG321      CG321       HGA2
   50    31    32    53	 9 ;       HGA2      CG321      CG321       HGA2
   51    31    32    33	 9 ;       HGA2      CG321      CG321      CG321
   51    31    32    52	 9 ;       HGA2      CG321      CG321       HGA2
   51    31    32    53	 9 ;       HGA2      CG321      CG321       HGA2
   31    32    33    34	 9 ;      CG321      CG321      CG321      CG331
   31    32    33    54	 9 ;      CG321      CG321      CG321       HGA2
   31    32    33    55	 9 ;      CG321      CG321      CG321       HGA2
   52    32    33    34	 9 ;       HGA2      CG321      CG321      CG331
   52    32    33    54	 9 ;       HGA2      CG321      CG321       HGA2
   52    32    33    55	 9 ;       HGA2      CG321      CG321       HGA2
   53    32    33    34	 9 ;       HGA2      CG321      CG321      CG331
   53    32    33    54	 9 ;       HGA2      CG321      CG321       HGA2
   53    32    33    55	 9 ;       HGA2      CG321      CG321       HGA2
   32    33    34    56	 9 ;      CG321      CG321      CG331       HGA3
   32    33    34    57	 9 ;      CG321      CG321      CG331       HGA3
   32    33    34    58	 9 ;      CG321      CG321      CG331       HGA3
   54    33    34    56	 9 ;       HGA2      CG321      CG331       HGA3
   54    33    34    57	 9 ;       HGA2      CG321      CG331       HGA3
   54    33    34    58	 9 ;       HGA2      CG321      CG331       HGA3
   55    33    34    56	 9 ;       HGA2      CG321      CG331       HGA3
   55    33    34    57	 9 ;       HGA2      CG321      CG331       HGA3
   55    33    34    58	 9 ;       HGA2      CG321      CG331       HGA3

[ dihedrals ]
;	ai	  aj	ak	  al funct			  c0			c1			  c2			c3
    9    11     8    14	 2

[ virtual_sites2 ]
; Site   from				funct a
   60    23    22     2   -0.164

[ exclusions ]
;	ai	  aj
   23    60
   60    22
   60    17
   60    21
   60     1
   60    18
   60    20
   60    45

