; Created by cgenff_charmm2gmx.py

[ moleculetype ]
; Name			   nrexcl
LIG				 3

[ atoms ]
;	 nr		  type	resnr residue  atom   cgnr	   charge		mass  typeB    chargeB		massB
; residue	 1 LIG rtp LIG q	qsum
     1      OG2D1      1    LIG      O      1     -0.385     15.999   ;
     2     CG2R53      1    LIG     C1      2      0.040     12.011   ;
     3     NG2R53      1    LIG     N1      3     -0.372     14.007   ;
     4      CG331      1    LIG     C2      4     -0.126     12.011   ;
     5     CG3C51      1    LIG     C3      5      0.338     12.011   ;
     6     NG3C51      1    LIG     N2      6     -0.492     14.007   ;
     7     CG3C50      1    LIG     C4      7      0.739     12.011   ;
     8       HGP1      1    LIG     H1      8      0.244      1.008   ;
     9      CG321      1    LIG     C5      9     -0.285     12.011   ;
    10      CG321      1    LIG     C6     10     -0.188     12.011   ;
    11      CG311      1    LIG     C7     11     -0.055     12.011   ;
    12      CG321      1    LIG     C8     12     -0.186     12.011   ;
    13      CG321      1    LIG     C9     13     -0.192     12.011   ;
    14      CG321      1    LIG    C10     14     -0.154     12.011   ;
    15      CG321      1    LIG    C11     15     -0.192     12.011   ;
    16      CG321      1    LIG    C12     16     -0.186     12.011   ;
    17      CG321      1    LIG    C13     17     -0.272     12.011   ;
    18      CG311      1    LIG    C14     18     -0.095     12.011   ;
    19      CG321      1    LIG    C15     19     -0.182     12.011   ;
    20      CG321      1    LIG    C16     20     -0.192     12.011   ;
    21      CG321      1    LIG    C17     21     -0.154     12.011   ;
    22      CG321      1    LIG    C18     22     -0.192     12.011   ;
    23      CG321      1    LIG    C19     23     -0.182     12.011   ;
    24      NG321      1    LIG     N3     24     -0.877     14.007   ;
    25     HGPAM2      1    LIG     H2     25      0.349      1.008   ;
    26     HGPAM2      1    LIG     HN     26      0.349      1.008   ;
    27       HGA3      1    LIG    HC1     27      0.090      1.008   ;
    28       HGA3      1    LIG    HC2     28      0.090      1.008   ;
    29       HGA3      1    LIG    HC3     29      0.090      1.008   ;
    30       HGA2      1    LIG    HC4     30      0.090      1.008   ;
    31       HGA2      1    LIG    HC5     31      0.090      1.008   ;
    32       HGA2      1    LIG    HC6     32      0.090      1.008   ;
    33       HGA2      1    LIG    HC7     33      0.090      1.008   ;
    34       HGA1      1    LIG     HC     34      0.090      1.008   ;
    35       HGA2      1    LIG    HC8     35      0.090      1.008   ;
    36       HGA2      1    LIG    HC9     36      0.090      1.008   ;
    37       HGA2      1    LIG   HC10     37      0.090      1.008   ;
    38       HGA2      1    LIG   HC11     38      0.090      1.008   ;
    39       HGA2      1    LIG   HC12     39      0.090      1.008   ;
    40       HGA2      1    LIG   HC13     40      0.090      1.008   ;
    41       HGA2      1    LIG   HC14     41      0.090      1.008   ;
    42       HGA2      1    LIG   HC15     42      0.090      1.008   ;
    43       HGA2      1    LIG   HC16     43      0.090      1.008   ;
    44       HGA2      1    LIG   HC17     44      0.090      1.008   ;
    45       HGA2      1    LIG   HC18     45      0.090      1.008   ;
    46       HGA2      1    LIG   HC19     46      0.090      1.008   ;
    47       HGA1      1    LIG   HC20     47      0.090      1.008   ;
    48       HGA2      1    LIG   HC21     48      0.090      1.008   ;
    49       HGA2      1    LIG   HC22     49      0.090      1.008   ;
    50       HGA2      1    LIG   HC23     50      0.090      1.008   ;
    51       HGA2      1    LIG   HC24     51      0.090      1.008   ;
    52       HGA2      1    LIG   HC25     52      0.090      1.008   ;
    53       HGA2      1    LIG   HC26     53      0.090      1.008   ;
    54       HGA2      1    LIG   HC27     54      0.090      1.008   ;
    55       HGA2      1    LIG   HC28     55      0.090      1.008   ;
    56       HGA2      1    LIG   HC29     56      0.090      1.008   ;
    57       HGA2      1    LIG   HC30     57      0.090      1.008   ;
    58       HGA1      1    LIG    H35     58      0.110      1.008   ;

[ bonds ]
;	ai	  aj funct			  c0			c1			  c2			c3
    1     2	 1 ;       OG2D1     CG2R53
    2     3	 1 ;      CG2R53     NG2R53
    2     7	 1 ;      CG2R53     CG3C50
    3     4	 1 ;      NG2R53      CG331
    3     5	 1 ;      NG2R53     CG3C51
    4    27	 1 ;       CG331       HGA3
    4    28	 1 ;       CG331       HGA3
    4    29	 1 ;       CG331       HGA3
    5    24	 1 ;      CG3C51      NG321
    5     6	 1 ;      CG3C51     NG3C51
    5    58	 1 ;      CG3C51       HGA1
    6     8	 1 ;      NG3C51       HGP1
    6     7	 1 ;      NG3C51     CG3C50
    7     9	 1 ;      CG3C50      CG321
    7    17	 1 ;      CG3C50      CG321
    9    10	 1 ;       CG321      CG321
    9    30	 1 ;       CG321       HGA2
    9    31	 1 ;       CG321       HGA2
   10    11	 1 ;       CG321      CG311
   10    32	 1 ;       CG321       HGA2
   10    33	 1 ;       CG321       HGA2
   11    12	 1 ;       CG311      CG321
   11    16	 1 ;       CG311      CG321
   11    34	 1 ;       CG311       HGA1
   12    13	 1 ;       CG321      CG321
   12    35	 1 ;       CG321       HGA2
   12    36	 1 ;       CG321       HGA2
   13    14	 1 ;       CG321      CG321
   13    37	 1 ;       CG321       HGA2
   13    38	 1 ;       CG321       HGA2
   14    15	 1 ;       CG321      CG321
   14    39	 1 ;       CG321       HGA2
   14    40	 1 ;       CG321       HGA2
   15    16	 1 ;       CG321      CG321
   15    41	 1 ;       CG321       HGA2
   15    42	 1 ;       CG321       HGA2
   16    43	 1 ;       CG321       HGA2
   16    44	 1 ;       CG321       HGA2
   17    18	 1 ;       CG321      CG311
   17    45	 1 ;       CG321       HGA2
   17    46	 1 ;       CG321       HGA2
   18    23	 1 ;       CG311      CG321
   18    19	 1 ;       CG311      CG321
   18    47	 1 ;       CG311       HGA1
   19    20	 1 ;       CG321      CG321
   19    48	 1 ;       CG321       HGA2
   19    49	 1 ;       CG321       HGA2
   20    21	 1 ;       CG321      CG321
   20    50	 1 ;       CG321       HGA2
   20    51	 1 ;       CG321       HGA2
   21    22	 1 ;       CG321      CG321
   21    52	 1 ;       CG321       HGA2
   21    53	 1 ;       CG321       HGA2
   22    23	 1 ;       CG321      CG321
   22    54	 1 ;       CG321       HGA2
   22    55	 1 ;       CG321       HGA2
   23    56	 1 ;       CG321       HGA2
   23    57	 1 ;       CG321       HGA2
   24    26	 1 ;       NG321     HGPAM2
   24    25	 1 ;       NG321     HGPAM2

[ pairs ]
;	ai	  aj funct			  c0			c1			  c2			c3
    1     4	 1
    1     5	 1
    1     6	 1
    1     9	 1
    1    17	 1
    2    27	 1
    2    28	 1
    2    29	 1
    2    24	 1
    2    58	 1
    2     8	 1
    2    10	 1
    2    30	 1
    2    31	 1
    2    18	 1
    2    45	 1
    2    46	 1
    3     9	 1
    3    17	 1
    3    26	 1
    3    25	 1
    3     8	 1
    4     7	 1
    4    24	 1
    4     6	 1
    4    58	 1
    5    27	 1
    5    28	 1
    5    29	 1
    5     9	 1
    5    17	 1
    6    26	 1
    6    25	 1
    6    10	 1
    6    30	 1
    6    31	 1
    6    18	 1
    6    45	 1
    6    46	 1
    7    24	 1
    7    58	 1
    7    11	 1
    7    32	 1
    7    33	 1
    7    23	 1
    7    19	 1
    7    47	 1
    8    24	 1
    8    58	 1
    8     9	 1
    8    17	 1
    9    18	 1
    9    45	 1
    9    46	 1
    9    12	 1
    9    16	 1
    9    34	 1
   10    17	 1
   10    13	 1
   10    35	 1
   10    36	 1
   10    15	 1
   10    43	 1
   10    44	 1
   11    30	 1
   11    31	 1
   11    14	 1
   11    37	 1
   11    38	 1
   11    41	 1
   11    42	 1
   12    32	 1
   12    33	 1
   12    15	 1
   12    43	 1
   12    44	 1
   12    39	 1
   12    40	 1
   13    16	 1
   13    34	 1
   13    41	 1
   13    42	 1
   14    35	 1
   14    36	 1
   14    43	 1
   14    44	 1
   15    34	 1
   15    37	 1
   15    38	 1
   16    32	 1
   16    33	 1
   16    35	 1
   16    36	 1
   16    39	 1
   16    40	 1
   17    30	 1
   17    31	 1
   17    22	 1
   17    56	 1
   17    57	 1
   17    20	 1
   17    48	 1
   17    49	 1
   18    21	 1
   18    50	 1
   18    51	 1
   18    54	 1
   18    55	 1
   19    45	 1
   19    46	 1
   19    22	 1
   19    56	 1
   19    57	 1
   19    52	 1
   19    53	 1
   20    23	 1
   20    47	 1
   20    54	 1
   20    55	 1
   21    48	 1
   21    49	 1
   21    56	 1
   21    57	 1
   22    47	 1
   22    50	 1
   22    51	 1
   23    45	 1
   23    46	 1
   23    48	 1
   23    49	 1
   23    52	 1
   23    53	 1
   25    58	 1
   26    58	 1
   30    32	 1
   30    33	 1
   31    32	 1
   31    33	 1
   32    34	 1
   33    34	 1
   34    35	 1
   34    36	 1
   34    43	 1
   34    44	 1
   35    37	 1
   35    38	 1
   36    37	 1
   36    38	 1
   37    39	 1
   37    40	 1
   38    39	 1
   38    40	 1
   39    41	 1
   39    42	 1
   40    41	 1
   40    42	 1
   41    43	 1
   41    44	 1
   42    43	 1
   42    44	 1
   45    47	 1
   46    47	 1
   47    56	 1
   47    57	 1
   47    48	 1
   47    49	 1
   48    50	 1
   48    51	 1
   49    50	 1
   49    51	 1
   50    52	 1
   50    53	 1
   51    52	 1
   51    53	 1
   52    54	 1
   52    55	 1
   53    54	 1
   53    55	 1
   54    56	 1
   54    57	 1
   55    56	 1
   55    57	 1

[ angles ]
;	ai	  aj	ak funct			c0			  c1			c2			  c3
    3     2     7	5 ;     NG2R53     CG2R53     CG3C50
    3     2     1	5 ;     NG2R53     CG2R53      OG2D1
    7     2     1	5 ;     CG3C50     CG2R53      OG2D1
    4     3     5	5 ;      CG331     NG2R53     CG3C51
    4     3     2	5 ;      CG331     NG2R53     CG2R53
    5     3     2	5 ;     CG3C51     NG2R53     CG2R53
    3     4    27	5 ;     NG2R53      CG331       HGA3
    3     4    28	5 ;     NG2R53      CG331       HGA3
    3     4    29	5 ;     NG2R53      CG331       HGA3
   27     4    28	5 ;       HGA3      CG331       HGA3
   27     4    29	5 ;       HGA3      CG331       HGA3
   28     4    29	5 ;       HGA3      CG331       HGA3
   24     5     3	5 ;      NG321     CG3C51     NG2R53
   24     5     6	5 ;      NG321     CG3C51     NG3C51
   24     5    58	5 ;      NG321     CG3C51       HGA1
    3     5     6	5 ;     NG2R53     CG3C51     NG3C51
    3     5    58	5 ;     NG2R53     CG3C51       HGA1
    6     5    58	5 ;     NG3C51     CG3C51       HGA1
    5     6     8	5 ;     CG3C51     NG3C51       HGP1
    5     6     7	5 ;     CG3C51     NG3C51     CG3C50
    8     6     7	5 ;       HGP1     NG3C51     CG3C50
    6     7     2	5 ;     NG3C51     CG3C50     CG2R53
    6     7     9	5 ;     NG3C51     CG3C50      CG321
    6     7    17	5 ;     NG3C51     CG3C50      CG321
    2     7     9	5 ;     CG2R53     CG3C50      CG321
    2     7    17	5 ;     CG2R53     CG3C50      CG321
    9     7    17	5 ;      CG321     CG3C50      CG321
    7     9    10	5 ;     CG3C50      CG321      CG321
    7     9    30	5 ;     CG3C50      CG321       HGA2
    7     9    31	5 ;     CG3C50      CG321       HGA2
   10     9    30	5 ;      CG321      CG321       HGA2
   10     9    31	5 ;      CG321      CG321       HGA2
   30     9    31	5 ;       HGA2      CG321       HGA2
    9    10    11	5 ;      CG321      CG321      CG311
    9    10    32	5 ;      CG321      CG321       HGA2
    9    10    33	5 ;      CG321      CG321       HGA2
   11    10    32	5 ;      CG311      CG321       HGA2
   11    10    33	5 ;      CG311      CG321       HGA2
   32    10    33	5 ;       HGA2      CG321       HGA2
   12    11    16	5 ;      CG321      CG311      CG321
   12    11    10	5 ;      CG321      CG311      CG321
   12    11    34	5 ;      CG321      CG311       HGA1
   16    11    10	5 ;      CG321      CG311      CG321
   16    11    34	5 ;      CG321      CG311       HGA1
   10    11    34	5 ;      CG321      CG311       HGA1
   13    12    11	5 ;      CG321      CG321      CG311
   13    12    35	5 ;      CG321      CG321       HGA2
   13    12    36	5 ;      CG321      CG321       HGA2
   11    12    35	5 ;      CG311      CG321       HGA2
   11    12    36	5 ;      CG311      CG321       HGA2
   35    12    36	5 ;       HGA2      CG321       HGA2
   14    13    12	5 ;      CG321      CG321      CG321
   14    13    37	5 ;      CG321      CG321       HGA2
   14    13    38	5 ;      CG321      CG321       HGA2
   12    13    37	5 ;      CG321      CG321       HGA2
   12    13    38	5 ;      CG321      CG321       HGA2
   37    13    38	5 ;       HGA2      CG321       HGA2
   13    14    15	5 ;      CG321      CG321      CG321
   13    14    39	5 ;      CG321      CG321       HGA2
   13    14    40	5 ;      CG321      CG321       HGA2
   15    14    39	5 ;      CG321      CG321       HGA2
   15    14    40	5 ;      CG321      CG321       HGA2
   39    14    40	5 ;       HGA2      CG321       HGA2
   14    15    16	5 ;      CG321      CG321      CG321
   14    15    41	5 ;      CG321      CG321       HGA2
   14    15    42	5 ;      CG321      CG321       HGA2
   16    15    41	5 ;      CG321      CG321       HGA2
   16    15    42	5 ;      CG321      CG321       HGA2
   41    15    42	5 ;       HGA2      CG321       HGA2
   15    16    11	5 ;      CG321      CG321      CG311
   15    16    43	5 ;      CG321      CG321       HGA2
   15    16    44	5 ;      CG321      CG321       HGA2
   11    16    43	5 ;      CG311      CG321       HGA2
   11    16    44	5 ;      CG311      CG321       HGA2
   43    16    44	5 ;       HGA2      CG321       HGA2
    7    17    18	5 ;     CG3C50      CG321      CG311
    7    17    45	5 ;     CG3C50      CG321       HGA2
    7    17    46	5 ;     CG3C50      CG321       HGA2
   18    17    45	5 ;      CG311      CG321       HGA2
   18    17    46	5 ;      CG311      CG321       HGA2
   45    17    46	5 ;       HGA2      CG321       HGA2
   17    18    23	5 ;      CG321      CG311      CG321
   17    18    19	5 ;      CG321      CG311      CG321
   17    18    47	5 ;      CG321      CG311       HGA1
   23    18    19	5 ;      CG321      CG311      CG321
   23    18    47	5 ;      CG321      CG311       HGA1
   19    18    47	5 ;      CG321      CG311       HGA1
   18    19    20	5 ;      CG311      CG321      CG321
   18    19    48	5 ;      CG311      CG321       HGA2
   18    19    49	5 ;      CG311      CG321       HGA2
   20    19    48	5 ;      CG321      CG321       HGA2
   20    19    49	5 ;      CG321      CG321       HGA2
   48    19    49	5 ;       HGA2      CG321       HGA2
   19    20    21	5 ;      CG321      CG321      CG321
   19    20    50	5 ;      CG321      CG321       HGA2
   19    20    51	5 ;      CG321      CG321       HGA2
   21    20    50	5 ;      CG321      CG321       HGA2
   21    20    51	5 ;      CG321      CG321       HGA2
   50    20    51	5 ;       HGA2      CG321       HGA2
   22    21    20	5 ;      CG321      CG321      CG321
   22    21    52	5 ;      CG321      CG321       HGA2
   22    21    53	5 ;      CG321      CG321       HGA2
   20    21    52	5 ;      CG321      CG321       HGA2
   20    21    53	5 ;      CG321      CG321       HGA2
   52    21    53	5 ;       HGA2      CG321       HGA2
   23    22    21	5 ;      CG321      CG321      CG321
   23    22    54	5 ;      CG321      CG321       HGA2
   23    22    55	5 ;      CG321      CG321       HGA2
   21    22    54	5 ;      CG321      CG321       HGA2
   21    22    55	5 ;      CG321      CG321       HGA2
   54    22    55	5 ;       HGA2      CG321       HGA2
   18    23    22	5 ;      CG311      CG321      CG321
   18    23    56	5 ;      CG311      CG321       HGA2
   18    23    57	5 ;      CG311      CG321       HGA2
   22    23    56	5 ;      CG321      CG321       HGA2
   22    23    57	5 ;      CG321      CG321       HGA2
   56    23    57	5 ;       HGA2      CG321       HGA2
   26    24    25	5 ;     HGPAM2      NG321     HGPAM2
   26    24     5	5 ;     HGPAM2      NG321     CG3C51
   25    24     5	5 ;     HGPAM2      NG321     CG3C51

[ dihedrals ]
;	ai	  aj	ak	  al funct			  c0			c1			  c2			c3			  c4			c5
    7     2     3     4	 9 ;     CG3C50     CG2R53     NG2R53      CG331
    7     2     3     5	 9 ;     CG3C50     CG2R53     NG2R53     CG3C51
    1     2     3     4	 9 ;      OG2D1     CG2R53     NG2R53      CG331
    1     2     3     5	 9 ;      OG2D1     CG2R53     NG2R53     CG3C51
    3     2     7     6	 9 ;     NG2R53     CG2R53     CG3C50     NG3C51
    3     2     7     9	 9 ;     NG2R53     CG2R53     CG3C50      CG321
    3     2     7    17	 9 ;     NG2R53     CG2R53     CG3C50      CG321
    1     2     7     6	 9 ;      OG2D1     CG2R53     CG3C50     NG3C51
    1     2     7     9	 9 ;      OG2D1     CG2R53     CG3C50      CG321
    1     2     7    17	 9 ;      OG2D1     CG2R53     CG3C50      CG321
    5     3     4    27	 9 ;     CG3C51     NG2R53      CG331       HGA3
    5     3     4    28	 9 ;     CG3C51     NG2R53      CG331       HGA3
    5     3     4    29	 9 ;     CG3C51     NG2R53      CG331       HGA3
    2     3     4    27	 9 ;     CG2R53     NG2R53      CG331       HGA3
    2     3     4    28	 9 ;     CG2R53     NG2R53      CG331       HGA3
    2     3     4    29	 9 ;     CG2R53     NG2R53      CG331       HGA3
    4     3     5    24	 9 ;      CG331     NG2R53     CG3C51      NG321
    4     3     5     6	 9 ;      CG331     NG2R53     CG3C51     NG3C51
    4     3     5    58	 9 ;      CG331     NG2R53     CG3C51       HGA1
    2     3     5    24	 9 ;     CG2R53     NG2R53     CG3C51      NG321
    2     3     5     6	 9 ;     CG2R53     NG2R53     CG3C51     NG3C51
    2     3     5    58	 9 ;     CG2R53     NG2R53     CG3C51       HGA1
    3     5    24    26	 9 ;     NG2R53     CG3C51      NG321     HGPAM2
    3     5    24    25	 9 ;     NG2R53     CG3C51      NG321     HGPAM2
    6     5    24    26	 9 ;     NG3C51     CG3C51      NG321     HGPAM2
    6     5    24    25	 9 ;     NG3C51     CG3C51      NG321     HGPAM2
   58     5    24    26	 9 ;       HGA1     CG3C51      NG321     HGPAM2
   58     5    24    25	 9 ;       HGA1     CG3C51      NG321     HGPAM2
   24     5     6     8	 9 ;      NG321     CG3C51     NG3C51       HGP1
   24     5     6     7	 9 ;      NG321     CG3C51     NG3C51     CG3C50
    3     5     6     8	 9 ;     NG2R53     CG3C51     NG3C51       HGP1
    3     5     6     7	 9 ;     NG2R53     CG3C51     NG3C51     CG3C50
   58     5     6     8	 9 ;       HGA1     CG3C51     NG3C51       HGP1
   58     5     6     7	 9 ;       HGA1     CG3C51     NG3C51     CG3C50
    5     6     7     2	 9 ;     CG3C51     NG3C51     CG3C50     CG2R53
    5     6     7     9	 9 ;     CG3C51     NG3C51     CG3C50      CG321
    5     6     7    17	 9 ;     CG3C51     NG3C51     CG3C50      CG321
    8     6     7     2	 9 ;       HGP1     NG3C51     CG3C50     CG2R53
    8     6     7     9	 9 ;       HGP1     NG3C51     CG3C50      CG321
    8     6     7    17	 9 ;       HGP1     NG3C51     CG3C50      CG321
    6     7     9    10	 9 ;     NG3C51     CG3C50      CG321      CG321
    6     7     9    30	 9 ;     NG3C51     CG3C50      CG321       HGA2
    6     7     9    31	 9 ;     NG3C51     CG3C50      CG321       HGA2
    2     7     9    10	 9 ;     CG2R53     CG3C50      CG321      CG321
    2     7     9    30	 9 ;     CG2R53     CG3C50      CG321       HGA2
    2     7     9    31	 9 ;     CG2R53     CG3C50      CG321       HGA2
   17     7     9    10	 9 ;      CG321     CG3C50      CG321      CG321
   17     7     9    30	 9 ;      CG321     CG3C50      CG321       HGA2
   17     7     9    31	 9 ;      CG321     CG3C50      CG321       HGA2
    6     7    17    18	 9 ;     NG3C51     CG3C50      CG321      CG311
    6     7    17    45	 9 ;     NG3C51     CG3C50      CG321       HGA2
    6     7    17    46	 9 ;     NG3C51     CG3C50      CG321       HGA2
    2     7    17    18	 9 ;     CG2R53     CG3C50      CG321      CG311
    2     7    17    45	 9 ;     CG2R53     CG3C50      CG321       HGA2
    2     7    17    46	 9 ;     CG2R53     CG3C50      CG321       HGA2
    9     7    17    18	 9 ;      CG321     CG3C50      CG321      CG311
    9     7    17    45	 9 ;      CG321     CG3C50      CG321       HGA2
    9     7    17    46	 9 ;      CG321     CG3C50      CG321       HGA2
    7     9    10    11	 9 ;     CG3C50      CG321      CG321      CG311
    7     9    10    32	 9 ;     CG3C50      CG321      CG321       HGA2
    7     9    10    33	 9 ;     CG3C50      CG321      CG321       HGA2
   30     9    10    11	 9 ;       HGA2      CG321      CG321      CG311
   30     9    10    32	 9 ;       HGA2      CG321      CG321       HGA2
   30     9    10    33	 9 ;       HGA2      CG321      CG321       HGA2
   31     9    10    11	 9 ;       HGA2      CG321      CG321      CG311
   31     9    10    32	 9 ;       HGA2      CG321      CG321       HGA2
   31     9    10    33	 9 ;       HGA2      CG321      CG321       HGA2
    9    10    11    12	 9 ;      CG321      CG321      CG311      CG321
    9    10    11    16	 9 ;      CG321      CG321      CG311      CG321
    9    10    11    34	 9 ;      CG321      CG321      CG311       HGA1
   32    10    11    12	 9 ;       HGA2      CG321      CG311      CG321
   32    10    11    16	 9 ;       HGA2      CG321      CG311      CG321
   32    10    11    34	 9 ;       HGA2      CG321      CG311       HGA1
   33    10    11    12	 9 ;       HGA2      CG321      CG311      CG321
   33    10    11    16	 9 ;       HGA2      CG321      CG311      CG321
   33    10    11    34	 9 ;       HGA2      CG321      CG311       HGA1
   16    11    12    13	 9 ;      CG321      CG311      CG321      CG321
   16    11    12    35	 9 ;      CG321      CG311      CG321       HGA2
   16    11    12    36	 9 ;      CG321      CG311      CG321       HGA2
   10    11    12    13	 9 ;      CG321      CG311      CG321      CG321
   10    11    12    35	 9 ;      CG321      CG311      CG321       HGA2
   10    11    12    36	 9 ;      CG321      CG311      CG321       HGA2
   34    11    12    13	 9 ;       HGA1      CG311      CG321      CG321
   34    11    12    35	 9 ;       HGA1      CG311      CG321       HGA2
   34    11    12    36	 9 ;       HGA1      CG311      CG321       HGA2
   12    11    16    15	 9 ;      CG321      CG311      CG321      CG321
   12    11    16    43	 9 ;      CG321      CG311      CG321       HGA2
   12    11    16    44	 9 ;      CG321      CG311      CG321       HGA2
   10    11    16    15	 9 ;      CG321      CG311      CG321      CG321
   10    11    16    43	 9 ;      CG321      CG311      CG321       HGA2
   10    11    16    44	 9 ;      CG321      CG311      CG321       HGA2
   34    11    16    15	 9 ;       HGA1      CG311      CG321      CG321
   34    11    16    43	 9 ;       HGA1      CG311      CG321       HGA2
   34    11    16    44	 9 ;       HGA1      CG311      CG321       HGA2
   11    12    13    14	 9 ;      CG311      CG321      CG321      CG321
   11    12    13    37	 9 ;      CG311      CG321      CG321       HGA2
   11    12    13    38	 9 ;      CG311      CG321      CG321       HGA2
   35    12    13    14	 9 ;       HGA2      CG321      CG321      CG321
   35    12    13    37	 9 ;       HGA2      CG321      CG321       HGA2
   35    12    13    38	 9 ;       HGA2      CG321      CG321       HGA2
   36    12    13    14	 9 ;       HGA2      CG321      CG321      CG321
   36    12    13    37	 9 ;       HGA2      CG321      CG321       HGA2
   36    12    13    38	 9 ;       HGA2      CG321      CG321       HGA2
   12    13    14    15	 9 ;      CG321      CG321      CG321      CG321
   12    13    14    39	 9 ;      CG321      CG321      CG321       HGA2
   12    13    14    40	 9 ;      CG321      CG321      CG321       HGA2
   37    13    14    15	 9 ;       HGA2      CG321      CG321      CG321
   37    13    14    39	 9 ;       HGA2      CG321      CG321       HGA2
   37    13    14    40	 9 ;       HGA2      CG321      CG321       HGA2
   38    13    14    15	 9 ;       HGA2      CG321      CG321      CG321
   38    13    14    39	 9 ;       HGA2      CG321      CG321       HGA2
   38    13    14    40	 9 ;       HGA2      CG321      CG321       HGA2
   13    14    15    16	 9 ;      CG321      CG321      CG321      CG321
   13    14    15    41	 9 ;      CG321      CG321      CG321       HGA2
   13    14    15    42	 9 ;      CG321      CG321      CG321       HGA2
   39    14    15    16	 9 ;       HGA2      CG321      CG321      CG321
   39    14    15    41	 9 ;       HGA2      CG321      CG321       HGA2
   39    14    15    42	 9 ;       HGA2      CG321      CG321       HGA2
   40    14    15    16	 9 ;       HGA2      CG321      CG321      CG321
   40    14    15    41	 9 ;       HGA2      CG321      CG321       HGA2
   40    14    15    42	 9 ;       HGA2      CG321      CG321       HGA2
   14    15    16    11	 9 ;      CG321      CG321      CG321      CG311
   14    15    16    43	 9 ;      CG321      CG321      CG321       HGA2
   14    15    16    44	 9 ;      CG321      CG321      CG321       HGA2
   41    15    16    11	 9 ;       HGA2      CG321      CG321      CG311
   41    15    16    43	 9 ;       HGA2      CG321      CG321       HGA2
   41    15    16    44	 9 ;       HGA2      CG321      CG321       HGA2
   42    15    16    11	 9 ;       HGA2      CG321      CG321      CG311
   42    15    16    43	 9 ;       HGA2      CG321      CG321       HGA2
   42    15    16    44	 9 ;       HGA2      CG321      CG321       HGA2
    7    17    18    23	 9 ;     CG3C50      CG321      CG311      CG321
    7    17    18    19	 9 ;     CG3C50      CG321      CG311      CG321
    7    17    18    47	 9 ;     CG3C50      CG321      CG311       HGA1
   45    17    18    23	 9 ;       HGA2      CG321      CG311      CG321
   45    17    18    19	 9 ;       HGA2      CG321      CG311      CG321
   45    17    18    47	 9 ;       HGA2      CG321      CG311       HGA1
   46    17    18    23	 9 ;       HGA2      CG321      CG311      CG321
   46    17    18    19	 9 ;       HGA2      CG321      CG311      CG321
   46    17    18    47	 9 ;       HGA2      CG321      CG311       HGA1
   17    18    23    22	 9 ;      CG321      CG311      CG321      CG321
   17    18    23    56	 9 ;      CG321      CG311      CG321       HGA2
   17    18    23    57	 9 ;      CG321      CG311      CG321       HGA2
   19    18    23    22	 9 ;      CG321      CG311      CG321      CG321
   19    18    23    56	 9 ;      CG321      CG311      CG321       HGA2
   19    18    23    57	 9 ;      CG321      CG311      CG321       HGA2
   47    18    23    22	 9 ;       HGA1      CG311      CG321      CG321
   47    18    23    56	 9 ;       HGA1      CG311      CG321       HGA2
   47    18    23    57	 9 ;       HGA1      CG311      CG321       HGA2
   17    18    19    20	 9 ;      CG321      CG311      CG321      CG321
   17    18    19    48	 9 ;      CG321      CG311      CG321       HGA2
   17    18    19    49	 9 ;      CG321      CG311      CG321       HGA2
   23    18    19    20	 9 ;      CG321      CG311      CG321      CG321
   23    18    19    48	 9 ;      CG321      CG311      CG321       HGA2
   23    18    19    49	 9 ;      CG321      CG311      CG321       HGA2
   47    18    19    20	 9 ;       HGA1      CG311      CG321      CG321
   47    18    19    48	 9 ;       HGA1      CG311      CG321       HGA2
   47    18    19    49	 9 ;       HGA1      CG311      CG321       HGA2
   18    19    20    21	 9 ;      CG311      CG321      CG321      CG321
   18    19    20    50	 9 ;      CG311      CG321      CG321       HGA2
   18    19    20    51	 9 ;      CG311      CG321      CG321       HGA2
   48    19    20    21	 9 ;       HGA2      CG321      CG321      CG321
   48    19    20    50	 9 ;       HGA2      CG321      CG321       HGA2
   48    19    20    51	 9 ;       HGA2      CG321      CG321       HGA2
   49    19    20    21	 9 ;       HGA2      CG321      CG321      CG321
   49    19    20    50	 9 ;       HGA2      CG321      CG321       HGA2
   49    19    20    51	 9 ;       HGA2      CG321      CG321       HGA2
   19    20    21    22	 9 ;      CG321      CG321      CG321      CG321
   19    20    21    52	 9 ;      CG321      CG321      CG321       HGA2
   19    20    21    53	 9 ;      CG321      CG321      CG321       HGA2
   50    20    21    22	 9 ;       HGA2      CG321      CG321      CG321
   50    20    21    52	 9 ;       HGA2      CG321      CG321       HGA2
   50    20    21    53	 9 ;       HGA2      CG321      CG321       HGA2
   51    20    21    22	 9 ;       HGA2      CG321      CG321      CG321
   51    20    21    52	 9 ;       HGA2      CG321      CG321       HGA2
   51    20    21    53	 9 ;       HGA2      CG321      CG321       HGA2
   20    21    22    23	 9 ;      CG321      CG321      CG321      CG321
   20    21    22    54	 9 ;      CG321      CG321      CG321       HGA2
   20    21    22    55	 9 ;      CG321      CG321      CG321       HGA2
   52    21    22    23	 9 ;       HGA2      CG321      CG321      CG321
   52    21    22    54	 9 ;       HGA2      CG321      CG321       HGA2
   52    21    22    55	 9 ;       HGA2      CG321      CG321       HGA2
   53    21    22    23	 9 ;       HGA2      CG321      CG321      CG321
   53    21    22    54	 9 ;       HGA2      CG321      CG321       HGA2
   53    21    22    55	 9 ;       HGA2      CG321      CG321       HGA2
   21    22    23    18	 9 ;      CG321      CG321      CG321      CG311
   21    22    23    56	 9 ;      CG321      CG321      CG321       HGA2
   21    22    23    57	 9 ;      CG321      CG321      CG321       HGA2
   54    22    23    18	 9 ;       HGA2      CG321      CG321      CG311
   54    22    23    56	 9 ;       HGA2      CG321      CG321       HGA2
   54    22    23    57	 9 ;       HGA2      CG321      CG321       HGA2
   55    22    23    18	 9 ;       HGA2      CG321      CG321      CG311
   55    22    23    56	 9 ;       HGA2      CG321      CG321       HGA2
   55    22    23    57	 9 ;       HGA2      CG321      CG321       HGA2

[ dihedrals ]
;	ai	  aj	ak	  al funct			  c0			c1			  c2			c3
    2     7     3     1	 2

