GRowing Old MAkes el Chrono Sweat
   58
    1LIG      O    1  -1.377   0.601  -1.592
    1LIG     C1    2  -1.319   0.507  -1.645
    1LIG     N1    3  -1.266   0.505  -1.772
    1LIG     C2    4  -1.293   0.610  -1.868
    1LIG     C3    5  -1.188   0.396  -1.786
    1LIG     N2    6  -1.177   0.329  -1.669
    1LIG     C4    7  -1.291   0.367  -1.583
    1LIG     H1    8  -1.153   0.230  -1.678
    1LIG     C5    9  -1.253   0.366  -1.433
    1LIG     C6   10  -1.304   0.244  -1.354
    1LIG     C7   11  -1.212   0.119  -1.348
    1LIG     C8   12  -1.062   0.150  -1.355
    1LIG     C9   13  -0.979   0.024  -1.331
    1LIG    C10   14  -1.015  -0.088  -1.428
    1LIG    C11   15  -1.165  -0.116  -1.429
    1LIG    C12   16  -1.248   0.011  -1.451
    1LIG    C13   17  -1.406   0.268  -1.620
    1LIG    C14   18  -1.549   0.320  -1.648
    1LIG    C15   19  -1.616   0.355  -1.512
    1LIG    C16   20  -1.763   0.394  -1.525
    1LIG    C17   21  -1.843   0.289  -1.601
    1LIG    C18   22  -1.782   0.265  -1.738
    1LIG    C19   23  -1.636   0.221  -1.726
    1LIG     N3   24  -1.137   0.356  -1.897
    1LIG     H2   25  -1.185   0.399  -1.976
    1LIG     HN   26  -1.059   0.291  -1.905
    1LIG    HC1   27  -1.242   0.587  -1.962
    1LIG    HC2   28  -1.401   0.615  -1.887
    1LIG    HC3   29  -1.258   0.705  -1.829
    1LIG    HC4   30  -1.144   0.369  -1.426
    1LIG    HC5   31  -1.293   0.457  -1.387
    1LIG    HC6   32  -1.321   0.276  -1.252
    1LIG    HC7   33  -1.399   0.214  -1.397
    1LIG     HC   34  -1.229   0.074  -1.250
    1LIG    HC8   35  -1.038   0.225  -1.279
    1LIG    HC9   36  -1.039   0.191  -1.454
    1LIG   HC10   37  -0.874   0.049  -1.343
    1LIG   HC11   38  -0.996  -0.010  -1.229
    1LIG   HC12   39  -0.962  -0.178  -1.399
    1LIG   HC13   40  -0.984  -0.059  -1.528
    1LIG   HC14   41  -1.187  -0.187  -1.509
    1LIG   HC15   42  -1.194  -0.161  -1.333
    1LIG   HC16   43  -1.354  -0.013  -1.442
    1LIG   HC17   44  -1.228   0.049  -1.552
    1LIG   HC18   45  -1.374   0.215  -1.710
    1LIG   HC19   46  -1.413   0.194  -1.540
    1LIG   HC20   47  -1.541   0.412  -1.706
    1LIG   HC21   48  -1.561   0.438  -1.467
    1LIG   HC22   49  -1.609   0.268  -1.446
    1LIG   HC23   50  -1.805   0.406  -1.426
    1LIG   HC24   51  -1.770   0.489  -1.579
    1LIG   HC25   52  -1.945   0.324  -1.613
    1LIG   HC26   53  -1.842   0.196  -1.544
    1LIG   HC27   54  -1.838   0.187  -1.789
    1LIG   HC28   55  -1.787   0.357  -1.796
    1LIG   HC29   56  -1.595   0.212  -1.827
    1LIG   HC30   57  -1.632   0.124  -1.677
    1LIG    H35   58  -1.099   0.454  -1.764
   0.00000   0.00000   0.00000
