Glycine aRginine prOline Methionine Alanine Cystine Serine
  113
    1LIG     C1    1  -1.154   0.686  -1.992
    1LIG     C2    2  -1.050   0.805  -1.994
    1LIG     O1    3  -1.035   0.876  -1.868
    1LIG     C3    4  -0.998   0.787  -1.760
    1LIG     C4    5  -1.110   0.762  -1.660
    1LIG     C5    6  -1.236   0.821  -1.676
    1LIG     C6    7  -1.342   0.789  -1.590
    1LIG     F1    8  -1.461   0.848  -1.608
    1LIG     C7    9  -1.327   0.698  -1.487
    1LIG     C8   10  -1.203   0.638  -1.470
    1LIG     F2   11  -1.186   0.548  -1.371
    1LIG     C9   12  -1.095   0.668  -1.555
    1LIG    C10   13  -1.278   0.718  -2.090
    1LIG    C11   14  -1.406   0.793  -2.037
    1LIG    C12   15  -1.506   0.711  -1.946
    1LIG    C13   16  -1.558   0.579  -2.003
    1LIG    C14   17  -1.625   0.799  -1.894
    1LIG     O2   18  -1.646   0.909  -1.944
    1LIG     N1   19  -1.705   0.745  -1.794
    1LIG     H1   20  -1.653   0.691  -1.726
    1LIG    C15   21  -1.823   0.816  -1.735
    1LIG    C16   22  -1.959   0.784  -1.804
    1LIG    C17   23  -2.015   0.899  -1.890
    1LIG    C18   24  -1.949   0.662  -1.898
    1LIG    C19   25  -1.824   0.788  -1.581
    1LIG     O3   26  -1.875   0.868  -1.503
    1LIG     N2   27  -1.755   0.677  -1.535
    1LIG     H2   28  -1.696   0.625  -1.598
    1LIG    C20   29  -1.741   0.653  -1.392
    1LIG    C21   30  -1.805   0.525  -1.344
    1LIG    C22   31  -1.732   0.431  -1.268
    1LIG    C23   32  -1.794   0.317  -1.216
    1LIG    C24   33  -1.930   0.297  -1.237
    1LIG     F3   34  -1.989   0.188  -1.186
    1LIG    C25   35  -2.004   0.388  -1.311
    1LIG    C26   36  -1.942   0.502  -1.364
    1LIG     O4   37  -1.227   0.782  -2.207
    1LIG     H3   38  -1.256   0.730  -2.285
    1LIG     N3   39  -1.090   0.550  -2.008
    1LIG    C27   40  -1.087   0.429  -1.938
    1LIG     O5   41  -1.013   0.342  -1.983
    1LIG     H4   42  -1.023   0.546  -2.083
    1LIG    C28   43  -1.164   0.394  -1.814
    1LIG    C29   44  -1.296   0.436  -1.797
    1LIG    C30   45  -1.370   0.384  -1.691
    1LIG    C31   46  -1.313   0.299  -1.596
    1LIG    C32   47  -1.175   0.280  -1.592
    1LIG    C33   48  -1.102   0.325  -1.705
    1LIG    C34   49  -1.514   0.409  -1.681
    1LIG     O6   50  -1.554   0.522  -1.653
    1LIG     N4   51  -1.598   0.301  -1.701
    1LIG     H5   52  -1.559   0.213  -1.733
    1LIG    C35   53  -1.732   0.304  -1.646
    1LIG    C36   54  -1.744   0.191  -1.543
    1LIG    C37   55  -1.835   0.303  -1.757
    1LIG    C38   56  -1.792   0.299  -1.891
    1LIG    C39   57  -1.884   0.298  -1.997
    1LIG    C40   58  -2.020   0.301  -1.970
    1LIG    C41   59  -2.065   0.304  -1.838
    1LIG    C42   60  -1.974   0.304  -1.732
    1LIG     N5   61  -1.114   0.212  -1.477
    1LIG    C43   62  -1.188   0.225  -1.347
    1LIG      S   63  -1.059   0.052  -1.508
    1LIG     O7   64  -0.928   0.060  -1.570
    1LIG     O8   65  -1.166  -0.021  -1.571
    1LIG    C44   66  -1.036  -0.016  -1.343
    1LIG     HC   67  -1.196   0.687  -1.891
    1LIG    HC2   68  -1.082   0.877  -2.069
    1LIG    HC3   69  -0.952   0.765  -2.023
    1LIG    HC4   70  -0.914   0.831  -1.706
    1LIG    HC5   71  -0.966   0.692  -1.801
    1LIG    HC1   72  -1.251   0.892  -1.755
    1LIG    HC6   73  -1.409   0.674  -1.421
    1LIG    HC7   74  -1.000   0.619  -1.540
    1LIG    HC8   75  -1.313   0.621  -2.123
    1LIG    HC9   76  -1.372   0.879  -1.979
    1LIG   HC10   77  -1.461   0.830  -2.123
    1LIG   HC11   78  -1.449   0.684  -1.857
    1LIG   HC12   79  -1.626   0.532  -1.931
    1LIG   HC13   80  -1.474   0.512  -2.022
    1LIG   HC14   81  -1.611   0.598  -2.096
    1LIG   HC15   82  -1.806   0.923  -1.748
    1LIG   HC16   83  -2.032   0.761  -1.727
    1LIG   HC17   84  -2.025   0.988  -1.829
    1LIG   HC18   85  -1.947   0.919  -1.973
    1LIG   HC19   86  -2.113   0.871  -1.930
    1LIG   HC20   87  -2.048   0.635  -1.934
    1LIG   HC21   88  -1.884   0.686  -1.982
    1LIG   HC22   89  -1.906   0.578  -1.843
    1LIG   HC23   90  -1.635   0.649  -1.368
    1LIG   HC24   91  -1.786   0.737  -1.338
    1LIG   HC25   92  -1.626   0.447  -1.251
    1LIG   HC26   93  -1.737   0.245  -1.159
    1LIG   HC27   94  -2.110   0.371  -1.327
    1LIG   HC28   95  -2.001   0.573  -1.420
    1LIG   HC29   96  -1.340   0.506  -1.866
    1LIG   HC30   97  -1.376   0.247  -1.525
    1LIG   HC31   98  -0.995   0.307  -1.709
    1LIG   HC32   99  -1.742   0.398  -1.593
    1LIG   HC33  100  -1.734   0.095  -1.593
    1LIG   HC34  101  -1.665   0.201  -1.469
    1LIG   HC35  102  -1.841   0.197  -1.494
    1LIG   HC36  103  -1.686   0.296  -1.912
    1LIG   HC37  104  -1.848   0.295  -2.099
    1LIG   HC38  105  -2.091   0.301  -2.051
    1LIG   HC39  106  -2.171   0.306  -1.818
    1LIG   HC40  107  -2.010   0.305  -1.631
    1LIG   HC41  108  -1.246   0.317  -1.347
    1LIG   HC42  109  -1.116   0.228  -1.265
    1LIG   HC43  110  -1.254   0.140  -1.334
    1LIG   HC44  111  -0.978  -0.108  -1.350
    1LIG   HC45  112  -1.133  -0.038  -1.299
    1LIG   HC46  113  -0.984   0.056  -1.281
   0.00000   0.00000   0.00000
