; Created by cgenff_charmm2gmx.py

[ moleculetype ]
; Name			   nrexcl
LIG				 3

[ atoms ]
;	 nr		  type	resnr residue  atom   cgnr	   charge		mass  typeB    chargeB		massB
; residue	 1 LIG rtp LIG q	qsum
     1      CG311      1    LIG     C1      1     -0.001     12.011   ;
     2      CG321      1    LIG     C2      2      0.012     12.011   ;
     3      OG301      1    LIG     O1      3     -0.393     15.999   ;
     4      CG321      1    LIG     C3      4      0.021     12.011   ;
     5     CG2R61      1    LIG     C4      5      0.068     12.011   ;
     6     CG2R61      1    LIG     C5      6     -0.218     12.011   ;
     7     CG2R66      1    LIG     C6      7      0.261     12.011   ;
     8       FGR1      1    LIG     F1      8     -0.210     18.998   ;
     9     CG2R61      1    LIG     C7      9     -0.240     12.011   ;
    10     CG2R66      1    LIG     C8     10      0.261     12.011   ;
    11       FGR1      1    LIG     F2     11     -0.210     18.998   ;
    12     CG2R61      1    LIG     C9     12     -0.218     12.011   ;
    13      CG311      1    LIG    C10     13      0.123     12.011   ;
    14      CG321      1    LIG    C11     14     -0.187     12.011   ;
    15      CG311      1    LIG    C12     15     -0.032     12.011   ;
    16      CG331      1    LIG    C13     16     -0.266     12.011   ;
    17      CG2O1      1    LIG    C14     17      0.483     12.011   ;
    18      OG2D1      1    LIG     O2     18     -0.510     15.999   ;
    19      NG2S1      1    LIG     N1     19     -0.435     14.007   ;
    20       HGP1      1    LIG     H1     20      0.269      1.008   ;
    21      CG311      1    LIG    C15     21      0.069     12.011   ;
    22      CG311      1    LIG    C16     22     -0.078     12.011   ;
    23      CG331      1    LIG    C17     23     -0.269     12.011   ;
    24      CG331      1    LIG    C18     24     -0.269     12.011   ;
    25      CG2O1      1    LIG    C19     25      0.539     12.011   ;
    26      OG2D1      1    LIG     O3     26     -0.514     15.999   ;
    27      NG2S1      1    LIG     N2     27     -0.496     14.007   ;
    28       HGP1      1    LIG     H2     28      0.315      1.008   ;
    29      CG321      1    LIG    C20     29     -0.032     12.011   ;
    30     CG2R61      1    LIG    C21     30      0.034     12.011   ;
    31     CG2R61      1    LIG    C22     31     -0.158     12.011   ;
    32     CG2R61      1    LIG    C23     32     -0.103     12.011   ;
    33     CG2R66      1    LIG    C24     33      0.107     12.011   ;
    34       FGR1      1    LIG     F3     34     -0.211     18.998   ;
    35     CG2R61      1    LIG    C25     35     -0.103     12.011   ;
    36     CG2R61      1    LIG    C26     36     -0.158     12.011   ;
    37      OG311      1    LIG     O4     37     -0.648     15.999   ;
    38       HGP1      1    LIG     H3     38      0.421      1.008   ;
    39      NG2S1      1    LIG     N3     39     -0.238     14.007   ;
    40      CG2O1      1    LIG    C27     40      0.302     12.011   ;
    41      OG2D1      1    LIG     O5     41     -0.463     15.999   ;
    42       HGP1      1    LIG     H4     42      0.262      1.008   ;
    43     CG2R61      1    LIG    C28     43     -0.101     12.011   ;
    44     CG2R61      1    LIG    C29     44     -0.004     12.011   ;
    45     CG2R61      1    LIG    C30     45     -0.101     12.011   ;
    46     CG2R61      1    LIG    C31     46     -0.064     12.011   ;
    47     CG2R61      1    LIG    C32     47      0.138     12.011   ;
    48     CG2R61      1    LIG    C33     48     -0.064     12.011   ;
    49      CG2O1      1    LIG    C34     49      0.320     12.011   ;
    50      OG2D1      1    LIG     O6     50     -0.463     15.999   ;
    51      NG2S1      1    LIG     N4     51     -0.366     14.007   ;
    52       HGP1      1    LIG     H5     52      0.314      1.008   ;
    53      CG311      1    LIG    C35     53      0.138     12.011   ;
    54      CG331      1    LIG    C36     54     -0.265     12.011   ;
    55     CG2R61      1    LIG    C37     55     -0.111     12.011   ;
    56     CG2R61      1    LIG    C38     56     -0.086     12.011   ;
    57     CG2R61      1    LIG    C39     57     -0.114     12.011   ;
    58     CG2R61      1    LIG    C40     58     -0.116     12.011   ;
    59     CG2R61      1    LIG    C41     59     -0.114     12.011   ;
    60     CG2R61      1    LIG    C42     60     -0.086     12.011   ;
    61      NG301      1    LIG     N5     61     -0.228     14.007   ;
    62      CG331      1    LIG    C43     62     -0.103     12.011   ;
    63      SG3O2      1    LIG      S     63      0.397     32.060   ;
    64      OG2P1      1    LIG     O7     64     -0.388     15.999   ;
    65      OG2P1      1    LIG     O8     65     -0.388     15.999   ;
    66      CG331      1    LIG    C44     66      0.036     12.011   ;
    67       HGA1      1    LIG     HC     67      0.090      1.008   ;
    68       HGA2      1    LIG    HC2     68      0.090      1.008   ;
    69       HGA2      1    LIG    HC3     69      0.090      1.008   ;
    70       HGA2      1    LIG    HC4     70      0.090      1.008   ;
    71       HGA2      1    LIG    HC5     71      0.090      1.008   ;
    72      HGR62      1    LIG    HC1     72      0.174      1.008   ;
    73      HGR62      1    LIG    HC6     73      0.186      1.008   ;
    74      HGR62      1    LIG    HC7     74      0.174      1.008   ;
    75       HGA1      1    LIG    HC8     75      0.090      1.008   ;
    76       HGA2      1    LIG    HC9     76      0.090      1.008   ;
    77       HGA2      1    LIG   HC10     77      0.090      1.008   ;
    78       HGA1      1    LIG   HC11     78      0.090      1.008   ;
    79       HGA3      1    LIG   HC12     79      0.090      1.008   ;
    80       HGA3      1    LIG   HC13     80      0.090      1.008   ;
    81       HGA3      1    LIG   HC14     81      0.090      1.008   ;
    82       HGA1      1    LIG   HC15     82      0.090      1.008   ;
    83       HGA1      1    LIG   HC16     83      0.090      1.008   ;
    84       HGA3      1    LIG   HC17     84      0.090      1.008   ;
    85       HGA3      1    LIG   HC18     85      0.090      1.008   ;
    86       HGA3      1    LIG   HC19     86      0.090      1.008   ;
    87       HGA3      1    LIG   HC20     87      0.090      1.008   ;
    88       HGA3      1    LIG   HC21     88      0.090      1.008   ;
    89       HGA3      1    LIG   HC22     89      0.090      1.008   ;
    90       HGA2      1    LIG   HC23     90      0.090      1.008   ;
    91       HGA2      1    LIG   HC24     91      0.090      1.008   ;
    92      HGR61      1    LIG   HC25     92      0.116      1.008   ;
    93      HGR62      1    LIG   HC26     93      0.179      1.008   ;
    94      HGR62      1    LIG   HC27     94      0.179      1.008   ;
    95      HGR61      1    LIG   HC28     95      0.116      1.008   ;
    96      HGR61      1    LIG   HC29     96      0.116      1.008   ;
    97      HGR61      1    LIG   HC30     97      0.116      1.008   ;
    98      HGR61      1    LIG   HC31     98      0.116      1.008   ;
    99       HGA1      1    LIG   HC32     99      0.090      1.008   ;
   100       HGA3      1    LIG   HC33    100      0.090      1.008   ;
   101       HGA3      1    LIG   HC34    101      0.090      1.008   ;
   102       HGA3      1    LIG   HC35    102      0.090      1.008   ;
   103      HGR61      1    LIG   HC36    103      0.116      1.008   ;
   104      HGR61      1    LIG   HC37    104      0.116      1.008   ;
   105      HGR61      1    LIG   HC38    105      0.116      1.008   ;
   106      HGR61      1    LIG   HC39    106      0.116      1.008   ;
   107      HGR61      1    LIG   HC40    107      0.116      1.008   ;
   108       HGA3      1    LIG   HC41    108      0.090      1.008   ;
   109       HGA3      1    LIG   HC42    109      0.090      1.008   ;
   110       HGA3      1    LIG   HC43    110      0.090      1.008   ;
   111       HGA3      1    LIG   HC44    111      0.090      1.008   ;
   112       HGA3      1    LIG   HC45    112      0.090      1.008   ;
   113       HGA3      1    LIG   HC46    113      0.090      1.008   ;

[ bonds ]
;	ai	  aj funct			  c0			c1			  c2			c3
    1     2	 1 ;       CG311      CG321
    1    39	 1 ;       CG311      NG2S1
    1    13	 1 ;       CG311      CG311
    1    67	 1 ;       CG311       HGA1
    2     3	 1 ;       CG321      OG301
    2    68	 1 ;       CG321       HGA2
    2    69	 1 ;       CG321       HGA2
    3     4	 1 ;       OG301      CG321
    4     5	 1 ;       CG321     CG2R61
    4    70	 1 ;       CG321       HGA2
    4    71	 1 ;       CG321       HGA2
    5     6	 1 ;      CG2R61     CG2R61
    5    12	 1 ;      CG2R61     CG2R61
    6     7	 1 ;      CG2R61     CG2R66
    6    72	 1 ;      CG2R61      HGR62
    7     8	 1 ;      CG2R66       FGR1
    7     9	 1 ;      CG2R66     CG2R61
    9    10	 1 ;      CG2R61     CG2R66
    9    73	 1 ;      CG2R61      HGR62
   10    12	 1 ;      CG2R66     CG2R61
   10    11	 1 ;      CG2R66       FGR1
   12    74	 1 ;      CG2R61      HGR62
   13    37	 1 ;       CG311      OG311
   13    14	 1 ;       CG311      CG321
   13    75	 1 ;       CG311       HGA1
   14    15	 1 ;       CG321      CG311
   14    76	 1 ;       CG321       HGA2
   14    77	 1 ;       CG321       HGA2
   15    16	 1 ;       CG311      CG331
   15    17	 1 ;       CG311      CG2O1
   15    78	 1 ;       CG311       HGA1
   16    79	 1 ;       CG331       HGA3
   16    80	 1 ;       CG331       HGA3
   16    81	 1 ;       CG331       HGA3
   17    18	 1 ;       CG2O1      OG2D1
   17    19	 1 ;       CG2O1      NG2S1
   19    20	 1 ;       NG2S1       HGP1
   19    21	 1 ;       NG2S1      CG311
   21    22	 1 ;       CG311      CG311
   21    25	 1 ;       CG311      CG2O1
   21    82	 1 ;       CG311       HGA1
   22    23	 1 ;       CG311      CG331
   22    24	 1 ;       CG311      CG331
   22    83	 1 ;       CG311       HGA1
   23    84	 1 ;       CG331       HGA3
   23    85	 1 ;       CG331       HGA3
   23    86	 1 ;       CG331       HGA3
   24    87	 1 ;       CG331       HGA3
   24    88	 1 ;       CG331       HGA3
   24    89	 1 ;       CG331       HGA3
   25    27	 1 ;       CG2O1      NG2S1
   25    26	 1 ;       CG2O1      OG2D1
   27    28	 1 ;       NG2S1       HGP1
   27    29	 1 ;       NG2S1      CG321
   29    30	 1 ;       CG321     CG2R61
   29    90	 1 ;       CG321       HGA2
   29    91	 1 ;       CG321       HGA2
   30    31	 1 ;      CG2R61     CG2R61
   30    36	 1 ;      CG2R61     CG2R61
   31    32	 1 ;      CG2R61     CG2R61
   31    92	 1 ;      CG2R61      HGR61
   32    33	 1 ;      CG2R61     CG2R66
   32    93	 1 ;      CG2R61      HGR62
   33    35	 1 ;      CG2R66     CG2R61
   33    34	 1 ;      CG2R66       FGR1
   35    36	 1 ;      CG2R61     CG2R61
   35    94	 1 ;      CG2R61      HGR62
   36    95	 1 ;      CG2R61      HGR61
   37    38	 1 ;       OG311       HGP1
   39    42	 1 ;       NG2S1       HGP1
   39    40	 1 ;       NG2S1      CG2O1
   40    41	 1 ;       CG2O1      OG2D1
   40    43	 1 ;       CG2O1     CG2R61
   43    48	 1 ;      CG2R61     CG2R61
   43    44	 1 ;      CG2R61     CG2R61
   44    45	 1 ;      CG2R61     CG2R61
   44    96	 1 ;      CG2R61      HGR61
   45    46	 1 ;      CG2R61     CG2R61
   45    49	 1 ;      CG2R61      CG2O1
   46    47	 1 ;      CG2R61     CG2R61
   46    97	 1 ;      CG2R61      HGR61
   47    48	 1 ;      CG2R61     CG2R61
   47    61	 1 ;      CG2R61      NG301
   48    98	 1 ;      CG2R61      HGR61
   49    50	 1 ;       CG2O1      OG2D1
   49    51	 1 ;       CG2O1      NG2S1
   51    52	 1 ;       NG2S1       HGP1
   51    53	 1 ;       NG2S1      CG311
   53    55	 1 ;       CG311     CG2R61
   53    54	 1 ;       CG311      CG331
   53    99	 1 ;       CG311       HGA1
   54   100	 1 ;       CG331       HGA3
   54   101	 1 ;       CG331       HGA3
   54   102	 1 ;       CG331       HGA3
   55    56	 1 ;      CG2R61     CG2R61
   55    60	 1 ;      CG2R61     CG2R61
   56    57	 1 ;      CG2R61     CG2R61
   56   103	 1 ;      CG2R61      HGR61
   57    58	 1 ;      CG2R61     CG2R61
   57   104	 1 ;      CG2R61      HGR61
   58    59	 1 ;      CG2R61     CG2R61
   58   105	 1 ;      CG2R61      HGR61
   59    60	 1 ;      CG2R61     CG2R61
   59   106	 1 ;      CG2R61      HGR61
   60   107	 1 ;      CG2R61      HGR61
   61    63	 1 ;       NG301      SG3O2
   61    62	 1 ;       NG301      CG331
   62   108	 1 ;       CG331       HGA3
   62   109	 1 ;       CG331       HGA3
   62   110	 1 ;       CG331       HGA3
   63    64	 1 ;       SG3O2      OG2P1
   63    65	 1 ;       SG3O2      OG2P1
   63    66	 1 ;       SG3O2      CG331
   66   111	 1 ;       CG331       HGA3
   66   112	 1 ;       CG331       HGA3
   66   113	 1 ;       CG331       HGA3

[ pairs ]
;	ai	  aj funct			  c0			c1			  c2			c3
    1     4	 1
    1    38	 1
    1    15	 1
    1    76	 1
    1    77	 1
    1    41	 1
    1    43	 1
    2    42	 1
    2    40	 1
    2    37	 1
    2    14	 1
    2    75	 1
    2     5	 1
    2    70	 1
    2    71	 1
    3    39	 1
    3    13	 1
    3    67	 1
    3     6	 1
    3    12	 1
    4    68	 1
    4    69	 1
    4     7	 1
    4    72	 1
    4    10	 1
    4    74	 1
    5     8	 1
    5     9	 1
    5    11	 1
    6    70	 1
    6    71	 1
    6    10	 1
    6    74	 1
    6    73	 1
    7    12	 1
    7    11	 1
    8    72	 1
    8    10	 1
    8    73	 1
    9    72	 1
    9    74	 1
   11    73	 1
   11    74	 1
   12    70	 1
   12    71	 1
   12    72	 1
   12    73	 1
   13    68	 1
   13    69	 1
   13    42	 1
   13    40	 1
   13    16	 1
   13    17	 1
   13    78	 1
   14    39	 1
   14    67	 1
   14    38	 1
   14    79	 1
   14    80	 1
   14    81	 1
   14    18	 1
   14    19	 1
   15    37	 1
   15    75	 1
   15    20	 1
   15    21	 1
   16    76	 1
   16    77	 1
   16    18	 1
   16    19	 1
   17    76	 1
   17    77	 1
   17    79	 1
   17    80	 1
   17    81	 1
   17    22	 1
   17    25	 1
   17    82	 1
   18    78	 1
   18    20	 1
   18    21	 1
   19    78	 1
   19    23	 1
   19    24	 1
   19    83	 1
   19    27	 1
   19    26	 1
   20    22	 1
   20    25	 1
   20    82	 1
   21    84	 1
   21    85	 1
   21    86	 1
   21    87	 1
   21    88	 1
   21    89	 1
   21    28	 1
   21    29	 1
   22    27	 1
   22    26	 1
   23    25	 1
   23    82	 1
   23    87	 1
   23    88	 1
   23    89	 1
   24    25	 1
   24    82	 1
   24    84	 1
   24    85	 1
   24    86	 1
   25    83	 1
   25    30	 1
   25    90	 1
   25    91	 1
   26    82	 1
   26    28	 1
   26    29	 1
   27    82	 1
   27    31	 1
   27    36	 1
   28    30	 1
   28    90	 1
   28    91	 1
   29    32	 1
   29    92	 1
   29    35	 1
   29    95	 1
   30    33	 1
   30    93	 1
   30    94	 1
   31    90	 1
   31    91	 1
   31    35	 1
   31    95	 1
   31    34	 1
   32    36	 1
   32    94	 1
   33    92	 1
   33    95	 1
   34    93	 1
   34    36	 1
   34    94	 1
   35    93	 1
   36    90	 1
   36    91	 1
   36    92	 1
   37    39	 1
   37    67	 1
   37    76	 1
   37    77	 1
   38    75	 1
   39    68	 1
   39    69	 1
   39    75	 1
   39    48	 1
   39    44	 1
   40    67	 1
   40    47	 1
   40    98	 1
   40    45	 1
   40    96	 1
   41    42	 1
   41    48	 1
   41    44	 1
   42    67	 1
   42    43	 1
   43    46	 1
   43    49	 1
   43    61	 1
   44    47	 1
   44    98	 1
   44    97	 1
   44    50	 1
   44    51	 1
   45    48	 1
   45    61	 1
   45    52	 1
   45    53	 1
   46    96	 1
   46    50	 1
   46    51	 1
   46    98	 1
   46    63	 1
   46    62	 1
   47    49	 1
   47    64	 1
   47    65	 1
   47    66	 1
   47   108	 1
   47   109	 1
   47   110	 1
   48    96	 1
   48    97	 1
   48    63	 1
   48    62	 1
   49    96	 1
   49    97	 1
   49    55	 1
   49    54	 1
   49    99	 1
   50    52	 1
   50    53	 1
   51    56	 1
   51    60	 1
   51   100	 1
   51   101	 1
   51   102	 1
   52    55	 1
   52    54	 1
   52    99	 1
   53    57	 1
   53   103	 1
   53    59	 1
   53   107	 1
   54    56	 1
   54    60	 1
   55   100	 1
   55   101	 1
   55   102	 1
   55    58	 1
   55   104	 1
   55   106	 1
   56    99	 1
   56    59	 1
   56   107	 1
   56   105	 1
   57    60	 1
   57   106	 1
   58   103	 1
   58   107	 1
   59   104	 1
   60    99	 1
   60   103	 1
   60   105	 1
   61    97	 1
   61    98	 1
   61   111	 1
   61   112	 1
   61   113	 1
   62    64	 1
   62    65	 1
   62    66	 1
   63   108	 1
   63   109	 1
   63   110	 1
   64   111	 1
   64   112	 1
   64   113	 1
   65   111	 1
   65   112	 1
   65   113	 1
   67    68	 1
   67    69	 1
   67    75	 1
   75    76	 1
   75    77	 1
   76    78	 1
   77    78	 1
   78    79	 1
   78    80	 1
   78    81	 1
   82    83	 1
   83    84	 1
   83    85	 1
   83    86	 1
   83    87	 1
   83    88	 1
   83    89	 1
   92    93	 1
   94    95	 1
   99   100	 1
   99   101	 1
   99   102	 1
  103   104	 1
  104   105	 1
  105   106	 1
  106   107	 1

[ angles ]
;	ai	  aj	ak funct			c0			  c1			c2			  c3
    2     1    39	5 ;      CG321      CG311      NG2S1
    2     1    13	5 ;      CG321      CG311      CG311
    2     1    67	5 ;      CG321      CG311       HGA1
   39     1    13	5 ;      NG2S1      CG311      CG311
   39     1    67	5 ;      NG2S1      CG311       HGA1
   13     1    67	5 ;      CG311      CG311       HGA1
    3     2     1	5 ;      OG301      CG321      CG311
    3     2    68	5 ;      OG301      CG321       HGA2
    3     2    69	5 ;      OG301      CG321       HGA2
    1     2    68	5 ;      CG311      CG321       HGA2
    1     2    69	5 ;      CG311      CG321       HGA2
   68     2    69	5 ;       HGA2      CG321       HGA2
    2     3     4	5 ;      CG321      OG301      CG321
    3     4     5	5 ;      OG301      CG321     CG2R61
    3     4    70	5 ;      OG301      CG321       HGA2
    3     4    71	5 ;      OG301      CG321       HGA2
    5     4    70	5 ;     CG2R61      CG321       HGA2
    5     4    71	5 ;     CG2R61      CG321       HGA2
   70     4    71	5 ;       HGA2      CG321       HGA2
    4     5     6	5 ;      CG321     CG2R61     CG2R61
    4     5    12	5 ;      CG321     CG2R61     CG2R61
    6     5    12	5 ;     CG2R61     CG2R61     CG2R61
    5     6     7	5 ;     CG2R61     CG2R61     CG2R66
    5     6    72	5 ;     CG2R61     CG2R61      HGR62
    7     6    72	5 ;     CG2R66     CG2R61      HGR62
    6     7     8	5 ;     CG2R61     CG2R66       FGR1
    6     7     9	5 ;     CG2R61     CG2R66     CG2R61
    8     7     9	5 ;       FGR1     CG2R66     CG2R61
    7     9    10	5 ;     CG2R66     CG2R61     CG2R66
    7     9    73	5 ;     CG2R66     CG2R61      HGR62
   10     9    73	5 ;     CG2R66     CG2R61      HGR62
   12    10     9	5 ;     CG2R61     CG2R66     CG2R61
   12    10    11	5 ;     CG2R61     CG2R66       FGR1
    9    10    11	5 ;     CG2R61     CG2R66       FGR1
    5    12    10	5 ;     CG2R61     CG2R61     CG2R66
    5    12    74	5 ;     CG2R61     CG2R61      HGR62
   10    12    74	5 ;     CG2R66     CG2R61      HGR62
   37    13     1	5 ;      OG311      CG311      CG311
   37    13    14	5 ;      OG311      CG311      CG321
   37    13    75	5 ;      OG311      CG311       HGA1
    1    13    14	5 ;      CG311      CG311      CG321
    1    13    75	5 ;      CG311      CG311       HGA1
   14    13    75	5 ;      CG321      CG311       HGA1
   13    14    15	5 ;      CG311      CG321      CG311
   13    14    76	5 ;      CG311      CG321       HGA2
   13    14    77	5 ;      CG311      CG321       HGA2
   15    14    76	5 ;      CG311      CG321       HGA2
   15    14    77	5 ;      CG311      CG321       HGA2
   76    14    77	5 ;       HGA2      CG321       HGA2
   14    15    16	5 ;      CG321      CG311      CG331
   14    15    17	5 ;      CG321      CG311      CG2O1
   14    15    78	5 ;      CG321      CG311       HGA1
   16    15    17	5 ;      CG331      CG311      CG2O1
   16    15    78	5 ;      CG331      CG311       HGA1
   17    15    78	5 ;      CG2O1      CG311       HGA1
   15    16    79	5 ;      CG311      CG331       HGA3
   15    16    80	5 ;      CG311      CG331       HGA3
   15    16    81	5 ;      CG311      CG331       HGA3
   79    16    80	5 ;       HGA3      CG331       HGA3
   79    16    81	5 ;       HGA3      CG331       HGA3
   80    16    81	5 ;       HGA3      CG331       HGA3
   15    17    18	5 ;      CG311      CG2O1      OG2D1
   15    17    19	5 ;      CG311      CG2O1      NG2S1
   18    17    19	5 ;      OG2D1      CG2O1      NG2S1
   17    19    20	5 ;      CG2O1      NG2S1       HGP1
   17    19    21	5 ;      CG2O1      NG2S1      CG311
   20    19    21	5 ;       HGP1      NG2S1      CG311
   19    21    22	5 ;      NG2S1      CG311      CG311
   19    21    25	5 ;      NG2S1      CG311      CG2O1
   19    21    82	5 ;      NG2S1      CG311       HGA1
   22    21    25	5 ;      CG311      CG311      CG2O1
   22    21    82	5 ;      CG311      CG311       HGA1
   25    21    82	5 ;      CG2O1      CG311       HGA1
   23    22    21	5 ;      CG331      CG311      CG311
   23    22    24	5 ;      CG331      CG311      CG331
   23    22    83	5 ;      CG331      CG311       HGA1
   21    22    24	5 ;      CG311      CG311      CG331
   21    22    83	5 ;      CG311      CG311       HGA1
   24    22    83	5 ;      CG331      CG311       HGA1
   22    23    84	5 ;      CG311      CG331       HGA3
   22    23    85	5 ;      CG311      CG331       HGA3
   22    23    86	5 ;      CG311      CG331       HGA3
   84    23    85	5 ;       HGA3      CG331       HGA3
   84    23    86	5 ;       HGA3      CG331       HGA3
   85    23    86	5 ;       HGA3      CG331       HGA3
   22    24    87	5 ;      CG311      CG331       HGA3
   22    24    88	5 ;      CG311      CG331       HGA3
   22    24    89	5 ;      CG311      CG331       HGA3
   87    24    88	5 ;       HGA3      CG331       HGA3
   87    24    89	5 ;       HGA3      CG331       HGA3
   88    24    89	5 ;       HGA3      CG331       HGA3
   21    25    27	5 ;      CG311      CG2O1      NG2S1
   21    25    26	5 ;      CG311      CG2O1      OG2D1
   27    25    26	5 ;      NG2S1      CG2O1      OG2D1
   28    27    25	5 ;       HGP1      NG2S1      CG2O1
   28    27    29	5 ;       HGP1      NG2S1      CG321
   25    27    29	5 ;      CG2O1      NG2S1      CG321
   27    29    30	5 ;      NG2S1      CG321     CG2R61
   27    29    90	5 ;      NG2S1      CG321       HGA2
   27    29    91	5 ;      NG2S1      CG321       HGA2
   30    29    90	5 ;     CG2R61      CG321       HGA2
   30    29    91	5 ;     CG2R61      CG321       HGA2
   90    29    91	5 ;       HGA2      CG321       HGA2
   29    30    31	5 ;      CG321     CG2R61     CG2R61
   29    30    36	5 ;      CG321     CG2R61     CG2R61
   31    30    36	5 ;     CG2R61     CG2R61     CG2R61
   30    31    32	5 ;     CG2R61     CG2R61     CG2R61
   30    31    92	5 ;     CG2R61     CG2R61      HGR61
   32    31    92	5 ;     CG2R61     CG2R61      HGR61
   31    32    33	5 ;     CG2R61     CG2R61     CG2R66
   31    32    93	5 ;     CG2R61     CG2R61      HGR62
   33    32    93	5 ;     CG2R66     CG2R61      HGR62
   32    33    35	5 ;     CG2R61     CG2R66     CG2R61
   32    33    34	5 ;     CG2R61     CG2R66       FGR1
   35    33    34	5 ;     CG2R61     CG2R66       FGR1
   36    35    33	5 ;     CG2R61     CG2R61     CG2R66
   36    35    94	5 ;     CG2R61     CG2R61      HGR62
   33    35    94	5 ;     CG2R66     CG2R61      HGR62
   30    36    35	5 ;     CG2R61     CG2R61     CG2R61
   30    36    95	5 ;     CG2R61     CG2R61      HGR61
   35    36    95	5 ;     CG2R61     CG2R61      HGR61
   38    37    13	5 ;       HGP1      OG311      CG311
   42    39     1	5 ;       HGP1      NG2S1      CG311
   42    39    40	5 ;       HGP1      NG2S1      CG2O1
    1    39    40	5 ;      CG311      NG2S1      CG2O1
   39    40    41	5 ;      NG2S1      CG2O1      OG2D1
   39    40    43	5 ;      NG2S1      CG2O1     CG2R61
   41    40    43	5 ;      OG2D1      CG2O1     CG2R61
   40    43    48	5 ;      CG2O1     CG2R61     CG2R61
   40    43    44	5 ;      CG2O1     CG2R61     CG2R61
   48    43    44	5 ;     CG2R61     CG2R61     CG2R61
   43    44    45	5 ;     CG2R61     CG2R61     CG2R61
   43    44    96	5 ;     CG2R61     CG2R61      HGR61
   45    44    96	5 ;     CG2R61     CG2R61      HGR61
   44    45    46	5 ;     CG2R61     CG2R61     CG2R61
   44    45    49	5 ;     CG2R61     CG2R61      CG2O1
   46    45    49	5 ;     CG2R61     CG2R61      CG2O1
   47    46    45	5 ;     CG2R61     CG2R61     CG2R61
   47    46    97	5 ;     CG2R61     CG2R61      HGR61
   45    46    97	5 ;     CG2R61     CG2R61      HGR61
   48    47    61	5 ;     CG2R61     CG2R61      NG301
   48    47    46	5 ;     CG2R61     CG2R61     CG2R61
   61    47    46	5 ;      NG301     CG2R61     CG2R61
   43    48    47	5 ;     CG2R61     CG2R61     CG2R61
   43    48    98	5 ;     CG2R61     CG2R61      HGR61
   47    48    98	5 ;     CG2R61     CG2R61      HGR61
   45    49    50	5 ;     CG2R61      CG2O1      OG2D1
   45    49    51	5 ;     CG2R61      CG2O1      NG2S1
   50    49    51	5 ;      OG2D1      CG2O1      NG2S1
   49    51    52	5 ;      CG2O1      NG2S1       HGP1
   49    51    53	5 ;      CG2O1      NG2S1      CG311
   52    51    53	5 ;       HGP1      NG2S1      CG311
   51    53    55	5 ;      NG2S1      CG311     CG2R61
   51    53    54	5 ;      NG2S1      CG311      CG331
   51    53    99	5 ;      NG2S1      CG311       HGA1
   55    53    54	5 ;     CG2R61      CG311      CG331
   55    53    99	5 ;     CG2R61      CG311       HGA1
   54    53    99	5 ;      CG331      CG311       HGA1
   53    54   100	5 ;      CG311      CG331       HGA3
   53    54   101	5 ;      CG311      CG331       HGA3
   53    54   102	5 ;      CG311      CG331       HGA3
  100    54   101	5 ;       HGA3      CG331       HGA3
  100    54   102	5 ;       HGA3      CG331       HGA3
  101    54   102	5 ;       HGA3      CG331       HGA3
   56    55    53	5 ;     CG2R61     CG2R61      CG311
   56    55    60	5 ;     CG2R61     CG2R61     CG2R61
   53    55    60	5 ;      CG311     CG2R61     CG2R61
   57    56    55	5 ;     CG2R61     CG2R61     CG2R61
   57    56   103	5 ;     CG2R61     CG2R61      HGR61
   55    56   103	5 ;     CG2R61     CG2R61      HGR61
   56    57    58	5 ;     CG2R61     CG2R61     CG2R61
   56    57   104	5 ;     CG2R61     CG2R61      HGR61
   58    57   104	5 ;     CG2R61     CG2R61      HGR61
   57    58    59	5 ;     CG2R61     CG2R61     CG2R61
   57    58   105	5 ;     CG2R61     CG2R61      HGR61
   59    58   105	5 ;     CG2R61     CG2R61      HGR61
   58    59    60	5 ;     CG2R61     CG2R61     CG2R61
   58    59   106	5 ;     CG2R61     CG2R61      HGR61
   60    59   106	5 ;     CG2R61     CG2R61      HGR61
   55    60    59	5 ;     CG2R61     CG2R61     CG2R61
   55    60   107	5 ;     CG2R61     CG2R61      HGR61
   59    60   107	5 ;     CG2R61     CG2R61      HGR61
   47    61    63	5 ;     CG2R61      NG301      SG3O2
   47    61    62	5 ;     CG2R61      NG301      CG331
   63    61    62	5 ;      SG3O2      NG301      CG331
   61    62   108	5 ;      NG301      CG331       HGA3
   61    62   109	5 ;      NG301      CG331       HGA3
   61    62   110	5 ;      NG301      CG331       HGA3
  108    62   109	5 ;       HGA3      CG331       HGA3
  108    62   110	5 ;       HGA3      CG331       HGA3
  109    62   110	5 ;       HGA3      CG331       HGA3
   64    63    61	5 ;      OG2P1      SG3O2      NG301
   64    63    65	5 ;      OG2P1      SG3O2      OG2P1
   64    63    66	5 ;      OG2P1      SG3O2      CG331
   61    63    65	5 ;      NG301      SG3O2      OG2P1
   61    63    66	5 ;      NG301      SG3O2      CG331
   65    63    66	5 ;      OG2P1      SG3O2      CG331
   63    66   111	5 ;      SG3O2      CG331       HGA3
   63    66   112	5 ;      SG3O2      CG331       HGA3
   63    66   113	5 ;      SG3O2      CG331       HGA3
  111    66   112	5 ;       HGA3      CG331       HGA3
  111    66   113	5 ;       HGA3      CG331       HGA3
  112    66   113	5 ;       HGA3      CG331       HGA3

[ dihedrals ]
;	ai	  aj	ak	  al funct			  c0			c1			  c2			c3			  c4			c5
   39     1     2     3	 9 ;      NG2S1      CG311      CG321      OG301
   39     1     2    68	 9 ;      NG2S1      CG311      CG321       HGA2
   39     1     2    69	 9 ;      NG2S1      CG311      CG321       HGA2
   13     1     2     3	 9 ;      CG311      CG311      CG321      OG301
   13     1     2    68	 9 ;      CG311      CG311      CG321       HGA2
   13     1     2    69	 9 ;      CG311      CG311      CG321       HGA2
   67     1     2     3	 9 ;       HGA1      CG311      CG321      OG301
   67     1     2    68	 9 ;       HGA1      CG311      CG321       HGA2
   67     1     2    69	 9 ;       HGA1      CG311      CG321       HGA2
    2     1    39    42	 9 ;      CG321      CG311      NG2S1       HGP1
    2     1    39    40	 9 ;      CG321      CG311      NG2S1      CG2O1
   13     1    39    42	 9 ;      CG311      CG311      NG2S1       HGP1
   13     1    39    40	 9 ;      CG311      CG311      NG2S1      CG2O1
   67     1    39    42	 9 ;       HGA1      CG311      NG2S1       HGP1
   67     1    39    40	 9 ;       HGA1      CG311      NG2S1      CG2O1
    2     1    13    37	 9 ;      CG321      CG311      CG311      OG311
    2     1    13    14	 9 ;      CG321      CG311      CG311      CG321
    2     1    13    75	 9 ;      CG321      CG311      CG311       HGA1
   39     1    13    37	 9 ;      NG2S1      CG311      CG311      OG311
   39     1    13    14	 9 ;      NG2S1      CG311      CG311      CG321
   39     1    13    75	 9 ;      NG2S1      CG311      CG311       HGA1
   67     1    13    37	 9 ;       HGA1      CG311      CG311      OG311
   67     1    13    14	 9 ;       HGA1      CG311      CG311      CG321
   67     1    13    75	 9 ;       HGA1      CG311      CG311       HGA1
    1     2     3     4	 9 ;      CG311      CG321      OG301      CG321
   68     2     3     4	 9 ;       HGA2      CG321      OG301      CG321
   69     2     3     4	 9 ;       HGA2      CG321      OG301      CG321
    2     3     4     5	 9 ;      CG321      OG301      CG321     CG2R61
    2     3     4    70	 9 ;      CG321      OG301      CG321       HGA2
    2     3     4    71	 9 ;      CG321      OG301      CG321       HGA2
    3     4     5     6	 9 ;      OG301      CG321     CG2R61     CG2R61
    3     4     5    12	 9 ;      OG301      CG321     CG2R61     CG2R61
   70     4     5     6	 9 ;       HGA2      CG321     CG2R61     CG2R61
   70     4     5    12	 9 ;       HGA2      CG321     CG2R61     CG2R61
   71     4     5     6	 9 ;       HGA2      CG321     CG2R61     CG2R61
   71     4     5    12	 9 ;       HGA2      CG321     CG2R61     CG2R61
    4     5     6     7	 9 ;      CG321     CG2R61     CG2R61     CG2R66
    4     5     6    72	 9 ;      CG321     CG2R61     CG2R61      HGR62
   12     5     6     7	 9 ;     CG2R61     CG2R61     CG2R61     CG2R66
   12     5     6    72	 9 ;     CG2R61     CG2R61     CG2R61      HGR62
    4     5    12    10	 9 ;      CG321     CG2R61     CG2R61     CG2R66
    4     5    12    74	 9 ;      CG321     CG2R61     CG2R61      HGR62
    6     5    12    10	 9 ;     CG2R61     CG2R61     CG2R61     CG2R66
    6     5    12    74	 9 ;     CG2R61     CG2R61     CG2R61      HGR62
    5     6     7     8	 9 ;     CG2R61     CG2R61     CG2R66       FGR1
    5     6     7     9	 9 ;     CG2R61     CG2R61     CG2R66     CG2R61
   72     6     7     8	 9 ;      HGR62     CG2R61     CG2R66       FGR1
   72     6     7     9	 9 ;      HGR62     CG2R61     CG2R66     CG2R61
    6     7     9    10	 9 ;     CG2R61     CG2R66     CG2R61     CG2R66
    6     7     9    73	 9 ;     CG2R61     CG2R66     CG2R61      HGR62
    8     7     9    10	 9 ;       FGR1     CG2R66     CG2R61     CG2R66
    8     7     9    73	 9 ;       FGR1     CG2R66     CG2R61      HGR62
    7     9    10    12	 9 ;     CG2R66     CG2R61     CG2R66     CG2R61
    7     9    10    11	 9 ;     CG2R66     CG2R61     CG2R66       FGR1
   73     9    10    12	 9 ;      HGR62     CG2R61     CG2R66     CG2R61
   73     9    10    11	 9 ;      HGR62     CG2R61     CG2R66       FGR1
    9    10    12     5	 9 ;     CG2R61     CG2R66     CG2R61     CG2R61
    9    10    12    74	 9 ;     CG2R61     CG2R66     CG2R61      HGR62
   11    10    12     5	 9 ;       FGR1     CG2R66     CG2R61     CG2R61
   11    10    12    74	 9 ;       FGR1     CG2R66     CG2R61      HGR62
    1    13    37    38	 9 ;      CG311      CG311      OG311       HGP1
   14    13    37    38	 9 ;      CG321      CG311      OG311       HGP1
   75    13    37    38	 9 ;       HGA1      CG311      OG311       HGP1
   37    13    14    15	 9 ;      OG311      CG311      CG321      CG311
   37    13    14    76	 9 ;      OG311      CG311      CG321       HGA2
   37    13    14    77	 9 ;      OG311      CG311      CG321       HGA2
    1    13    14    15	 9 ;      CG311      CG311      CG321      CG311
    1    13    14    76	 9 ;      CG311      CG311      CG321       HGA2
    1    13    14    77	 9 ;      CG311      CG311      CG321       HGA2
   75    13    14    15	 9 ;       HGA1      CG311      CG321      CG311
   75    13    14    76	 9 ;       HGA1      CG311      CG321       HGA2
   75    13    14    77	 9 ;       HGA1      CG311      CG321       HGA2
   13    14    15    16	 9 ;      CG311      CG321      CG311      CG331
   13    14    15    17	 9 ;      CG311      CG321      CG311      CG2O1
   13    14    15    78	 9 ;      CG311      CG321      CG311       HGA1
   76    14    15    16	 9 ;       HGA2      CG321      CG311      CG331
   76    14    15    17	 9 ;       HGA2      CG321      CG311      CG2O1
   76    14    15    78	 9 ;       HGA2      CG321      CG311       HGA1
   77    14    15    16	 9 ;       HGA2      CG321      CG311      CG331
   77    14    15    17	 9 ;       HGA2      CG321      CG311      CG2O1
   77    14    15    78	 9 ;       HGA2      CG321      CG311       HGA1
   14    15    16    79	 9 ;      CG321      CG311      CG331       HGA3
   14    15    16    80	 9 ;      CG321      CG311      CG331       HGA3
   14    15    16    81	 9 ;      CG321      CG311      CG331       HGA3
   17    15    16    79	 9 ;      CG2O1      CG311      CG331       HGA3
   17    15    16    80	 9 ;      CG2O1      CG311      CG331       HGA3
   17    15    16    81	 9 ;      CG2O1      CG311      CG331       HGA3
   78    15    16    79	 9 ;       HGA1      CG311      CG331       HGA3
   78    15    16    80	 9 ;       HGA1      CG311      CG331       HGA3
   78    15    16    81	 9 ;       HGA1      CG311      CG331       HGA3
   14    15    17    18	 9 ;      CG321      CG311      CG2O1      OG2D1
   14    15    17    19	 9 ;      CG321      CG311      CG2O1      NG2S1
   16    15    17    18	 9 ;      CG331      CG311      CG2O1      OG2D1
   16    15    17    19	 9 ;      CG331      CG311      CG2O1      NG2S1
   78    15    17    18	 9 ;       HGA1      CG311      CG2O1      OG2D1
   78    15    17    19	 9 ;       HGA1      CG311      CG2O1      NG2S1
   15    17    19    20	 9 ;      CG311      CG2O1      NG2S1       HGP1
   15    17    19    21	 9 ;      CG311      CG2O1      NG2S1      CG311
   18    17    19    20	 9 ;      OG2D1      CG2O1      NG2S1       HGP1
   18    17    19    21	 9 ;      OG2D1      CG2O1      NG2S1      CG311
   17    19    21    22	 9 ;      CG2O1      NG2S1      CG311      CG311
   17    19    21    25	 9 ;      CG2O1      NG2S1      CG311      CG2O1
   17    19    21    82	 9 ;      CG2O1      NG2S1      CG311       HGA1
   20    19    21    22	 9 ;       HGP1      NG2S1      CG311      CG311
   20    19    21    25	 9 ;       HGP1      NG2S1      CG311      CG2O1
   20    19    21    82	 9 ;       HGP1      NG2S1      CG311       HGA1
   19    21    22    23	 9 ;      NG2S1      CG311      CG311      CG331
   19    21    22    24	 9 ;      NG2S1      CG311      CG311      CG331
   19    21    22    83	 9 ;      NG2S1      CG311      CG311       HGA1
   25    21    22    23	 9 ;      CG2O1      CG311      CG311      CG331
   25    21    22    24	 9 ;      CG2O1      CG311      CG311      CG331
   25    21    22    83	 9 ;      CG2O1      CG311      CG311       HGA1
   82    21    22    23	 9 ;       HGA1      CG311      CG311      CG331
   82    21    22    24	 9 ;       HGA1      CG311      CG311      CG331
   82    21    22    83	 9 ;       HGA1      CG311      CG311       HGA1
   19    21    25    27	 9 ;      NG2S1      CG311      CG2O1      NG2S1
   19    21    25    26	 9 ;      NG2S1      CG311      CG2O1      OG2D1
   22    21    25    27	 9 ;      CG311      CG311      CG2O1      NG2S1
   22    21    25    26	 9 ;      CG311      CG311      CG2O1      OG2D1
   82    21    25    27	 9 ;       HGA1      CG311      CG2O1      NG2S1
   82    21    25    26	 9 ;       HGA1      CG311      CG2O1      OG2D1
   21    22    23    84	 9 ;      CG311      CG311      CG331       HGA3
   21    22    23    85	 9 ;      CG311      CG311      CG331       HGA3
   21    22    23    86	 9 ;      CG311      CG311      CG331       HGA3
   24    22    23    84	 9 ;      CG331      CG311      CG331       HGA3
   24    22    23    85	 9 ;      CG331      CG311      CG331       HGA3
   24    22    23    86	 9 ;      CG331      CG311      CG331       HGA3
   83    22    23    84	 9 ;       HGA1      CG311      CG331       HGA3
   83    22    23    85	 9 ;       HGA1      CG311      CG331       HGA3
   83    22    23    86	 9 ;       HGA1      CG311      CG331       HGA3
   23    22    24    87	 9 ;      CG331      CG311      CG331       HGA3
   23    22    24    88	 9 ;      CG331      CG311      CG331       HGA3
   23    22    24    89	 9 ;      CG331      CG311      CG331       HGA3
   21    22    24    87	 9 ;      CG311      CG311      CG331       HGA3
   21    22    24    88	 9 ;      CG311      CG311      CG331       HGA3
   21    22    24    89	 9 ;      CG311      CG311      CG331       HGA3
   83    22    24    87	 9 ;       HGA1      CG311      CG331       HGA3
   83    22    24    88	 9 ;       HGA1      CG311      CG331       HGA3
   83    22    24    89	 9 ;       HGA1      CG311      CG331       HGA3
   21    25    27    28	 9 ;      CG311      CG2O1      NG2S1       HGP1
   21    25    27    29	 9 ;      CG311      CG2O1      NG2S1      CG321
   26    25    27    28	 9 ;      OG2D1      CG2O1      NG2S1       HGP1
   26    25    27    29	 9 ;      OG2D1      CG2O1      NG2S1      CG321
   28    27    29    30	 9 ;       HGP1      NG2S1      CG321     CG2R61
   28    27    29    90	 9 ;       HGP1      NG2S1      CG321       HGA2
   28    27    29    91	 9 ;       HGP1      NG2S1      CG321       HGA2
   25    27    29    30	 9 ;      CG2O1      NG2S1      CG321     CG2R61
   25    27    29    90	 9 ;      CG2O1      NG2S1      CG321       HGA2
   25    27    29    91	 9 ;      CG2O1      NG2S1      CG321       HGA2
   27    29    30    31	 9 ;      NG2S1      CG321     CG2R61     CG2R61
   27    29    30    36	 9 ;      NG2S1      CG321     CG2R61     CG2R61
   90    29    30    31	 9 ;       HGA2      CG321     CG2R61     CG2R61
   90    29    30    36	 9 ;       HGA2      CG321     CG2R61     CG2R61
   91    29    30    31	 9 ;       HGA2      CG321     CG2R61     CG2R61
   91    29    30    36	 9 ;       HGA2      CG321     CG2R61     CG2R61
   29    30    31    32	 9 ;      CG321     CG2R61     CG2R61     CG2R61
   29    30    31    92	 9 ;      CG321     CG2R61     CG2R61      HGR61
   36    30    31    32	 9 ;     CG2R61     CG2R61     CG2R61     CG2R61
   36    30    31    92	 9 ;     CG2R61     CG2R61     CG2R61      HGR61
   29    30    36    35	 9 ;      CG321     CG2R61     CG2R61     CG2R61
   29    30    36    95	 9 ;      CG321     CG2R61     CG2R61      HGR61
   31    30    36    35	 9 ;     CG2R61     CG2R61     CG2R61     CG2R61
   31    30    36    95	 9 ;     CG2R61     CG2R61     CG2R61      HGR61
   30    31    32    33	 9 ;     CG2R61     CG2R61     CG2R61     CG2R66
   30    31    32    93	 9 ;     CG2R61     CG2R61     CG2R61      HGR62
   92    31    32    33	 9 ;      HGR61     CG2R61     CG2R61     CG2R66
   92    31    32    93	 9 ;      HGR61     CG2R61     CG2R61      HGR62
   31    32    33    35	 9 ;     CG2R61     CG2R61     CG2R66     CG2R61
   31    32    33    34	 9 ;     CG2R61     CG2R61     CG2R66       FGR1
   93    32    33    35	 9 ;      HGR62     CG2R61     CG2R66     CG2R61
   93    32    33    34	 9 ;      HGR62     CG2R61     CG2R66       FGR1
   32    33    35    36	 9 ;     CG2R61     CG2R66     CG2R61     CG2R61
   32    33    35    94	 9 ;     CG2R61     CG2R66     CG2R61      HGR62
   34    33    35    36	 9 ;       FGR1     CG2R66     CG2R61     CG2R61
   34    33    35    94	 9 ;       FGR1     CG2R66     CG2R61      HGR62
   33    35    36    30	 9 ;     CG2R66     CG2R61     CG2R61     CG2R61
   33    35    36    95	 9 ;     CG2R66     CG2R61     CG2R61      HGR61
   94    35    36    30	 9 ;      HGR62     CG2R61     CG2R61     CG2R61
   94    35    36    95	 9 ;      HGR62     CG2R61     CG2R61      HGR61
   42    39    40    41	 9 ;       HGP1      NG2S1      CG2O1      OG2D1
   42    39    40    43	 9 ;       HGP1      NG2S1      CG2O1     CG2R61
    1    39    40    41	 9 ;      CG311      NG2S1      CG2O1      OG2D1
    1    39    40    43	 9 ;      CG311      NG2S1      CG2O1     CG2R61
   39    40    43    48	 9 ;      NG2S1      CG2O1     CG2R61     CG2R61
   39    40    43    44	 9 ;      NG2S1      CG2O1     CG2R61     CG2R61
   41    40    43    48	 9 ;      OG2D1      CG2O1     CG2R61     CG2R61
   41    40    43    44	 9 ;      OG2D1      CG2O1     CG2R61     CG2R61
   40    43    48    47	 9 ;      CG2O1     CG2R61     CG2R61     CG2R61
   40    43    48    98	 9 ;      CG2O1     CG2R61     CG2R61      HGR61
   44    43    48    47	 9 ;     CG2R61     CG2R61     CG2R61     CG2R61
   44    43    48    98	 9 ;     CG2R61     CG2R61     CG2R61      HGR61
   40    43    44    45	 9 ;      CG2O1     CG2R61     CG2R61     CG2R61
   40    43    44    96	 9 ;      CG2O1     CG2R61     CG2R61      HGR61
   48    43    44    45	 9 ;     CG2R61     CG2R61     CG2R61     CG2R61
   48    43    44    96	 9 ;     CG2R61     CG2R61     CG2R61      HGR61
   43    44    45    46	 9 ;     CG2R61     CG2R61     CG2R61     CG2R61
   43    44    45    49	 9 ;     CG2R61     CG2R61     CG2R61      CG2O1
   96    44    45    46	 9 ;      HGR61     CG2R61     CG2R61     CG2R61
   96    44    45    49	 9 ;      HGR61     CG2R61     CG2R61      CG2O1
   44    45    46    47	 9 ;     CG2R61     CG2R61     CG2R61     CG2R61
   44    45    46    97	 9 ;     CG2R61     CG2R61     CG2R61      HGR61
   49    45    46    47	 9 ;      CG2O1     CG2R61     CG2R61     CG2R61
   49    45    46    97	 9 ;      CG2O1     CG2R61     CG2R61      HGR61
   44    45    49    50	 9 ;     CG2R61     CG2R61      CG2O1      OG2D1
   44    45    49    51	 9 ;     CG2R61     CG2R61      CG2O1      NG2S1
   46    45    49    50	 9 ;     CG2R61     CG2R61      CG2O1      OG2D1
   46    45    49    51	 9 ;     CG2R61     CG2R61      CG2O1      NG2S1
   45    46    47    48	 9 ;     CG2R61     CG2R61     CG2R61     CG2R61
   45    46    47    61	 9 ;     CG2R61     CG2R61     CG2R61      NG301
   97    46    47    48	 9 ;      HGR61     CG2R61     CG2R61     CG2R61
   97    46    47    61	 9 ;      HGR61     CG2R61     CG2R61      NG301
   61    47    48    43	 9 ;      NG301     CG2R61     CG2R61     CG2R61
   61    47    48    98	 9 ;      NG301     CG2R61     CG2R61      HGR61
   46    47    48    43	 9 ;     CG2R61     CG2R61     CG2R61     CG2R61
   46    47    48    98	 9 ;     CG2R61     CG2R61     CG2R61      HGR61
   48    47    61    63	 9 ;     CG2R61     CG2R61      NG301      SG3O2
   48    47    61    62	 9 ;     CG2R61     CG2R61      NG301      CG331
   46    47    61    63	 9 ;     CG2R61     CG2R61      NG301      SG3O2
   46    47    61    62	 9 ;     CG2R61     CG2R61      NG301      CG331
   45    49    51    52	 9 ;     CG2R61      CG2O1      NG2S1       HGP1
   45    49    51    53	 9 ;     CG2R61      CG2O1      NG2S1      CG311
   50    49    51    52	 9 ;      OG2D1      CG2O1      NG2S1       HGP1
   50    49    51    53	 9 ;      OG2D1      CG2O1      NG2S1      CG311
   49    51    53    55	 9 ;      CG2O1      NG2S1      CG311     CG2R61
   49    51    53    54	 9 ;      CG2O1      NG2S1      CG311      CG331
   49    51    53    99	 9 ;      CG2O1      NG2S1      CG311       HGA1
   52    51    53    55	 9 ;       HGP1      NG2S1      CG311     CG2R61
   52    51    53    54	 9 ;       HGP1      NG2S1      CG311      CG331
   52    51    53    99	 9 ;       HGP1      NG2S1      CG311       HGA1
   51    53    55    56	 9 ;      NG2S1      CG311     CG2R61     CG2R61
   51    53    55    60	 9 ;      NG2S1      CG311     CG2R61     CG2R61
   54    53    55    56	 9 ;      CG331      CG311     CG2R61     CG2R61
   54    53    55    60	 9 ;      CG331      CG311     CG2R61     CG2R61
   99    53    55    56	 9 ;       HGA1      CG311     CG2R61     CG2R61
   99    53    55    60	 9 ;       HGA1      CG311     CG2R61     CG2R61
   51    53    54   100	 9 ;      NG2S1      CG311      CG331       HGA3
   51    53    54   101	 9 ;      NG2S1      CG311      CG331       HGA3
   51    53    54   102	 9 ;      NG2S1      CG311      CG331       HGA3
   55    53    54   100	 9 ;     CG2R61      CG311      CG331       HGA3
   55    53    54   101	 9 ;     CG2R61      CG311      CG331       HGA3
   55    53    54   102	 9 ;     CG2R61      CG311      CG331       HGA3
   99    53    54   100	 9 ;       HGA1      CG311      CG331       HGA3
   99    53    54   101	 9 ;       HGA1      CG311      CG331       HGA3
   99    53    54   102	 9 ;       HGA1      CG311      CG331       HGA3
   53    55    56    57	 9 ;      CG311     CG2R61     CG2R61     CG2R61
   53    55    56   103	 9 ;      CG311     CG2R61     CG2R61      HGR61
   60    55    56    57	 9 ;     CG2R61     CG2R61     CG2R61     CG2R61
   60    55    56   103	 9 ;     CG2R61     CG2R61     CG2R61      HGR61
   56    55    60    59	 9 ;     CG2R61     CG2R61     CG2R61     CG2R61
   56    55    60   107	 9 ;     CG2R61     CG2R61     CG2R61      HGR61
   53    55    60    59	 9 ;      CG311     CG2R61     CG2R61     CG2R61
   53    55    60   107	 9 ;      CG311     CG2R61     CG2R61      HGR61
   55    56    57    58	 9 ;     CG2R61     CG2R61     CG2R61     CG2R61
   55    56    57   104	 9 ;     CG2R61     CG2R61     CG2R61      HGR61
  103    56    57    58	 9 ;      HGR61     CG2R61     CG2R61     CG2R61
  103    56    57   104	 9 ;      HGR61     CG2R61     CG2R61      HGR61
   56    57    58    59	 9 ;     CG2R61     CG2R61     CG2R61     CG2R61
   56    57    58   105	 9 ;     CG2R61     CG2R61     CG2R61      HGR61
  104    57    58    59	 9 ;      HGR61     CG2R61     CG2R61     CG2R61
  104    57    58   105	 9 ;      HGR61     CG2R61     CG2R61      HGR61
   57    58    59    60	 9 ;     CG2R61     CG2R61     CG2R61     CG2R61
   57    58    59   106	 9 ;     CG2R61     CG2R61     CG2R61      HGR61
  105    58    59    60	 9 ;      HGR61     CG2R61     CG2R61     CG2R61
  105    58    59   106	 9 ;      HGR61     CG2R61     CG2R61      HGR61
   58    59    60    55	 9 ;     CG2R61     CG2R61     CG2R61     CG2R61
   58    59    60   107	 9 ;     CG2R61     CG2R61     CG2R61      HGR61
  106    59    60    55	 9 ;      HGR61     CG2R61     CG2R61     CG2R61
  106    59    60   107	 9 ;      HGR61     CG2R61     CG2R61      HGR61
   47    61    63    64	 9 ;     CG2R61      NG301      SG3O2      OG2P1
   47    61    63    65	 9 ;     CG2R61      NG301      SG3O2      OG2P1
   47    61    63    66	 9 ;     CG2R61      NG301      SG3O2      CG331
   62    61    63    64	 9 ;      CG331      NG301      SG3O2      OG2P1
   62    61    63    65	 9 ;      CG331      NG301      SG3O2      OG2P1
   62    61    63    66	 9 ;      CG331      NG301      SG3O2      CG331
   47    61    62   108	 9 ;     CG2R61      NG301      CG331       HGA3
   47    61    62   109	 9 ;     CG2R61      NG301      CG331       HGA3
   47    61    62   110	 9 ;     CG2R61      NG301      CG331       HGA3
   63    61    62   108	 9 ;      SG3O2      NG301      CG331       HGA3
   63    61    62   109	 9 ;      SG3O2      NG301      CG331       HGA3
   63    61    62   110	 9 ;      SG3O2      NG301      CG331       HGA3
   64    63    66   111	 9 ;      OG2P1      SG3O2      CG331       HGA3
   64    63    66   112	 9 ;      OG2P1      SG3O2      CG331       HGA3
   64    63    66   113	 9 ;      OG2P1      SG3O2      CG331       HGA3
   61    63    66   111	 9 ;      NG301      SG3O2      CG331       HGA3
   61    63    66   112	 9 ;      NG301      SG3O2      CG331       HGA3
   61    63    66   113	 9 ;      NG301      SG3O2      CG331       HGA3
   65    63    66   111	 9 ;      OG2P1      SG3O2      CG331       HGA3
   65    63    66   112	 9 ;      OG2P1      SG3O2      CG331       HGA3
   65    63    66   113	 9 ;      OG2P1      SG3O2      CG331       HGA3

[ dihedrals ]
;	ai	  aj	ak	  al funct			  c0			c1			  c2			c3
   17    15    19    18	 2
   25    21    27    26	 2
   40    43    39    41	 2
   49    45    51    50	 2

