Great Red Oystrich Makes All Chemists Sane
   73
    1LIG     N1    1  -1.680   0.521  -1.701
    1LIG     H1    2  -1.747   0.488  -1.773
    1LIG     H2    3  -1.596   0.535  -1.759
    1LIG     C1    4  -1.741   0.660  -1.668
    1LIG     C2    5  -1.667   0.738  -1.556
    1LIG     C3    6  -1.536   0.820  -1.593
    1LIG     C4    7  -1.448   0.759  -1.708
    1LIG     C5    8  -1.315   0.707  -1.659
    1LIG     C6    9  -1.297   0.673  -1.524
    1LIG     C7   10  -1.170   0.639  -1.477
    1LIG     F1   11  -1.154   0.616  -1.347
    1LIG     C8   12  -1.061   0.633  -1.563
    1LIG     C9   13  -1.081   0.657  -1.698
    1LIG    C10   14  -1.207   0.691  -1.747
    1LIG     F2   15  -0.977   0.650  -1.782
    1LIG     N2   16  -1.556   0.963  -1.615
    1LIG    C11   17  -1.602   1.010  -1.738
    1LIG     O1   18  -1.634   0.933  -1.830
    1LIG    C12   19  -1.618   1.158  -1.749
    1LIG     H3   20  -1.517   1.033  -1.552
    1LIG     O2   21  -1.763   0.824  -1.489
    1LIG     H4   22  -1.848   0.775  -1.493
    1LIG    C13   23  -1.666   0.389  -1.618
    1LIG    C14   24  -1.743   0.272  -1.685
    1LIG    C15   25  -1.894   0.269  -1.658
    1LIG    C16   26  -1.932   0.273  -1.512
    1LIG     N3   27  -1.861   0.385  -1.444
    1LIG    C17   28  -1.714   0.396  -1.467
    1LIG     H5   29  -1.908   0.475  -1.464
    1LIG     H6   30  -1.875   0.370  -1.343
    1LIG    C18   31  -1.511   0.360  -1.613
    1LIG    C19   32  -1.443   0.329  -1.493
    1LIG    C20   33  -1.304   0.300  -1.488
    1LIG    C21   34  -1.233   0.303  -1.608
    1LIG    C22   35  -1.297   0.334  -1.728
    1LIG    C23   36  -1.434   0.361  -1.731
    1LIG    C24   37  -1.231   0.260  -1.357
    1LIG    C25   38  -1.260   0.115  -1.311
    1LIG    C26   39  -1.079   0.272  -1.380
    1LIG    C27   40  -1.271   0.353  -1.240
    1LIG    HC2   41  -1.845   0.646  -1.637
    1LIG    HC3   42  -1.740   0.721  -1.759
    1LIG     HC   43  -1.637   0.664  -1.482
    1LIG    HC1   44  -1.473   0.814  -1.504
    1LIG    HC4   45  -1.429   0.836  -1.782
    1LIG    HC5   46  -1.503   0.677  -1.755
    1LIG    HC6   47  -1.381   0.674  -1.457
    1LIG    HC7   48  -0.963   0.609  -1.525
    1LIG    HC8   49  -1.221   0.707  -1.853
    1LIG    HC9   50  -1.654   1.184  -1.848
    1LIG   HC10   51  -1.689   1.193  -1.674
    1LIG   HC11   52  -1.521   1.206  -1.732
    1LIG   HC12   53  -1.728   0.278  -1.792
    1LIG   HC13   54  -1.701   0.178  -1.650
    1LIG   HC14   55  -1.935   0.178  -1.702
    1LIG   HC15   56  -1.939   0.355  -1.708
    1LIG   HC16   57  -2.039   0.286  -1.502
    1LIG   HC17   58  -1.903   0.178  -1.465
    1LIG   HC18   59  -1.681   0.491  -1.426
    1LIG   HC19   60  -1.664   0.316  -1.412
    1LIG   HC20   61  -1.500   0.326  -1.401
    1LIG   HC21   62  -1.127   0.282  -1.608
    1LIG   HC22   63  -1.240   0.337  -1.820
    1LIG   HC23   64  -1.481   0.384  -1.826
    1LIG   HC24   65  -1.233   0.046  -1.391
    1LIG   HC25   66  -1.201   0.093  -1.222
    1LIG   HC26   67  -1.366   0.105  -1.289
    1LIG   HC27   68  -1.027   0.259  -1.285
    1LIG   HC28   69  -1.046   0.196  -1.450
    1LIG   HC29   70  -1.056   0.371  -1.420
    1LIG   HC30   71  -1.252   0.456  -1.267
    1LIG   HC31   72  -1.377   0.340  -1.217
    1LIG   HC32   73  -1.212   0.327  -1.151
   0.00000   0.00000   0.00000
