; Created by cgenff_charmm2gmx.py

[ moleculetype ]
; Name			   nrexcl
LIG				 3

[ atoms ]
;	 nr		  type	resnr residue  atom   cgnr	   charge		mass  typeB    chargeB		massB
; residue	 1 LIG rtp LIG q	qsum
     1      OG2D1      1    LIG      O      1     -0.296     15.999   ;
     2     CG2R53      1    LIG     C1      2     -0.364     12.011   ;
     3     NG2R53      1    LIG     N1      3     -0.209     14.007   ;
     4      CG331      1    LIG     C2      4     -0.169     12.011   ;
     5     CG3C53      1    LIG     C3      5      0.784     12.011   ;
     6      NG3P2      1    LIG     N2      6     -0.579     14.007   ;
     7       HGP2      1    LIG    HN3      7      0.364      1.008   ;
     8     CG3C50      1    LIG     C4      8      2.034     12.011   ;
     9     CG2R57      1    LIG     C5      9     -1.106     12.011   ;
    10     CG3C52      1    LIG     C6     10      0.114     12.011   ;
    11     NG3C51      1    LIG     N3     11     -0.497     14.007   ;
    12     NG3C51      1    LIG     N4     12     -0.344     14.007   ;
    13     CG2R51      1    LIG     C7     13      0.031     12.011   ;
    14       HGP1      1    LIG    HN4     14      0.305      1.008   ;
    15      CG321      1    LIG     C8     15      0.137     12.011   ;
    16      CG311      1    LIG     C9     16     -0.086     12.011   ;
    17      CG331      1    LIG    C10     17     -0.285     12.011   ;
    18      CG331      1    LIG    C11     18     -0.285     12.011   ;
    19     CG2R61      1    LIG    C12     19     -0.027     12.011   ;
    20     CG2R61      1    LIG    C13     20     -0.136     12.011   ;
    21     CG2R61      1    LIG    C14     21      0.025     12.011   ;
    22     CG2R61      1    LIG    C15     22     -0.120     12.011   ;
    23     CG2R61      1    LIG    C16     23     -0.102     12.011   ;
    24     CG2R61      1    LIG    C17     24     -0.132     12.011   ;
    25     CG2DC1      1    LIG    C18     25     -0.086     12.011   ;
    26      CG321      1    LIG    C19     26      0.013     12.011   ;
    27      NG311      1    LIG     N5     27     -0.656     14.007   ;
    28      CG321      1    LIG    C20     28      0.131     12.011   ;
    29     HGPAM1      1    LIG    HN5     29      0.367      1.008   ;
    30      NG311      1    LIG     N6     30     -0.598     14.007   ;
    31     CG2D1O      1    LIG    C21     31     -0.097     12.011   ;
    32     HGPAM1      1    LIG    HN6     32      0.406      1.008   ;
    33      NG3P3      1    LIG     N7     33     -0.267     14.007   ;
    34       HGP2      1    LIG     H1     34      0.301      1.008   ;
    35       HGP2      1    LIG     H2     35      0.301      1.008   ;
    36       HGA3      1    LIG    HC1     36      0.090      1.008   ;
    37       HGA3      1    LIG    HC2     37      0.090      1.008   ;
    38       HGA3      1    LIG    HC3     38      0.090      1.008   ;
    39       HGA1      1    LIG     HC     39      0.073      1.008   ;
    40       HGP2      1    LIG    HN2     40      0.364      1.008   ;
    41       HGA2      1    LIG    HC4     41      0.090      1.008   ;
    42      HGR52      1    LIG    HC5     42      0.158      1.008   ;
    43       HGA2      1    LIG    HC6     43      0.090      1.008   ;
    44       HGA2      1    LIG    HC7     44      0.090      1.008   ;
    45       HGA1      1    LIG    HC8     45      0.090      1.008   ;
    46       HGA3      1    LIG    HC9     46      0.090      1.008   ;
    47       HGA3      1    LIG   HC10     47      0.090      1.008   ;
    48       HGA3      1    LIG   HC11     48      0.090      1.008   ;
    49       HGA3      1    LIG   HC12     49      0.090      1.008   ;
    50       HGA3      1    LIG   HC13     50      0.090      1.008   ;
    51       HGA3      1    LIG   HC14     51      0.090      1.008   ;
    52      HGR61      1    LIG   HC15     52      0.116      1.008   ;
    53      HGR61      1    LIG   HC16     53      0.116      1.008   ;
    54      HGR61      1    LIG   HC17     54      0.116      1.008   ;
    55      HGR61      1    LIG   HC18     55      0.116      1.008   ;
    56       HGA2      1    LIG   HC19     56      0.090      1.008   ;
    57       HGA2      1    LIG   HC20     57      0.090      1.008   ;
    58       HGA4      1    LIG   HC21     58      0.148      1.008   ;
    59       HGP2      1    LIG    HN1     59      0.301      1.008   ;
    60       HGA2      1    LIG    H31     60      0.090      1.008   ;
    61       HGA2      1    LIG    H32     61      0.090      1.008   ;
    62       HGA2      1    LIG    H33     62      0.090      1.008   ;

[ bonds ]
;	ai	  aj funct			  c0			c1			  c2			c3
    1     2	 1 ;       OG2D1     CG2R53
    2     3	 1 ;      CG2R53     NG2R53
    2     8	 1 ;      CG2R53     CG3C50
    3     4	 1 ;      NG2R53      CG331
    3     5	 1 ;      NG2R53     CG3C53
    4    36	 1 ;       CG331       HGA3
    4    37	 1 ;       CG331       HGA3
    4    38	 1 ;       CG331       HGA3
    5    33	 1 ;      CG3C53      NG3P3
    5     6	 1 ;      CG3C53      NG3P2
    5    39	 1 ;      CG3C53       HGA1
    6     7	 1 ;       NG3P2       HGP2
    6     8	 1 ;       NG3P2     CG3C50
    6    40	 1 ;       NG3P2       HGP2
    8     9	 1 ;      CG3C50     CG2R57
    8    19	 1 ;      CG3C50     CG2R61
    9    10	 1 ;      CG2R57     CG3C52
    9    13	 1 ;      CG2R57     CG2R51
   10    11	 1 ;      CG3C52     NG3C51
   10    41	 1 ;      CG3C52       HGA2
   10    60	 1 ;      CG3C52       HGA2
   11    12	 1 ;      NG3C51     NG3C51
   11    15	 1 ;      NG3C51      CG321
   12    13	 1 ;      NG3C51     CG2R51
   12    14	 1 ;      NG3C51       HGP1
   13    42	 1 ;      CG2R51      HGR52
   15    16	 1 ;       CG321      CG311
   15    43	 1 ;       CG321       HGA2
   15    44	 1 ;       CG321       HGA2
   16    17	 1 ;       CG311      CG331
   16    18	 1 ;       CG311      CG331
   16    45	 1 ;       CG311       HGA1
   17    46	 1 ;       CG331       HGA3
   17    47	 1 ;       CG331       HGA3
   17    48	 1 ;       CG331       HGA3
   18    49	 1 ;       CG331       HGA3
   18    50	 1 ;       CG331       HGA3
   18    51	 1 ;       CG331       HGA3
   19    20	 1 ;      CG2R61     CG2R61
   19    24	 1 ;      CG2R61     CG2R61
   20    21	 1 ;      CG2R61     CG2R61
   20    52	 1 ;      CG2R61      HGR61
   21    25	 1 ;      CG2R61     CG2DC1
   21    22	 1 ;      CG2R61     CG2R61
   22    23	 1 ;      CG2R61     CG2R61
   22    53	 1 ;      CG2R61      HGR61
   23    24	 1 ;      CG2R61     CG2R61
   23    54	 1 ;      CG2R61      HGR61
   24    55	 1 ;      CG2R61      HGR61
   25    26	 1 ;      CG2DC1      CG321
   25    31	 1 ;      CG2DC1     CG2D1O
   26    27	 1 ;       CG321      NG311
   26    56	 1 ;       CG321       HGA2
   26    61	 1 ;       CG321       HGA2
   27    29	 1 ;       NG311     HGPAM1
   27    28	 1 ;       NG311      CG321
   28    30	 1 ;       CG321      NG311
   28    57	 1 ;       CG321       HGA2
   28    62	 1 ;       CG321       HGA2
   30    31	 1 ;       NG311     CG2D1O
   30    32	 1 ;       NG311     HGPAM1
   31    58	 1 ;      CG2D1O       HGA4
   33    34	 1 ;       NG3P3       HGP2
   33    35	 1 ;       NG3P3       HGP2
   33    59	 1 ;       NG3P3       HGP2

[ pairs ]
;	ai	  aj funct			  c0			c1			  c2			c3
    1     4	 1
    1     5	 1
    1     6	 1
    1     9	 1
    1    19	 1
    2    36	 1
    2    37	 1
    2    38	 1
    2    33	 1
    2    39	 1
    2     7	 1
    2    40	 1
    2    10	 1
    2    13	 1
    2    20	 1
    2    24	 1
    3     9	 1
    3    19	 1
    3    34	 1
    3    35	 1
    3    59	 1
    3     7	 1
    3    40	 1
    4     8	 1
    4    33	 1
    4     6	 1
    4    39	 1
    5    36	 1
    5    37	 1
    5    38	 1
    5     9	 1
    5    19	 1
    6    34	 1
    6    35	 1
    6    59	 1
    6    10	 1
    6    13	 1
    6    20	 1
    6    24	 1
    7    33	 1
    7    39	 1
    7     9	 1
    7    19	 1
    8    33	 1
    8    39	 1
    8    11	 1
    8    41	 1
    8    60	 1
    8    12	 1
    8    42	 1
    8    21	 1
    8    52	 1
    8    23	 1
    8    55	 1
    9    40	 1
    9    20	 1
    9    24	 1
    9    15	 1
    9    14	 1
   10    19	 1
   10    42	 1
   10    14	 1
   10    16	 1
   10    43	 1
   10    44	 1
   11    42	 1
   11    17	 1
   11    18	 1
   11    45	 1
   12    41	 1
   12    60	 1
   12    16	 1
   12    43	 1
   12    44	 1
   13    19	 1
   13    41	 1
   13    60	 1
   13    15	 1
   14    15	 1
   14    42	 1
   15    41	 1
   15    60	 1
   15    46	 1
   15    47	 1
   15    48	 1
   15    49	 1
   15    50	 1
   15    51	 1
   17    43	 1
   17    44	 1
   17    49	 1
   17    50	 1
   17    51	 1
   18    43	 1
   18    44	 1
   18    46	 1
   18    47	 1
   18    48	 1
   19    40	 1
   19    25	 1
   19    22	 1
   19    54	 1
   20    23	 1
   20    55	 1
   20    26	 1
   20    31	 1
   20    53	 1
   21    24	 1
   21    54	 1
   21    27	 1
   21    56	 1
   21    61	 1
   21    30	 1
   21    58	 1
   22    52	 1
   22    26	 1
   22    31	 1
   22    55	 1
   23    25	 1
   24    52	 1
   24    53	 1
   25    52	 1
   25    53	 1
   25    29	 1
   25    28	 1
   25    32	 1
   26    30	 1
   26    58	 1
   26    57	 1
   26    62	 1
   27    31	 1
   27    32	 1
   28    56	 1
   28    61	 1
   28    58	 1
   29    56	 1
   29    61	 1
   29    30	 1
   29    57	 1
   29    62	 1
   31    56	 1
   31    61	 1
   31    57	 1
   31    62	 1
   32    57	 1
   32    62	 1
   32    58	 1
   33    40	 1
   34    39	 1
   35    39	 1
   39    59	 1
   39    40	 1
   43    45	 1
   44    45	 1
   45    46	 1
   45    47	 1
   45    48	 1
   45    49	 1
   45    50	 1
   45    51	 1
   53    54	 1
   54    55	 1

[ angles ]
;	ai	  aj	ak funct			c0			  c1			c2			  c3
    3     2     1	5 ;     NG2R53     CG2R53      OG2D1
    3     2     8	5 ;     NG2R53     CG2R53     CG3C50
    1     2     8	5 ;      OG2D1     CG2R53     CG3C50
    4     3     5	5 ;      CG331     NG2R53     CG3C53
    4     3     2	5 ;      CG331     NG2R53     CG2R53
    5     3     2	5 ;     CG3C53     NG2R53     CG2R53
    3     4    36	5 ;     NG2R53      CG331       HGA3
    3     4    37	5 ;     NG2R53      CG331       HGA3
    3     4    38	5 ;     NG2R53      CG331       HGA3
   36     4    37	5 ;       HGA3      CG331       HGA3
   36     4    38	5 ;       HGA3      CG331       HGA3
   37     4    38	5 ;       HGA3      CG331       HGA3
   33     5     3	5 ;      NG3P3     CG3C53     NG2R53
   33     5     6	5 ;      NG3P3     CG3C53      NG3P2
   33     5    39	5 ;      NG3P3     CG3C53       HGA1
    3     5     6	5 ;     NG2R53     CG3C53      NG3P2
    3     5    39	5 ;     NG2R53     CG3C53       HGA1
    6     5    39	5 ;      NG3P2     CG3C53       HGA1
    5     6     7	5 ;     CG3C53      NG3P2       HGP2
    5     6     8	5 ;     CG3C53      NG3P2     CG3C50
    5     6    40	5 ;     CG3C53      NG3P2       HGP2
    7     6     8	5 ;       HGP2      NG3P2     CG3C50
    7     6    40	5 ;       HGP2      NG3P2       HGP2
    8     6    40	5 ;     CG3C50      NG3P2       HGP2
    2     8     6	5 ;     CG2R53     CG3C50      NG3P2
    2     8     9	5 ;     CG2R53     CG3C50     CG2R57
    2     8    19	5 ;     CG2R53     CG3C50     CG2R61
    6     8     9	5 ;      NG3P2     CG3C50     CG2R57
    6     8    19	5 ;      NG3P2     CG3C50     CG2R61
    9     8    19	5 ;     CG2R57     CG3C50     CG2R61
    8     9    10	5 ;     CG3C50     CG2R57     CG3C52
    8     9    13	5 ;     CG3C50     CG2R57     CG2R51
   10     9    13	5 ;     CG3C52     CG2R57     CG2R51
    9    10    11	5 ;     CG2R57     CG3C52     NG3C51
    9    10    41	5 ;     CG2R57     CG3C52       HGA2
    9    10    60	5 ;     CG2R57     CG3C52       HGA2
   11    10    41	5 ;     NG3C51     CG3C52       HGA2
   11    10    60	5 ;     NG3C51     CG3C52       HGA2
   41    10    60	5 ;       HGA2     CG3C52       HGA2
   10    11    12	5 ;     CG3C52     NG3C51     NG3C51
   10    11    15	5 ;     CG3C52     NG3C51      CG321
   12    11    15	5 ;     NG3C51     NG3C51      CG321
   13    12    11	5 ;     CG2R51     NG3C51     NG3C51
   13    12    14	5 ;     CG2R51     NG3C51       HGP1
   11    12    14	5 ;     NG3C51     NG3C51       HGP1
    9    13    12	5 ;     CG2R57     CG2R51     NG3C51
    9    13    42	5 ;     CG2R57     CG2R51      HGR52
   12    13    42	5 ;     NG3C51     CG2R51      HGR52
   16    15    11	5 ;      CG311      CG321     NG3C51
   16    15    43	5 ;      CG311      CG321       HGA2
   16    15    44	5 ;      CG311      CG321       HGA2
   11    15    43	5 ;     NG3C51      CG321       HGA2
   11    15    44	5 ;     NG3C51      CG321       HGA2
   43    15    44	5 ;       HGA2      CG321       HGA2
   17    16    18	5 ;      CG331      CG311      CG331
   17    16    15	5 ;      CG331      CG311      CG321
   17    16    45	5 ;      CG331      CG311       HGA1
   18    16    15	5 ;      CG331      CG311      CG321
   18    16    45	5 ;      CG331      CG311       HGA1
   15    16    45	5 ;      CG321      CG311       HGA1
   16    17    46	5 ;      CG311      CG331       HGA3
   16    17    47	5 ;      CG311      CG331       HGA3
   16    17    48	5 ;      CG311      CG331       HGA3
   46    17    47	5 ;       HGA3      CG331       HGA3
   46    17    48	5 ;       HGA3      CG331       HGA3
   47    17    48	5 ;       HGA3      CG331       HGA3
   16    18    49	5 ;      CG311      CG331       HGA3
   16    18    50	5 ;      CG311      CG331       HGA3
   16    18    51	5 ;      CG311      CG331       HGA3
   49    18    50	5 ;       HGA3      CG331       HGA3
   49    18    51	5 ;       HGA3      CG331       HGA3
   50    18    51	5 ;       HGA3      CG331       HGA3
    8    19    20	5 ;     CG3C50     CG2R61     CG2R61
    8    19    24	5 ;     CG3C50     CG2R61     CG2R61
   20    19    24	5 ;     CG2R61     CG2R61     CG2R61
   19    20    21	5 ;     CG2R61     CG2R61     CG2R61
   19    20    52	5 ;     CG2R61     CG2R61      HGR61
   21    20    52	5 ;     CG2R61     CG2R61      HGR61
   20    21    25	5 ;     CG2R61     CG2R61     CG2DC1
   20    21    22	5 ;     CG2R61     CG2R61     CG2R61
   25    21    22	5 ;     CG2DC1     CG2R61     CG2R61
   21    22    23	5 ;     CG2R61     CG2R61     CG2R61
   21    22    53	5 ;     CG2R61     CG2R61      HGR61
   23    22    53	5 ;     CG2R61     CG2R61      HGR61
   24    23    22	5 ;     CG2R61     CG2R61     CG2R61
   24    23    54	5 ;     CG2R61     CG2R61      HGR61
   22    23    54	5 ;     CG2R61     CG2R61      HGR61
   19    24    23	5 ;     CG2R61     CG2R61     CG2R61
   19    24    55	5 ;     CG2R61     CG2R61      HGR61
   23    24    55	5 ;     CG2R61     CG2R61      HGR61
   26    25    21	5 ;      CG321     CG2DC1     CG2R61
   26    25    31	5 ;      CG321     CG2DC1     CG2D1O
   21    25    31	5 ;     CG2R61     CG2DC1     CG2D1O
   27    26    25	5 ;      NG311      CG321     CG2DC1
   27    26    56	5 ;      NG311      CG321       HGA2
   27    26    61	5 ;      NG311      CG321       HGA2
   25    26    56	5 ;     CG2DC1      CG321       HGA2
   25    26    61	5 ;     CG2DC1      CG321       HGA2
   56    26    61	5 ;       HGA2      CG321       HGA2
   29    27    26	5 ;     HGPAM1      NG311      CG321
   29    27    28	5 ;     HGPAM1      NG311      CG321
   26    27    28	5 ;      CG321      NG311      CG321
   27    28    30	5 ;      NG311      CG321      NG311
   27    28    57	5 ;      NG311      CG321       HGA2
   27    28    62	5 ;      NG311      CG321       HGA2
   30    28    57	5 ;      NG311      CG321       HGA2
   30    28    62	5 ;      NG311      CG321       HGA2
   57    28    62	5 ;       HGA2      CG321       HGA2
   28    30    31	5 ;      CG321      NG311     CG2D1O
   28    30    32	5 ;      CG321      NG311     HGPAM1
   31    30    32	5 ;     CG2D1O      NG311     HGPAM1
   25    31    30	5 ;     CG2DC1     CG2D1O      NG311
   25    31    58	5 ;     CG2DC1     CG2D1O       HGA4
   30    31    58	5 ;      NG311     CG2D1O       HGA4
   34    33    35	5 ;       HGP2      NG3P3       HGP2
   34    33     5	5 ;       HGP2      NG3P3     CG3C53
   34    33    59	5 ;       HGP2      NG3P3       HGP2
   35    33     5	5 ;       HGP2      NG3P3     CG3C53
   35    33    59	5 ;       HGP2      NG3P3       HGP2
    5    33    59	5 ;     CG3C53      NG3P3       HGP2

[ dihedrals ]
;	ai	  aj	ak	  al funct			  c0			c1			  c2			c3			  c4			c5
    1     2     3     4	 9 ;      OG2D1     CG2R53     NG2R53      CG331
    1     2     3     5	 9 ;      OG2D1     CG2R53     NG2R53     CG3C53
    8     2     3     4	 9 ;     CG3C50     CG2R53     NG2R53      CG331
    8     2     3     5	 9 ;     CG3C50     CG2R53     NG2R53     CG3C53
    3     2     8     6	 9 ;     NG2R53     CG2R53     CG3C50      NG3P2
    3     2     8     9	 9 ;     NG2R53     CG2R53     CG3C50     CG2R57
    3     2     8    19	 9 ;     NG2R53     CG2R53     CG3C50     CG2R61
    1     2     8     6	 9 ;      OG2D1     CG2R53     CG3C50      NG3P2
    1     2     8     9	 9 ;      OG2D1     CG2R53     CG3C50     CG2R57
    1     2     8    19	 9 ;      OG2D1     CG2R53     CG3C50     CG2R61
    5     3     4    36	 9 ;     CG3C53     NG2R53      CG331       HGA3
    5     3     4    37	 9 ;     CG3C53     NG2R53      CG331       HGA3
    5     3     4    38	 9 ;     CG3C53     NG2R53      CG331       HGA3
    2     3     4    36	 9 ;     CG2R53     NG2R53      CG331       HGA3
    2     3     4    37	 9 ;     CG2R53     NG2R53      CG331       HGA3
    2     3     4    38	 9 ;     CG2R53     NG2R53      CG331       HGA3
    4     3     5    33	 9 ;      CG331     NG2R53     CG3C53      NG3P3
    4     3     5     6	 9 ;      CG331     NG2R53     CG3C53      NG3P2
    4     3     5    39	 9 ;      CG331     NG2R53     CG3C53       HGA1
    2     3     5    33	 9 ;     CG2R53     NG2R53     CG3C53      NG3P3
    2     3     5     6	 9 ;     CG2R53     NG2R53     CG3C53      NG3P2
    2     3     5    39	 9 ;     CG2R53     NG2R53     CG3C53       HGA1
    3     5    33    34	 9 ;     NG2R53     CG3C53      NG3P3       HGP2
    3     5    33    35	 9 ;     NG2R53     CG3C53      NG3P3       HGP2
    3     5    33    59	 9 ;     NG2R53     CG3C53      NG3P3       HGP2
    6     5    33    34	 9 ;      NG3P2     CG3C53      NG3P3       HGP2
    6     5    33    35	 9 ;      NG3P2     CG3C53      NG3P3       HGP2
    6     5    33    59	 9 ;      NG3P2     CG3C53      NG3P3       HGP2
   39     5    33    34	 9 ;       HGA1     CG3C53      NG3P3       HGP2
   39     5    33    35	 9 ;       HGA1     CG3C53      NG3P3       HGP2
   39     5    33    59	 9 ;       HGA1     CG3C53      NG3P3       HGP2
   33     5     6     7	 9 ;      NG3P3     CG3C53      NG3P2       HGP2
   33     5     6     8	 9 ;      NG3P3     CG3C53      NG3P2     CG3C50
   33     5     6    40	 9 ;      NG3P3     CG3C53      NG3P2       HGP2
    3     5     6     7	 9 ;     NG2R53     CG3C53      NG3P2       HGP2
    3     5     6     8	 9 ;     NG2R53     CG3C53      NG3P2     CG3C50
    3     5     6    40	 9 ;     NG2R53     CG3C53      NG3P2       HGP2
   39     5     6     7	 9 ;       HGA1     CG3C53      NG3P2       HGP2
   39     5     6     8	 9 ;       HGA1     CG3C53      NG3P2     CG3C50
   39     5     6    40	 9 ;       HGA1     CG3C53      NG3P2       HGP2
    5     6     8     2	 9 ;     CG3C53      NG3P2     CG3C50     CG2R53
    5     6     8     9	 9 ;     CG3C53      NG3P2     CG3C50     CG2R57
    5     6     8    19	 9 ;     CG3C53      NG3P2     CG3C50     CG2R61
    7     6     8     2	 9 ;       HGP2      NG3P2     CG3C50     CG2R53
    7     6     8     9	 9 ;       HGP2      NG3P2     CG3C50     CG2R57
    7     6     8    19	 9 ;       HGP2      NG3P2     CG3C50     CG2R61
   40     6     8     2	 9 ;       HGP2      NG3P2     CG3C50     CG2R53
   40     6     8     9	 9 ;       HGP2      NG3P2     CG3C50     CG2R57
   40     6     8    19	 9 ;       HGP2      NG3P2     CG3C50     CG2R61
    2     8     9    10	 9 ;     CG2R53     CG3C50     CG2R57     CG3C52
    2     8     9    13	 9 ;     CG2R53     CG3C50     CG2R57     CG2R51
    6     8     9    10	 9 ;      NG3P2     CG3C50     CG2R57     CG3C52
    6     8     9    13	 9 ;      NG3P2     CG3C50     CG2R57     CG2R51
   19     8     9    10	 9 ;     CG2R61     CG3C50     CG2R57     CG3C52
   19     8     9    13	 9 ;     CG2R61     CG3C50     CG2R57     CG2R51
    2     8    19    20	 9 ;     CG2R53     CG3C50     CG2R61     CG2R61
    2     8    19    24	 9 ;     CG2R53     CG3C50     CG2R61     CG2R61
    6     8    19    20	 9 ;      NG3P2     CG3C50     CG2R61     CG2R61
    6     8    19    24	 9 ;      NG3P2     CG3C50     CG2R61     CG2R61
    9     8    19    20	 9 ;     CG2R57     CG3C50     CG2R61     CG2R61
    9     8    19    24	 9 ;     CG2R57     CG3C50     CG2R61     CG2R61
    8     9    10    11	 9 ;     CG3C50     CG2R57     CG3C52     NG3C51
    8     9    10    41	 9 ;     CG3C50     CG2R57     CG3C52       HGA2
    8     9    10    60	 9 ;     CG3C50     CG2R57     CG3C52       HGA2
   13     9    10    11	 9 ;     CG2R51     CG2R57     CG3C52     NG3C51
   13     9    10    41	 9 ;     CG2R51     CG2R57     CG3C52       HGA2
   13     9    10    60	 9 ;     CG2R51     CG2R57     CG3C52       HGA2
    8     9    13    12	 9 ;     CG3C50     CG2R57     CG2R51     NG3C51
    8     9    13    42	 9 ;     CG3C50     CG2R57     CG2R51      HGR52
   10     9    13    12	 9 ;     CG3C52     CG2R57     CG2R51     NG3C51
   10     9    13    42	 9 ;     CG3C52     CG2R57     CG2R51      HGR52
    9    10    11    12	 9 ;     CG2R57     CG3C52     NG3C51     NG3C51
    9    10    11    15	 9 ;     CG2R57     CG3C52     NG3C51      CG321
   41    10    11    12	 9 ;       HGA2     CG3C52     NG3C51     NG3C51
   41    10    11    15	 9 ;       HGA2     CG3C52     NG3C51      CG321
   60    10    11    12	 9 ;       HGA2     CG3C52     NG3C51     NG3C51
   60    10    11    15	 9 ;       HGA2     CG3C52     NG3C51      CG321
   10    11    12    13	 9 ;     CG3C52     NG3C51     NG3C51     CG2R51
   10    11    12    14	 9 ;     CG3C52     NG3C51     NG3C51       HGP1
   15    11    12    13	 9 ;      CG321     NG3C51     NG3C51     CG2R51
   15    11    12    14	 9 ;      CG321     NG3C51     NG3C51       HGP1
   10    11    15    16	 9 ;     CG3C52     NG3C51      CG321      CG311
   10    11    15    43	 9 ;     CG3C52     NG3C51      CG321       HGA2
   10    11    15    44	 9 ;     CG3C52     NG3C51      CG321       HGA2
   12    11    15    16	 9 ;     NG3C51     NG3C51      CG321      CG311
   12    11    15    43	 9 ;     NG3C51     NG3C51      CG321       HGA2
   12    11    15    44	 9 ;     NG3C51     NG3C51      CG321       HGA2
   11    12    13     9	 9 ;     NG3C51     NG3C51     CG2R51     CG2R57
   11    12    13    42	 9 ;     NG3C51     NG3C51     CG2R51      HGR52
   14    12    13     9	 9 ;       HGP1     NG3C51     CG2R51     CG2R57
   14    12    13    42	 9 ;       HGP1     NG3C51     CG2R51      HGR52
   11    15    16    17	 9 ;     NG3C51      CG321      CG311      CG331
   11    15    16    18	 9 ;     NG3C51      CG321      CG311      CG331
   11    15    16    45	 9 ;     NG3C51      CG321      CG311       HGA1
   43    15    16    17	 9 ;       HGA2      CG321      CG311      CG331
   43    15    16    18	 9 ;       HGA2      CG321      CG311      CG331
   43    15    16    45	 9 ;       HGA2      CG321      CG311       HGA1
   44    15    16    17	 9 ;       HGA2      CG321      CG311      CG331
   44    15    16    18	 9 ;       HGA2      CG321      CG311      CG331
   44    15    16    45	 9 ;       HGA2      CG321      CG311       HGA1
   18    16    17    46	 9 ;      CG331      CG311      CG331       HGA3
   18    16    17    47	 9 ;      CG331      CG311      CG331       HGA3
   18    16    17    48	 9 ;      CG331      CG311      CG331       HGA3
   15    16    17    46	 9 ;      CG321      CG311      CG331       HGA3
   15    16    17    47	 9 ;      CG321      CG311      CG331       HGA3
   15    16    17    48	 9 ;      CG321      CG311      CG331       HGA3
   45    16    17    46	 9 ;       HGA1      CG311      CG331       HGA3
   45    16    17    47	 9 ;       HGA1      CG311      CG331       HGA3
   45    16    17    48	 9 ;       HGA1      CG311      CG331       HGA3
   17    16    18    49	 9 ;      CG331      CG311      CG331       HGA3
   17    16    18    50	 9 ;      CG331      CG311      CG331       HGA3
   17    16    18    51	 9 ;      CG331      CG311      CG331       HGA3
   15    16    18    49	 9 ;      CG321      CG311      CG331       HGA3
   15    16    18    50	 9 ;      CG321      CG311      CG331       HGA3
   15    16    18    51	 9 ;      CG321      CG311      CG331       HGA3
   45    16    18    49	 9 ;       HGA1      CG311      CG331       HGA3
   45    16    18    50	 9 ;       HGA1      CG311      CG331       HGA3
   45    16    18    51	 9 ;       HGA1      CG311      CG331       HGA3
    8    19    20    21	 9 ;     CG3C50     CG2R61     CG2R61     CG2R61
    8    19    20    52	 9 ;     CG3C50     CG2R61     CG2R61      HGR61
   24    19    20    21	 9 ;     CG2R61     CG2R61     CG2R61     CG2R61
   24    19    20    52	 9 ;     CG2R61     CG2R61     CG2R61      HGR61
    8    19    24    23	 9 ;     CG3C50     CG2R61     CG2R61     CG2R61
    8    19    24    55	 9 ;     CG3C50     CG2R61     CG2R61      HGR61
   20    19    24    23	 9 ;     CG2R61     CG2R61     CG2R61     CG2R61
   20    19    24    55	 9 ;     CG2R61     CG2R61     CG2R61      HGR61
   19    20    21    25	 9 ;     CG2R61     CG2R61     CG2R61     CG2DC1
   19    20    21    22	 9 ;     CG2R61     CG2R61     CG2R61     CG2R61
   52    20    21    25	 9 ;      HGR61     CG2R61     CG2R61     CG2DC1
   52    20    21    22	 9 ;      HGR61     CG2R61     CG2R61     CG2R61
   20    21    25    26	 9 ;     CG2R61     CG2R61     CG2DC1      CG321
   20    21    25    31	 9 ;     CG2R61     CG2R61     CG2DC1     CG2D1O
   22    21    25    26	 9 ;     CG2R61     CG2R61     CG2DC1      CG321
   22    21    25    31	 9 ;     CG2R61     CG2R61     CG2DC1     CG2D1O
   20    21    22    23	 9 ;     CG2R61     CG2R61     CG2R61     CG2R61
   20    21    22    53	 9 ;     CG2R61     CG2R61     CG2R61      HGR61
   25    21    22    23	 9 ;     CG2DC1     CG2R61     CG2R61     CG2R61
   25    21    22    53	 9 ;     CG2DC1     CG2R61     CG2R61      HGR61
   21    22    23    24	 9 ;     CG2R61     CG2R61     CG2R61     CG2R61
   21    22    23    54	 9 ;     CG2R61     CG2R61     CG2R61      HGR61
   53    22    23    24	 9 ;      HGR61     CG2R61     CG2R61     CG2R61
   53    22    23    54	 9 ;      HGR61     CG2R61     CG2R61      HGR61
   22    23    24    19	 9 ;     CG2R61     CG2R61     CG2R61     CG2R61
   22    23    24    55	 9 ;     CG2R61     CG2R61     CG2R61      HGR61
   54    23    24    19	 9 ;      HGR61     CG2R61     CG2R61     CG2R61
   54    23    24    55	 9 ;      HGR61     CG2R61     CG2R61      HGR61
   21    25    26    27	 9 ;     CG2R61     CG2DC1      CG321      NG311
   21    25    26    56	 9 ;     CG2R61     CG2DC1      CG321       HGA2
   21    25    26    61	 9 ;     CG2R61     CG2DC1      CG321       HGA2
   31    25    26    27	 9 ;     CG2D1O     CG2DC1      CG321      NG311
   31    25    26    56	 9 ;     CG2D1O     CG2DC1      CG321       HGA2
   31    25    26    61	 9 ;     CG2D1O     CG2DC1      CG321       HGA2
   26    25    31    30	 9 ;      CG321     CG2DC1     CG2D1O      NG311
   26    25    31    58	 9 ;      CG321     CG2DC1     CG2D1O       HGA4
   21    25    31    30	 9 ;     CG2R61     CG2DC1     CG2D1O      NG311
   21    25    31    58	 9 ;     CG2R61     CG2DC1     CG2D1O       HGA4
   25    26    27    29	 9 ;     CG2DC1      CG321      NG311     HGPAM1
   25    26    27    28	 9 ;     CG2DC1      CG321      NG311      CG321
   56    26    27    29	 9 ;       HGA2      CG321      NG311     HGPAM1
   56    26    27    28	 9 ;       HGA2      CG321      NG311      CG321
   61    26    27    29	 9 ;       HGA2      CG321      NG311     HGPAM1
   61    26    27    28	 9 ;       HGA2      CG321      NG311      CG321
   29    27    28    30	 9 ;     HGPAM1      NG311      CG321      NG311
   29    27    28    57	 9 ;     HGPAM1      NG311      CG321       HGA2
   29    27    28    62	 9 ;     HGPAM1      NG311      CG321       HGA2
   26    27    28    30	 9 ;      CG321      NG311      CG321      NG311
   26    27    28    57	 9 ;      CG321      NG311      CG321       HGA2
   26    27    28    62	 9 ;      CG321      NG311      CG321       HGA2
   27    28    30    31	 9 ;      NG311      CG321      NG311     CG2D1O
   27    28    30    32	 9 ;      NG311      CG321      NG311     HGPAM1
   57    28    30    31	 9 ;       HGA2      CG321      NG311     CG2D1O
   57    28    30    32	 9 ;       HGA2      CG321      NG311     HGPAM1
   62    28    30    31	 9 ;       HGA2      CG321      NG311     CG2D1O
   62    28    30    32	 9 ;       HGA2      CG321      NG311     HGPAM1
   28    30    31    25	 9 ;      CG321      NG311     CG2D1O     CG2DC1
   28    30    31    58	 9 ;      CG321      NG311     CG2D1O       HGA4
   32    30    31    25	 9 ;     HGPAM1      NG311     CG2D1O     CG2DC1
   32    30    31    58	 9 ;     HGPAM1      NG311     CG2D1O       HGA4

[ dihedrals ]
;	ai	  aj	ak	  al funct			  c0			c1			  c2			c3
    2     8     3     1	 2
   31    25    30    58	 2

