Green Red Orange Magenta Azure Cyan Skyblue
   62
    1LIG      O    1  -1.108   0.567  -1.569
    1LIG     C1    2  -1.180   0.479  -1.526
    1LIG     N1    3  -1.142   0.351  -1.496
    1LIG     C2    4  -1.004   0.307  -1.496
    1LIG     C3    5  -1.250   0.282  -1.455
    1LIG     N2    6  -1.362   0.347  -1.449
    1LIG    HN3    7  -1.453   0.309  -1.425
    1LIG     C4    8  -1.328   0.489  -1.484
    1LIG     C5    9  -1.341   0.575  -1.360
    1LIG     C6   10  -1.403   0.544  -1.240
    1LIG     N3   11  -1.381   0.649  -1.156
    1LIG     N4   12  -1.309   0.748  -1.212
    1LIG     C7   13  -1.284   0.703  -1.336
    1LIG    HN4   14  -1.279   0.836  -1.171
    1LIG     C8   15  -1.418   0.657  -1.016
    1LIG     C9   16  -1.372   0.538  -0.932
    1LIG    C10   17  -1.220   0.530  -0.920
    1LIG    C11   18  -1.434   0.547  -0.792
    1LIG    C12   19  -1.425   0.549  -1.586
    1LIG    C13   20  -1.380   0.580  -1.716
    1LIG    C14   21  -1.466   0.626  -1.818
    1LIG    C15   22  -1.601   0.644  -1.784
    1LIG    C16   23  -1.648   0.617  -1.656
    1LIG    C17   24  -1.561   0.568  -1.558
    1LIG    C18   25  -1.417   0.651  -1.956
    1LIG    C19   26  -1.304   0.591  -2.008
    1LIG     N5   27  -1.257   0.609  -2.134
    1LIG    C20   28  -1.329   0.691  -2.211
    1LIG    HN5   29  -1.172   0.564  -2.167
    1LIG     N6   30  -1.440   0.756  -2.174
    1LIG    C21   31  -1.481   0.734  -2.047
    1LIG    HN6   32  -1.491   0.817  -2.238
    1LIG     N7   33  -1.242   0.151  -1.424
    1LIG     H1   34  -1.172   0.132  -1.353
    1LIG     H2   35  -1.330   0.102  -1.407
    1LIG    HC1   36  -0.941   0.386  -1.536
    1LIG    HC2   37  -0.974   0.283  -1.394
    1LIG    HC3   38  -0.995   0.218  -1.559
    1LIG     HC   39  -1.228   0.309  -1.352
    1LIG    HN2   40  -1.379   0.327  -1.546
    1LIG    HC4   41  -1.459   0.455  -1.218
    1LIG    HC5   42  -1.228   0.758  -1.409
    1LIG    HC6   43  -1.374   0.748  -0.975
    1LIG    HC7   44  -1.527   0.665  -1.010
    1LIG    HC8   45  -1.407   0.446  -0.980
    1LIG    HC9   46  -1.176   0.524  -1.020
    1LIG   HC10   47  -1.192   0.442  -0.862
    1LIG   HC11   48  -1.183   0.620  -0.870
    1LIG   HC12   49  -1.401   0.462  -0.732
    1LIG   HC13   50  -1.403   0.639  -0.744
    1LIG   HC14   51  -1.543   0.545  -0.801
    1LIG   HC15   52  -1.276   0.567  -1.739
    1LIG   HC16   53  -1.671   0.680  -1.859
    1LIG   HC17   54  -1.752   0.633  -1.632
    1LIG   HC18   55  -1.599   0.546  -1.459
    1LIG   HC19   56  -1.248   0.525  -1.943
    1LIG   HC20   57  -1.294   0.707  -2.312
    1LIG   HC21   58  -1.571   0.784  -2.014
    1LIG    HN1   59  -1.206   0.108  -1.507
    1LIG    H31   60  -1.312   0.496  -1.205
    1LIG    H32   61  -1.363   0.507  -2.043
    1LIG    H33   62  -1.269   0.776  -2.177
   0.00000   0.00000   0.00000
