Green Red Orange Magenta Azure Cyan Skyblue
   80
    1LIG     C1    1  -1.154   0.410  -1.566
    1LIG     C2    2  -1.152   0.301  -1.458
    1LIG     C3    3  -1.213   0.165  -1.485
    1LIG     C4    4  -1.350   0.146  -1.510
    1LIG     C5    5  -1.399   0.020  -1.549
    1LIG     C6    6  -1.313  -0.088  -1.564
    1LIG     C7    7  -1.177  -0.071  -1.540
    1LIG     C8    8  -1.128   0.054  -1.502
    1LIG     C9    9  -1.124   0.360  -1.710
    1LIG    C10   10  -1.241   0.314  -1.798
    1LIG     N1   11  -1.298   0.438  -1.862
    1LIG     H1   12  -1.317   0.512  -1.793
    1LIG     H2   13  -1.221   0.473  -1.922
    1LIG    C11   14  -1.417   0.422  -1.952
    1LIG    C12   15  -1.542   0.444  -1.871
    1LIG    C13   16  -1.562   0.371  -1.752
    1LIG    C14   17  -1.686   0.374  -1.687
    1LIG    C15   18  -1.790   0.448  -1.743
    1LIG    C16   19  -1.769   0.524  -1.859
    1LIG    C17   20  -1.645   0.523  -1.922
    1LIG    C18   21  -1.708   0.296  -1.559
    1LIG     F1   22  -1.621   0.331  -1.460
    1LIG     F2   23  -1.833   0.312  -1.508
    1LIG     F3   24  -1.691   0.162  -1.577
    1LIG     O1   25  -1.054   0.458  -1.789
    1LIG     H3   26  -0.964   0.422  -1.807
    1LIG     N2   27  -1.282   0.484  -1.561
    1LIG    C19   28  -1.294   0.617  -1.599
    1LIG     O2   29  -1.200   0.678  -1.649
    1LIG     H4   30  -1.360   0.439  -1.515
    1LIG    C20   31  -1.430   0.681  -1.587
    1LIG    C21   32  -1.477   0.766  -1.690
    1LIG    C22   33  -1.607   0.816  -1.687
    1LIG     N3   34  -1.652   0.931  -1.760
    1LIG    C23   35  -1.695   0.761  -1.591
    1LIG      S   36  -1.712   1.059  -1.663
    1LIG    C24   37  -1.617   0.956  -1.899
    1LIG     O3   38  -1.711   1.180  -1.743
    1LIG     O4   39  -1.648   1.056  -1.534
    1LIG    C25   40  -1.884   1.013  -1.643
    1LIG    C26   41  -1.911   0.865  -1.661
    1LIG     N4   42  -1.831   0.781  -1.574
    1LIG    C27   43  -1.876   0.711  -1.467
    1LIG    C28   44  -1.767   0.653  -1.404
    1LIG    C29   45  -1.652   0.683  -1.485
    1LIG    C30   46  -1.515   0.653  -1.477
    1LIG    C31   47  -1.773   0.570  -1.280
    1LIG    C32   48  -1.908   0.502  -1.260
    1LIG     HC   49  -1.075   0.481  -1.540
    1LIG    HC2   50  -1.047   0.283  -1.433
    1LIG    HC3   51  -1.201   0.341  -1.369
    1LIG    HC1   52  -1.418   0.229  -1.500
    1LIG    HC4   53  -1.505   0.007  -1.566
    1LIG    HC5   54  -1.351  -0.184  -1.594
    1LIG    HC6   55  -1.109  -0.154  -1.552
    1LIG    HC7   56  -1.022   0.066  -1.485
    1LIG    HC8   57  -1.057   0.274  -1.699
    1LIG    HC9   58  -1.317   0.265  -1.737
    1LIG   HC10   59  -1.205   0.245  -1.875
    1LIG   HC11   60  -1.412   0.495  -2.032
    1LIG   HC12   61  -1.417   0.321  -1.994
    1LIG   HC13   62  -1.481   0.313  -1.711
    1LIG   HC14   63  -1.888   0.447  -1.697
    1LIG   HC15   64  -1.850   0.584  -1.899
    1LIG   HC16   65  -1.629   0.584  -2.010
    1LIG   HC17   66  -1.411   0.792  -1.771
    1LIG   HC18   67  -1.915   1.041  -1.542
    1LIG   HC19   68  -1.944   1.069  -1.714
    1LIG   HC20   69  -1.890   0.838  -1.765
    1LIG   HC21   70  -2.017   0.846  -1.641
    1LIG   HC22   71  -1.979   0.703  -1.435
    1LIG   HC23   72  -1.474   0.607  -1.388
    1LIG   HC24   73  -1.754   0.635  -1.194
    1LIG   HC25   74  -1.696   0.494  -1.285
    1LIG   HC26   75  -1.900   0.428  -1.180
    1LIG   HC27   76  -1.983   0.577  -1.234
    1LIG   HC28   77  -1.938   0.452  -1.353
    1LIG   HC29   78  -1.584   0.863  -1.946
    1LIG   HC30   79  -1.537   1.030  -1.904
    1LIG   HC31   80  -1.705   0.994  -1.952
   0.00000   0.00000   0.00000
