Gallium Rubidium Oxygen Manganese Argon Carbon Silicon
   79
    1LIG      S    1  -1.047   0.155  -1.396
    1LIG     O1    2  -0.953   0.261  -1.428
    1LIG     O2    3  -1.012   0.048  -1.305
    1LIG     C1    4  -1.199   0.231  -1.340
    1LIG     C2    5  -1.260   0.326  -1.444
    1LIG     C3    6  -1.277   0.256  -1.582
    1LIG     C4    7  -1.149   0.191  -1.643
    1LIG     C5    8  -1.092   0.084  -1.551
    1LIG     C6    9  -1.188   0.464  -1.444
    1LIG     C7   10  -1.269   0.584  -1.490
    1LIG     C8   11  -1.404   0.569  -1.524
    1LIG     C9   12  -1.489   0.678  -1.553
    1LIG    C10   13  -1.431   0.805  -1.549
    1LIG    C11   14  -1.297   0.822  -1.514
    1LIG    C12   15  -1.216   0.712  -1.482
    1LIG    C13   16  -1.637   0.649  -1.573
    1LIG    C14   17  -1.729   0.647  -1.449
    1LIG     N1   18  -1.786   0.520  -1.410
    1LIG    C15   19  -1.922   0.529  -1.398
    1LIG     O3   20  -1.963   0.658  -1.418
    1LIG     O4   21  -1.999   0.436  -1.380
    1LIG    C16   22  -1.853   0.734  -1.468
    1LIG    C17   23  -1.711   0.399  -1.377
    1LIG    C18   24  -1.671   0.307  -1.492
    1LIG    C19   25  -1.781   0.215  -1.543
    1LIG     O5   26  -1.498   0.921  -1.575
    1LIG     H1   27  -1.512   0.934  -1.670
    1LIG     O6   28  -1.372   0.151  -1.561
    1LIG     H2   29  -1.328   0.064  -1.575
    1LIG     N2   30  -1.050   0.298  -1.684
    1LIG     H3   31  -1.056   0.377  -1.619
    1LIG     H4   32  -0.953   0.262  -1.678
    1LIG    C20   33  -1.057   0.353  -1.823
    1LIG    C21   34  -1.129   0.483  -1.829
    1LIG    C22   35  -1.060   0.603  -1.807
    1LIG    C23   36  -1.123   0.726  -1.825
    1LIG    C24   37  -1.257   0.728  -1.868
    1LIG    C25   38  -1.328   0.610  -1.885
    1LIG    C26   39  -1.265   0.487  -1.863
    1LIG    C27   40  -1.048   0.855  -1.795
    1LIG    C28   41  -0.937   0.833  -1.692
    1LIG    C29   42  -0.992   0.915  -1.925
    1LIG    HC2   43  -1.178   0.287  -1.249
    1LIG    HC3   44  -1.271   0.152  -1.317
    1LIG     HC   45  -1.361   0.346  -1.410
    1LIG    HC1   46  -1.318   0.328  -1.653
    1LIG    HC4   47  -1.180   0.141  -1.734
    1LIG    HC5   48  -1.003   0.040  -1.597
    1LIG    HC6   49  -1.166   0.006  -1.535
    1LIG    HC7   50  -1.101   0.456  -1.510
    1LIG    HC8   51  -1.152   0.484  -1.343
    1LIG    HC9   52  -1.445   0.470  -1.529
    1LIG   HC10   53  -1.255   0.922  -1.511
    1LIG   HC11   54  -1.113   0.727  -1.453
    1LIG   HC12   55  -1.645   0.552  -1.620
    1LIG   HC13   56  -1.676   0.724  -1.642
    1LIG   HC14   57  -1.673   0.686  -1.364
    1LIG   HC15   58  -1.843   0.827  -1.411
    1LIG   HC16   59  -1.867   0.756  -1.574
    1LIG   HC17   60  -1.620   0.430  -1.327
    1LIG   HC18   61  -1.770   0.341  -1.306
    1LIG   HC19   62  -1.589   0.244  -1.458
    1LIG   HC20   63  -1.636   0.368  -1.575
    1LIG   HC21   64  -1.742   0.154  -1.625
    1LIG   HC22   65  -1.815   0.151  -1.462
    1LIG   HC23   66  -1.864   0.275  -1.580
    1LIG   HC24   67  -0.955   0.368  -1.860
    1LIG   HC25   68  -1.107   0.281  -1.887
    1LIG   HC26   69  -0.956   0.600  -1.777
    1LIG   HC27   70  -1.305   0.823  -1.888
    1LIG   HC28   71  -1.431   0.613  -1.915
    1LIG   HC29   72  -1.321   0.396  -1.872
    1LIG   HC30   73  -1.119   0.926  -1.754
    1LIG   HC31   74  -0.901   0.930  -1.657
    1LIG   HC32   75  -0.855   0.778  -1.737
    1LIG   HC33   76  -0.977   0.777  -1.607
    1LIG   HC34   77  -1.074   0.929  -1.996
    1LIG   HC35   78  -0.946   1.011  -1.903
    1LIG   HC36   79  -0.918   0.848  -1.967
   0.00000   0.00000   0.00000
