; Created by cgenff_charmm2gmx.py

[ moleculetype ]
; Name			   nrexcl
LIG				 3

[ atoms ]
;	 nr		  type	resnr residue  atom   cgnr	   charge		mass  typeB    chargeB		massB
; residue	 1 LIG rtp LIG q	qsum
     1      SG3O2      1    LIG      S      1      0.113     32.060   ;
     2      OG2P1      1    LIG     O1      2     -0.300     15.999   ;
     3      OG2P1      1    LIG     O2      3     -0.300     15.999   ;
     4      CG321      1    LIG     C1      4      0.180     12.011   ;
     5      CG311      1    LIG     C2      5     -0.145     12.011   ;
     6      CG311      1    LIG     C3      6      0.100     12.011   ;
     7      CG314      1    LIG     C4      7     -0.043     12.011   ;
     8      CG321      1    LIG     C5      8      0.224     12.011   ;
     9      CG321      1    LIG     C6      9     -0.087     12.011   ;
    10     CG2R61      1    LIG     C7     10     -0.031     12.011   ;
    11     CG2R61      1    LIG     C8     11     -0.128     12.011   ;
    12     CG2R61      1    LIG     C9     12     -0.017     12.011   ;
    13     CG2R61      1    LIG    C10     13      0.094     12.011   ;
    14     CG2R61      1    LIG    C11     14     -0.109     12.011   ;
    15     CG2R61      1    LIG    C12     15     -0.121     12.011   ;
    16      CG321      1    LIG    C13     16     -0.175     12.011   ;
    17     CG3C51      1    LIG    C14     17      0.069     12.011   ;
    18     NG2R53      1    LIG     N1     18     -0.180     14.007   ;
    19     CG2R53      1    LIG    C15     19      0.361     12.011   ;
    20     OG3C51      1    LIG     O3     20     -0.241     15.999   ;
    21      OG2D1      1    LIG     O4     21     -0.410     15.999   ;
    22     CG3C52      1    LIG    C16     22      0.025     12.011   ;
    23      CG321      1    LIG    C17     23     -0.041     12.011   ;
    24      CG321      1    LIG    C18     24     -0.206     12.011   ;
    25      CG331      1    LIG    C19     25     -0.259     12.011   ;
    26      OG311      1    LIG     O5     26     -0.537     15.999   ;
    27       HGP1      1    LIG     H1     27      0.421      1.008   ;
    28      OG311      1    LIG     O6     28     -0.595     15.999   ;
    29       HGP1      1    LIG     H2     29      0.422      1.008   ;
    30      NG3P2      1    LIG     N2     30     -0.444     14.007   ;
    31       HGP2      1    LIG     H3     31      0.346      1.008   ;
    32       HGP2      1    LIG     H4     32      0.346      1.008   ;
    33      CG324      1    LIG    C20     33      0.178     12.011   ;
    34     CG2R61      1    LIG    C21     34      0.035     12.011   ;
    35     CG2R61      1    LIG    C22     35     -0.117     12.011   ;
    36     CG2R61      1    LIG    C23     36     -0.017     12.011   ;
    37     CG2R61      1    LIG    C24     37     -0.114     12.011   ;
    38     CG2R61      1    LIG    C25     38     -0.109     12.011   ;
    39     CG2R61      1    LIG    C26     39     -0.119     12.011   ;
    40      CG311      1    LIG    C27     40     -0.088     12.011   ;
    41      CG331      1    LIG    C28     41     -0.264     12.011   ;
    42      CG331      1    LIG    C29     42     -0.264     12.011   ;
    43       HGA2      1    LIG    HC2     43      0.090      1.008   ;
    44       HGA2      1    LIG    HC3     44      0.090      1.008   ;
    45       HGA1      1    LIG     HC     45      0.090      1.008   ;
    46       HGA1      1    LIG    HC1     46      0.090      1.008   ;
    47       HGA1      1    LIG    HC4     47      0.109      1.008   ;
    48       HGA2      1    LIG    HC5     48      0.090      1.008   ;
    49       HGA2      1    LIG    HC6     49      0.090      1.008   ;
    50       HGA2      1    LIG    HC7     50      0.090      1.008   ;
    51       HGA2      1    LIG    HC8     51      0.090      1.008   ;
    52      HGR61      1    LIG    HC9     52      0.116      1.008   ;
    53      HGR61      1    LIG   HC10     53      0.116      1.008   ;
    54      HGR61      1    LIG   HC11     54      0.116      1.008   ;
    55       HGA2      1    LIG   HC12     55      0.090      1.008   ;
    56       HGA2      1    LIG   HC13     56      0.090      1.008   ;
    57       HGA1      1    LIG   HC14     57      0.106      1.008   ;
    58       HGA2      1    LIG   HC15     58      0.090      1.008   ;
    59       HGA2      1    LIG   HC16     59      0.090      1.008   ;
    60       HGA2      1    LIG   HC17     60      0.090      1.008   ;
    61       HGA2      1    LIG   HC18     61      0.090      1.008   ;
    62       HGA2      1    LIG   HC19     62      0.090      1.008   ;
    63       HGA2      1    LIG   HC20     63      0.090      1.008   ;
    64       HGA3      1    LIG   HC21     64      0.090      1.008   ;
    65       HGA3      1    LIG   HC22     65      0.090      1.008   ;
    66       HGA3      1    LIG   HC23     66      0.090      1.008   ;
    67       HGA2      1    LIG   HC24     67      0.090      1.008   ;
    68       HGA2      1    LIG   HC25     68      0.090      1.008   ;
    69      HGR61      1    LIG   HC26     69      0.116      1.008   ;
    70      HGR61      1    LIG   HC27     70      0.116      1.008   ;
    71      HGR61      1    LIG   HC28     71      0.116      1.008   ;
    72      HGR61      1    LIG   HC29     72      0.116      1.008   ;
    73       HGA1      1    LIG   HC30     73      0.090      1.008   ;
    74       HGA3      1    LIG   HC31     74      0.090      1.008   ;
    75       HGA3      1    LIG   HC32     75      0.090      1.008   ;
    76       HGA3      1    LIG   HC33     76      0.090      1.008   ;
    77       HGA3      1    LIG   HC34     77      0.090      1.008   ;
    78       HGA3      1    LIG   HC35     78      0.090      1.008   ;
    79       HGA3      1    LIG   HC36     79      0.090      1.008   ;

[ bonds ]
;	ai	  aj funct			  c0			c1			  c2			c3
    1     2	 1 ;       SG3O2      OG2P1
    1     8	 1 ;       SG3O2      CG321
    1     3	 1 ;       SG3O2      OG2P1
    1     4	 1 ;       SG3O2      CG321
    4     5	 1 ;       CG321      CG311
    4    43	 1 ;       CG321       HGA2
    4    44	 1 ;       CG321       HGA2
    5     9	 1 ;       CG311      CG321
    5     6	 1 ;       CG311      CG311
    5    45	 1 ;       CG311       HGA1
    6     7	 1 ;       CG311      CG314
    6    28	 1 ;       CG311      OG311
    6    46	 1 ;       CG311       HGA1
    7    30	 1 ;       CG314      NG3P2
    7     8	 1 ;       CG314      CG321
    7    47	 1 ;       CG314       HGA1
    8    48	 1 ;       CG321       HGA2
    8    49	 1 ;       CG321       HGA2
    9    10	 1 ;       CG321     CG2R61
    9    50	 1 ;       CG321       HGA2
    9    51	 1 ;       CG321       HGA2
   10    15	 1 ;      CG2R61     CG2R61
   10    11	 1 ;      CG2R61     CG2R61
   11    12	 1 ;      CG2R61     CG2R61
   11    52	 1 ;      CG2R61      HGR61
   12    13	 1 ;      CG2R61     CG2R61
   12    16	 1 ;      CG2R61      CG321
   13    14	 1 ;      CG2R61     CG2R61
   13    26	 1 ;      CG2R61      OG311
   14    15	 1 ;      CG2R61     CG2R61
   14    53	 1 ;      CG2R61      HGR61
   15    54	 1 ;      CG2R61      HGR61
   16    17	 1 ;       CG321     CG3C51
   16    55	 1 ;       CG321       HGA2
   16    56	 1 ;       CG321       HGA2
   17    22	 1 ;      CG3C51     CG3C52
   17    18	 1 ;      CG3C51     NG2R53
   17    57	 1 ;      CG3C51       HGA1
   18    23	 1 ;      NG2R53      CG321
   18    19	 1 ;      NG2R53     CG2R53
   19    20	 1 ;      CG2R53     OG3C51
   19    21	 1 ;      CG2R53      OG2D1
   20    22	 1 ;      OG3C51     CG3C52
   22    58	 1 ;      CG3C52       HGA2
   22    59	 1 ;      CG3C52       HGA2
   23    24	 1 ;       CG321      CG321
   23    60	 1 ;       CG321       HGA2
   23    61	 1 ;       CG321       HGA2
   24    25	 1 ;       CG321      CG331
   24    62	 1 ;       CG321       HGA2
   24    63	 1 ;       CG321       HGA2
   25    64	 1 ;       CG331       HGA3
   25    65	 1 ;       CG331       HGA3
   25    66	 1 ;       CG331       HGA3
   26    27	 1 ;       OG311       HGP1
   28    29	 1 ;       OG311       HGP1
   30    33	 1 ;       NG3P2      CG324
   30    32	 1 ;       NG3P2       HGP2
   30    31	 1 ;       NG3P2       HGP2
   33    34	 1 ;       CG324     CG2R61
   33    67	 1 ;       CG324       HGA2
   33    68	 1 ;       CG324       HGA2
   34    35	 1 ;      CG2R61     CG2R61
   34    39	 1 ;      CG2R61     CG2R61
   35    36	 1 ;      CG2R61     CG2R61
   35    69	 1 ;      CG2R61      HGR61
   36    40	 1 ;      CG2R61      CG311
   36    37	 1 ;      CG2R61     CG2R61
   37    38	 1 ;      CG2R61     CG2R61
   37    70	 1 ;      CG2R61      HGR61
   38    39	 1 ;      CG2R61     CG2R61
   38    71	 1 ;      CG2R61      HGR61
   39    72	 1 ;      CG2R61      HGR61
   40    42	 1 ;       CG311      CG331
   40    41	 1 ;       CG311      CG331
   40    73	 1 ;       CG311       HGA1
   41    74	 1 ;       CG331       HGA3
   41    75	 1 ;       CG331       HGA3
   41    76	 1 ;       CG331       HGA3
   42    77	 1 ;       CG331       HGA3
   42    78	 1 ;       CG331       HGA3
   42    79	 1 ;       CG331       HGA3

[ pairs ]
;	ai	  aj funct			  c0			c1			  c2			c3
    1     9	 1
    1     6	 1
    1    45	 1
    1    30	 1
    1    47	 1
    2     7	 1
    2    48	 1
    2    49	 1
    2     5	 1
    2    43	 1
    2    44	 1
    3     7	 1
    3    48	 1
    3    49	 1
    3     5	 1
    3    43	 1
    3    44	 1
    4     7	 1
    4    48	 1
    4    49	 1
    4    10	 1
    4    50	 1
    4    51	 1
    4    28	 1
    4    46	 1
    5     8	 1
    5    30	 1
    5    47	 1
    5    29	 1
    5    15	 1
    5    11	 1
    6    43	 1
    6    44	 1
    6    10	 1
    6    50	 1
    6    51	 1
    6    33	 1
    6    32	 1
    6    31	 1
    6    48	 1
    6    49	 1
    7     9	 1
    7    45	 1
    7    29	 1
    7    34	 1
    7    67	 1
    7    68	 1
    8    43	 1
    8    44	 1
    8    28	 1
    8    46	 1
    8    33	 1
    8    32	 1
    8    31	 1
    9    43	 1
    9    44	 1
    9    28	 1
    9    46	 1
    9    14	 1
    9    54	 1
    9    12	 1
    9    52	 1
   10    45	 1
   10    13	 1
   10    16	 1
   10    53	 1
   11    50	 1
   11    51	 1
   11    14	 1
   11    54	 1
   11    26	 1
   11    17	 1
   11    55	 1
   11    56	 1
   12    15	 1
   12    53	 1
   12    27	 1
   12    22	 1
   12    18	 1
   12    57	 1
   13    52	 1
   13    17	 1
   13    55	 1
   13    56	 1
   13    54	 1
   14    16	 1
   14    27	 1
   15    50	 1
   15    51	 1
   15    52	 1
   15    26	 1
   16    52	 1
   16    26	 1
   16    20	 1
   16    58	 1
   16    59	 1
   16    23	 1
   16    19	 1
   17    24	 1
   17    60	 1
   17    61	 1
   17    21	 1
   18    55	 1
   18    56	 1
   18    58	 1
   18    59	 1
   18    25	 1
   18    62	 1
   18    63	 1
   19    57	 1
   19    24	 1
   19    60	 1
   19    61	 1
   19    58	 1
   19    59	 1
   20    57	 1
   20    23	 1
   21    23	 1
   21    22	 1
   22    55	 1
   22    56	 1
   22    23	 1
   23    57	 1
   23    64	 1
   23    65	 1
   23    66	 1
   25    60	 1
   25    61	 1
   26    53	 1
   28    45	 1
   28    30	 1
   28    47	 1
   29    46	 1
   30    46	 1
   30    48	 1
   30    49	 1
   30    35	 1
   30    39	 1
   31    47	 1
   31    34	 1
   31    67	 1
   31    68	 1
   32    47	 1
   32    34	 1
   32    67	 1
   32    68	 1
   33    47	 1
   33    36	 1
   33    69	 1
   33    38	 1
   33    72	 1
   34    40	 1
   34    37	 1
   34    71	 1
   35    67	 1
   35    68	 1
   35    38	 1
   35    72	 1
   35    42	 1
   35    41	 1
   35    73	 1
   35    70	 1
   36    39	 1
   36    71	 1
   36    77	 1
   36    78	 1
   36    79	 1
   36    74	 1
   36    75	 1
   36    76	 1
   37    69	 1
   37    42	 1
   37    41	 1
   37    73	 1
   37    72	 1
   38    40	 1
   39    67	 1
   39    68	 1
   39    69	 1
   39    70	 1
   40    69	 1
   40    70	 1
   41    77	 1
   41    78	 1
   41    79	 1
   42    74	 1
   42    75	 1
   42    76	 1
   43    45	 1
   44    45	 1
   45    50	 1
   45    51	 1
   45    46	 1
   46    47	 1
   47    48	 1
   47    49	 1
   53    54	 1
   55    57	 1
   56    57	 1
   57    58	 1
   57    59	 1
   60    62	 1
   60    63	 1
   61    62	 1
   61    63	 1
   62    64	 1
   62    65	 1
   62    66	 1
   63    64	 1
   63    65	 1
   63    66	 1
   70    71	 1
   71    72	 1
   73    77	 1
   73    78	 1
   73    79	 1
   73    74	 1
   73    75	 1
   73    76	 1

[ angles ]
;	ai	  aj	ak funct			c0			  c1			c2			  c3
    2     1     8	5 ;      OG2P1      SG3O2      CG321
    2     1     3	5 ;      OG2P1      SG3O2      OG2P1
    2     1     4	5 ;      OG2P1      SG3O2      CG321
    8     1     3	5 ;      CG321      SG3O2      OG2P1
    8     1     4	5 ;      CG321      SG3O2      CG321
    3     1     4	5 ;      OG2P1      SG3O2      CG321
    1     4     5	5 ;      SG3O2      CG321      CG311
    1     4    43	5 ;      SG3O2      CG321       HGA2
    1     4    44	5 ;      SG3O2      CG321       HGA2
    5     4    43	5 ;      CG311      CG321       HGA2
    5     4    44	5 ;      CG311      CG321       HGA2
   43     4    44	5 ;       HGA2      CG321       HGA2
    9     5     6	5 ;      CG321      CG311      CG311
    9     5     4	5 ;      CG321      CG311      CG321
    9     5    45	5 ;      CG321      CG311       HGA1
    6     5     4	5 ;      CG311      CG311      CG321
    6     5    45	5 ;      CG311      CG311       HGA1
    4     5    45	5 ;      CG321      CG311       HGA1
    7     6     5	5 ;      CG314      CG311      CG311
    7     6    28	5 ;      CG314      CG311      OG311
    7     6    46	5 ;      CG314      CG311       HGA1
    5     6    28	5 ;      CG311      CG311      OG311
    5     6    46	5 ;      CG311      CG311       HGA1
   28     6    46	5 ;      OG311      CG311       HGA1
   30     7     8	5 ;      NG3P2      CG314      CG321
   30     7     6	5 ;      NG3P2      CG314      CG311
   30     7    47	5 ;      NG3P2      CG314       HGA1
    8     7     6	5 ;      CG321      CG314      CG311
    8     7    47	5 ;      CG321      CG314       HGA1
    6     7    47	5 ;      CG311      CG314       HGA1
    7     8     1	5 ;      CG314      CG321      SG3O2
    7     8    48	5 ;      CG314      CG321       HGA2
    7     8    49	5 ;      CG314      CG321       HGA2
    1     8    48	5 ;      SG3O2      CG321       HGA2
    1     8    49	5 ;      SG3O2      CG321       HGA2
   48     8    49	5 ;       HGA2      CG321       HGA2
   10     9     5	5 ;     CG2R61      CG321      CG311
   10     9    50	5 ;     CG2R61      CG321       HGA2
   10     9    51	5 ;     CG2R61      CG321       HGA2
    5     9    50	5 ;      CG311      CG321       HGA2
    5     9    51	5 ;      CG311      CG321       HGA2
   50     9    51	5 ;       HGA2      CG321       HGA2
   15    10     9	5 ;     CG2R61     CG2R61      CG321
   15    10    11	5 ;     CG2R61     CG2R61     CG2R61
    9    10    11	5 ;      CG321     CG2R61     CG2R61
   10    11    12	5 ;     CG2R61     CG2R61     CG2R61
   10    11    52	5 ;     CG2R61     CG2R61      HGR61
   12    11    52	5 ;     CG2R61     CG2R61      HGR61
   13    12    11	5 ;     CG2R61     CG2R61     CG2R61
   13    12    16	5 ;     CG2R61     CG2R61      CG321
   11    12    16	5 ;     CG2R61     CG2R61      CG321
   14    13    26	5 ;     CG2R61     CG2R61      OG311
   14    13    12	5 ;     CG2R61     CG2R61     CG2R61
   26    13    12	5 ;      OG311     CG2R61     CG2R61
   15    14    13	5 ;     CG2R61     CG2R61     CG2R61
   15    14    53	5 ;     CG2R61     CG2R61      HGR61
   13    14    53	5 ;     CG2R61     CG2R61      HGR61
   14    15    10	5 ;     CG2R61     CG2R61     CG2R61
   14    15    54	5 ;     CG2R61     CG2R61      HGR61
   10    15    54	5 ;     CG2R61     CG2R61      HGR61
   12    16    17	5 ;     CG2R61      CG321     CG3C51
   12    16    55	5 ;     CG2R61      CG321       HGA2
   12    16    56	5 ;     CG2R61      CG321       HGA2
   17    16    55	5 ;     CG3C51      CG321       HGA2
   17    16    56	5 ;     CG3C51      CG321       HGA2
   55    16    56	5 ;       HGA2      CG321       HGA2
   16    17    22	5 ;      CG321     CG3C51     CG3C52
   16    17    18	5 ;      CG321     CG3C51     NG2R53
   16    17    57	5 ;      CG321     CG3C51       HGA1
   22    17    18	5 ;     CG3C52     CG3C51     NG2R53
   22    17    57	5 ;     CG3C52     CG3C51       HGA1
   18    17    57	5 ;     NG2R53     CG3C51       HGA1
   17    18    23	5 ;     CG3C51     NG2R53      CG321
   17    18    19	5 ;     CG3C51     NG2R53     CG2R53
   23    18    19	5 ;      CG321     NG2R53     CG2R53
   18    19    20	5 ;     NG2R53     CG2R53     OG3C51
   18    19    21	5 ;     NG2R53     CG2R53      OG2D1
   20    19    21	5 ;     OG3C51     CG2R53      OG2D1
   22    20    19	5 ;     CG3C52     OG3C51     CG2R53
   17    22    20	5 ;     CG3C51     CG3C52     OG3C51
   17    22    58	5 ;     CG3C51     CG3C52       HGA2
   17    22    59	5 ;     CG3C51     CG3C52       HGA2
   20    22    58	5 ;     OG3C51     CG3C52       HGA2
   20    22    59	5 ;     OG3C51     CG3C52       HGA2
   58    22    59	5 ;       HGA2     CG3C52       HGA2
   24    23    18	5 ;      CG321      CG321     NG2R53
   24    23    60	5 ;      CG321      CG321       HGA2
   24    23    61	5 ;      CG321      CG321       HGA2
   18    23    60	5 ;     NG2R53      CG321       HGA2
   18    23    61	5 ;     NG2R53      CG321       HGA2
   60    23    61	5 ;       HGA2      CG321       HGA2
   25    24    23	5 ;      CG331      CG321      CG321
   25    24    62	5 ;      CG331      CG321       HGA2
   25    24    63	5 ;      CG331      CG321       HGA2
   23    24    62	5 ;      CG321      CG321       HGA2
   23    24    63	5 ;      CG321      CG321       HGA2
   62    24    63	5 ;       HGA2      CG321       HGA2
   24    25    64	5 ;      CG321      CG331       HGA3
   24    25    65	5 ;      CG321      CG331       HGA3
   24    25    66	5 ;      CG321      CG331       HGA3
   64    25    65	5 ;       HGA3      CG331       HGA3
   64    25    66	5 ;       HGA3      CG331       HGA3
   65    25    66	5 ;       HGA3      CG331       HGA3
   27    26    13	5 ;       HGP1      OG311     CG2R61
    6    28    29	5 ;      CG311      OG311       HGP1
   33    30    32	5 ;      CG324      NG3P2       HGP2
   33    30    31	5 ;      CG324      NG3P2       HGP2
   33    30     7	5 ;      CG324      NG3P2      CG314
   32    30    31	5 ;       HGP2      NG3P2       HGP2
   32    30     7	5 ;       HGP2      NG3P2      CG314
   31    30     7	5 ;       HGP2      NG3P2      CG314
   34    33    30	5 ;     CG2R61      CG324      NG3P2
   34    33    67	5 ;     CG2R61      CG324       HGA2
   34    33    68	5 ;     CG2R61      CG324       HGA2
   30    33    67	5 ;      NG3P2      CG324       HGA2
   30    33    68	5 ;      NG3P2      CG324       HGA2
   67    33    68	5 ;       HGA2      CG324       HGA2
   35    34    33	5 ;     CG2R61     CG2R61      CG324
   35    34    39	5 ;     CG2R61     CG2R61     CG2R61
   33    34    39	5 ;      CG324     CG2R61     CG2R61
   36    35    34	5 ;     CG2R61     CG2R61     CG2R61
   36    35    69	5 ;     CG2R61     CG2R61      HGR61
   34    35    69	5 ;     CG2R61     CG2R61      HGR61
   40    36    35	5 ;      CG311     CG2R61     CG2R61
   40    36    37	5 ;      CG311     CG2R61     CG2R61
   35    36    37	5 ;     CG2R61     CG2R61     CG2R61
   36    37    38	5 ;     CG2R61     CG2R61     CG2R61
   36    37    70	5 ;     CG2R61     CG2R61      HGR61
   38    37    70	5 ;     CG2R61     CG2R61      HGR61
   37    38    39	5 ;     CG2R61     CG2R61     CG2R61
   37    38    71	5 ;     CG2R61     CG2R61      HGR61
   39    38    71	5 ;     CG2R61     CG2R61      HGR61
   34    39    38	5 ;     CG2R61     CG2R61     CG2R61
   34    39    72	5 ;     CG2R61     CG2R61      HGR61
   38    39    72	5 ;     CG2R61     CG2R61      HGR61
   42    40    41	5 ;      CG331      CG311      CG331
   42    40    36	5 ;      CG331      CG311     CG2R61
   42    40    73	5 ;      CG331      CG311       HGA1
   41    40    36	5 ;      CG331      CG311     CG2R61
   41    40    73	5 ;      CG331      CG311       HGA1
   36    40    73	5 ;     CG2R61      CG311       HGA1
   40    41    74	5 ;      CG311      CG331       HGA3
   40    41    75	5 ;      CG311      CG331       HGA3
   40    41    76	5 ;      CG311      CG331       HGA3
   74    41    75	5 ;       HGA3      CG331       HGA3
   74    41    76	5 ;       HGA3      CG331       HGA3
   75    41    76	5 ;       HGA3      CG331       HGA3
   40    42    77	5 ;      CG311      CG331       HGA3
   40    42    78	5 ;      CG311      CG331       HGA3
   40    42    79	5 ;      CG311      CG331       HGA3
   77    42    78	5 ;       HGA3      CG331       HGA3
   77    42    79	5 ;       HGA3      CG331       HGA3
   78    42    79	5 ;       HGA3      CG331       HGA3

[ dihedrals ]
;	ai	  aj	ak	  al funct			  c0			c1			  c2			c3			  c4			c5
    2     1     8     7	 9 ;      OG2P1      SG3O2      CG321      CG314
    2     1     8    48	 9 ;      OG2P1      SG3O2      CG321       HGA2
    2     1     8    49	 9 ;      OG2P1      SG3O2      CG321       HGA2
    3     1     8     7	 9 ;      OG2P1      SG3O2      CG321      CG314
    3     1     8    48	 9 ;      OG2P1      SG3O2      CG321       HGA2
    3     1     8    49	 9 ;      OG2P1      SG3O2      CG321       HGA2
    4     1     8     7	 9 ;      CG321      SG3O2      CG321      CG314
    4     1     8    48	 9 ;      CG321      SG3O2      CG321       HGA2
    4     1     8    49	 9 ;      CG321      SG3O2      CG321       HGA2
    2     1     4     5	 9 ;      OG2P1      SG3O2      CG321      CG311
    2     1     4    43	 9 ;      OG2P1      SG3O2      CG321       HGA2
    2     1     4    44	 9 ;      OG2P1      SG3O2      CG321       HGA2
    8     1     4     5	 9 ;      CG321      SG3O2      CG321      CG311
    8     1     4    43	 9 ;      CG321      SG3O2      CG321       HGA2
    8     1     4    44	 9 ;      CG321      SG3O2      CG321       HGA2
    3     1     4     5	 9 ;      OG2P1      SG3O2      CG321      CG311
    3     1     4    43	 9 ;      OG2P1      SG3O2      CG321       HGA2
    3     1     4    44	 9 ;      OG2P1      SG3O2      CG321       HGA2
    1     4     5     9	 9 ;      SG3O2      CG321      CG311      CG321
    1     4     5     6	 9 ;      SG3O2      CG321      CG311      CG311
    1     4     5    45	 9 ;      SG3O2      CG321      CG311       HGA1
   43     4     5     9	 9 ;       HGA2      CG321      CG311      CG321
   43     4     5     6	 9 ;       HGA2      CG321      CG311      CG311
   43     4     5    45	 9 ;       HGA2      CG321      CG311       HGA1
   44     4     5     9	 9 ;       HGA2      CG321      CG311      CG321
   44     4     5     6	 9 ;       HGA2      CG321      CG311      CG311
   44     4     5    45	 9 ;       HGA2      CG321      CG311       HGA1
    6     5     9    10	 9 ;      CG311      CG311      CG321     CG2R61
    6     5     9    50	 9 ;      CG311      CG311      CG321       HGA2
    6     5     9    51	 9 ;      CG311      CG311      CG321       HGA2
    4     5     9    10	 9 ;      CG321      CG311      CG321     CG2R61
    4     5     9    50	 9 ;      CG321      CG311      CG321       HGA2
    4     5     9    51	 9 ;      CG321      CG311      CG321       HGA2
   45     5     9    10	 9 ;       HGA1      CG311      CG321     CG2R61
   45     5     9    50	 9 ;       HGA1      CG311      CG321       HGA2
   45     5     9    51	 9 ;       HGA1      CG311      CG321       HGA2
    9     5     6     7	 9 ;      CG321      CG311      CG311      CG314
    9     5     6    28	 9 ;      CG321      CG311      CG311      OG311
    9     5     6    46	 9 ;      CG321      CG311      CG311       HGA1
    4     5     6     7	 9 ;      CG321      CG311      CG311      CG314
    4     5     6    28	 9 ;      CG321      CG311      CG311      OG311
    4     5     6    46	 9 ;      CG321      CG311      CG311       HGA1
   45     5     6     7	 9 ;       HGA1      CG311      CG311      CG314
   45     5     6    28	 9 ;       HGA1      CG311      CG311      OG311
   45     5     6    46	 9 ;       HGA1      CG311      CG311       HGA1
    5     6     7    30	 9 ;      CG311      CG311      CG314      NG3P2
    5     6     7     8	 9 ;      CG311      CG311      CG314      CG321
    5     6     7    47	 9 ;      CG311      CG311      CG314       HGA1
   28     6     7    30	 9 ;      OG311      CG311      CG314      NG3P2
   28     6     7     8	 9 ;      OG311      CG311      CG314      CG321
   28     6     7    47	 9 ;      OG311      CG311      CG314       HGA1
   46     6     7    30	 9 ;       HGA1      CG311      CG314      NG3P2
   46     6     7     8	 9 ;       HGA1      CG311      CG314      CG321
   46     6     7    47	 9 ;       HGA1      CG311      CG314       HGA1
    7     6    28    29	 9 ;      CG314      CG311      OG311       HGP1
    5     6    28    29	 9 ;      CG311      CG311      OG311       HGP1
   46     6    28    29	 9 ;       HGA1      CG311      OG311       HGP1
    8     7    30    33	 9 ;      CG321      CG314      NG3P2      CG324
    8     7    30    32	 9 ;      CG321      CG314      NG3P2       HGP2
    8     7    30    31	 9 ;      CG321      CG314      NG3P2       HGP2
    6     7    30    33	 9 ;      CG311      CG314      NG3P2      CG324
    6     7    30    32	 9 ;      CG311      CG314      NG3P2       HGP2
    6     7    30    31	 9 ;      CG311      CG314      NG3P2       HGP2
   47     7    30    33	 9 ;       HGA1      CG314      NG3P2      CG324
   47     7    30    32	 9 ;       HGA1      CG314      NG3P2       HGP2
   47     7    30    31	 9 ;       HGA1      CG314      NG3P2       HGP2
   30     7     8     1	 9 ;      NG3P2      CG314      CG321      SG3O2
   30     7     8    48	 9 ;      NG3P2      CG314      CG321       HGA2
   30     7     8    49	 9 ;      NG3P2      CG314      CG321       HGA2
    6     7     8     1	 9 ;      CG311      CG314      CG321      SG3O2
    6     7     8    48	 9 ;      CG311      CG314      CG321       HGA2
    6     7     8    49	 9 ;      CG311      CG314      CG321       HGA2
   47     7     8     1	 9 ;       HGA1      CG314      CG321      SG3O2
   47     7     8    48	 9 ;       HGA1      CG314      CG321       HGA2
   47     7     8    49	 9 ;       HGA1      CG314      CG321       HGA2
    5     9    10    15	 9 ;      CG311      CG321     CG2R61     CG2R61
    5     9    10    11	 9 ;      CG311      CG321     CG2R61     CG2R61
   50     9    10    15	 9 ;       HGA2      CG321     CG2R61     CG2R61
   50     9    10    11	 9 ;       HGA2      CG321     CG2R61     CG2R61
   51     9    10    15	 9 ;       HGA2      CG321     CG2R61     CG2R61
   51     9    10    11	 9 ;       HGA2      CG321     CG2R61     CG2R61
    9    10    15    14	 9 ;      CG321     CG2R61     CG2R61     CG2R61
    9    10    15    54	 9 ;      CG321     CG2R61     CG2R61      HGR61
   11    10    15    14	 9 ;     CG2R61     CG2R61     CG2R61     CG2R61
   11    10    15    54	 9 ;     CG2R61     CG2R61     CG2R61      HGR61
   15    10    11    12	 9 ;     CG2R61     CG2R61     CG2R61     CG2R61
   15    10    11    52	 9 ;     CG2R61     CG2R61     CG2R61      HGR61
    9    10    11    12	 9 ;      CG321     CG2R61     CG2R61     CG2R61
    9    10    11    52	 9 ;      CG321     CG2R61     CG2R61      HGR61
   10    11    12    13	 9 ;     CG2R61     CG2R61     CG2R61     CG2R61
   10    11    12    16	 9 ;     CG2R61     CG2R61     CG2R61      CG321
   52    11    12    13	 9 ;      HGR61     CG2R61     CG2R61     CG2R61
   52    11    12    16	 9 ;      HGR61     CG2R61     CG2R61      CG321
   11    12    13    14	 9 ;     CG2R61     CG2R61     CG2R61     CG2R61
   11    12    13    26	 9 ;     CG2R61     CG2R61     CG2R61      OG311
   16    12    13    14	 9 ;      CG321     CG2R61     CG2R61     CG2R61
   16    12    13    26	 9 ;      CG321     CG2R61     CG2R61      OG311
   13    12    16    17	 9 ;     CG2R61     CG2R61      CG321     CG3C51
   13    12    16    55	 9 ;     CG2R61     CG2R61      CG321       HGA2
   13    12    16    56	 9 ;     CG2R61     CG2R61      CG321       HGA2
   11    12    16    17	 9 ;     CG2R61     CG2R61      CG321     CG3C51
   11    12    16    55	 9 ;     CG2R61     CG2R61      CG321       HGA2
   11    12    16    56	 9 ;     CG2R61     CG2R61      CG321       HGA2
   26    13    14    15	 9 ;      OG311     CG2R61     CG2R61     CG2R61
   26    13    14    53	 9 ;      OG311     CG2R61     CG2R61      HGR61
   12    13    14    15	 9 ;     CG2R61     CG2R61     CG2R61     CG2R61
   12    13    14    53	 9 ;     CG2R61     CG2R61     CG2R61      HGR61
   14    13    26    27	 9 ;     CG2R61     CG2R61      OG311       HGP1
   12    13    26    27	 9 ;     CG2R61     CG2R61      OG311       HGP1
   13    14    15    10	 9 ;     CG2R61     CG2R61     CG2R61     CG2R61
   13    14    15    54	 9 ;     CG2R61     CG2R61     CG2R61      HGR61
   53    14    15    10	 9 ;      HGR61     CG2R61     CG2R61     CG2R61
   53    14    15    54	 9 ;      HGR61     CG2R61     CG2R61      HGR61
   12    16    17    22	 9 ;     CG2R61      CG321     CG3C51     CG3C52
   12    16    17    18	 9 ;     CG2R61      CG321     CG3C51     NG2R53
   12    16    17    57	 9 ;     CG2R61      CG321     CG3C51       HGA1
   55    16    17    22	 9 ;       HGA2      CG321     CG3C51     CG3C52
   55    16    17    18	 9 ;       HGA2      CG321     CG3C51     NG2R53
   55    16    17    57	 9 ;       HGA2      CG321     CG3C51       HGA1
   56    16    17    22	 9 ;       HGA2      CG321     CG3C51     CG3C52
   56    16    17    18	 9 ;       HGA2      CG321     CG3C51     NG2R53
   56    16    17    57	 9 ;       HGA2      CG321     CG3C51       HGA1
   16    17    22    20	 9 ;      CG321     CG3C51     CG3C52     OG3C51
   16    17    22    58	 9 ;      CG321     CG3C51     CG3C52       HGA2
   16    17    22    59	 9 ;      CG321     CG3C51     CG3C52       HGA2
   18    17    22    20	 9 ;     NG2R53     CG3C51     CG3C52     OG3C51
   18    17    22    58	 9 ;     NG2R53     CG3C51     CG3C52       HGA2
   18    17    22    59	 9 ;     NG2R53     CG3C51     CG3C52       HGA2
   57    17    22    20	 9 ;       HGA1     CG3C51     CG3C52     OG3C51
   57    17    22    58	 9 ;       HGA1     CG3C51     CG3C52       HGA2
   57    17    22    59	 9 ;       HGA1     CG3C51     CG3C52       HGA2
   16    17    18    23	 9 ;      CG321     CG3C51     NG2R53      CG321
   16    17    18    19	 9 ;      CG321     CG3C51     NG2R53     CG2R53
   22    17    18    23	 9 ;     CG3C52     CG3C51     NG2R53      CG321
   22    17    18    19	 9 ;     CG3C52     CG3C51     NG2R53     CG2R53
   57    17    18    23	 9 ;       HGA1     CG3C51     NG2R53      CG321
   57    17    18    19	 9 ;       HGA1     CG3C51     NG2R53     CG2R53
   17    18    23    24	 9 ;     CG3C51     NG2R53      CG321      CG321
   17    18    23    60	 9 ;     CG3C51     NG2R53      CG321       HGA2
   17    18    23    61	 9 ;     CG3C51     NG2R53      CG321       HGA2
   19    18    23    24	 9 ;     CG2R53     NG2R53      CG321      CG321
   19    18    23    60	 9 ;     CG2R53     NG2R53      CG321       HGA2
   19    18    23    61	 9 ;     CG2R53     NG2R53      CG321       HGA2
   17    18    19    20	 9 ;     CG3C51     NG2R53     CG2R53     OG3C51
   17    18    19    21	 9 ;     CG3C51     NG2R53     CG2R53      OG2D1
   23    18    19    20	 9 ;      CG321     NG2R53     CG2R53     OG3C51
   23    18    19    21	 9 ;      CG321     NG2R53     CG2R53      OG2D1
   18    19    20    22	 9 ;     NG2R53     CG2R53     OG3C51     CG3C52
   21    19    20    22	 9 ;      OG2D1     CG2R53     OG3C51     CG3C52
   19    20    22    17	 9 ;     CG2R53     OG3C51     CG3C52     CG3C51
   19    20    22    58	 9 ;     CG2R53     OG3C51     CG3C52       HGA2
   19    20    22    59	 9 ;     CG2R53     OG3C51     CG3C52       HGA2
   18    23    24    25	 9 ;     NG2R53      CG321      CG321      CG331
   18    23    24    62	 9 ;     NG2R53      CG321      CG321       HGA2
   18    23    24    63	 9 ;     NG2R53      CG321      CG321       HGA2
   60    23    24    25	 9 ;       HGA2      CG321      CG321      CG331
   60    23    24    62	 9 ;       HGA2      CG321      CG321       HGA2
   60    23    24    63	 9 ;       HGA2      CG321      CG321       HGA2
   61    23    24    25	 9 ;       HGA2      CG321      CG321      CG331
   61    23    24    62	 9 ;       HGA2      CG321      CG321       HGA2
   61    23    24    63	 9 ;       HGA2      CG321      CG321       HGA2
   23    24    25    64	 9 ;      CG321      CG321      CG331       HGA3
   23    24    25    65	 9 ;      CG321      CG321      CG331       HGA3
   23    24    25    66	 9 ;      CG321      CG321      CG331       HGA3
   62    24    25    64	 9 ;       HGA2      CG321      CG331       HGA3
   62    24    25    65	 9 ;       HGA2      CG321      CG331       HGA3
   62    24    25    66	 9 ;       HGA2      CG321      CG331       HGA3
   63    24    25    64	 9 ;       HGA2      CG321      CG331       HGA3
   63    24    25    65	 9 ;       HGA2      CG321      CG331       HGA3
   63    24    25    66	 9 ;       HGA2      CG321      CG331       HGA3
   32    30    33    34	 9 ;       HGP2      NG3P2      CG324     CG2R61
   32    30    33    67	 9 ;       HGP2      NG3P2      CG324       HGA2
   32    30    33    68	 9 ;       HGP2      NG3P2      CG324       HGA2
   31    30    33    34	 9 ;       HGP2      NG3P2      CG324     CG2R61
   31    30    33    67	 9 ;       HGP2      NG3P2      CG324       HGA2
   31    30    33    68	 9 ;       HGP2      NG3P2      CG324       HGA2
    7    30    33    34	 9 ;      CG314      NG3P2      CG324     CG2R61
    7    30    33    67	 9 ;      CG314      NG3P2      CG324       HGA2
    7    30    33    68	 9 ;      CG314      NG3P2      CG324       HGA2
   30    33    34    35	 9 ;      NG3P2      CG324     CG2R61     CG2R61
   30    33    34    39	 9 ;      NG3P2      CG324     CG2R61     CG2R61
   67    33    34    35	 9 ;       HGA2      CG324     CG2R61     CG2R61
   67    33    34    39	 9 ;       HGA2      CG324     CG2R61     CG2R61
   68    33    34    35	 9 ;       HGA2      CG324     CG2R61     CG2R61
   68    33    34    39	 9 ;       HGA2      CG324     CG2R61     CG2R61
   33    34    35    36	 9 ;      CG324     CG2R61     CG2R61     CG2R61
   33    34    35    69	 9 ;      CG324     CG2R61     CG2R61      HGR61
   39    34    35    36	 9 ;     CG2R61     CG2R61     CG2R61     CG2R61
   39    34    35    69	 9 ;     CG2R61     CG2R61     CG2R61      HGR61
   35    34    39    38	 9 ;     CG2R61     CG2R61     CG2R61     CG2R61
   35    34    39    72	 9 ;     CG2R61     CG2R61     CG2R61      HGR61
   33    34    39    38	 9 ;      CG324     CG2R61     CG2R61     CG2R61
   33    34    39    72	 9 ;      CG324     CG2R61     CG2R61      HGR61
   34    35    36    40	 9 ;     CG2R61     CG2R61     CG2R61      CG311
   34    35    36    37	 9 ;     CG2R61     CG2R61     CG2R61     CG2R61
   69    35    36    40	 9 ;      HGR61     CG2R61     CG2R61      CG311
   69    35    36    37	 9 ;      HGR61     CG2R61     CG2R61     CG2R61
   35    36    40    42	 9 ;     CG2R61     CG2R61      CG311      CG331
   35    36    40    41	 9 ;     CG2R61     CG2R61      CG311      CG331
   35    36    40    73	 9 ;     CG2R61     CG2R61      CG311       HGA1
   37    36    40    42	 9 ;     CG2R61     CG2R61      CG311      CG331
   37    36    40    41	 9 ;     CG2R61     CG2R61      CG311      CG331
   37    36    40    73	 9 ;     CG2R61     CG2R61      CG311       HGA1
   40    36    37    38	 9 ;      CG311     CG2R61     CG2R61     CG2R61
   40    36    37    70	 9 ;      CG311     CG2R61     CG2R61      HGR61
   35    36    37    38	 9 ;     CG2R61     CG2R61     CG2R61     CG2R61
   35    36    37    70	 9 ;     CG2R61     CG2R61     CG2R61      HGR61
   36    37    38    39	 9 ;     CG2R61     CG2R61     CG2R61     CG2R61
   36    37    38    71	 9 ;     CG2R61     CG2R61     CG2R61      HGR61
   70    37    38    39	 9 ;      HGR61     CG2R61     CG2R61     CG2R61
   70    37    38    71	 9 ;      HGR61     CG2R61     CG2R61      HGR61
   37    38    39    34	 9 ;     CG2R61     CG2R61     CG2R61     CG2R61
   37    38    39    72	 9 ;     CG2R61     CG2R61     CG2R61      HGR61
   71    38    39    34	 9 ;      HGR61     CG2R61     CG2R61     CG2R61
   71    38    39    72	 9 ;      HGR61     CG2R61     CG2R61      HGR61
   41    40    42    77	 9 ;      CG331      CG311      CG331       HGA3
   41    40    42    78	 9 ;      CG331      CG311      CG331       HGA3
   41    40    42    79	 9 ;      CG331      CG311      CG331       HGA3
   36    40    42    77	 9 ;     CG2R61      CG311      CG331       HGA3
   36    40    42    78	 9 ;     CG2R61      CG311      CG331       HGA3
   36    40    42    79	 9 ;     CG2R61      CG311      CG331       HGA3
   73    40    42    77	 9 ;       HGA1      CG311      CG331       HGA3
   73    40    42    78	 9 ;       HGA1      CG311      CG331       HGA3
   73    40    42    79	 9 ;       HGA1      CG311      CG331       HGA3
   42    40    41    74	 9 ;      CG331      CG311      CG331       HGA3
   42    40    41    75	 9 ;      CG331      CG311      CG331       HGA3
   42    40    41    76	 9 ;      CG331      CG311      CG331       HGA3
   36    40    41    74	 9 ;     CG2R61      CG311      CG331       HGA3
   36    40    41    75	 9 ;     CG2R61      CG311      CG331       HGA3
   36    40    41    76	 9 ;     CG2R61      CG311      CG331       HGA3
   73    40    41    74	 9 ;       HGA1      CG311      CG331       HGA3
   73    40    41    75	 9 ;       HGA1      CG311      CG331       HGA3
   73    40    41    76	 9 ;       HGA1      CG311      CG331       HGA3

[ dihedrals ]
;	ai	  aj	ak	  al funct			  c0			c1			  c2			c3
   19    18    21    20	 2

