Getting the Right Output Means no Artefacts in Calculating Stuff
   85
    1LIG     C1    1  -2.032   0.494  -1.107
    1LIG     N1    2  -1.948   0.425  -1.208
    1LIG     C2    3  -1.815   0.463  -1.225
    1LIG     O1    4  -1.760   0.530  -1.138
    1LIG     H1    5  -1.990   0.379  -1.288
    1LIG     C3    6  -1.745   0.432  -1.355
    1LIG     C4    7  -1.607   0.402  -1.372
    1LIG     C5    8  -1.557   0.359  -1.497
    1LIG     C6    9  -1.649   0.356  -1.606
    1LIG     C7   10  -1.783   0.393  -1.592
    1LIG     C8   11  -1.830   0.428  -1.466
    1LIG     C9   12  -1.878   0.398  -1.709
    1LIG    C10   13  -1.414   0.326  -1.536
    1LIG     O2   14  -1.346   0.425  -1.567
    1LIG     N2   15  -1.354   0.198  -1.541
    1LIG    C11   16  -1.421   0.068  -1.526
    1LIG    C12   17  -1.350  -0.050  -1.594
    1LIG    C13   18  -1.316  -0.165  -1.501
    1LIG    C14   19  -1.213   0.193  -1.589
    1LIG    C15   20  -1.106   0.170  -1.481
    1LIG    C16   21  -1.120   0.263  -1.362
    1LIG    C17   22  -2.032   0.411  -0.975
    1LIG    C18   23  -2.111   0.283  -0.978
    1LIG    C19   24  -2.075   0.172  -0.900
    1LIG    C20   25  -2.148   0.052  -0.909
    1LIG     F1   26  -2.110  -0.053  -0.837
    1LIG    C21   27  -2.257   0.041  -0.995
    1LIG    C22   28  -2.294   0.152  -1.069
    1LIG    C23   29  -2.224   0.272  -1.061
    1LIG     F2   30  -2.399   0.144  -1.152
    1LIG    C24   31  -2.000   0.646  -1.086
    1LIG     O3   32  -1.983   0.678  -0.947
    1LIG     H2   33  -2.015   0.603  -0.892
    1LIG    C25   34  -2.100   0.747  -1.150
    1LIG     N3   35  -2.180   0.682  -1.262
    1LIG    C26   36  -2.099   0.701  -1.387
    1LIG     H3   37  -2.197   0.582  -1.245
    1LIG     H4   38  -2.270   0.729  -1.273
    1LIG     N4   39  -2.004   0.802  -1.354
    1LIG    C27   40  -2.023   0.851  -1.226
    1LIG     O4   41  -1.983   0.956  -1.179
    1LIG    C28   42  -1.914   0.866  -1.447
    1LIG    C29   43  -1.782   0.800  -1.482
    1LIG    C30   44  -1.766   0.765  -1.618
    1LIG    C31   45  -1.643   0.725  -1.669
    1LIG    C32   46  -1.532   0.717  -1.586
    1LIG    C33   47  -1.546   0.748  -1.450
    1LIG    C34   48  -1.670   0.790  -1.399
    1LIG     HC   49  -2.134   0.489  -1.145
    1LIG    HC1   50  -1.539   0.413  -1.289
    1LIG    HC2   51  -1.613   0.324  -1.703
    1LIG    HC3   52  -1.934   0.453  -1.454
    1LIG    HC4   53  -1.521   0.077  -1.568
    1LIG    HC5   54  -1.429   0.047  -1.419
    1LIG    HC6   55  -1.416  -0.088  -1.673
    1LIG    HC7   56  -1.258  -0.014  -1.640
    1LIG    HC8   57  -1.191   0.288  -1.638
    1LIG    HC9   58  -1.205   0.113  -1.663
    1LIG   HC10   59  -1.008   0.185  -1.526
    1LIG   HC11   60  -1.113   0.067  -1.446
    1LIG   HC12   61  -2.073   0.474  -0.896
    1LIG   HC13   62  -1.929   0.387  -0.950
    1LIG   HC14   63  -1.991   0.178  -0.833
    1LIG   HC15   64  -2.311  -0.052  -1.003
    1LIG   HC16   65  -2.256   0.357  -1.118
    1LIG   HC17   66  -1.904   0.664  -1.134
    1LIG   HC18   67  -2.165   0.792  -1.075
    1LIG   HC19   68  -2.163   0.734  -1.469
    1LIG   HC20   69  -2.049   0.608  -1.414
    1LIG   HC21   70  -1.969   0.878  -1.540
    1LIG   HC22   71  -1.892   0.965  -1.408
    1LIG   HC23   72  -1.851   0.769  -1.684
    1LIG   HC24   73  -1.633   0.700  -1.774
    1LIG   HC25   74  -1.436   0.688  -1.625
    1LIG   HC26   75  -1.461   0.739  -1.384
    1LIG   HC27   76  -1.679   0.814  -1.294
    1LIG   HC28   77  -1.042   0.241  -1.290
    1LIG   HC29   78  -1.111   0.366  -1.395
    1LIG   HC30   79  -1.218   0.248  -1.316
    1LIG   HC31   80  -1.267  -0.245  -1.557
    1LIG   HC32   81  -1.407  -0.204  -1.456
    1LIG   HC33   82  -1.249  -0.130  -1.422
    1LIG   HC34   83  -1.825   0.368  -1.800
    1LIG   HC35   84  -1.914   0.500  -1.721
    1LIG   HC36   85  -1.962   0.331  -1.691
   0.00000   0.00000   0.00000
