; Created by cgenff_charmm2gmx.py

[ moleculetype ]
; Name			   nrexcl
LIG				 3

[ atoms ]
;	 nr		  type	resnr residue  atom   cgnr	   charge		mass  typeB    chargeB		massB
; residue	 1 LIG rtp LIG q	qsum
     1      CG311      1    LIG     C1      1      0.010     12.011   ;
     2      NG2S1      1    LIG     N1      2     -0.226     14.007   ;
     3      CG2O1      1    LIG     C2      3      0.302     12.011   ;
     4      OG2D1      1    LIG     O1      4     -0.463     15.999   ;
     5       HGP1      1    LIG     H1      5      0.262      1.008   ;
     6     CG2R61      1    LIG     C3      6     -0.105     12.011   ;
     7     CG2R61      1    LIG     C4      7     -0.074     12.011   ;
     8     CG2R61      1    LIG     C5      8      0.208     12.011   ;
     9     CG2R61      1    LIG     C6      9     -0.130     12.011   ;
    10     CG2R61      1    LIG     C7     10     -0.112     12.011   ;
    11     CG2R61      1    LIG     C8     11     -0.060     12.011   ;
    12     NG3C51      1    LIG     N2     12     -0.067     14.007   ;
    13     CG2RC0      1    LIG     C9     13      0.053     12.011   ;
    14     CG2RC0      1    LIG    C10     14      0.546     12.011   ;
    15     CG2R61      1    LIG    C11     15     -0.262     12.011   ;
    16     OG3C51      1    LIG     O2     16     -0.116     15.999   ;
    17     CG2R61      1    LIG    C12     17     -0.390     12.011   ;
    18      SG3O2      1    LIG      S     18      0.305     32.060   ;
    19      OG2P1      1    LIG     O3     19     -0.329     15.999   ;
    20      OG2P1      1    LIG     O4     20     -0.329     15.999   ;
    21     CG2R61      1    LIG    C13     21     -0.157     12.011   ;
    22     CG2R61      1    LIG    C14     22     -0.178     12.011   ;
    23      CG321      1    LIG    C15     23     -0.111     12.011   ;
    24     CG2R61      1    LIG    C16     24     -0.019     12.011   ;
    25     CG2R61      1    LIG    C17     25     -0.123     12.011   ;
    26     CG2R61      1    LIG    C18     26     -0.112     12.011   ;
    27     CG2R61      1    LIG    C19     27     -0.116     12.011   ;
    28     CG2R61      1    LIG    C20     28     -0.112     12.011   ;
    29     CG2R61      1    LIG    C21     29     -0.123     12.011   ;
    30      CG311      1    LIG    C22     30      0.094     12.011   ;
    31      CG324      1    LIG    C23     31      0.178     12.011   ;
    32      NG3P2      1    LIG     N3     32     -0.444     14.007   ;
    33       HGP2      1    LIG     H2     33      0.348      1.008   ;
    34       HGP2      1    LIG     H3     34      0.348      1.008   ;
    35      CG324      1    LIG    C24     35      0.171     12.011   ;
    36     CG2R61      1    LIG    C25     36      0.055     12.011   ;
    37     CG2R61      1    LIG    C26     37     -0.038     12.011   ;
    38     CG2R61      1    LIG    C27     38     -0.278     12.011   ;
    39     CG2R61      1    LIG    C28     39     -0.035     12.011   ;
    40     CG2R61      1    LIG    C29     40     -0.089     12.011   ;
    41     CG2R61      1    LIG    C30     41     -0.119     12.011   ;
    42      CG302      1    LIG    C31     42      0.605     12.011   ;
    43       FGA3      1    LIG     F1     43     -0.176     18.998   ;
    44       FGA3      1    LIG     F2     44     -0.176     18.998   ;
    45       FGA3      1    LIG     F3     45     -0.176     18.998   ;
    46      OG311      1    LIG     O5     46     -0.625     15.999   ;
    47       HGP1      1    LIG     H4     47      0.415      1.008   ;
    48       HGA1      1    LIG     HC     48      0.090      1.008   ;
    49      HGR61      1    LIG    HC1     49      0.116      1.008   ;
    50      HGR61      1    LIG    HC2     50      0.116      1.008   ;
    51      HGR61      1    LIG    HC3     51      0.116      1.008   ;
    52      HGR61      1    LIG    HC4     52      0.116      1.008   ;
    53      HGR61      1    LIG    HC5     53      0.207      1.008   ;
    54      HGR61      1    LIG    HC6     54      0.267      1.008   ;
    55      HGR61      1    LIG    HC7     55      0.134      1.008   ;
    56      HGR61      1    LIG    HC8     56      0.134      1.008   ;
    57       HGA2      1    LIG    HC9     57      0.090      1.008   ;
    58       HGA2      1    LIG   HC10     58      0.090      1.008   ;
    59      HGR61      1    LIG   HC11     59      0.116      1.008   ;
    60      HGR61      1    LIG   HC12     60      0.116      1.008   ;
    61      HGR61      1    LIG   HC13     61      0.116      1.008   ;
    62      HGR61      1    LIG   HC14     62      0.116      1.008   ;
    63      HGR61      1    LIG   HC15     63      0.116      1.008   ;
    64       HGA1      1    LIG   HC16     64      0.090      1.008   ;
    65       HGA2      1    LIG   HC17     65      0.090      1.008   ;
    66       HGA2      1    LIG   HC18     66      0.090      1.008   ;
    67       HGA2      1    LIG   HC19     67      0.090      1.008   ;
    68       HGA2      1    LIG   HC20     68      0.090      1.008   ;
    69      HGR61      1    LIG   HC21     69      0.116      1.008   ;
    70      HGR61      1    LIG   HC22     70      0.116      1.008   ;
    71      HGR61      1    LIG   HC23     71      0.116      1.008   ;
    72      HGR61      1    LIG   HC24     72      0.116      1.008   ;

[ bonds ]
;	ai	  aj funct			  c0			c1			  c2			c3
    1    30	 1 ;       CG311      CG311
    1    23	 1 ;       CG311      CG321
    1     2	 1 ;       CG311      NG2S1
    1    48	 1 ;       CG311       HGA1
    2     3	 1 ;       NG2S1      CG2O1
    2     5	 1 ;       NG2S1       HGP1
    3     4	 1 ;       CG2O1      OG2D1
    3     6	 1 ;       CG2O1     CG2R61
    6    11	 1 ;      CG2R61     CG2R61
    6     7	 1 ;      CG2R61     CG2R61
    7     8	 1 ;      CG2R61     CG2R61
    7    49	 1 ;      CG2R61      HGR61
    8     9	 1 ;      CG2R61     CG2R61
    8    12	 1 ;      CG2R61     NG3C51
    9    10	 1 ;      CG2R61     CG2R61
    9    50	 1 ;      CG2R61      HGR61
   10    11	 1 ;      CG2R61     CG2R61
   10    51	 1 ;      CG2R61      HGR61
   11    52	 1 ;      CG2R61      HGR61
   12    18	 1 ;      NG3C51      SG3O2
   12    13	 1 ;      NG3C51     CG2RC0
   13    14	 1 ;      CG2RC0     CG2RC0
   13    15	 1 ;      CG2RC0     CG2R61
   14    16	 1 ;      CG2RC0     OG3C51
   14    17	 1 ;      CG2RC0     CG2R61
   15    22	 1 ;      CG2R61     CG2R61
   15    53	 1 ;      CG2R61      HGR61
   16    18	 1 ;      OG3C51      SG3O2
   17    21	 1 ;      CG2R61     CG2R61
   17    54	 1 ;      CG2R61      HGR61
   18    19	 1 ;       SG3O2      OG2P1
   18    20	 1 ;       SG3O2      OG2P1
   21    22	 1 ;      CG2R61     CG2R61
   21    55	 1 ;      CG2R61      HGR61
   22    56	 1 ;      CG2R61      HGR61
   23    24	 1 ;       CG321     CG2R61
   23    57	 1 ;       CG321       HGA2
   23    58	 1 ;       CG321       HGA2
   24    29	 1 ;      CG2R61     CG2R61
   24    25	 1 ;      CG2R61     CG2R61
   25    26	 1 ;      CG2R61     CG2R61
   25    59	 1 ;      CG2R61      HGR61
   26    27	 1 ;      CG2R61     CG2R61
   26    60	 1 ;      CG2R61      HGR61
   27    28	 1 ;      CG2R61     CG2R61
   27    61	 1 ;      CG2R61      HGR61
   28    29	 1 ;      CG2R61     CG2R61
   28    62	 1 ;      CG2R61      HGR61
   29    63	 1 ;      CG2R61      HGR61
   30    46	 1 ;       CG311      OG311
   30    31	 1 ;       CG311      CG324
   30    64	 1 ;       CG311       HGA1
   31    32	 1 ;       CG324      NG3P2
   31    65	 1 ;       CG324       HGA2
   31    66	 1 ;       CG324       HGA2
   32    33	 1 ;       NG3P2       HGP2
   32    34	 1 ;       NG3P2       HGP2
   32    35	 1 ;       NG3P2      CG324
   35    36	 1 ;       CG324     CG2R61
   35    67	 1 ;       CG324       HGA2
   35    68	 1 ;       CG324       HGA2
   36    37	 1 ;      CG2R61     CG2R61
   36    41	 1 ;      CG2R61     CG2R61
   37    38	 1 ;      CG2R61     CG2R61
   37    69	 1 ;      CG2R61      HGR61
   38    42	 1 ;      CG2R61      CG302
   38    39	 1 ;      CG2R61     CG2R61
   39    40	 1 ;      CG2R61     CG2R61
   39    70	 1 ;      CG2R61      HGR61
   40    41	 1 ;      CG2R61     CG2R61
   40    71	 1 ;      CG2R61      HGR61
   41    72	 1 ;      CG2R61      HGR61
   42    44	 1 ;       CG302       FGA3
   42    45	 1 ;       CG302       FGA3
   42    43	 1 ;       CG302       FGA3
   46    47	 1 ;       OG311       HGP1

[ pairs ]
;	ai	  aj funct			  c0			c1			  c2			c3
    1     4	 1
    1     6	 1
    1    29	 1
    1    25	 1
    1    47	 1
    1    32	 1
    1    65	 1
    1    66	 1
    2    46	 1
    2    31	 1
    2    64	 1
    2    24	 1
    2    57	 1
    2    58	 1
    2    11	 1
    2     7	 1
    3    30	 1
    3    23	 1
    3    48	 1
    3    10	 1
    3    52	 1
    3     8	 1
    3    49	 1
    4     5	 1
    4    11	 1
    4     7	 1
    5    30	 1
    5    23	 1
    5    48	 1
    5     6	 1
    6     9	 1
    6    12	 1
    6    51	 1
    7    10	 1
    7    52	 1
    7    50	 1
    7    18	 1
    7    13	 1
    8    11	 1
    8    51	 1
    8    19	 1
    8    20	 1
    8    16	 1
    8    14	 1
    8    15	 1
    9    49	 1
    9    18	 1
    9    13	 1
    9    52	 1
   10    12	 1
   11    49	 1
   11    50	 1
   12    49	 1
   12    50	 1
   12    17	 1
   12    22	 1
   12    53	 1
   13    19	 1
   13    20	 1
   13    21	 1
   13    54	 1
   13    56	 1
   14    22	 1
   14    53	 1
   14    19	 1
   14    20	 1
   14    55	 1
   15    18	 1
   15    16	 1
   15    17	 1
   15    55	 1
   16    21	 1
   16    54	 1
   17    18	 1
   17    56	 1
   21    53	 1
   22    54	 1
   23    46	 1
   23    31	 1
   23    64	 1
   23    28	 1
   23    63	 1
   23    26	 1
   23    59	 1
   24    30	 1
   24    48	 1
   24    27	 1
   24    60	 1
   24    62	 1
   25    57	 1
   25    58	 1
   25    28	 1
   25    63	 1
   25    61	 1
   26    29	 1
   26    62	 1
   27    59	 1
   27    63	 1
   28    60	 1
   29    57	 1
   29    58	 1
   29    59	 1
   29    61	 1
   30    57	 1
   30    58	 1
   30    33	 1
   30    34	 1
   30    35	 1
   31    48	 1
   31    47	 1
   31    36	 1
   31    67	 1
   31    68	 1
   32    46	 1
   32    64	 1
   32    37	 1
   32    41	 1
   33    65	 1
   33    66	 1
   33    36	 1
   33    67	 1
   33    68	 1
   34    65	 1
   34    66	 1
   34    36	 1
   34    67	 1
   34    68	 1
   35    65	 1
   35    66	 1
   35    38	 1
   35    69	 1
   35    40	 1
   35    72	 1
   36    42	 1
   36    39	 1
   36    71	 1
   37    67	 1
   37    68	 1
   37    40	 1
   37    72	 1
   37    44	 1
   37    45	 1
   37    43	 1
   37    70	 1
   38    41	 1
   38    71	 1
   39    69	 1
   39    44	 1
   39    45	 1
   39    43	 1
   39    72	 1
   40    42	 1
   41    67	 1
   41    68	 1
   41    69	 1
   41    70	 1
   42    69	 1
   42    70	 1
   46    48	 1
   46    65	 1
   46    66	 1
   47    64	 1
   48    64	 1
   48    57	 1
   48    58	 1
   50    51	 1
   51    52	 1
   53    56	 1
   54    55	 1
   55    56	 1
   59    60	 1
   60    61	 1
   61    62	 1
   62    63	 1
   64    65	 1
   64    66	 1
   70    71	 1
   71    72	 1

[ angles ]
;	ai	  aj	ak funct			c0			  c1			c2			  c3
   30     1    23	5 ;      CG311      CG311      CG321
   30     1     2	5 ;      CG311      CG311      NG2S1
   30     1    48	5 ;      CG311      CG311       HGA1
   23     1     2	5 ;      CG321      CG311      NG2S1
   23     1    48	5 ;      CG321      CG311       HGA1
    2     1    48	5 ;      NG2S1      CG311       HGA1
    1     2     3	5 ;      CG311      NG2S1      CG2O1
    1     2     5	5 ;      CG311      NG2S1       HGP1
    3     2     5	5 ;      CG2O1      NG2S1       HGP1
    4     3     2	5 ;      OG2D1      CG2O1      NG2S1
    4     3     6	5 ;      OG2D1      CG2O1     CG2R61
    2     3     6	5 ;      NG2S1      CG2O1     CG2R61
    3     6    11	5 ;      CG2O1     CG2R61     CG2R61
    3     6     7	5 ;      CG2O1     CG2R61     CG2R61
   11     6     7	5 ;     CG2R61     CG2R61     CG2R61
    6     7     8	5 ;     CG2R61     CG2R61     CG2R61
    6     7    49	5 ;     CG2R61     CG2R61      HGR61
    8     7    49	5 ;     CG2R61     CG2R61      HGR61
    7     8     9	5 ;     CG2R61     CG2R61     CG2R61
    7     8    12	5 ;     CG2R61     CG2R61     NG3C51
    9     8    12	5 ;     CG2R61     CG2R61     NG3C51
   10     9     8	5 ;     CG2R61     CG2R61     CG2R61
   10     9    50	5 ;     CG2R61     CG2R61      HGR61
    8     9    50	5 ;     CG2R61     CG2R61      HGR61
   11    10     9	5 ;     CG2R61     CG2R61     CG2R61
   11    10    51	5 ;     CG2R61     CG2R61      HGR61
    9    10    51	5 ;     CG2R61     CG2R61      HGR61
    6    11    10	5 ;     CG2R61     CG2R61     CG2R61
    6    11    52	5 ;     CG2R61     CG2R61      HGR61
   10    11    52	5 ;     CG2R61     CG2R61      HGR61
    8    12    18	5 ;     CG2R61     NG3C51      SG3O2
    8    12    13	5 ;     CG2R61     NG3C51     CG2RC0
   18    12    13	5 ;      SG3O2     NG3C51     CG2RC0
   12    13    14	5 ;     NG3C51     CG2RC0     CG2RC0
   12    13    15	5 ;     NG3C51     CG2RC0     CG2R61
   14    13    15	5 ;     CG2RC0     CG2RC0     CG2R61
   16    14    13	5 ;     OG3C51     CG2RC0     CG2RC0
   16    14    17	5 ;     OG3C51     CG2RC0     CG2R61
   13    14    17	5 ;     CG2RC0     CG2RC0     CG2R61
   13    15    22	5 ;     CG2RC0     CG2R61     CG2R61
   13    15    53	5 ;     CG2RC0     CG2R61      HGR61
   22    15    53	5 ;     CG2R61     CG2R61      HGR61
   18    16    14	5 ;      SG3O2     OG3C51     CG2RC0
   14    17    21	5 ;     CG2RC0     CG2R61     CG2R61
   14    17    54	5 ;     CG2RC0     CG2R61      HGR61
   21    17    54	5 ;     CG2R61     CG2R61      HGR61
   19    18    20	5 ;      OG2P1      SG3O2      OG2P1
   19    18    12	5 ;      OG2P1      SG3O2     NG3C51
   19    18    16	5 ;      OG2P1      SG3O2     OG3C51
   20    18    12	5 ;      OG2P1      SG3O2     NG3C51
   20    18    16	5 ;      OG2P1      SG3O2     OG3C51
   12    18    16	5 ;     NG3C51      SG3O2     OG3C51
   17    21    22	5 ;     CG2R61     CG2R61     CG2R61
   17    21    55	5 ;     CG2R61     CG2R61      HGR61
   22    21    55	5 ;     CG2R61     CG2R61      HGR61
   15    22    21	5 ;     CG2R61     CG2R61     CG2R61
   15    22    56	5 ;     CG2R61     CG2R61      HGR61
   21    22    56	5 ;     CG2R61     CG2R61      HGR61
    1    23    24	5 ;      CG311      CG321     CG2R61
    1    23    57	5 ;      CG311      CG321       HGA2
    1    23    58	5 ;      CG311      CG321       HGA2
   24    23    57	5 ;     CG2R61      CG321       HGA2
   24    23    58	5 ;     CG2R61      CG321       HGA2
   57    23    58	5 ;       HGA2      CG321       HGA2
   29    24    23	5 ;     CG2R61     CG2R61      CG321
   29    24    25	5 ;     CG2R61     CG2R61     CG2R61
   23    24    25	5 ;      CG321     CG2R61     CG2R61
   24    25    26	5 ;     CG2R61     CG2R61     CG2R61
   24    25    59	5 ;     CG2R61     CG2R61      HGR61
   26    25    59	5 ;     CG2R61     CG2R61      HGR61
   27    26    25	5 ;     CG2R61     CG2R61     CG2R61
   27    26    60	5 ;     CG2R61     CG2R61      HGR61
   25    26    60	5 ;     CG2R61     CG2R61      HGR61
   28    27    26	5 ;     CG2R61     CG2R61     CG2R61
   28    27    61	5 ;     CG2R61     CG2R61      HGR61
   26    27    61	5 ;     CG2R61     CG2R61      HGR61
   29    28    27	5 ;     CG2R61     CG2R61     CG2R61
   29    28    62	5 ;     CG2R61     CG2R61      HGR61
   27    28    62	5 ;     CG2R61     CG2R61      HGR61
   28    29    24	5 ;     CG2R61     CG2R61     CG2R61
   28    29    63	5 ;     CG2R61     CG2R61      HGR61
   24    29    63	5 ;     CG2R61     CG2R61      HGR61
   46    30    31	5 ;      OG311      CG311      CG324
   46    30     1	5 ;      OG311      CG311      CG311
   46    30    64	5 ;      OG311      CG311       HGA1
   31    30     1	5 ;      CG324      CG311      CG311
   31    30    64	5 ;      CG324      CG311       HGA1
    1    30    64	5 ;      CG311      CG311       HGA1
   30    31    32	5 ;      CG311      CG324      NG3P2
   30    31    65	5 ;      CG311      CG324       HGA2
   30    31    66	5 ;      CG311      CG324       HGA2
   32    31    65	5 ;      NG3P2      CG324       HGA2
   32    31    66	5 ;      NG3P2      CG324       HGA2
   65    31    66	5 ;       HGA2      CG324       HGA2
   31    32    33	5 ;      CG324      NG3P2       HGP2
   31    32    34	5 ;      CG324      NG3P2       HGP2
   31    32    35	5 ;      CG324      NG3P2      CG324
   33    32    34	5 ;       HGP2      NG3P2       HGP2
   33    32    35	5 ;       HGP2      NG3P2      CG324
   34    32    35	5 ;       HGP2      NG3P2      CG324
   32    35    36	5 ;      NG3P2      CG324     CG2R61
   32    35    67	5 ;      NG3P2      CG324       HGA2
   32    35    68	5 ;      NG3P2      CG324       HGA2
   36    35    67	5 ;     CG2R61      CG324       HGA2
   36    35    68	5 ;     CG2R61      CG324       HGA2
   67    35    68	5 ;       HGA2      CG324       HGA2
   37    36    41	5 ;     CG2R61     CG2R61     CG2R61
   37    36    35	5 ;     CG2R61     CG2R61      CG324
   41    36    35	5 ;     CG2R61     CG2R61      CG324
   38    37    36	5 ;     CG2R61     CG2R61     CG2R61
   38    37    69	5 ;     CG2R61     CG2R61      HGR61
   36    37    69	5 ;     CG2R61     CG2R61      HGR61
   42    38    39	5 ;      CG302     CG2R61     CG2R61
   42    38    37	5 ;      CG302     CG2R61     CG2R61
   39    38    37	5 ;     CG2R61     CG2R61     CG2R61
   38    39    40	5 ;     CG2R61     CG2R61     CG2R61
   38    39    70	5 ;     CG2R61     CG2R61      HGR61
   40    39    70	5 ;     CG2R61     CG2R61      HGR61
   39    40    41	5 ;     CG2R61     CG2R61     CG2R61
   39    40    71	5 ;     CG2R61     CG2R61      HGR61
   41    40    71	5 ;     CG2R61     CG2R61      HGR61
   40    41    36	5 ;     CG2R61     CG2R61     CG2R61
   40    41    72	5 ;     CG2R61     CG2R61      HGR61
   36    41    72	5 ;     CG2R61     CG2R61      HGR61
   44    42    45	5 ;       FGA3      CG302       FGA3
   44    42    38	5 ;       FGA3      CG302     CG2R61
   44    42    43	5 ;       FGA3      CG302       FGA3
   45    42    38	5 ;       FGA3      CG302     CG2R61
   45    42    43	5 ;       FGA3      CG302       FGA3
   38    42    43	5 ;     CG2R61      CG302       FGA3
   47    46    30	5 ;       HGP1      OG311      CG311

[ dihedrals ]
;	ai	  aj	ak	  al funct			  c0			c1			  c2			c3			  c4			c5
   23     1    30    46	 9 ;      CG321      CG311      CG311      OG311
   23     1    30    31	 9 ;      CG321      CG311      CG311      CG324
   23     1    30    64	 9 ;      CG321      CG311      CG311       HGA1
    2     1    30    46	 9 ;      NG2S1      CG311      CG311      OG311
    2     1    30    31	 9 ;      NG2S1      CG311      CG311      CG324
    2     1    30    64	 9 ;      NG2S1      CG311      CG311       HGA1
   48     1    30    46	 9 ;       HGA1      CG311      CG311      OG311
   48     1    30    31	 9 ;       HGA1      CG311      CG311      CG324
   48     1    30    64	 9 ;       HGA1      CG311      CG311       HGA1
   30     1    23    24	 9 ;      CG311      CG311      CG321     CG2R61
   30     1    23    57	 9 ;      CG311      CG311      CG321       HGA2
   30     1    23    58	 9 ;      CG311      CG311      CG321       HGA2
    2     1    23    24	 9 ;      NG2S1      CG311      CG321     CG2R61
    2     1    23    57	 9 ;      NG2S1      CG311      CG321       HGA2
    2     1    23    58	 9 ;      NG2S1      CG311      CG321       HGA2
   48     1    23    24	 9 ;       HGA1      CG311      CG321     CG2R61
   48     1    23    57	 9 ;       HGA1      CG311      CG321       HGA2
   48     1    23    58	 9 ;       HGA1      CG311      CG321       HGA2
   30     1     2     3	 9 ;      CG311      CG311      NG2S1      CG2O1
   30     1     2     5	 9 ;      CG311      CG311      NG2S1       HGP1
   23     1     2     3	 9 ;      CG321      CG311      NG2S1      CG2O1
   23     1     2     5	 9 ;      CG321      CG311      NG2S1       HGP1
   48     1     2     3	 9 ;       HGA1      CG311      NG2S1      CG2O1
   48     1     2     5	 9 ;       HGA1      CG311      NG2S1       HGP1
    1     2     3     4	 9 ;      CG311      NG2S1      CG2O1      OG2D1
    1     2     3     6	 9 ;      CG311      NG2S1      CG2O1     CG2R61
    5     2     3     4	 9 ;       HGP1      NG2S1      CG2O1      OG2D1
    5     2     3     6	 9 ;       HGP1      NG2S1      CG2O1     CG2R61
    4     3     6    11	 9 ;      OG2D1      CG2O1     CG2R61     CG2R61
    4     3     6     7	 9 ;      OG2D1      CG2O1     CG2R61     CG2R61
    2     3     6    11	 9 ;      NG2S1      CG2O1     CG2R61     CG2R61
    2     3     6     7	 9 ;      NG2S1      CG2O1     CG2R61     CG2R61
    3     6    11    10	 9 ;      CG2O1     CG2R61     CG2R61     CG2R61
    3     6    11    52	 9 ;      CG2O1     CG2R61     CG2R61      HGR61
    7     6    11    10	 9 ;     CG2R61     CG2R61     CG2R61     CG2R61
    7     6    11    52	 9 ;     CG2R61     CG2R61     CG2R61      HGR61
    3     6     7     8	 9 ;      CG2O1     CG2R61     CG2R61     CG2R61
    3     6     7    49	 9 ;      CG2O1     CG2R61     CG2R61      HGR61
   11     6     7     8	 9 ;     CG2R61     CG2R61     CG2R61     CG2R61
   11     6     7    49	 9 ;     CG2R61     CG2R61     CG2R61      HGR61
    6     7     8     9	 9 ;     CG2R61     CG2R61     CG2R61     CG2R61
    6     7     8    12	 9 ;     CG2R61     CG2R61     CG2R61     NG3C51
   49     7     8     9	 9 ;      HGR61     CG2R61     CG2R61     CG2R61
   49     7     8    12	 9 ;      HGR61     CG2R61     CG2R61     NG3C51
    7     8     9    10	 9 ;     CG2R61     CG2R61     CG2R61     CG2R61
    7     8     9    50	 9 ;     CG2R61     CG2R61     CG2R61      HGR61
   12     8     9    10	 9 ;     NG3C51     CG2R61     CG2R61     CG2R61
   12     8     9    50	 9 ;     NG3C51     CG2R61     CG2R61      HGR61
    7     8    12    18	 9 ;     CG2R61     CG2R61     NG3C51      SG3O2
    7     8    12    13	 9 ;     CG2R61     CG2R61     NG3C51     CG2RC0
    9     8    12    18	 9 ;     CG2R61     CG2R61     NG3C51      SG3O2
    9     8    12    13	 9 ;     CG2R61     CG2R61     NG3C51     CG2RC0
    8     9    10    11	 9 ;     CG2R61     CG2R61     CG2R61     CG2R61
    8     9    10    51	 9 ;     CG2R61     CG2R61     CG2R61      HGR61
   50     9    10    11	 9 ;      HGR61     CG2R61     CG2R61     CG2R61
   50     9    10    51	 9 ;      HGR61     CG2R61     CG2R61      HGR61
    9    10    11     6	 9 ;     CG2R61     CG2R61     CG2R61     CG2R61
    9    10    11    52	 9 ;     CG2R61     CG2R61     CG2R61      HGR61
   51    10    11     6	 9 ;      HGR61     CG2R61     CG2R61     CG2R61
   51    10    11    52	 9 ;      HGR61     CG2R61     CG2R61      HGR61
    8    12    18    19	 9 ;     CG2R61     NG3C51      SG3O2      OG2P1
    8    12    18    20	 9 ;     CG2R61     NG3C51      SG3O2      OG2P1
    8    12    18    16	 9 ;     CG2R61     NG3C51      SG3O2     OG3C51
   13    12    18    19	 9 ;     CG2RC0     NG3C51      SG3O2      OG2P1
   13    12    18    20	 9 ;     CG2RC0     NG3C51      SG3O2      OG2P1
   13    12    18    16	 9 ;     CG2RC0     NG3C51      SG3O2     OG3C51
    8    12    13    14	 9 ;     CG2R61     NG3C51     CG2RC0     CG2RC0
    8    12    13    15	 9 ;     CG2R61     NG3C51     CG2RC0     CG2R61
   18    12    13    14	 9 ;      SG3O2     NG3C51     CG2RC0     CG2RC0
   18    12    13    15	 9 ;      SG3O2     NG3C51     CG2RC0     CG2R61
   12    13    14    16	 9 ;     NG3C51     CG2RC0     CG2RC0     OG3C51
   12    13    14    17	 9 ;     NG3C51     CG2RC0     CG2RC0     CG2R61
   15    13    14    16	 9 ;     CG2R61     CG2RC0     CG2RC0     OG3C51
   15    13    14    17	 9 ;     CG2R61     CG2RC0     CG2RC0     CG2R61
   12    13    15    22	 9 ;     NG3C51     CG2RC0     CG2R61     CG2R61
   12    13    15    53	 9 ;     NG3C51     CG2RC0     CG2R61      HGR61
   14    13    15    22	 9 ;     CG2RC0     CG2RC0     CG2R61     CG2R61
   14    13    15    53	 9 ;     CG2RC0     CG2RC0     CG2R61      HGR61
   13    14    16    18	 9 ;     CG2RC0     CG2RC0     OG3C51      SG3O2
   17    14    16    18	 9 ;     CG2R61     CG2RC0     OG3C51      SG3O2
   16    14    17    21	 9 ;     OG3C51     CG2RC0     CG2R61     CG2R61
   16    14    17    54	 9 ;     OG3C51     CG2RC0     CG2R61      HGR61
   13    14    17    21	 9 ;     CG2RC0     CG2RC0     CG2R61     CG2R61
   13    14    17    54	 9 ;     CG2RC0     CG2RC0     CG2R61      HGR61
   13    15    22    21	 9 ;     CG2RC0     CG2R61     CG2R61     CG2R61
   13    15    22    56	 9 ;     CG2RC0     CG2R61     CG2R61      HGR61
   53    15    22    21	 9 ;      HGR61     CG2R61     CG2R61     CG2R61
   53    15    22    56	 9 ;      HGR61     CG2R61     CG2R61      HGR61
   14    16    18    19	 9 ;     CG2RC0     OG3C51      SG3O2      OG2P1
   14    16    18    20	 9 ;     CG2RC0     OG3C51      SG3O2      OG2P1
   14    16    18    12	 9 ;     CG2RC0     OG3C51      SG3O2     NG3C51
   14    17    21    22	 9 ;     CG2RC0     CG2R61     CG2R61     CG2R61
   14    17    21    55	 9 ;     CG2RC0     CG2R61     CG2R61      HGR61
   54    17    21    22	 9 ;      HGR61     CG2R61     CG2R61     CG2R61
   54    17    21    55	 9 ;      HGR61     CG2R61     CG2R61      HGR61
   17    21    22    15	 9 ;     CG2R61     CG2R61     CG2R61     CG2R61
   17    21    22    56	 9 ;     CG2R61     CG2R61     CG2R61      HGR61
   55    21    22    15	 9 ;      HGR61     CG2R61     CG2R61     CG2R61
   55    21    22    56	 9 ;      HGR61     CG2R61     CG2R61      HGR61
    1    23    24    29	 9 ;      CG311      CG321     CG2R61     CG2R61
    1    23    24    25	 9 ;      CG311      CG321     CG2R61     CG2R61
   57    23    24    29	 9 ;       HGA2      CG321     CG2R61     CG2R61
   57    23    24    25	 9 ;       HGA2      CG321     CG2R61     CG2R61
   58    23    24    29	 9 ;       HGA2      CG321     CG2R61     CG2R61
   58    23    24    25	 9 ;       HGA2      CG321     CG2R61     CG2R61
   23    24    29    28	 9 ;      CG321     CG2R61     CG2R61     CG2R61
   23    24    29    63	 9 ;      CG321     CG2R61     CG2R61      HGR61
   25    24    29    28	 9 ;     CG2R61     CG2R61     CG2R61     CG2R61
   25    24    29    63	 9 ;     CG2R61     CG2R61     CG2R61      HGR61
   29    24    25    26	 9 ;     CG2R61     CG2R61     CG2R61     CG2R61
   29    24    25    59	 9 ;     CG2R61     CG2R61     CG2R61      HGR61
   23    24    25    26	 9 ;      CG321     CG2R61     CG2R61     CG2R61
   23    24    25    59	 9 ;      CG321     CG2R61     CG2R61      HGR61
   24    25    26    27	 9 ;     CG2R61     CG2R61     CG2R61     CG2R61
   24    25    26    60	 9 ;     CG2R61     CG2R61     CG2R61      HGR61
   59    25    26    27	 9 ;      HGR61     CG2R61     CG2R61     CG2R61
   59    25    26    60	 9 ;      HGR61     CG2R61     CG2R61      HGR61
   25    26    27    28	 9 ;     CG2R61     CG2R61     CG2R61     CG2R61
   25    26    27    61	 9 ;     CG2R61     CG2R61     CG2R61      HGR61
   60    26    27    28	 9 ;      HGR61     CG2R61     CG2R61     CG2R61
   60    26    27    61	 9 ;      HGR61     CG2R61     CG2R61      HGR61
   26    27    28    29	 9 ;     CG2R61     CG2R61     CG2R61     CG2R61
   26    27    28    62	 9 ;     CG2R61     CG2R61     CG2R61      HGR61
   61    27    28    29	 9 ;      HGR61     CG2R61     CG2R61     CG2R61
   61    27    28    62	 9 ;      HGR61     CG2R61     CG2R61      HGR61
   27    28    29    24	 9 ;     CG2R61     CG2R61     CG2R61     CG2R61
   27    28    29    63	 9 ;     CG2R61     CG2R61     CG2R61      HGR61
   62    28    29    24	 9 ;      HGR61     CG2R61     CG2R61     CG2R61
   62    28    29    63	 9 ;      HGR61     CG2R61     CG2R61      HGR61
   31    30    46    47	 9 ;      CG324      CG311      OG311       HGP1
    1    30    46    47	 9 ;      CG311      CG311      OG311       HGP1
   64    30    46    47	 9 ;       HGA1      CG311      OG311       HGP1
   46    30    31    32	 9 ;      OG311      CG311      CG324      NG3P2
   46    30    31    65	 9 ;      OG311      CG311      CG324       HGA2
   46    30    31    66	 9 ;      OG311      CG311      CG324       HGA2
    1    30    31    32	 9 ;      CG311      CG311      CG324      NG3P2
    1    30    31    65	 9 ;      CG311      CG311      CG324       HGA2
    1    30    31    66	 9 ;      CG311      CG311      CG324       HGA2
   64    30    31    32	 9 ;       HGA1      CG311      CG324      NG3P2
   64    30    31    65	 9 ;       HGA1      CG311      CG324       HGA2
   64    30    31    66	 9 ;       HGA1      CG311      CG324       HGA2
   30    31    32    33	 9 ;      CG311      CG324      NG3P2       HGP2
   30    31    32    34	 9 ;      CG311      CG324      NG3P2       HGP2
   30    31    32    35	 9 ;      CG311      CG324      NG3P2      CG324
   65    31    32    33	 9 ;       HGA2      CG324      NG3P2       HGP2
   65    31    32    34	 9 ;       HGA2      CG324      NG3P2       HGP2
   65    31    32    35	 9 ;       HGA2      CG324      NG3P2      CG324
   66    31    32    33	 9 ;       HGA2      CG324      NG3P2       HGP2
   66    31    32    34	 9 ;       HGA2      CG324      NG3P2       HGP2
   66    31    32    35	 9 ;       HGA2      CG324      NG3P2      CG324
   31    32    35    36	 9 ;      CG324      NG3P2      CG324     CG2R61
   31    32    35    67	 9 ;      CG324      NG3P2      CG324       HGA2
   31    32    35    68	 9 ;      CG324      NG3P2      CG324       HGA2
   33    32    35    36	 9 ;       HGP2      NG3P2      CG324     CG2R61
   33    32    35    67	 9 ;       HGP2      NG3P2      CG324       HGA2
   33    32    35    68	 9 ;       HGP2      NG3P2      CG324       HGA2
   34    32    35    36	 9 ;       HGP2      NG3P2      CG324     CG2R61
   34    32    35    67	 9 ;       HGP2      NG3P2      CG324       HGA2
   34    32    35    68	 9 ;       HGP2      NG3P2      CG324       HGA2
   32    35    36    37	 9 ;      NG3P2      CG324     CG2R61     CG2R61
   32    35    36    41	 9 ;      NG3P2      CG324     CG2R61     CG2R61
   67    35    36    37	 9 ;       HGA2      CG324     CG2R61     CG2R61
   67    35    36    41	 9 ;       HGA2      CG324     CG2R61     CG2R61
   68    35    36    37	 9 ;       HGA2      CG324     CG2R61     CG2R61
   68    35    36    41	 9 ;       HGA2      CG324     CG2R61     CG2R61
   41    36    37    38	 9 ;     CG2R61     CG2R61     CG2R61     CG2R61
   41    36    37    69	 9 ;     CG2R61     CG2R61     CG2R61      HGR61
   35    36    37    38	 9 ;      CG324     CG2R61     CG2R61     CG2R61
   35    36    37    69	 9 ;      CG324     CG2R61     CG2R61      HGR61
   37    36    41    40	 9 ;     CG2R61     CG2R61     CG2R61     CG2R61
   37    36    41    72	 9 ;     CG2R61     CG2R61     CG2R61      HGR61
   35    36    41    40	 9 ;      CG324     CG2R61     CG2R61     CG2R61
   35    36    41    72	 9 ;      CG324     CG2R61     CG2R61      HGR61
   36    37    38    42	 9 ;     CG2R61     CG2R61     CG2R61      CG302
   36    37    38    39	 9 ;     CG2R61     CG2R61     CG2R61     CG2R61
   69    37    38    42	 9 ;      HGR61     CG2R61     CG2R61      CG302
   69    37    38    39	 9 ;      HGR61     CG2R61     CG2R61     CG2R61
   39    38    42    44	 9 ;     CG2R61     CG2R61      CG302       FGA3
   39    38    42    45	 9 ;     CG2R61     CG2R61      CG302       FGA3
   39    38    42    43	 9 ;     CG2R61     CG2R61      CG302       FGA3
   37    38    42    44	 9 ;     CG2R61     CG2R61      CG302       FGA3
   37    38    42    45	 9 ;     CG2R61     CG2R61      CG302       FGA3
   37    38    42    43	 9 ;     CG2R61     CG2R61      CG302       FGA3
   42    38    39    40	 9 ;      CG302     CG2R61     CG2R61     CG2R61
   42    38    39    70	 9 ;      CG302     CG2R61     CG2R61      HGR61
   37    38    39    40	 9 ;     CG2R61     CG2R61     CG2R61     CG2R61
   37    38    39    70	 9 ;     CG2R61     CG2R61     CG2R61      HGR61
   38    39    40    41	 9 ;     CG2R61     CG2R61     CG2R61     CG2R61
   38    39    40    71	 9 ;     CG2R61     CG2R61     CG2R61      HGR61
   70    39    40    41	 9 ;      HGR61     CG2R61     CG2R61     CG2R61
   70    39    40    71	 9 ;      HGR61     CG2R61     CG2R61      HGR61
   39    40    41    36	 9 ;     CG2R61     CG2R61     CG2R61     CG2R61
   39    40    41    72	 9 ;     CG2R61     CG2R61     CG2R61      HGR61
   71    40    41    36	 9 ;      HGR61     CG2R61     CG2R61     CG2R61
   71    40    41    72	 9 ;      HGR61     CG2R61     CG2R61      HGR61

[ dihedrals ]
;	ai	  aj	ak	  al funct			  c0			c1			  c2			c3
    3     6     2     4	 2

