Gnomes, ROck Monsters And Chili Sauce
   72
    1LIG     C1    1  -1.338   0.716  -1.553
    1LIG     N1    2  -1.431   0.605  -1.527
    1LIG     C2    3  -1.459   0.508  -1.621
    1LIG     O1    4  -1.393   0.496  -1.724
    1LIG     H1    5  -1.492   0.612  -1.446
    1LIG     C3    6  -1.576   0.420  -1.593
    1LIG     C4    7  -1.684   0.460  -1.513
    1LIG     C5    8  -1.796   0.376  -1.500
    1LIG     C6    9  -1.797   0.253  -1.566
    1LIG     C7   10  -1.689   0.211  -1.643
    1LIG     C8   11  -1.578   0.295  -1.657
    1LIG     N2   12  -1.918   0.417  -1.441
    1LIG     C9   13  -1.977   0.366  -1.322
    1LIG    C10   14  -2.073   0.454  -1.270
    1LIG    C11   15  -1.967   0.237  -1.272
    1LIG     O2   16  -2.077   0.578  -1.330
    1LIG    C12   17  -2.159   0.419  -1.167
    1LIG      S   18  -1.954   0.584  -1.439
    1LIG     O3   19  -2.003   0.623  -1.569
    1LIG     O4   20  -1.842   0.653  -1.377
    1LIG    C13   21  -2.147   0.290  -1.115
    1LIG    C14   22  -2.052   0.200  -1.166
    1LIG    C15   23  -1.413   0.853  -1.548
    1LIG    C16   24  -1.534   0.858  -1.639
    1LIG    C17   25  -1.663   0.873  -1.586
    1LIG    C18   26  -1.775   0.866  -1.670
    1LIG    C19   27  -1.758   0.847  -1.807
    1LIG    C20   28  -1.630   0.836  -1.861
    1LIG    C21   29  -1.518   0.843  -1.777
    1LIG    C22   30  -1.219   0.710  -1.455
    1LIG    C23   31  -1.129   0.587  -1.478
    1LIG     N3   32  -1.108   0.518  -1.345
    1LIG     H2   33  -1.012   0.482  -1.339
    1LIG     H3   34  -1.117   0.592  -1.273
    1LIG    C24   35  -1.204   0.409  -1.313
    1LIG    C25   36  -1.175   0.285  -1.391
    1LIG    C26   37  -1.058   0.211  -1.366
    1LIG    C27   38  -1.026   0.098  -1.442
    1LIG    C28   39  -1.114   0.059  -1.544
    1LIG    C29   40  -1.230   0.131  -1.569
    1LIG    C30   41  -1.261   0.244  -1.494
    1LIG    C31   42  -0.899   0.020  -1.418
    1LIG     F1   43  -0.915  -0.079  -1.325
    1LIG     F2   44  -0.852  -0.040  -1.530
    1LIG     F3   45  -0.799   0.099  -1.371
    1LIG     O5   46  -1.130   0.823  -1.457
    1LIG     H4   47  -1.118   0.859  -1.366
    1LIG     HC   48  -1.298   0.704  -1.654
    1LIG    HC1   49  -1.681   0.555  -1.462
    1LIG    HC2   50  -1.884   0.189  -1.557
    1LIG    HC3   51  -1.690   0.115  -1.691
    1LIG    HC4   52  -1.494   0.263  -1.716
    1LIG    HC5   53  -1.896   0.167  -1.313
    1LIG    HC6   54  -2.233   0.488  -1.129
    1LIG    HC7   55  -2.212   0.258  -1.035
    1LIG    HC8   56  -2.044   0.101  -1.124
    1LIG    HC9   57  -1.344   0.931  -1.579
    1LIG   HC10   58  -1.444   0.872  -1.446
    1LIG   HC11   59  -1.677   0.888  -1.480
    1LIG   HC12   60  -1.874   0.877  -1.629
    1LIG   HC13   61  -1.844   0.839  -1.872
    1LIG   HC14   62  -1.617   0.823  -1.967
    1LIG   HC15   63  -1.419   0.837  -1.819
    1LIG   HC16   64  -1.260   0.702  -1.355
    1LIG   HC17   65  -1.033   0.618  -1.519
    1LIG   HC18   66  -1.179   0.518  -1.547
    1LIG   HC19   67  -1.197   0.387  -1.206
    1LIG   HC20   68  -1.306   0.443  -1.336
    1LIG   HC21   69  -0.992   0.242  -1.286
    1LIG   HC22   70  -1.091  -0.029  -1.604
    1LIG   HC23   71  -1.298   0.099  -1.648
    1LIG   HC24   72  -1.350   0.300  -1.515
   0.00000   0.00000   0.00000
