Great Red Oystrich Makes All Chemists Sane
   55
    1LIG     C1    1  -1.283   0.325  -1.594
    1LIG     N1    2  -1.203   0.434  -1.529
    1LIG    HN3    3  -1.210   0.467  -1.432
    1LIG     C2    4  -1.124   0.478  -1.621
    1LIG     N2    5  -1.127   0.415  -1.739
    1LIG     C3    6  -1.058   0.452  -1.860
    1LIG     C4    7  -1.214   0.309  -1.730
    1LIG      O    8  -1.232   0.223  -1.815
    1LIG     C5    9  -1.283   0.203  -1.507
    1LIG     C6   10  -1.327   0.076  -1.539
    1LIG     N3   11  -1.286  -0.006  -1.439
    1LIG     N4   12  -1.234   0.060  -1.334
    1LIG     C7   13  -1.230   0.187  -1.376
    1LIG    HN4   14  -1.203   0.022  -1.245
    1LIG     C8   15  -1.282  -0.151  -1.445
    1LIG     C9   16  -1.140  -0.200  -1.473
    1LIG    C10   17  -1.431   0.363  -1.606
    1LIG    C11   18  -1.512   0.387  -1.492
    1LIG    C12   19  -1.650   0.417  -1.502
    1LIG    C13   20  -1.705   0.425  -1.631
    1LIG    C14   21  -1.627   0.406  -1.745
    1LIG    C15   22  -1.491   0.376  -1.732
    1LIG    C16   23  -1.732   0.437  -1.381
    1LIG    C17   24  -1.679   0.494  -1.264
    1LIG    C18   25  -1.759   0.510  -1.150
    1LIG    C19   26  -1.891   0.470  -1.156
    1LIG     N5   27  -1.948   0.417  -1.266
    1LIG    C20   28  -1.868   0.401  -1.374
    1LIG    HN5   29  -2.046   0.389  -1.267
    1LIG      F   30  -1.926   0.345  -1.481
    1LIG     N6   31  -1.039   0.581  -1.597
    1LIG     H1   32  -1.080   0.671  -1.621
    1LIG     H2   33  -0.993   0.582  -1.507
    1LIG    HN2   34  -1.134   0.366  -1.501
    1LIG     HC   35  -1.200   0.548  -1.655
    1LIG    HC1   36  -1.383   0.048  -1.627
    1LIG    HC2   37  -1.191   0.268  -1.316
    1LIG    HC3   38  -1.315  -0.192  -1.349
    1LIG    HC4   39  -1.348  -0.186  -1.524
    1LIG    HC5   40  -1.467   0.382  -1.394
    1LIG    HC6   41  -1.810   0.447  -1.642
    1LIG    HC7   42  -1.671   0.415  -1.843
    1LIG    HC8   43  -1.431   0.363  -1.821
    1LIG    HC9   44  -1.576   0.525  -1.262
    1LIG   HC10   45  -1.718   0.553  -1.060
    1LIG   HC11   46  -1.952   0.483  -1.068
    1LIG    HN1   47  -0.964   0.568  -1.663
    1LIG   HC12   48  -1.140  -0.309  -1.477
    1LIG   HC13   49  -1.107  -0.160  -1.569
    1LIG   HC14   50  -1.074  -0.167  -1.394
    1LIG   HC15   51  -1.081   0.381  -1.939
    1LIG   HC16   52  -0.950   0.452  -1.842
    1LIG   HC17   53  -1.089   0.552  -1.891
    1LIG    H26   54  -1.234   0.057  -1.593
    1LIG    H27   55  -1.919   0.570  -1.191
   0.00000   0.00000   0.00000
