GROningen MAchine for Chemical Simulation
   53
    1LIG     C1    1  -1.386   0.419  -1.516
    1LIG     C2    2  -1.519   0.390  -1.485
    1LIG     C3    3  -1.622   0.466  -1.539
    1LIG     C4    4  -1.596   0.540  -1.654
    1LIG     O1    5  -1.705   0.581  -1.729
    1LIG     C5    6  -1.791   0.661  -1.653
    1LIG     C6    7  -1.785   0.645  -1.513
    1LIG     C7    8  -1.764   0.765  -1.442
    1LIG     C8    9  -1.772   0.889  -1.510
    1LIG     C9   10  -1.812   0.894  -1.645
    1LIG    C10   11  -1.825   0.778  -1.718
    1LIG    C11   12  -1.752   0.500  -1.467
    1LIG     N1   13  -1.735   0.483  -1.319
    1LIG     HN   14  -1.699   0.550  -1.251
    1LIG    C12   15  -1.779   0.362  -1.300
    1LIG     O2   16  -1.842   0.296  -1.400
    1LIG    C13   17  -1.858   0.394  -1.502
    1LIG    C14   18  -1.469   0.588  -1.673
    1LIG    C15   19  -1.365   0.533  -1.597
    1LIG    C16   20  -1.276   0.333  -1.469
    1LIG    C17   21  -1.263   0.199  -1.512
    1LIG    C18   22  -1.148   0.123  -1.486
    1LIG     CL   23  -1.142  -0.037  -1.551
    1LIG    C19   24  -1.042   0.179  -1.413
    1LIG    C20   25  -1.057   0.309  -1.364
    1LIG    C21   26  -0.914   0.108  -1.384
    1LIG    C22   27  -1.170   0.384  -1.393
    1LIG      F   28  -1.171   0.511  -1.349
    1LIG     N2   29  -1.764   0.288  -1.188
    1LIG     H1   30  -1.852   0.258  -1.148
    1LIG     H2   31  -1.701   0.329  -1.120
    1LIG     O3   32  -1.737   1.014  -1.467
    1LIG    C23   33  -1.802   1.075  -1.358
    1LIG     HC   34  -1.542   0.308  -1.418
    1LIG    HC1   35  -1.742   0.763  -1.336
    1LIG    HC2   36  -1.833   0.989  -1.691
    1LIG    HC3   37  -1.859   0.779  -1.821
    1LIG    HN2   38  -1.642   0.447  -1.334
    1LIG    HC4   39  -1.875   0.401  -1.263
    1LIG    HC5   40  -1.839   0.352  -1.600
    1LIG    HC6   41  -1.958   0.437  -1.498
    1LIG    HC7   42  -1.449   0.666  -1.745
    1LIG    HC8   43  -1.267   0.578  -1.601
    1LIG    HC9   44  -1.345   0.153  -1.566
    1LIG   HC10   45  -0.978   0.352  -1.303
    1LIG   HC11   46  -0.849   0.173  -1.326
    1LIG   HC12   47  -0.864   0.081  -1.477
    1LIG   HC13   48  -0.934   0.017  -1.327
    1LIG    HN1   49  -1.719   0.203  -1.219
    1LIG   HC14   50  -1.759   1.173  -1.340
    1LIG   HC15   51  -1.789   1.013  -1.269
    1LIG   HC16   52  -1.908   1.085  -1.380
    1LIG    LP1   53  -1.136  -0.189  -1.612
   0.00000   0.00000   0.00000
