; Created by cgenff_charmm2gmx.py

[ moleculetype ]
; Name			   nrexcl
LIG				 3

[ atoms ]
;	 nr		  type	resnr residue  atom   cgnr	   charge		mass  typeB    chargeB		massB
; residue	 1 LIG rtp LIG q	qsum
     1      CG2O1      1    LIG     C1      1      0.494     12.011   ;
     2      OG2D1      1    LIG     O1      2     -0.509     15.999   ;
     3      NG2S1      1    LIG     N1      3     -0.401     14.007   ;
     4       HGP1      1    LIG     H1      4      0.269      1.008   ;
     5      CG311      1    LIG     C2      5     -0.042     12.011   ;
     6      CG321      1    LIG     C3      6     -0.101     12.011   ;
     7      CG311      1    LIG     C4      7     -0.109     12.011   ;
     8      CG331      1    LIG     C5      8     -0.268     12.011   ;
     9      CG331      1    LIG     C6      9     -0.268     12.011   ;
    10      CG311      1    LIG     C7     10      0.119     12.011   ;
    11      CG321      1    LIG     C8     11     -0.187     12.011   ;
    12      CG311      1    LIG     C9     12     -0.033     12.011   ;
    13      CG331      1    LIG    C10     13     -0.266     12.011   ;
    14      CG2O1      1    LIG    C11     14      0.492     12.011   ;
    15      OG2D1      1    LIG     O2     15     -0.514     15.999   ;
    16      NG2S1      1    LIG     N2     16     -0.457     14.007   ;
    17       HGP1      1    LIG     H2     17      0.305      1.008   ;
    18      CG321      1    LIG    C12     18     -0.033     12.011   ;
    19      CG321      1    LIG    C13     19     -0.184     12.011   ;
    20      CG321      1    LIG    C14     20     -0.178     12.011   ;
    21      CG331      1    LIG    C15     21     -0.270     12.011   ;
    22      OG311      1    LIG     O3     22     -0.648     15.999   ;
    23       HGP1      1    LIG     H3     23      0.421      1.008   ;
    24      CG311      1    LIG    C16     24      0.064     12.011   ;
    25      NG2S1      1    LIG     N3     25     -0.470     14.007   ;
    26      CG2O1      1    LIG    C17     26      0.539     12.011   ;
    27      OG2D1      1    LIG     O4     27     -0.510     15.999   ;
    28       HGP1      1    LIG     H4     28      0.316      1.008   ;
    29      CG311      1    LIG    C18     29      0.066     12.011   ;
    30      CG311      1    LIG    C19     30     -0.078     12.011   ;
    31      CG331      1    LIG    C20     31     -0.269     12.011   ;
    32      CG331      1    LIG    C21     32     -0.269     12.011   ;
    33      NG2S1      1    LIG     N4     33     -0.400     14.007   ;
    34      CG2O1      1    LIG    C22     34      0.489     12.011   ;
    35      OG2D1      1    LIG     O5     35     -0.509     15.999   ;
    36      CG331      1    LIG    C23     36     -0.270     12.011   ;
    37       HGP1      1    LIG     H5     37      0.261      1.008   ;
    38      CG321      1    LIG    C24     38     -0.182     12.011   ;
    39      CG321      1    LIG    C25     39     -0.135     12.011   ;
    40      SG311      1    LIG      S     40     -0.105     32.060   ;
    41      CG331      1    LIG    C26     41     -0.220     12.011   ;
    42       HGA1      1    LIG     H6     42      0.090      1.008   ;
    43       HGA2      1    LIG     H7     43      0.090      1.008   ;
    44       HGA2      1    LIG     H8     44      0.090      1.008   ;
    45       HGA1      1    LIG     H9     45      0.090      1.008   ;
    46       HGA3      1    LIG    H10     46      0.090      1.008   ;
    47       HGA3      1    LIG    H11     47      0.090      1.008   ;
    48       HGA3      1    LIG    H12     48      0.090      1.008   ;
    49       HGA3      1    LIG    H13     49      0.090      1.008   ;
    50       HGA3      1    LIG    H14     50      0.090      1.008   ;
    51       HGA3      1    LIG    H15     51      0.090      1.008   ;
    52       HGA1      1    LIG    H16     52      0.090      1.008   ;
    53       HGA2      1    LIG    H17     53      0.090      1.008   ;
    54       HGA2      1    LIG    H18     54      0.090      1.008   ;
    55       HGA1      1    LIG    H19     55      0.090      1.008   ;
    56       HGA3      1    LIG    H20     56      0.090      1.008   ;
    57       HGA3      1    LIG    H21     57      0.090      1.008   ;
    58       HGA3      1    LIG    H22     58      0.090      1.008   ;
    59       HGA2      1    LIG    H23     59      0.090      1.008   ;
    60       HGA2      1    LIG    H24     60      0.090      1.008   ;
    61       HGA2      1    LIG    H25     61      0.090      1.008   ;
    62       HGA2      1    LIG    H26     62      0.090      1.008   ;
    63       HGA2      1    LIG    H27     63      0.090      1.008   ;
    64       HGA2      1    LIG    H28     64      0.090      1.008   ;
    65       HGA3      1    LIG    H29     65      0.090      1.008   ;
    66       HGA3      1    LIG    H30     66      0.090      1.008   ;
    67       HGA3      1    LIG    H31     67      0.090      1.008   ;
    68       HGA1      1    LIG    H32     68      0.090      1.008   ;
    69       HGA1      1    LIG    H33     69      0.090      1.008   ;
    70       HGA1      1    LIG    H34     70      0.090      1.008   ;
    71       HGA3      1    LIG    H35     71      0.090      1.008   ;
    72       HGA3      1    LIG    H36     72      0.090      1.008   ;
    73       HGA3      1    LIG    H37     73      0.090      1.008   ;
    74       HGA3      1    LIG    H38     74      0.090      1.008   ;
    75       HGA3      1    LIG    H39     75      0.090      1.008   ;
    76       HGA3      1    LIG    H40     76      0.090      1.008   ;
    77       HGA3      1    LIG    H41     77      0.090      1.008   ;
    78       HGA3      1    LIG    H42     78      0.090      1.008   ;
    79       HGA3      1    LIG    H43     79      0.090      1.008   ;
    80       HGA2      1    LIG    H44     80      0.090      1.008   ;
    81       HGA2      1    LIG    H45     81      0.090      1.008   ;
    82       HGA2      1    LIG    H46     82      0.090      1.008   ;
    83       HGA2      1    LIG    H47     83      0.090      1.008   ;
    84       HGA3      1    LIG    H48     84      0.090      1.008   ;
    85       HGA3      1    LIG    H49     85      0.090      1.008   ;
    86       HGA3      1    LIG    H50     86      0.090      1.008   ;

[ bonds ]
;	ai	  aj funct			  c0			c1			  c2			c3
    1     3	 1 ;       CG2O1      NG2S1
    1     2	 1 ;       CG2O1      OG2D1
    1    24	 1 ;       CG2O1      CG311
    3     5	 1 ;       NG2S1      CG311
    3     4	 1 ;       NG2S1       HGP1
    5     6	 1 ;       CG311      CG321
    5    10	 1 ;       CG311      CG311
    5    42	 1 ;       CG311       HGA1
    6     7	 1 ;       CG321      CG311
    6    43	 1 ;       CG321       HGA2
    6    44	 1 ;       CG321       HGA2
    7     8	 1 ;       CG311      CG331
    7     9	 1 ;       CG311      CG331
    7    45	 1 ;       CG311       HGA1
    8    46	 1 ;       CG331       HGA3
    8    47	 1 ;       CG331       HGA3
    8    48	 1 ;       CG331       HGA3
    9    49	 1 ;       CG331       HGA3
    9    50	 1 ;       CG331       HGA3
    9    51	 1 ;       CG331       HGA3
   10    22	 1 ;       CG311      OG311
   10    11	 1 ;       CG311      CG321
   10    52	 1 ;       CG311       HGA1
   11    12	 1 ;       CG321      CG311
   11    53	 1 ;       CG321       HGA2
   11    54	 1 ;       CG321       HGA2
   12    14	 1 ;       CG311      CG2O1
   12    13	 1 ;       CG311      CG331
   12    55	 1 ;       CG311       HGA1
   13    56	 1 ;       CG331       HGA3
   13    57	 1 ;       CG331       HGA3
   13    58	 1 ;       CG331       HGA3
   14    15	 1 ;       CG2O1      OG2D1
   14    16	 1 ;       CG2O1      NG2S1
   16    18	 1 ;       NG2S1      CG321
   16    17	 1 ;       NG2S1       HGP1
   18    19	 1 ;       CG321      CG321
   18    59	 1 ;       CG321       HGA2
   18    60	 1 ;       CG321       HGA2
   19    20	 1 ;       CG321      CG321
   19    61	 1 ;       CG321       HGA2
   19    62	 1 ;       CG321       HGA2
   20    21	 1 ;       CG321      CG331
   20    63	 1 ;       CG321       HGA2
   20    64	 1 ;       CG321       HGA2
   21    65	 1 ;       CG331       HGA3
   21    66	 1 ;       CG331       HGA3
   21    67	 1 ;       CG331       HGA3
   22    23	 1 ;       OG311       HGP1
   24    38	 1 ;       CG311      CG321
   24    25	 1 ;       CG311      NG2S1
   24    68	 1 ;       CG311       HGA1
   25    26	 1 ;       NG2S1      CG2O1
   25    28	 1 ;       NG2S1       HGP1
   26    27	 1 ;       CG2O1      OG2D1
   26    29	 1 ;       CG2O1      CG311
   29    33	 1 ;       CG311      NG2S1
   29    30	 1 ;       CG311      CG311
   29    69	 1 ;       CG311       HGA1
   30    32	 1 ;       CG311      CG331
   30    31	 1 ;       CG311      CG331
   30    70	 1 ;       CG311       HGA1
   31    71	 1 ;       CG331       HGA3
   31    72	 1 ;       CG331       HGA3
   31    73	 1 ;       CG331       HGA3
   32    74	 1 ;       CG331       HGA3
   32    75	 1 ;       CG331       HGA3
   32    76	 1 ;       CG331       HGA3
   33    34	 1 ;       NG2S1      CG2O1
   33    37	 1 ;       NG2S1       HGP1
   34    36	 1 ;       CG2O1      CG331
   34    35	 1 ;       CG2O1      OG2D1
   36    77	 1 ;       CG331       HGA3
   36    78	 1 ;       CG331       HGA3
   36    79	 1 ;       CG331       HGA3
   38    39	 1 ;       CG321      CG321
   38    80	 1 ;       CG321       HGA2
   38    81	 1 ;       CG321       HGA2
   39    40	 1 ;       CG321      SG311
   39    82	 1 ;       CG321       HGA2
   39    83	 1 ;       CG321       HGA2
   40    41	 1 ;       SG311      CG331
   41    84	 1 ;       CG331       HGA3
   41    85	 1 ;       CG331       HGA3
   41    86	 1 ;       CG331       HGA3

[ pairs ]
;	ai	  aj funct			  c0			c1			  c2			c3
    1     6	 1
    1    10	 1
    1    42	 1
    1    39	 1
    1    80	 1
    1    81	 1
    1    26	 1
    1    28	 1
    2     5	 1
    2     4	 1
    2    38	 1
    2    25	 1
    2    68	 1
    3    38	 1
    3    25	 1
    3    68	 1
    3     7	 1
    3    43	 1
    3    44	 1
    3    22	 1
    3    11	 1
    3    52	 1
    4    24	 1
    4     6	 1
    4    10	 1
    4    42	 1
    5    24	 1
    5     8	 1
    5     9	 1
    5    45	 1
    5    23	 1
    5    12	 1
    5    53	 1
    5    54	 1
    6    22	 1
    6    11	 1
    6    52	 1
    6    46	 1
    6    47	 1
    6    48	 1
    6    49	 1
    6    50	 1
    6    51	 1
    7    10	 1
    7    42	 1
    8    43	 1
    8    44	 1
    8    49	 1
    8    50	 1
    8    51	 1
    9    43	 1
    9    44	 1
    9    46	 1
    9    47	 1
    9    48	 1
   10    43	 1
   10    44	 1
   10    14	 1
   10    13	 1
   10    55	 1
   11    42	 1
   11    23	 1
   11    15	 1
   11    16	 1
   11    56	 1
   11    57	 1
   11    58	 1
   12    22	 1
   12    52	 1
   12    18	 1
   12    17	 1
   13    53	 1
   13    54	 1
   13    15	 1
   13    16	 1
   14    53	 1
   14    54	 1
   14    56	 1
   14    57	 1
   14    58	 1
   14    19	 1
   14    59	 1
   14    60	 1
   15    55	 1
   15    18	 1
   15    17	 1
   16    55	 1
   16    20	 1
   16    61	 1
   16    62	 1
   17    19	 1
   17    59	 1
   17    60	 1
   18    21	 1
   18    63	 1
   18    64	 1
   19    65	 1
   19    66	 1
   19    67	 1
   20    59	 1
   20    60	 1
   21    61	 1
   21    62	 1
   22    42	 1
   22    53	 1
   22    54	 1
   23    52	 1
   24    27	 1
   24    29	 1
   24    40	 1
   24    82	 1
   24    83	 1
   25    39	 1
   25    80	 1
   25    81	 1
   25    33	 1
   25    30	 1
   25    69	 1
   26    38	 1
   26    68	 1
   26    34	 1
   26    37	 1
   26    32	 1
   26    31	 1
   26    70	 1
   27    28	 1
   27    33	 1
   27    30	 1
   27    69	 1
   28    38	 1
   28    68	 1
   28    29	 1
   29    74	 1
   29    75	 1
   29    76	 1
   29    71	 1
   29    72	 1
   29    73	 1
   29    36	 1
   29    35	 1
   30    34	 1
   30    37	 1
   31    33	 1
   31    69	 1
   31    74	 1
   31    75	 1
   31    76	 1
   32    33	 1
   32    69	 1
   32    71	 1
   32    72	 1
   32    73	 1
   33    70	 1
   33    77	 1
   33    78	 1
   33    79	 1
   34    69	 1
   35    37	 1
   35    77	 1
   35    78	 1
   35    79	 1
   36    37	 1
   37    69	 1
   38    41	 1
   39    68	 1
   39    84	 1
   39    85	 1
   39    86	 1
   40    80	 1
   40    81	 1
   41    82	 1
   41    83	 1
   42    43	 1
   42    44	 1
   42    52	 1
   43    45	 1
   44    45	 1
   45    46	 1
   45    47	 1
   45    48	 1
   45    49	 1
   45    50	 1
   45    51	 1
   52    53	 1
   52    54	 1
   53    55	 1
   54    55	 1
   55    56	 1
   55    57	 1
   55    58	 1
   59    61	 1
   59    62	 1
   60    61	 1
   60    62	 1
   61    63	 1
   61    64	 1
   62    63	 1
   62    64	 1
   63    65	 1
   63    66	 1
   63    67	 1
   64    65	 1
   64    66	 1
   64    67	 1
   68    80	 1
   68    81	 1
   69    70	 1
   70    74	 1
   70    75	 1
   70    76	 1
   70    71	 1
   70    72	 1
   70    73	 1
   80    82	 1
   80    83	 1
   81    82	 1
   81    83	 1

[ angles ]
;	ai	  aj	ak funct			c0			  c1			c2			  c3
    3     1     2	5 ;      NG2S1      CG2O1      OG2D1
    3     1    24	5 ;      NG2S1      CG2O1      CG311
    2     1    24	5 ;      OG2D1      CG2O1      CG311
    5     3     4	5 ;      CG311      NG2S1       HGP1
    5     3     1	5 ;      CG311      NG2S1      CG2O1
    4     3     1	5 ;       HGP1      NG2S1      CG2O1
    6     5    10	5 ;      CG321      CG311      CG311
    6     5     3	5 ;      CG321      CG311      NG2S1
    6     5    42	5 ;      CG321      CG311       HGA1
   10     5     3	5 ;      CG311      CG311      NG2S1
   10     5    42	5 ;      CG311      CG311       HGA1
    3     5    42	5 ;      NG2S1      CG311       HGA1
    7     6     5	5 ;      CG311      CG321      CG311
    7     6    43	5 ;      CG311      CG321       HGA2
    7     6    44	5 ;      CG311      CG321       HGA2
    5     6    43	5 ;      CG311      CG321       HGA2
    5     6    44	5 ;      CG311      CG321       HGA2
   43     6    44	5 ;       HGA2      CG321       HGA2
    8     7     9	5 ;      CG331      CG311      CG331
    8     7     6	5 ;      CG331      CG311      CG321
    8     7    45	5 ;      CG331      CG311       HGA1
    9     7     6	5 ;      CG331      CG311      CG321
    9     7    45	5 ;      CG331      CG311       HGA1
    6     7    45	5 ;      CG321      CG311       HGA1
    7     8    46	5 ;      CG311      CG331       HGA3
    7     8    47	5 ;      CG311      CG331       HGA3
    7     8    48	5 ;      CG311      CG331       HGA3
   46     8    47	5 ;       HGA3      CG331       HGA3
   46     8    48	5 ;       HGA3      CG331       HGA3
   47     8    48	5 ;       HGA3      CG331       HGA3
    7     9    49	5 ;      CG311      CG331       HGA3
    7     9    50	5 ;      CG311      CG331       HGA3
    7     9    51	5 ;      CG311      CG331       HGA3
   49     9    50	5 ;       HGA3      CG331       HGA3
   49     9    51	5 ;       HGA3      CG331       HGA3
   50     9    51	5 ;       HGA3      CG331       HGA3
    5    10    22	5 ;      CG311      CG311      OG311
    5    10    11	5 ;      CG311      CG311      CG321
    5    10    52	5 ;      CG311      CG311       HGA1
   22    10    11	5 ;      OG311      CG311      CG321
   22    10    52	5 ;      OG311      CG311       HGA1
   11    10    52	5 ;      CG321      CG311       HGA1
   10    11    12	5 ;      CG311      CG321      CG311
   10    11    53	5 ;      CG311      CG321       HGA2
   10    11    54	5 ;      CG311      CG321       HGA2
   12    11    53	5 ;      CG311      CG321       HGA2
   12    11    54	5 ;      CG311      CG321       HGA2
   53    11    54	5 ;       HGA2      CG321       HGA2
   14    12    13	5 ;      CG2O1      CG311      CG331
   14    12    11	5 ;      CG2O1      CG311      CG321
   14    12    55	5 ;      CG2O1      CG311       HGA1
   13    12    11	5 ;      CG331      CG311      CG321
   13    12    55	5 ;      CG331      CG311       HGA1
   11    12    55	5 ;      CG321      CG311       HGA1
   12    13    56	5 ;      CG311      CG331       HGA3
   12    13    57	5 ;      CG311      CG331       HGA3
   12    13    58	5 ;      CG311      CG331       HGA3
   56    13    57	5 ;       HGA3      CG331       HGA3
   56    13    58	5 ;       HGA3      CG331       HGA3
   57    13    58	5 ;       HGA3      CG331       HGA3
   15    14    16	5 ;      OG2D1      CG2O1      NG2S1
   15    14    12	5 ;      OG2D1      CG2O1      CG311
   16    14    12	5 ;      NG2S1      CG2O1      CG311
   18    16    14	5 ;      CG321      NG2S1      CG2O1
   18    16    17	5 ;      CG321      NG2S1       HGP1
   14    16    17	5 ;      CG2O1      NG2S1       HGP1
   19    18    16	5 ;      CG321      CG321      NG2S1
   19    18    59	5 ;      CG321      CG321       HGA2
   19    18    60	5 ;      CG321      CG321       HGA2
   16    18    59	5 ;      NG2S1      CG321       HGA2
   16    18    60	5 ;      NG2S1      CG321       HGA2
   59    18    60	5 ;       HGA2      CG321       HGA2
   20    19    18	5 ;      CG321      CG321      CG321
   20    19    61	5 ;      CG321      CG321       HGA2
   20    19    62	5 ;      CG321      CG321       HGA2
   18    19    61	5 ;      CG321      CG321       HGA2
   18    19    62	5 ;      CG321      CG321       HGA2
   61    19    62	5 ;       HGA2      CG321       HGA2
   21    20    19	5 ;      CG331      CG321      CG321
   21    20    63	5 ;      CG331      CG321       HGA2
   21    20    64	5 ;      CG331      CG321       HGA2
   19    20    63	5 ;      CG321      CG321       HGA2
   19    20    64	5 ;      CG321      CG321       HGA2
   63    20    64	5 ;       HGA2      CG321       HGA2
   20    21    65	5 ;      CG321      CG331       HGA3
   20    21    66	5 ;      CG321      CG331       HGA3
   20    21    67	5 ;      CG321      CG331       HGA3
   65    21    66	5 ;       HGA3      CG331       HGA3
   65    21    67	5 ;       HGA3      CG331       HGA3
   66    21    67	5 ;       HGA3      CG331       HGA3
   23    22    10	5 ;       HGP1      OG311      CG311
    1    24    38	5 ;      CG2O1      CG311      CG321
    1    24    25	5 ;      CG2O1      CG311      NG2S1
    1    24    68	5 ;      CG2O1      CG311       HGA1
   38    24    25	5 ;      CG321      CG311      NG2S1
   38    24    68	5 ;      CG321      CG311       HGA1
   25    24    68	5 ;      NG2S1      CG311       HGA1
   24    25    26	5 ;      CG311      NG2S1      CG2O1
   24    25    28	5 ;      CG311      NG2S1       HGP1
   26    25    28	5 ;      CG2O1      NG2S1       HGP1
   27    26    25	5 ;      OG2D1      CG2O1      NG2S1
   27    26    29	5 ;      OG2D1      CG2O1      CG311
   25    26    29	5 ;      NG2S1      CG2O1      CG311
   26    29    33	5 ;      CG2O1      CG311      NG2S1
   26    29    30	5 ;      CG2O1      CG311      CG311
   26    29    69	5 ;      CG2O1      CG311       HGA1
   33    29    30	5 ;      NG2S1      CG311      CG311
   33    29    69	5 ;      NG2S1      CG311       HGA1
   30    29    69	5 ;      CG311      CG311       HGA1
   29    30    32	5 ;      CG311      CG311      CG331
   29    30    31	5 ;      CG311      CG311      CG331
   29    30    70	5 ;      CG311      CG311       HGA1
   32    30    31	5 ;      CG331      CG311      CG331
   32    30    70	5 ;      CG331      CG311       HGA1
   31    30    70	5 ;      CG331      CG311       HGA1
   30    31    71	5 ;      CG311      CG331       HGA3
   30    31    72	5 ;      CG311      CG331       HGA3
   30    31    73	5 ;      CG311      CG331       HGA3
   71    31    72	5 ;       HGA3      CG331       HGA3
   71    31    73	5 ;       HGA3      CG331       HGA3
   72    31    73	5 ;       HGA3      CG331       HGA3
   30    32    74	5 ;      CG311      CG331       HGA3
   30    32    75	5 ;      CG311      CG331       HGA3
   30    32    76	5 ;      CG311      CG331       HGA3
   74    32    75	5 ;       HGA3      CG331       HGA3
   74    32    76	5 ;       HGA3      CG331       HGA3
   75    32    76	5 ;       HGA3      CG331       HGA3
   29    33    34	5 ;      CG311      NG2S1      CG2O1
   29    33    37	5 ;      CG311      NG2S1       HGP1
   34    33    37	5 ;      CG2O1      NG2S1       HGP1
   36    34    33	5 ;      CG331      CG2O1      NG2S1
   36    34    35	5 ;      CG331      CG2O1      OG2D1
   33    34    35	5 ;      NG2S1      CG2O1      OG2D1
   34    36    77	5 ;      CG2O1      CG331       HGA3
   34    36    78	5 ;      CG2O1      CG331       HGA3
   34    36    79	5 ;      CG2O1      CG331       HGA3
   77    36    78	5 ;       HGA3      CG331       HGA3
   77    36    79	5 ;       HGA3      CG331       HGA3
   78    36    79	5 ;       HGA3      CG331       HGA3
   39    38    24	5 ;      CG321      CG321      CG311
   39    38    80	5 ;      CG321      CG321       HGA2
   39    38    81	5 ;      CG321      CG321       HGA2
   24    38    80	5 ;      CG311      CG321       HGA2
   24    38    81	5 ;      CG311      CG321       HGA2
   80    38    81	5 ;       HGA2      CG321       HGA2
   40    39    38	5 ;      SG311      CG321      CG321
   40    39    82	5 ;      SG311      CG321       HGA2
   40    39    83	5 ;      SG311      CG321       HGA2
   38    39    82	5 ;      CG321      CG321       HGA2
   38    39    83	5 ;      CG321      CG321       HGA2
   82    39    83	5 ;       HGA2      CG321       HGA2
   39    40    41	5 ;      CG321      SG311      CG331
   40    41    84	5 ;      SG311      CG331       HGA3
   40    41    85	5 ;      SG311      CG331       HGA3
   40    41    86	5 ;      SG311      CG331       HGA3
   84    41    85	5 ;       HGA3      CG331       HGA3
   84    41    86	5 ;       HGA3      CG331       HGA3
   85    41    86	5 ;       HGA3      CG331       HGA3

[ dihedrals ]
;	ai	  aj	ak	  al funct			  c0			c1			  c2			c3			  c4			c5
    2     1     3     5	 9 ;      OG2D1      CG2O1      NG2S1      CG311
    2     1     3     4	 9 ;      OG2D1      CG2O1      NG2S1       HGP1
   24     1     3     5	 9 ;      CG311      CG2O1      NG2S1      CG311
   24     1     3     4	 9 ;      CG311      CG2O1      NG2S1       HGP1
    3     1    24    38	 9 ;      NG2S1      CG2O1      CG311      CG321
    3     1    24    25	 9 ;      NG2S1      CG2O1      CG311      NG2S1
    3     1    24    68	 9 ;      NG2S1      CG2O1      CG311       HGA1
    2     1    24    38	 9 ;      OG2D1      CG2O1      CG311      CG321
    2     1    24    25	 9 ;      OG2D1      CG2O1      CG311      NG2S1
    2     1    24    68	 9 ;      OG2D1      CG2O1      CG311       HGA1
    4     3     5     6	 9 ;       HGP1      NG2S1      CG311      CG321
    4     3     5    10	 9 ;       HGP1      NG2S1      CG311      CG311
    4     3     5    42	 9 ;       HGP1      NG2S1      CG311       HGA1
    1     3     5     6	 9 ;      CG2O1      NG2S1      CG311      CG321
    1     3     5    10	 9 ;      CG2O1      NG2S1      CG311      CG311
    1     3     5    42	 9 ;      CG2O1      NG2S1      CG311       HGA1
   10     5     6     7	 9 ;      CG311      CG311      CG321      CG311
   10     5     6    43	 9 ;      CG311      CG311      CG321       HGA2
   10     5     6    44	 9 ;      CG311      CG311      CG321       HGA2
    3     5     6     7	 9 ;      NG2S1      CG311      CG321      CG311
    3     5     6    43	 9 ;      NG2S1      CG311      CG321       HGA2
    3     5     6    44	 9 ;      NG2S1      CG311      CG321       HGA2
   42     5     6     7	 9 ;       HGA1      CG311      CG321      CG311
   42     5     6    43	 9 ;       HGA1      CG311      CG321       HGA2
   42     5     6    44	 9 ;       HGA1      CG311      CG321       HGA2
    6     5    10    22	 9 ;      CG321      CG311      CG311      OG311
    6     5    10    11	 9 ;      CG321      CG311      CG311      CG321
    6     5    10    52	 9 ;      CG321      CG311      CG311       HGA1
    3     5    10    22	 9 ;      NG2S1      CG311      CG311      OG311
    3     5    10    11	 9 ;      NG2S1      CG311      CG311      CG321
    3     5    10    52	 9 ;      NG2S1      CG311      CG311       HGA1
   42     5    10    22	 9 ;       HGA1      CG311      CG311      OG311
   42     5    10    11	 9 ;       HGA1      CG311      CG311      CG321
   42     5    10    52	 9 ;       HGA1      CG311      CG311       HGA1
    5     6     7     8	 9 ;      CG311      CG321      CG311      CG331
    5     6     7     9	 9 ;      CG311      CG321      CG311      CG331
    5     6     7    45	 9 ;      CG311      CG321      CG311       HGA1
   43     6     7     8	 9 ;       HGA2      CG321      CG311      CG331
   43     6     7     9	 9 ;       HGA2      CG321      CG311      CG331
   43     6     7    45	 9 ;       HGA2      CG321      CG311       HGA1
   44     6     7     8	 9 ;       HGA2      CG321      CG311      CG331
   44     6     7     9	 9 ;       HGA2      CG321      CG311      CG331
   44     6     7    45	 9 ;       HGA2      CG321      CG311       HGA1
    9     7     8    46	 9 ;      CG331      CG311      CG331       HGA3
    9     7     8    47	 9 ;      CG331      CG311      CG331       HGA3
    9     7     8    48	 9 ;      CG331      CG311      CG331       HGA3
    6     7     8    46	 9 ;      CG321      CG311      CG331       HGA3
    6     7     8    47	 9 ;      CG321      CG311      CG331       HGA3
    6     7     8    48	 9 ;      CG321      CG311      CG331       HGA3
   45     7     8    46	 9 ;       HGA1      CG311      CG331       HGA3
   45     7     8    47	 9 ;       HGA1      CG311      CG331       HGA3
   45     7     8    48	 9 ;       HGA1      CG311      CG331       HGA3
    8     7     9    49	 9 ;      CG331      CG311      CG331       HGA3
    8     7     9    50	 9 ;      CG331      CG311      CG331       HGA3
    8     7     9    51	 9 ;      CG331      CG311      CG331       HGA3
    6     7     9    49	 9 ;      CG321      CG311      CG331       HGA3
    6     7     9    50	 9 ;      CG321      CG311      CG331       HGA3
    6     7     9    51	 9 ;      CG321      CG311      CG331       HGA3
   45     7     9    49	 9 ;       HGA1      CG311      CG331       HGA3
   45     7     9    50	 9 ;       HGA1      CG311      CG331       HGA3
   45     7     9    51	 9 ;       HGA1      CG311      CG331       HGA3
    5    10    22    23	 9 ;      CG311      CG311      OG311       HGP1
   11    10    22    23	 9 ;      CG321      CG311      OG311       HGP1
   52    10    22    23	 9 ;       HGA1      CG311      OG311       HGP1
    5    10    11    12	 9 ;      CG311      CG311      CG321      CG311
    5    10    11    53	 9 ;      CG311      CG311      CG321       HGA2
    5    10    11    54	 9 ;      CG311      CG311      CG321       HGA2
   22    10    11    12	 9 ;      OG311      CG311      CG321      CG311
   22    10    11    53	 9 ;      OG311      CG311      CG321       HGA2
   22    10    11    54	 9 ;      OG311      CG311      CG321       HGA2
   52    10    11    12	 9 ;       HGA1      CG311      CG321      CG311
   52    10    11    53	 9 ;       HGA1      CG311      CG321       HGA2
   52    10    11    54	 9 ;       HGA1      CG311      CG321       HGA2
   10    11    12    14	 9 ;      CG311      CG321      CG311      CG2O1
   10    11    12    13	 9 ;      CG311      CG321      CG311      CG331
   10    11    12    55	 9 ;      CG311      CG321      CG311       HGA1
   53    11    12    14	 9 ;       HGA2      CG321      CG311      CG2O1
   53    11    12    13	 9 ;       HGA2      CG321      CG311      CG331
   53    11    12    55	 9 ;       HGA2      CG321      CG311       HGA1
   54    11    12    14	 9 ;       HGA2      CG321      CG311      CG2O1
   54    11    12    13	 9 ;       HGA2      CG321      CG311      CG331
   54    11    12    55	 9 ;       HGA2      CG321      CG311       HGA1
   13    12    14    15	 9 ;      CG331      CG311      CG2O1      OG2D1
   13    12    14    16	 9 ;      CG331      CG311      CG2O1      NG2S1
   11    12    14    15	 9 ;      CG321      CG311      CG2O1      OG2D1
   11    12    14    16	 9 ;      CG321      CG311      CG2O1      NG2S1
   55    12    14    15	 9 ;       HGA1      CG311      CG2O1      OG2D1
   55    12    14    16	 9 ;       HGA1      CG311      CG2O1      NG2S1
   14    12    13    56	 9 ;      CG2O1      CG311      CG331       HGA3
   14    12    13    57	 9 ;      CG2O1      CG311      CG331       HGA3
   14    12    13    58	 9 ;      CG2O1      CG311      CG331       HGA3
   11    12    13    56	 9 ;      CG321      CG311      CG331       HGA3
   11    12    13    57	 9 ;      CG321      CG311      CG331       HGA3
   11    12    13    58	 9 ;      CG321      CG311      CG331       HGA3
   55    12    13    56	 9 ;       HGA1      CG311      CG331       HGA3
   55    12    13    57	 9 ;       HGA1      CG311      CG331       HGA3
   55    12    13    58	 9 ;       HGA1      CG311      CG331       HGA3
   15    14    16    18	 9 ;      OG2D1      CG2O1      NG2S1      CG321
   15    14    16    17	 9 ;      OG2D1      CG2O1      NG2S1       HGP1
   12    14    16    18	 9 ;      CG311      CG2O1      NG2S1      CG321
   12    14    16    17	 9 ;      CG311      CG2O1      NG2S1       HGP1
   14    16    18    19	 9 ;      CG2O1      NG2S1      CG321      CG321
   14    16    18    59	 9 ;      CG2O1      NG2S1      CG321       HGA2
   14    16    18    60	 9 ;      CG2O1      NG2S1      CG321       HGA2
   17    16    18    19	 9 ;       HGP1      NG2S1      CG321      CG321
   17    16    18    59	 9 ;       HGP1      NG2S1      CG321       HGA2
   17    16    18    60	 9 ;       HGP1      NG2S1      CG321       HGA2
   16    18    19    20	 9 ;      NG2S1      CG321      CG321      CG321
   16    18    19    61	 9 ;      NG2S1      CG321      CG321       HGA2
   16    18    19    62	 9 ;      NG2S1      CG321      CG321       HGA2
   59    18    19    20	 9 ;       HGA2      CG321      CG321      CG321
   59    18    19    61	 9 ;       HGA2      CG321      CG321       HGA2
   59    18    19    62	 9 ;       HGA2      CG321      CG321       HGA2
   60    18    19    20	 9 ;       HGA2      CG321      CG321      CG321
   60    18    19    61	 9 ;       HGA2      CG321      CG321       HGA2
   60    18    19    62	 9 ;       HGA2      CG321      CG321       HGA2
   18    19    20    21	 9 ;      CG321      CG321      CG321      CG331
   18    19    20    63	 9 ;      CG321      CG321      CG321       HGA2
   18    19    20    64	 9 ;      CG321      CG321      CG321       HGA2
   61    19    20    21	 9 ;       HGA2      CG321      CG321      CG331
   61    19    20    63	 9 ;       HGA2      CG321      CG321       HGA2
   61    19    20    64	 9 ;       HGA2      CG321      CG321       HGA2
   62    19    20    21	 9 ;       HGA2      CG321      CG321      CG331
   62    19    20    63	 9 ;       HGA2      CG321      CG321       HGA2
   62    19    20    64	 9 ;       HGA2      CG321      CG321       HGA2
   19    20    21    65	 9 ;      CG321      CG321      CG331       HGA3
   19    20    21    66	 9 ;      CG321      CG321      CG331       HGA3
   19    20    21    67	 9 ;      CG321      CG321      CG331       HGA3
   63    20    21    65	 9 ;       HGA2      CG321      CG331       HGA3
   63    20    21    66	 9 ;       HGA2      CG321      CG331       HGA3
   63    20    21    67	 9 ;       HGA2      CG321      CG331       HGA3
   64    20    21    65	 9 ;       HGA2      CG321      CG331       HGA3
   64    20    21    66	 9 ;       HGA2      CG321      CG331       HGA3
   64    20    21    67	 9 ;       HGA2      CG321      CG331       HGA3
    1    24    38    39	 9 ;      CG2O1      CG311      CG321      CG321
    1    24    38    80	 9 ;      CG2O1      CG311      CG321       HGA2
    1    24    38    81	 9 ;      CG2O1      CG311      CG321       HGA2
   25    24    38    39	 9 ;      NG2S1      CG311      CG321      CG321
   25    24    38    80	 9 ;      NG2S1      CG311      CG321       HGA2
   25    24    38    81	 9 ;      NG2S1      CG311      CG321       HGA2
   68    24    38    39	 9 ;       HGA1      CG311      CG321      CG321
   68    24    38    80	 9 ;       HGA1      CG311      CG321       HGA2
   68    24    38    81	 9 ;       HGA1      CG311      CG321       HGA2
    1    24    25    26	 9 ;      CG2O1      CG311      NG2S1      CG2O1
    1    24    25    28	 9 ;      CG2O1      CG311      NG2S1       HGP1
   38    24    25    26	 9 ;      CG321      CG311      NG2S1      CG2O1
   38    24    25    28	 9 ;      CG321      CG311      NG2S1       HGP1
   68    24    25    26	 9 ;       HGA1      CG311      NG2S1      CG2O1
   68    24    25    28	 9 ;       HGA1      CG311      NG2S1       HGP1
   24    25    26    27	 9 ;      CG311      NG2S1      CG2O1      OG2D1
   24    25    26    29	 9 ;      CG311      NG2S1      CG2O1      CG311
   28    25    26    27	 9 ;       HGP1      NG2S1      CG2O1      OG2D1
   28    25    26    29	 9 ;       HGP1      NG2S1      CG2O1      CG311
   27    26    29    33	 9 ;      OG2D1      CG2O1      CG311      NG2S1
   27    26    29    30	 9 ;      OG2D1      CG2O1      CG311      CG311
   27    26    29    69	 9 ;      OG2D1      CG2O1      CG311       HGA1
   25    26    29    33	 9 ;      NG2S1      CG2O1      CG311      NG2S1
   25    26    29    30	 9 ;      NG2S1      CG2O1      CG311      CG311
   25    26    29    69	 9 ;      NG2S1      CG2O1      CG311       HGA1
   26    29    33    34	 9 ;      CG2O1      CG311      NG2S1      CG2O1
   26    29    33    37	 9 ;      CG2O1      CG311      NG2S1       HGP1
   30    29    33    34	 9 ;      CG311      CG311      NG2S1      CG2O1
   30    29    33    37	 9 ;      CG311      CG311      NG2S1       HGP1
   69    29    33    34	 9 ;       HGA1      CG311      NG2S1      CG2O1
   69    29    33    37	 9 ;       HGA1      CG311      NG2S1       HGP1
   26    29    30    32	 9 ;      CG2O1      CG311      CG311      CG331
   26    29    30    31	 9 ;      CG2O1      CG311      CG311      CG331
   26    29    30    70	 9 ;      CG2O1      CG311      CG311       HGA1
   33    29    30    32	 9 ;      NG2S1      CG311      CG311      CG331
   33    29    30    31	 9 ;      NG2S1      CG311      CG311      CG331
   33    29    30    70	 9 ;      NG2S1      CG311      CG311       HGA1
   69    29    30    32	 9 ;       HGA1      CG311      CG311      CG331
   69    29    30    31	 9 ;       HGA1      CG311      CG311      CG331
   69    29    30    70	 9 ;       HGA1      CG311      CG311       HGA1
   29    30    32    74	 9 ;      CG311      CG311      CG331       HGA3
   29    30    32    75	 9 ;      CG311      CG311      CG331       HGA3
   29    30    32    76	 9 ;      CG311      CG311      CG331       HGA3
   31    30    32    74	 9 ;      CG331      CG311      CG331       HGA3
   31    30    32    75	 9 ;      CG331      CG311      CG331       HGA3
   31    30    32    76	 9 ;      CG331      CG311      CG331       HGA3
   70    30    32    74	 9 ;       HGA1      CG311      CG331       HGA3
   70    30    32    75	 9 ;       HGA1      CG311      CG331       HGA3
   70    30    32    76	 9 ;       HGA1      CG311      CG331       HGA3
   29    30    31    71	 9 ;      CG311      CG311      CG331       HGA3
   29    30    31    72	 9 ;      CG311      CG311      CG331       HGA3
   29    30    31    73	 9 ;      CG311      CG311      CG331       HGA3
   32    30    31    71	 9 ;      CG331      CG311      CG331       HGA3
   32    30    31    72	 9 ;      CG331      CG311      CG331       HGA3
   32    30    31    73	 9 ;      CG331      CG311      CG331       HGA3
   70    30    31    71	 9 ;       HGA1      CG311      CG331       HGA3
   70    30    31    72	 9 ;       HGA1      CG311      CG331       HGA3
   70    30    31    73	 9 ;       HGA1      CG311      CG331       HGA3
   29    33    34    36	 9 ;      CG311      NG2S1      CG2O1      CG331
   29    33    34    35	 9 ;      CG311      NG2S1      CG2O1      OG2D1
   37    33    34    36	 9 ;       HGP1      NG2S1      CG2O1      CG331
   37    33    34    35	 9 ;       HGP1      NG2S1      CG2O1      OG2D1
   33    34    36    77	 9 ;      NG2S1      CG2O1      CG331       HGA3
   33    34    36    78	 9 ;      NG2S1      CG2O1      CG331       HGA3
   33    34    36    79	 9 ;      NG2S1      CG2O1      CG331       HGA3
   35    34    36    77	 9 ;      OG2D1      CG2O1      CG331       HGA3
   35    34    36    78	 9 ;      OG2D1      CG2O1      CG331       HGA3
   35    34    36    79	 9 ;      OG2D1      CG2O1      CG331       HGA3
   24    38    39    40	 9 ;      CG311      CG321      CG321      SG311
   24    38    39    82	 9 ;      CG311      CG321      CG321       HGA2
   24    38    39    83	 9 ;      CG311      CG321      CG321       HGA2
   80    38    39    40	 9 ;       HGA2      CG321      CG321      SG311
   80    38    39    82	 9 ;       HGA2      CG321      CG321       HGA2
   80    38    39    83	 9 ;       HGA2      CG321      CG321       HGA2
   81    38    39    40	 9 ;       HGA2      CG321      CG321      SG311
   81    38    39    82	 9 ;       HGA2      CG321      CG321       HGA2
   81    38    39    83	 9 ;       HGA2      CG321      CG321       HGA2
   38    39    40    41	 9 ;      CG321      CG321      SG311      CG331
   82    39    40    41	 9 ;       HGA2      CG321      SG311      CG331
   83    39    40    41	 9 ;       HGA2      CG321      SG311      CG331
   39    40    41    84	 9 ;      CG321      SG311      CG331       HGA3
   39    40    41    85	 9 ;      CG321      SG311      CG331       HGA3
   39    40    41    86	 9 ;      CG321      SG311      CG331       HGA3

[ dihedrals ]
;	ai	  aj	ak	  al funct			  c0			c1			  c2			c3
    1    24     3     2	 2
   14    12    16    15	 2
   26    29    25    27	 2
   34    36    33    35	 2

