God Rules Over Mankind, Animals, Cosmos and Such
   86
    1LIG     C1    1  -1.185   0.422  -1.697
    1LIG     O1    2  -1.083   0.485  -1.666
    1LIG     N1    3  -1.251   0.444  -1.819
    1LIG     H1    4  -1.336   0.391  -1.835
    1LIG     C2    5  -1.225   0.555  -1.917
    1LIG     C3    6  -1.289   0.528  -2.059
    1LIG     C4    7  -1.256   0.633  -2.169
    1LIG     C5    8  -1.158   0.577  -2.272
    1LIG     C6    9  -1.380   0.690  -2.238
    1LIG     C7   10  -1.263   0.708  -1.873
    1LIG     C8   11  -1.356   0.735  -1.753
    1LIG     C9   12  -1.515   0.739  -1.777
    1LIG    C10   13  -1.555   0.886  -1.759
    1LIG    C11   14  -1.584   0.687  -1.911
    1LIG     O2   15  -1.623   0.766  -1.996
    1LIG     N2   16  -1.596   0.549  -1.925
    1LIG     H2   17  -1.568   0.495  -1.844
    1LIG    C12   18  -1.687   0.474  -2.015
    1LIG    C13   19  -1.654   0.455  -2.165
    1LIG    C14   20  -1.605   0.316  -2.207
    1LIG    C15   21  -1.488   0.322  -2.306
    1LIG     O3   22  -1.140   0.768  -1.834
    1LIG     H3   23  -1.064   0.736  -1.885
    1LIG    C16   24  -1.243   0.318  -1.592
    1LIG     N3   25  -1.354   0.381  -1.512
    1LIG    C17   26  -1.478   0.420  -1.561
    1LIG     O4   27  -1.511   0.407  -1.679
    1LIG     H4   28  -1.334   0.409  -1.417
    1LIG    C18   29  -1.582   0.474  -1.452
    1LIG    C19   30  -1.583   0.380  -1.327
    1LIG    C20   31  -1.542   0.445  -1.193
    1LIG    C21   32  -1.722   0.317  -1.304
    1LIG     N4   33  -1.544   0.611  -1.413
    1LIG    C22   34  -1.618   0.724  -1.414
    1LIG     O5   35  -1.565   0.832  -1.383
    1LIG    C23   36  -1.765   0.717  -1.452
    1LIG     H5   37  -1.449   0.627  -1.379
    1LIG    C24   38  -1.296   0.185  -1.650
    1LIG    C25   39  -1.203   0.099  -1.738
    1LIG      S   40  -1.110  -0.039  -1.662
    1LIG    C26   41  -0.939  -0.008  -1.717
    1LIG     H6   42  -1.118   0.552  -1.920
    1LIG     H7   43  -1.254   0.433  -2.094
    1LIG     H8   44  -1.395   0.533  -2.045
    1LIG     H9   45  -1.210   0.715  -2.118
    1LIG    H10   46  -1.204   0.495  -2.324
    1LIG    H11   47  -1.070   0.543  -2.223
    1LIG    H12   48  -1.133   0.654  -2.342
    1LIG    H13   49  -1.431   0.612  -2.291
    1LIG    H14   50  -1.351   0.767  -2.306
    1LIG    H15   51  -1.446   0.732  -2.164
    1LIG    H16   52  -1.316   0.745  -1.958
    1LIG    H17   53  -1.328   0.830  -1.712
    1LIG    H18   54  -1.341   0.650  -1.690
    1LIG    H19   55  -1.550   0.665  -1.707
    1LIG    H20   56  -1.512   0.945  -1.837
    1LIG    H21   57  -1.521   0.921  -1.664
    1LIG    H22   58  -1.662   0.895  -1.763
    1LIG    H23   59  -1.698   0.376  -1.974
    1LIG    H24   60  -1.773   0.538  -2.019
    1LIG    H25   61  -1.743   0.476  -2.221
    1LIG    H26   62  -1.572   0.521  -2.185
    1LIG    H27   63  -1.574   0.263  -2.120
    1LIG    H28   64  -1.686   0.266  -2.256
    1LIG    H29   65  -1.405   0.371  -2.260
    1LIG    H30   66  -1.518   0.376  -2.393
    1LIG    H31   67  -1.459   0.222  -2.334
    1LIG    H32   68  -1.158   0.292  -1.532
    1LIG    H33   69  -1.681   0.475  -1.493
    1LIG    H34   70  -1.509   0.306  -1.352
    1LIG    H35   71  -1.615   0.519  -1.166
    1LIG    H36   72  -1.447   0.492  -1.204
    1LIG    H37   73  -1.537   0.371  -1.117
    1LIG    H38   74  -1.792   0.393  -1.280
    1LIG    H39   75  -1.716   0.246  -1.224
    1LIG    H40   76  -1.753   0.267  -1.394
    1LIG    H41   77  -1.791   0.616  -1.476
    1LIG    H42   78  -1.783   0.780  -1.538
    1LIG    H43   79  -1.824   0.751  -1.370
    1LIG    H44   80  -1.325   0.124  -1.567
    1LIG    H45   81  -1.373   0.216  -1.717
    1LIG    H46   82  -1.264   0.057  -1.816
    1LIG    H47   83  -1.127   0.167  -1.769
    1LIG    H48   84  -0.875  -0.083  -1.678
    1LIG    H49   85  -0.908   0.088  -1.681
    1LIG    H50   86  -0.936  -0.009  -1.824
   0.00000   0.00000   0.00000
