Good ROcking Metal Altar for Chronical Sinners
   67
    1LIG     C1    1  -1.403   0.279  -1.528
    1LIG     O1    2  -1.429   0.163  -1.495
    1LIG     N1    3  -1.275   0.322  -1.504
    1LIG     H1    4  -1.207   0.247  -1.507
    1LIG     C2    5  -1.240   0.433  -1.416
    1LIG     C3    6  -1.175   0.385  -1.282
    1LIG     O2    7  -1.265   0.411  -1.173
    1LIG     H2    8  -1.230   0.484  -1.118
    1LIG     C4    9  -1.139   0.234  -1.270
    1LIG     N2   10  -1.247   0.144  -1.221
    1LIG     H3   11  -1.257   0.160  -1.120
    1LIG     H4   12  -1.339   0.177  -1.257
    1LIG     C5   13  -1.236  -0.002  -1.244
    1LIG     C6   14  -1.214  -0.082  -1.119
    1LIG     C7   15  -1.105  -0.071  -1.222
    1LIG     C8   16  -1.142   0.530  -1.488
    1LIG     C9   17  -1.203   0.607  -1.603
    1LIG    C10   18  -1.309   0.695  -1.581
    1LIG    C11   19  -1.363   0.767  -1.688
    1LIG    C12   20  -1.312   0.752  -1.816
    1LIG    C13   21  -1.207   0.665  -1.839
    1LIG    C14   22  -1.152   0.593  -1.733
    1LIG    C15   23  -1.494   0.362  -1.611
    1LIG    C16   24  -1.609   0.428  -1.564
    1LIG    C17   25  -1.679   0.514  -1.650
    1LIG    C18   26  -1.638   0.526  -1.783
    1LIG    C19   27  -1.527   0.457  -1.831
    1LIG    C20   28  -1.454   0.376  -1.745
    1LIG     N3   29  -1.787   0.596  -1.598
    1LIG      S   30  -1.771   0.765  -1.599
    1LIG     O3   31  -1.658   0.803  -1.516
    1LIG     O4   32  -1.902   0.822  -1.575
    1LIG    C21   33  -1.727   0.802  -1.769
    1LIG    C22   34  -1.876   0.536  -1.501
    1LIG    C23   35  -1.859   0.567  -1.365
    1LIG    C24   36  -1.947   0.515  -1.270
    1LIG    C25   37  -2.051   0.430  -1.309
    1LIG    C26   38  -2.064   0.395  -1.443
    1LIG    C27   39  -1.976   0.446  -1.538
    1LIG     HC   40  -1.331   0.488  -1.391
    1LIG    HC1   41  -1.084   0.443  -1.265
    1LIG    HC2   42  -1.054   0.225  -1.202
    1LIG    HC3   43  -1.107   0.199  -1.369
    1LIG    HC4   44  -1.303  -0.044  -1.319
    1LIG    HC5   45  -1.203  -0.032  -1.023
    1LIG    HC6   46  -1.265  -0.178  -1.116
    1LIG    HC7   47  -1.079  -0.158  -1.283
    1LIG    HC8   48  -1.022  -0.006  -1.195
    1LIG    HC9   49  -1.105   0.601  -1.414
    1LIG   HC10   50  -1.058   0.472  -1.526
    1LIG   HC11   51  -1.349   0.708  -1.482
    1LIG   HC12   52  -1.445   0.835  -1.670
    1LIG   HC13   53  -1.355   0.809  -1.898
    1LIG   HC14   54  -1.167   0.653  -1.939
    1LIG   HC15   55  -1.070   0.525  -1.751
    1LIG   HC16   56  -1.642   0.413  -1.463
    1LIG   HC17   57  -1.694   0.589  -1.851
    1LIG   HC18   58  -1.497   0.468  -1.934
    1LIG   HC19   59  -1.367   0.323  -1.781
    1LIG   HC20   60  -1.779   0.632  -1.334
    1LIG   HC21   61  -1.935   0.540  -1.166
    1LIG   HC22   62  -2.121   0.392  -1.235
    1LIG   HC23   63  -2.143   0.327  -1.473
    1LIG   HC24   64  -1.985   0.416  -1.641
    1LIG   HC25   65  -1.751   0.906  -1.791
    1LIG   HC26   66  -1.782   0.737  -1.836
    1LIG   HC27   67  -1.620   0.786  -1.783
   0.00000   0.00000   0.00000
