; Created by cgenff_charmm2gmx.py

[ moleculetype ]
; Name			   nrexcl
LIG				 3

[ atoms ]
;	 nr		  type	resnr residue  atom   cgnr	   charge		mass  typeB    chargeB		massB
; residue	 1 LIG rtp LIG q	qsum
     1      CG2O1      1    LIG     C1      1      0.302     12.011   ;
     2      OG2D1      1    LIG     O1      2     -0.463     15.999   ;
     3      NG2S1      1    LIG     N1      3     -0.226     14.007   ;
     4       HGP1      1    LIG     H1      4      0.262      1.008   ;
     5      CG311      1    LIG     C2      5      0.010     12.011   ;
     6      CG311      1    LIG     C3      6      0.093     12.011   ;
     7      OG311      1    LIG     O2      7     -0.625     15.999   ;
     8       HGP1      1    LIG     H2      8      0.415      1.008   ;
     9      CG324      1    LIG     C4      9      0.183     12.011   ;
    10      NG3P2      1    LIG     N2     10     -0.409     14.007   ;
    11       HGP2      1    LIG     H3     11      0.335      1.008   ;
    12       HGP2      1    LIG     H4     12      0.335      1.008   ;
    13     CG3C31      1    LIG     C5     13      0.283     12.011   ;
    14     CG3C31      1    LIG     C6     14     -0.179     12.011   ;
    15     CG3C31      1    LIG     C7     15     -0.179     12.011   ;
    16      CG321      1    LIG     C8     16     -0.111     12.011   ;
    17     CG2R61      1    LIG     C9     17     -0.019     12.011   ;
    18     CG2R61      1    LIG    C10     18     -0.123     12.011   ;
    19     CG2R61      1    LIG    C11     19     -0.112     12.011   ;
    20     CG2R61      1    LIG    C12     20     -0.116     12.011   ;
    21     CG2R61      1    LIG    C13     21     -0.112     12.011   ;
    22     CG2R61      1    LIG    C14     22     -0.123     12.011   ;
    23     CG2R61      1    LIG    C15     23     -0.103     12.011   ;
    24     CG2R61      1    LIG    C16     24     -0.067     12.011   ;
    25     CG2R61      1    LIG    C17     25      0.151     12.011   ;
    26     CG2R61      1    LIG    C18     26     -0.123     12.011   ;
    27     CG2R61      1    LIG    C19     27     -0.110     12.011   ;
    28     CG2R61      1    LIG    C20     28     -0.060     12.011   ;
    29      NG301      1    LIG     N3     29     -0.231     14.007   ;
    30      SG3O2      1    LIG      S     30      0.466     32.060   ;
    31      OG2P1      1    LIG     O3     31     -0.412     15.999   ;
    32      OG2P1      1    LIG     O4     32     -0.412     15.999   ;
    33      CG331      1    LIG    C21     33      0.033     12.011   ;
    34     CG2R61      1    LIG    C22     34      0.149     12.011   ;
    35     CG2R61      1    LIG    C23     35     -0.123     12.011   ;
    36     CG2R61      1    LIG    C24     36     -0.112     12.011   ;
    37     CG2R61      1    LIG    C25     37     -0.116     12.011   ;
    38     CG2R61      1    LIG    C26     38     -0.112     12.011   ;
    39     CG2R61      1    LIG    C27     39     -0.123     12.011   ;
    40       HGA1      1    LIG     HC     40      0.090      1.008   ;
    41       HGA1      1    LIG    HC1     41      0.090      1.008   ;
    42       HGA2      1    LIG    HC2     42      0.090      1.008   ;
    43       HGA2      1    LIG    HC3     43      0.090      1.008   ;
    44       HGA1      1    LIG    HC4     44      0.090      1.008   ;
    45       HGA2      1    LIG    HC5     45      0.090      1.008   ;
    46       HGA2      1    LIG    HC6     46      0.090      1.008   ;
    47       HGA2      1    LIG    HC7     47      0.090      1.008   ;
    48       HGA2      1    LIG    HC8     48      0.090      1.008   ;
    49       HGA2      1    LIG    HC9     49      0.090      1.008   ;
    50       HGA2      1    LIG   HC10     50      0.090      1.008   ;
    51      HGR61      1    LIG   HC11     51      0.116      1.008   ;
    52      HGR61      1    LIG   HC12     52      0.116      1.008   ;
    53      HGR61      1    LIG   HC13     53      0.116      1.008   ;
    54      HGR61      1    LIG   HC14     54      0.116      1.008   ;
    55      HGR61      1    LIG   HC15     55      0.116      1.008   ;
    56      HGR61      1    LIG   HC16     56      0.116      1.008   ;
    57      HGR61      1    LIG   HC17     57      0.116      1.008   ;
    58      HGR61      1    LIG   HC18     58      0.116      1.008   ;
    59      HGR61      1    LIG   HC19     59      0.116      1.008   ;
    60      HGR61      1    LIG   HC20     60      0.116      1.008   ;
    61      HGR61      1    LIG   HC21     61      0.116      1.008   ;
    62      HGR61      1    LIG   HC22     62      0.116      1.008   ;
    63      HGR61      1    LIG   HC23     63      0.116      1.008   ;
    64      HGR61      1    LIG   HC24     64      0.116      1.008   ;
    65       HGA3      1    LIG   HC25     65      0.090      1.008   ;
    66       HGA3      1    LIG   HC26     66      0.090      1.008   ;
    67       HGA3      1    LIG   HC27     67      0.090      1.008   ;

[ bonds ]
;	ai	  aj funct			  c0			c1			  c2			c3
    1     3	 1 ;       CG2O1      NG2S1
    1     2	 1 ;       CG2O1      OG2D1
    1    23	 1 ;       CG2O1     CG2R61
    3     4	 1 ;       NG2S1       HGP1
    3     5	 1 ;       NG2S1      CG311
    5    16	 1 ;       CG311      CG321
    5     6	 1 ;       CG311      CG311
    5    40	 1 ;       CG311       HGA1
    6     9	 1 ;       CG311      CG324
    6     7	 1 ;       CG311      OG311
    6    41	 1 ;       CG311       HGA1
    7     8	 1 ;       OG311       HGP1
    9    10	 1 ;       CG324      NG3P2
    9    42	 1 ;       CG324       HGA2
    9    43	 1 ;       CG324       HGA2
   10    13	 1 ;       NG3P2     CG3C31
   10    12	 1 ;       NG3P2       HGP2
   10    11	 1 ;       NG3P2       HGP2
   13    15	 1 ;      CG3C31     CG3C31
   13    14	 1 ;      CG3C31     CG3C31
   13    44	 1 ;      CG3C31       HGA1
   14    15	 1 ;      CG3C31     CG3C31
   14    45	 1 ;      CG3C31       HGA2
   14    46	 1 ;      CG3C31       HGA2
   15    47	 1 ;      CG3C31       HGA2
   15    48	 1 ;      CG3C31       HGA2
   16    17	 1 ;       CG321     CG2R61
   16    49	 1 ;       CG321       HGA2
   16    50	 1 ;       CG321       HGA2
   17    22	 1 ;      CG2R61     CG2R61
   17    18	 1 ;      CG2R61     CG2R61
   18    19	 1 ;      CG2R61     CG2R61
   18    51	 1 ;      CG2R61      HGR61
   19    20	 1 ;      CG2R61     CG2R61
   19    52	 1 ;      CG2R61      HGR61
   20    21	 1 ;      CG2R61     CG2R61
   20    53	 1 ;      CG2R61      HGR61
   21    22	 1 ;      CG2R61     CG2R61
   21    54	 1 ;      CG2R61      HGR61
   22    55	 1 ;      CG2R61      HGR61
   23    28	 1 ;      CG2R61     CG2R61
   23    24	 1 ;      CG2R61     CG2R61
   24    25	 1 ;      CG2R61     CG2R61
   24    56	 1 ;      CG2R61      HGR61
   25    26	 1 ;      CG2R61     CG2R61
   25    29	 1 ;      CG2R61      NG301
   26    27	 1 ;      CG2R61     CG2R61
   26    57	 1 ;      CG2R61      HGR61
   27    28	 1 ;      CG2R61     CG2R61
   27    58	 1 ;      CG2R61      HGR61
   28    59	 1 ;      CG2R61      HGR61
   29    30	 1 ;       NG301      SG3O2
   29    34	 1 ;       NG301     CG2R61
   30    33	 1 ;       SG3O2      CG331
   30    31	 1 ;       SG3O2      OG2P1
   30    32	 1 ;       SG3O2      OG2P1
   33    65	 1 ;       CG331       HGA3
   33    66	 1 ;       CG331       HGA3
   33    67	 1 ;       CG331       HGA3
   34    39	 1 ;      CG2R61     CG2R61
   34    35	 1 ;      CG2R61     CG2R61
   35    36	 1 ;      CG2R61     CG2R61
   35    60	 1 ;      CG2R61      HGR61
   36    37	 1 ;      CG2R61     CG2R61
   36    61	 1 ;      CG2R61      HGR61
   37    38	 1 ;      CG2R61     CG2R61
   37    62	 1 ;      CG2R61      HGR61
   38    39	 1 ;      CG2R61     CG2R61
   38    63	 1 ;      CG2R61      HGR61
   39    64	 1 ;      CG2R61      HGR61

[ pairs ]
;	ai	  aj funct			  c0			c1			  c2			c3
    1    16	 1
    1     6	 1
    1    40	 1
    1    27	 1
    1    59	 1
    1    25	 1
    1    56	 1
    2     4	 1
    2     5	 1
    2    28	 1
    2    24	 1
    3    28	 1
    3    24	 1
    3    17	 1
    3    49	 1
    3    50	 1
    3     9	 1
    3     7	 1
    3    41	 1
    4    23	 1
    4    16	 1
    4     6	 1
    4    40	 1
    5    23	 1
    5    10	 1
    5    42	 1
    5    43	 1
    5     8	 1
    5    22	 1
    5    18	 1
    6    17	 1
    6    49	 1
    6    50	 1
    6    13	 1
    6    12	 1
    6    11	 1
    7    16	 1
    7    40	 1
    7    10	 1
    7    42	 1
    7    43	 1
    8     9	 1
    8    41	 1
    9    16	 1
    9    40	 1
    9    15	 1
    9    14	 1
    9    44	 1
   10    41	 1
   10    47	 1
   10    48	 1
   10    45	 1
   10    46	 1
   11    42	 1
   11    43	 1
   11    15	 1
   11    14	 1
   11    44	 1
   12    42	 1
   12    43	 1
   12    15	 1
   12    14	 1
   12    44	 1
   13    42	 1
   13    43	 1
   16    41	 1
   16    21	 1
   16    55	 1
   16    19	 1
   16    51	 1
   17    40	 1
   17    20	 1
   17    52	 1
   17    54	 1
   18    49	 1
   18    50	 1
   18    21	 1
   18    55	 1
   18    53	 1
   19    22	 1
   19    54	 1
   20    51	 1
   20    55	 1
   21    52	 1
   22    49	 1
   22    50	 1
   22    51	 1
   22    53	 1
   23    26	 1
   23    29	 1
   23    58	 1
   24    27	 1
   24    59	 1
   24    57	 1
   24    30	 1
   24    34	 1
   25    28	 1
   25    58	 1
   25    33	 1
   25    31	 1
   25    32	 1
   25    39	 1
   25    35	 1
   26    56	 1
   26    30	 1
   26    34	 1
   26    59	 1
   27    29	 1
   28    56	 1
   28    57	 1
   29    56	 1
   29    57	 1
   29    65	 1
   29    66	 1
   29    67	 1
   29    38	 1
   29    64	 1
   29    36	 1
   29    60	 1
   30    39	 1
   30    35	 1
   31    34	 1
   31    65	 1
   31    66	 1
   31    67	 1
   32    34	 1
   32    65	 1
   32    66	 1
   32    67	 1
   33    34	 1
   34    37	 1
   34    61	 1
   34    63	 1
   35    38	 1
   35    64	 1
   35    62	 1
   36    39	 1
   36    63	 1
   37    60	 1
   37    64	 1
   38    61	 1
   39    60	 1
   39    62	 1
   40    49	 1
   40    50	 1
   40    41	 1
   41    42	 1
   41    43	 1
   44    47	 1
   44    48	 1
   44    45	 1
   44    46	 1
   45    47	 1
   45    48	 1
   46    47	 1
   46    48	 1
   51    52	 1
   52    53	 1
   53    54	 1
   54    55	 1
   57    58	 1
   58    59	 1
   60    61	 1
   61    62	 1
   62    63	 1
   63    64	 1

[ angles ]
;	ai	  aj	ak funct			c0			  c1			c2			  c3
    3     1     2	5 ;      NG2S1      CG2O1      OG2D1
    3     1    23	5 ;      NG2S1      CG2O1     CG2R61
    2     1    23	5 ;      OG2D1      CG2O1     CG2R61
    4     3     5	5 ;       HGP1      NG2S1      CG311
    4     3     1	5 ;       HGP1      NG2S1      CG2O1
    5     3     1	5 ;      CG311      NG2S1      CG2O1
   16     5     3	5 ;      CG321      CG311      NG2S1
   16     5     6	5 ;      CG321      CG311      CG311
   16     5    40	5 ;      CG321      CG311       HGA1
    3     5     6	5 ;      NG2S1      CG311      CG311
    3     5    40	5 ;      NG2S1      CG311       HGA1
    6     5    40	5 ;      CG311      CG311       HGA1
    9     6     5	5 ;      CG324      CG311      CG311
    9     6     7	5 ;      CG324      CG311      OG311
    9     6    41	5 ;      CG324      CG311       HGA1
    5     6     7	5 ;      CG311      CG311      OG311
    5     6    41	5 ;      CG311      CG311       HGA1
    7     6    41	5 ;      OG311      CG311       HGA1
    6     7     8	5 ;      CG311      OG311       HGP1
    6     9    10	5 ;      CG311      CG324      NG3P2
    6     9    42	5 ;      CG311      CG324       HGA2
    6     9    43	5 ;      CG311      CG324       HGA2
   10     9    42	5 ;      NG3P2      CG324       HGA2
   10     9    43	5 ;      NG3P2      CG324       HGA2
   42     9    43	5 ;       HGA2      CG324       HGA2
    9    10    13	5 ;      CG324      NG3P2     CG3C31
    9    10    12	5 ;      CG324      NG3P2       HGP2
    9    10    11	5 ;      CG324      NG3P2       HGP2
   13    10    12	5 ;     CG3C31      NG3P2       HGP2
   13    10    11	5 ;     CG3C31      NG3P2       HGP2
   12    10    11	5 ;       HGP2      NG3P2       HGP2
   15    13    10	5 ;     CG3C31     CG3C31      NG3P2
   15    13    14	5 ;     CG3C31     CG3C31     CG3C31
   15    13    44	5 ;     CG3C31     CG3C31       HGA1
   10    13    14	5 ;      NG3P2     CG3C31     CG3C31
   10    13    44	5 ;      NG3P2     CG3C31       HGA1
   14    13    44	5 ;     CG3C31     CG3C31       HGA1
   15    14    13	5 ;     CG3C31     CG3C31     CG3C31
   15    14    45	5 ;     CG3C31     CG3C31       HGA2
   15    14    46	5 ;     CG3C31     CG3C31       HGA2
   13    14    45	5 ;     CG3C31     CG3C31       HGA2
   13    14    46	5 ;     CG3C31     CG3C31       HGA2
   45    14    46	5 ;       HGA2     CG3C31       HGA2
   13    15    14	5 ;     CG3C31     CG3C31     CG3C31
   13    15    47	5 ;     CG3C31     CG3C31       HGA2
   13    15    48	5 ;     CG3C31     CG3C31       HGA2
   14    15    47	5 ;     CG3C31     CG3C31       HGA2
   14    15    48	5 ;     CG3C31     CG3C31       HGA2
   47    15    48	5 ;       HGA2     CG3C31       HGA2
   17    16     5	5 ;     CG2R61      CG321      CG311
   17    16    49	5 ;     CG2R61      CG321       HGA2
   17    16    50	5 ;     CG2R61      CG321       HGA2
    5    16    49	5 ;      CG311      CG321       HGA2
    5    16    50	5 ;      CG311      CG321       HGA2
   49    16    50	5 ;       HGA2      CG321       HGA2
   22    17    16	5 ;     CG2R61     CG2R61      CG321
   22    17    18	5 ;     CG2R61     CG2R61     CG2R61
   16    17    18	5 ;      CG321     CG2R61     CG2R61
   17    18    19	5 ;     CG2R61     CG2R61     CG2R61
   17    18    51	5 ;     CG2R61     CG2R61      HGR61
   19    18    51	5 ;     CG2R61     CG2R61      HGR61
   20    19    18	5 ;     CG2R61     CG2R61     CG2R61
   20    19    52	5 ;     CG2R61     CG2R61      HGR61
   18    19    52	5 ;     CG2R61     CG2R61      HGR61
   21    20    19	5 ;     CG2R61     CG2R61     CG2R61
   21    20    53	5 ;     CG2R61     CG2R61      HGR61
   19    20    53	5 ;     CG2R61     CG2R61      HGR61
   22    21    20	5 ;     CG2R61     CG2R61     CG2R61
   22    21    54	5 ;     CG2R61     CG2R61      HGR61
   20    21    54	5 ;     CG2R61     CG2R61      HGR61
   21    22    17	5 ;     CG2R61     CG2R61     CG2R61
   21    22    55	5 ;     CG2R61     CG2R61      HGR61
   17    22    55	5 ;     CG2R61     CG2R61      HGR61
   28    23     1	5 ;     CG2R61     CG2R61      CG2O1
   28    23    24	5 ;     CG2R61     CG2R61     CG2R61
    1    23    24	5 ;      CG2O1     CG2R61     CG2R61
   23    24    25	5 ;     CG2R61     CG2R61     CG2R61
   23    24    56	5 ;     CG2R61     CG2R61      HGR61
   25    24    56	5 ;     CG2R61     CG2R61      HGR61
   26    25    24	5 ;     CG2R61     CG2R61     CG2R61
   26    25    29	5 ;     CG2R61     CG2R61      NG301
   24    25    29	5 ;     CG2R61     CG2R61      NG301
   27    26    25	5 ;     CG2R61     CG2R61     CG2R61
   27    26    57	5 ;     CG2R61     CG2R61      HGR61
   25    26    57	5 ;     CG2R61     CG2R61      HGR61
   28    27    26	5 ;     CG2R61     CG2R61     CG2R61
   28    27    58	5 ;     CG2R61     CG2R61      HGR61
   26    27    58	5 ;     CG2R61     CG2R61      HGR61
   27    28    23	5 ;     CG2R61     CG2R61     CG2R61
   27    28    59	5 ;     CG2R61     CG2R61      HGR61
   23    28    59	5 ;     CG2R61     CG2R61      HGR61
   25    29    30	5 ;     CG2R61      NG301      SG3O2
   25    29    34	5 ;     CG2R61      NG301     CG2R61
   30    29    34	5 ;      SG3O2      NG301     CG2R61
   33    30    31	5 ;      CG331      SG3O2      OG2P1
   33    30    29	5 ;      CG331      SG3O2      NG301
   33    30    32	5 ;      CG331      SG3O2      OG2P1
   31    30    29	5 ;      OG2P1      SG3O2      NG301
   31    30    32	5 ;      OG2P1      SG3O2      OG2P1
   29    30    32	5 ;      NG301      SG3O2      OG2P1
   30    33    65	5 ;      SG3O2      CG331       HGA3
   30    33    66	5 ;      SG3O2      CG331       HGA3
   30    33    67	5 ;      SG3O2      CG331       HGA3
   65    33    66	5 ;       HGA3      CG331       HGA3
   65    33    67	5 ;       HGA3      CG331       HGA3
   66    33    67	5 ;       HGA3      CG331       HGA3
   29    34    39	5 ;      NG301     CG2R61     CG2R61
   29    34    35	5 ;      NG301     CG2R61     CG2R61
   39    34    35	5 ;     CG2R61     CG2R61     CG2R61
   34    35    36	5 ;     CG2R61     CG2R61     CG2R61
   34    35    60	5 ;     CG2R61     CG2R61      HGR61
   36    35    60	5 ;     CG2R61     CG2R61      HGR61
   35    36    37	5 ;     CG2R61     CG2R61     CG2R61
   35    36    61	5 ;     CG2R61     CG2R61      HGR61
   37    36    61	5 ;     CG2R61     CG2R61      HGR61
   38    37    36	5 ;     CG2R61     CG2R61     CG2R61
   38    37    62	5 ;     CG2R61     CG2R61      HGR61
   36    37    62	5 ;     CG2R61     CG2R61      HGR61
   39    38    37	5 ;     CG2R61     CG2R61     CG2R61
   39    38    63	5 ;     CG2R61     CG2R61      HGR61
   37    38    63	5 ;     CG2R61     CG2R61      HGR61
   34    39    38	5 ;     CG2R61     CG2R61     CG2R61
   34    39    64	5 ;     CG2R61     CG2R61      HGR61
   38    39    64	5 ;     CG2R61     CG2R61      HGR61

[ dihedrals ]
;	ai	  aj	ak	  al funct			  c0			c1			  c2			c3			  c4			c5
    2     1     3     4	 9 ;      OG2D1      CG2O1      NG2S1       HGP1
    2     1     3     5	 9 ;      OG2D1      CG2O1      NG2S1      CG311
   23     1     3     4	 9 ;     CG2R61      CG2O1      NG2S1       HGP1
   23     1     3     5	 9 ;     CG2R61      CG2O1      NG2S1      CG311
    3     1    23    28	 9 ;      NG2S1      CG2O1     CG2R61     CG2R61
    3     1    23    24	 9 ;      NG2S1      CG2O1     CG2R61     CG2R61
    2     1    23    28	 9 ;      OG2D1      CG2O1     CG2R61     CG2R61
    2     1    23    24	 9 ;      OG2D1      CG2O1     CG2R61     CG2R61
    4     3     5    16	 9 ;       HGP1      NG2S1      CG311      CG321
    4     3     5     6	 9 ;       HGP1      NG2S1      CG311      CG311
    4     3     5    40	 9 ;       HGP1      NG2S1      CG311       HGA1
    1     3     5    16	 9 ;      CG2O1      NG2S1      CG311      CG321
    1     3     5     6	 9 ;      CG2O1      NG2S1      CG311      CG311
    1     3     5    40	 9 ;      CG2O1      NG2S1      CG311       HGA1
    3     5    16    17	 9 ;      NG2S1      CG311      CG321     CG2R61
    3     5    16    49	 9 ;      NG2S1      CG311      CG321       HGA2
    3     5    16    50	 9 ;      NG2S1      CG311      CG321       HGA2
    6     5    16    17	 9 ;      CG311      CG311      CG321     CG2R61
    6     5    16    49	 9 ;      CG311      CG311      CG321       HGA2
    6     5    16    50	 9 ;      CG311      CG311      CG321       HGA2
   40     5    16    17	 9 ;       HGA1      CG311      CG321     CG2R61
   40     5    16    49	 9 ;       HGA1      CG311      CG321       HGA2
   40     5    16    50	 9 ;       HGA1      CG311      CG321       HGA2
   16     5     6     9	 9 ;      CG321      CG311      CG311      CG324
   16     5     6     7	 9 ;      CG321      CG311      CG311      OG311
   16     5     6    41	 9 ;      CG321      CG311      CG311       HGA1
    3     5     6     9	 9 ;      NG2S1      CG311      CG311      CG324
    3     5     6     7	 9 ;      NG2S1      CG311      CG311      OG311
    3     5     6    41	 9 ;      NG2S1      CG311      CG311       HGA1
   40     5     6     9	 9 ;       HGA1      CG311      CG311      CG324
   40     5     6     7	 9 ;       HGA1      CG311      CG311      OG311
   40     5     6    41	 9 ;       HGA1      CG311      CG311       HGA1
    5     6     9    10	 9 ;      CG311      CG311      CG324      NG3P2
    5     6     9    42	 9 ;      CG311      CG311      CG324       HGA2
    5     6     9    43	 9 ;      CG311      CG311      CG324       HGA2
    7     6     9    10	 9 ;      OG311      CG311      CG324      NG3P2
    7     6     9    42	 9 ;      OG311      CG311      CG324       HGA2
    7     6     9    43	 9 ;      OG311      CG311      CG324       HGA2
   41     6     9    10	 9 ;       HGA1      CG311      CG324      NG3P2
   41     6     9    42	 9 ;       HGA1      CG311      CG324       HGA2
   41     6     9    43	 9 ;       HGA1      CG311      CG324       HGA2
    9     6     7     8	 9 ;      CG324      CG311      OG311       HGP1
    5     6     7     8	 9 ;      CG311      CG311      OG311       HGP1
   41     6     7     8	 9 ;       HGA1      CG311      OG311       HGP1
    6     9    10    13	 9 ;      CG311      CG324      NG3P2     CG3C31
    6     9    10    12	 9 ;      CG311      CG324      NG3P2       HGP2
    6     9    10    11	 9 ;      CG311      CG324      NG3P2       HGP2
   42     9    10    13	 9 ;       HGA2      CG324      NG3P2     CG3C31
   42     9    10    12	 9 ;       HGA2      CG324      NG3P2       HGP2
   42     9    10    11	 9 ;       HGA2      CG324      NG3P2       HGP2
   43     9    10    13	 9 ;       HGA2      CG324      NG3P2     CG3C31
   43     9    10    12	 9 ;       HGA2      CG324      NG3P2       HGP2
   43     9    10    11	 9 ;       HGA2      CG324      NG3P2       HGP2
    9    10    13    15	 9 ;      CG324      NG3P2     CG3C31     CG3C31
    9    10    13    14	 9 ;      CG324      NG3P2     CG3C31     CG3C31
    9    10    13    44	 9 ;      CG324      NG3P2     CG3C31       HGA1
   12    10    13    15	 9 ;       HGP2      NG3P2     CG3C31     CG3C31
   12    10    13    14	 9 ;       HGP2      NG3P2     CG3C31     CG3C31
   12    10    13    44	 9 ;       HGP2      NG3P2     CG3C31       HGA1
   11    10    13    15	 9 ;       HGP2      NG3P2     CG3C31     CG3C31
   11    10    13    14	 9 ;       HGP2      NG3P2     CG3C31     CG3C31
   11    10    13    44	 9 ;       HGP2      NG3P2     CG3C31       HGA1
   10    13    15    14	 9 ;      NG3P2     CG3C31     CG3C31     CG3C31
   10    13    15    47	 9 ;      NG3P2     CG3C31     CG3C31       HGA2
   10    13    15    48	 9 ;      NG3P2     CG3C31     CG3C31       HGA2
   14    13    15    47	 9 ;     CG3C31     CG3C31     CG3C31       HGA2
   14    13    15    48	 9 ;     CG3C31     CG3C31     CG3C31       HGA2
   44    13    15    14	 9 ;       HGA1     CG3C31     CG3C31     CG3C31
   44    13    15    47	 9 ;       HGA1     CG3C31     CG3C31       HGA2
   44    13    15    48	 9 ;       HGA1     CG3C31     CG3C31       HGA2
   15    13    14    45	 9 ;     CG3C31     CG3C31     CG3C31       HGA2
   15    13    14    46	 9 ;     CG3C31     CG3C31     CG3C31       HGA2
   10    13    14    15	 9 ;      NG3P2     CG3C31     CG3C31     CG3C31
   10    13    14    45	 9 ;      NG3P2     CG3C31     CG3C31       HGA2
   10    13    14    46	 9 ;      NG3P2     CG3C31     CG3C31       HGA2
   44    13    14    15	 9 ;       HGA1     CG3C31     CG3C31     CG3C31
   44    13    14    45	 9 ;       HGA1     CG3C31     CG3C31       HGA2
   44    13    14    46	 9 ;       HGA1     CG3C31     CG3C31       HGA2
   13    14    15    47	 9 ;     CG3C31     CG3C31     CG3C31       HGA2
   13    14    15    48	 9 ;     CG3C31     CG3C31     CG3C31       HGA2
   45    14    15    13	 9 ;       HGA2     CG3C31     CG3C31     CG3C31
   45    14    15    47	 9 ;       HGA2     CG3C31     CG3C31       HGA2
   45    14    15    48	 9 ;       HGA2     CG3C31     CG3C31       HGA2
   46    14    15    13	 9 ;       HGA2     CG3C31     CG3C31     CG3C31
   46    14    15    47	 9 ;       HGA2     CG3C31     CG3C31       HGA2
   46    14    15    48	 9 ;       HGA2     CG3C31     CG3C31       HGA2
    5    16    17    22	 9 ;      CG311      CG321     CG2R61     CG2R61
    5    16    17    18	 9 ;      CG311      CG321     CG2R61     CG2R61
   49    16    17    22	 9 ;       HGA2      CG321     CG2R61     CG2R61
   49    16    17    18	 9 ;       HGA2      CG321     CG2R61     CG2R61
   50    16    17    22	 9 ;       HGA2      CG321     CG2R61     CG2R61
   50    16    17    18	 9 ;       HGA2      CG321     CG2R61     CG2R61
   16    17    22    21	 9 ;      CG321     CG2R61     CG2R61     CG2R61
   16    17    22    55	 9 ;      CG321     CG2R61     CG2R61      HGR61
   18    17    22    21	 9 ;     CG2R61     CG2R61     CG2R61     CG2R61
   18    17    22    55	 9 ;     CG2R61     CG2R61     CG2R61      HGR61
   22    17    18    19	 9 ;     CG2R61     CG2R61     CG2R61     CG2R61
   22    17    18    51	 9 ;     CG2R61     CG2R61     CG2R61      HGR61
   16    17    18    19	 9 ;      CG321     CG2R61     CG2R61     CG2R61
   16    17    18    51	 9 ;      CG321     CG2R61     CG2R61      HGR61
   17    18    19    20	 9 ;     CG2R61     CG2R61     CG2R61     CG2R61
   17    18    19    52	 9 ;     CG2R61     CG2R61     CG2R61      HGR61
   51    18    19    20	 9 ;      HGR61     CG2R61     CG2R61     CG2R61
   51    18    19    52	 9 ;      HGR61     CG2R61     CG2R61      HGR61
   18    19    20    21	 9 ;     CG2R61     CG2R61     CG2R61     CG2R61
   18    19    20    53	 9 ;     CG2R61     CG2R61     CG2R61      HGR61
   52    19    20    21	 9 ;      HGR61     CG2R61     CG2R61     CG2R61
   52    19    20    53	 9 ;      HGR61     CG2R61     CG2R61      HGR61
   19    20    21    22	 9 ;     CG2R61     CG2R61     CG2R61     CG2R61
   19    20    21    54	 9 ;     CG2R61     CG2R61     CG2R61      HGR61
   53    20    21    22	 9 ;      HGR61     CG2R61     CG2R61     CG2R61
   53    20    21    54	 9 ;      HGR61     CG2R61     CG2R61      HGR61
   20    21    22    17	 9 ;     CG2R61     CG2R61     CG2R61     CG2R61
   20    21    22    55	 9 ;     CG2R61     CG2R61     CG2R61      HGR61
   54    21    22    17	 9 ;      HGR61     CG2R61     CG2R61     CG2R61
   54    21    22    55	 9 ;      HGR61     CG2R61     CG2R61      HGR61
    1    23    28    27	 9 ;      CG2O1     CG2R61     CG2R61     CG2R61
    1    23    28    59	 9 ;      CG2O1     CG2R61     CG2R61      HGR61
   24    23    28    27	 9 ;     CG2R61     CG2R61     CG2R61     CG2R61
   24    23    28    59	 9 ;     CG2R61     CG2R61     CG2R61      HGR61
   28    23    24    25	 9 ;     CG2R61     CG2R61     CG2R61     CG2R61
   28    23    24    56	 9 ;     CG2R61     CG2R61     CG2R61      HGR61
    1    23    24    25	 9 ;      CG2O1     CG2R61     CG2R61     CG2R61
    1    23    24    56	 9 ;      CG2O1     CG2R61     CG2R61      HGR61
   23    24    25    26	 9 ;     CG2R61     CG2R61     CG2R61     CG2R61
   23    24    25    29	 9 ;     CG2R61     CG2R61     CG2R61      NG301
   56    24    25    26	 9 ;      HGR61     CG2R61     CG2R61     CG2R61
   56    24    25    29	 9 ;      HGR61     CG2R61     CG2R61      NG301
   24    25    26    27	 9 ;     CG2R61     CG2R61     CG2R61     CG2R61
   24    25    26    57	 9 ;     CG2R61     CG2R61     CG2R61      HGR61
   29    25    26    27	 9 ;      NG301     CG2R61     CG2R61     CG2R61
   29    25    26    57	 9 ;      NG301     CG2R61     CG2R61      HGR61
   26    25    29    30	 9 ;     CG2R61     CG2R61      NG301      SG3O2
   26    25    29    34	 9 ;     CG2R61     CG2R61      NG301     CG2R61
   24    25    29    30	 9 ;     CG2R61     CG2R61      NG301      SG3O2
   24    25    29    34	 9 ;     CG2R61     CG2R61      NG301     CG2R61
   25    26    27    28	 9 ;     CG2R61     CG2R61     CG2R61     CG2R61
   25    26    27    58	 9 ;     CG2R61     CG2R61     CG2R61      HGR61
   57    26    27    28	 9 ;      HGR61     CG2R61     CG2R61     CG2R61
   57    26    27    58	 9 ;      HGR61     CG2R61     CG2R61      HGR61
   26    27    28    23	 9 ;     CG2R61     CG2R61     CG2R61     CG2R61
   26    27    28    59	 9 ;     CG2R61     CG2R61     CG2R61      HGR61
   58    27    28    23	 9 ;      HGR61     CG2R61     CG2R61     CG2R61
   58    27    28    59	 9 ;      HGR61     CG2R61     CG2R61      HGR61
   25    29    30    33	 9 ;     CG2R61      NG301      SG3O2      CG331
   25    29    30    31	 9 ;     CG2R61      NG301      SG3O2      OG2P1
   25    29    30    32	 9 ;     CG2R61      NG301      SG3O2      OG2P1
   34    29    30    33	 9 ;     CG2R61      NG301      SG3O2      CG331
   34    29    30    31	 9 ;     CG2R61      NG301      SG3O2      OG2P1
   34    29    30    32	 9 ;     CG2R61      NG301      SG3O2      OG2P1
   25    29    34    39	 9 ;     CG2R61      NG301     CG2R61     CG2R61
   25    29    34    35	 9 ;     CG2R61      NG301     CG2R61     CG2R61
   30    29    34    39	 9 ;      SG3O2      NG301     CG2R61     CG2R61
   30    29    34    35	 9 ;      SG3O2      NG301     CG2R61     CG2R61
   31    30    33    65	 9 ;      OG2P1      SG3O2      CG331       HGA3
   31    30    33    66	 9 ;      OG2P1      SG3O2      CG331       HGA3
   31    30    33    67	 9 ;      OG2P1      SG3O2      CG331       HGA3
   29    30    33    65	 9 ;      NG301      SG3O2      CG331       HGA3
   29    30    33    66	 9 ;      NG301      SG3O2      CG331       HGA3
   29    30    33    67	 9 ;      NG301      SG3O2      CG331       HGA3
   32    30    33    65	 9 ;      OG2P1      SG3O2      CG331       HGA3
   32    30    33    66	 9 ;      OG2P1      SG3O2      CG331       HGA3
   32    30    33    67	 9 ;      OG2P1      SG3O2      CG331       HGA3
   29    34    39    38	 9 ;      NG301     CG2R61     CG2R61     CG2R61
   29    34    39    64	 9 ;      NG301     CG2R61     CG2R61      HGR61
   35    34    39    38	 9 ;     CG2R61     CG2R61     CG2R61     CG2R61
   35    34    39    64	 9 ;     CG2R61     CG2R61     CG2R61      HGR61
   29    34    35    36	 9 ;      NG301     CG2R61     CG2R61     CG2R61
   29    34    35    60	 9 ;      NG301     CG2R61     CG2R61      HGR61
   39    34    35    36	 9 ;     CG2R61     CG2R61     CG2R61     CG2R61
   39    34    35    60	 9 ;     CG2R61     CG2R61     CG2R61      HGR61
   34    35    36    37	 9 ;     CG2R61     CG2R61     CG2R61     CG2R61
   34    35    36    61	 9 ;     CG2R61     CG2R61     CG2R61      HGR61
   60    35    36    37	 9 ;      HGR61     CG2R61     CG2R61     CG2R61
   60    35    36    61	 9 ;      HGR61     CG2R61     CG2R61      HGR61
   35    36    37    38	 9 ;     CG2R61     CG2R61     CG2R61     CG2R61
   35    36    37    62	 9 ;     CG2R61     CG2R61     CG2R61      HGR61
   61    36    37    38	 9 ;      HGR61     CG2R61     CG2R61     CG2R61
   61    36    37    62	 9 ;      HGR61     CG2R61     CG2R61      HGR61
   36    37    38    39	 9 ;     CG2R61     CG2R61     CG2R61     CG2R61
   36    37    38    63	 9 ;     CG2R61     CG2R61     CG2R61      HGR61
   62    37    38    39	 9 ;      HGR61     CG2R61     CG2R61     CG2R61
   62    37    38    63	 9 ;      HGR61     CG2R61     CG2R61      HGR61
   37    38    39    34	 9 ;     CG2R61     CG2R61     CG2R61     CG2R61
   37    38    39    64	 9 ;     CG2R61     CG2R61     CG2R61      HGR61
   63    38    39    34	 9 ;      HGR61     CG2R61     CG2R61     CG2R61
   63    38    39    64	 9 ;      HGR61     CG2R61     CG2R61      HGR61

[ dihedrals ]
;	ai	  aj	ak	  al funct			  c0			c1			  c2			c3
    1    23     3     2	 2

