Great Red Owns Many ACres of Sand 
   57
    1LIG     C1    1  -1.380   0.388  -1.553
    1LIG     C2    2  -1.265   0.484  -1.589
    1LIG     N1    3  -1.247   0.594  -1.509
    1LIG     C3    4  -1.147   0.685  -1.528
    1LIG     H1    5  -1.309   0.614  -1.431
    1LIG      O    6  -1.133   0.784  -1.458
    1LIG     C4    7  -1.056   0.655  -1.639
    1LIG     C5    8  -1.082   0.545  -1.711
    1LIG     N2    9  -1.186   0.458  -1.689
    1LIG    HN1   10  -1.201   0.377  -1.749
    1LIG     C6   11  -1.358   0.314  -1.419
    1LIG     C7   12  -1.284   0.182  -1.423
    1LIG     C8   13  -1.231   0.127  -1.304
    1LIG     C9   14  -1.172   0.001  -1.304
    1LIG    C10   15  -1.166  -0.074  -1.422
    1LIG    C11   16  -1.216  -0.020  -1.540
    1LIG    C12   17  -1.274   0.107  -1.541
    1LIG     N3   18  -1.507   0.462  -1.554
    1LIG     H2   19  -1.504   0.546  -1.496
    1LIG    C13   20  -1.617   0.430  -1.630
    1LIG     N4   21  -1.609   0.439  -1.760
    1LIG    C14   22  -1.728   0.405  -1.842
    1LIG    HN2   23  -1.522   0.468  -1.804
    1LIG    C15   24  -1.802   0.284  -1.783
    1LIG    C16   25  -1.678   0.370  -1.982
    1LIG    C17   26  -1.820   0.528  -1.853
    1LIG    C18   27  -1.835   0.312  -1.638
    1LIG    C19   28  -1.955   0.267  -1.582
    1LIG    C20   29  -1.742   0.382  -1.561
    1LIG    C21   30  -1.982   0.294  -1.448
    1LIG     CL   31  -2.132   0.245  -1.380
    1LIG    C22   32  -1.888   0.361  -1.369
    1LIG    C23   33  -1.768   0.405  -1.426
    1LIG     HC   34  -1.386   0.313  -1.631
    1LIG    HC1   35  -1.331   0.541  -1.655
    1LIG    HC2   36  -0.973   0.719  -1.662
    1LIG    HC3   37  -1.014   0.522  -1.793
    1LIG    HC4   38  -1.456   0.294  -1.376
    1LIG    HC5   39  -1.304   0.381  -1.352
    1LIG    HC6   40  -1.235   0.184  -1.213
    1LIG    HC7   41  -1.132  -0.040  -1.213
    1LIG    HC8   42  -1.122  -0.172  -1.421
    1LIG    HC9   43  -1.210  -0.076  -1.632
    1LIG   HC10   44  -1.313   0.148  -1.633
    1LIG   HC11   45  -1.893   0.267  -1.838
    1LIG   HC12   46  -1.738   0.196  -1.789
    1LIG   HC13   47  -1.612   0.283  -1.976
    1LIG   HC14   48  -1.622   0.454  -2.023
    1LIG   HC15   49  -1.763   0.347  -2.046
    1LIG   HC16   50  -1.857   0.555  -1.754
    1LIG   HC17   51  -1.904   0.504  -1.918
    1LIG   HC18   52  -1.764   0.612  -1.895
    1LIG   HC19   53  -2.026   0.213  -1.642
    1LIG   HC20   54  -1.908   0.380  -1.265
    1LIG   HC21   55  -1.695   0.456  -1.365
    1LIG    H27   56  -1.651   0.533  -1.624
    1LIG    LP1   57  -2.275   0.199  -1.314
   0.00000   0.00000   0.00000
