; Created by cgenff_charmm2gmx.py

[ moleculetype ]
; Name			   nrexcl
LIG				 3

[ atoms ]
;	 nr		  type	resnr residue  atom   cgnr	   charge		mass  typeB    chargeB		massB
; residue	 1 LIG rtp LIG q	qsum
     1      CG311      1    LIG     C1      1      0.210     12.011   ;
     2      CG311      1    LIG     C2      2      0.110     12.011   ;
     3      NG2S1      1    LIG     N1      3     -0.377     14.007   ;
     4      CG2O1      1    LIG     C3      4      0.373     12.011   ;
     5       HGP1      1    LIG     H1      5      0.226      1.008   ;
     6      OG2D1      1    LIG      O      6     -0.523     15.999   ;
     7     CG2DC1      1    LIG     C4      7     -0.022     12.011   ;
     8     CG2D1O      1    LIG     C5      8     -0.120     12.011   ;
     9      NG311      1    LIG     N2      9     -0.426     14.007   ;
    10     HGPAM1      1    LIG    HN1     10      0.375      1.008   ;
    11      CG321      1    LIG     C6     11     -0.211     12.011   ;
    12     CG2R61      1    LIG     C7     12      0.002     12.011   ;
    13     CG2R61      1    LIG     C8     13     -0.123     12.011   ;
    14     CG2R61      1    LIG     C9     14     -0.112     12.011   ;
    15     CG2R61      1    LIG    C10     15     -0.116     12.011   ;
    16     CG2R61      1    LIG    C11     16     -0.112     12.011   ;
    17     CG2R61      1    LIG    C12     17     -0.123     12.011   ;
    18      NG311      1    LIG     N3     18     -0.787     14.007   ;
    19     HGPAM1      1    LIG     H2     19      0.359      1.008   ;
    20      CG311      1    LIG    C13     20      0.302     12.011   ;
    21      NG311      1    LIG     N4     21     -0.864     14.007   ;
    22      CG301      1    LIG    C14     22      0.375     12.011   ;
    23     HGPAM1      1    LIG    HN2     23      0.350      1.008   ;
    24      CG321      1    LIG    C15     24     -0.230     12.011   ;
    25      CG331      1    LIG    C16     25     -0.295     12.011   ;
    26      CG331      1    LIG    C17     26     -0.295     12.011   ;
    27     CG2R61      1    LIG    C18     27      0.075     12.011   ;
    28     CG2R61      1    LIG    C19     28     -0.121     12.011   ;
    29     CG2R61      1    LIG    C20     29     -0.052     12.011   ;
    30     CG2R61      1    LIG    C21     30      0.048     12.011   ;
    31      CLGR1      1    LIG     CL     31     -0.200     35.453   ;
    32     CG2R61      1    LIG    C22     32     -0.099     12.011   ;
    33     CG2R61      1    LIG    C23     33     -0.108     12.011   ;
    34       HGA1      1    LIG     HC     34      0.090      1.008   ;
    35       HGA1      1    LIG    HC1     35      0.090      1.008   ;
    36       HGA4      1    LIG    HC2     36      0.150      1.008   ;
    37       HGA4      1    LIG    HC3     37      0.150      1.008   ;
    38       HGA2      1    LIG    HC4     38      0.090      1.008   ;
    39       HGA2      1    LIG    HC5     39      0.090      1.008   ;
    40      HGR61      1    LIG    HC6     40      0.116      1.008   ;
    41      HGR61      1    LIG    HC7     41      0.116      1.008   ;
    42      HGR61      1    LIG    HC8     42      0.116      1.008   ;
    43      HGR61      1    LIG    HC9     43      0.116      1.008   ;
    44      HGR61      1    LIG   HC10     44      0.116      1.008   ;
    45       HGA2      1    LIG   HC11     45      0.090      1.008   ;
    46       HGA2      1    LIG   HC12     46      0.090      1.008   ;
    47       HGA3      1    LIG   HC13     47      0.090      1.008   ;
    48       HGA3      1    LIG   HC14     48      0.090      1.008   ;
    49       HGA3      1    LIG   HC15     49      0.090      1.008   ;
    50       HGA3      1    LIG   HC16     50      0.090      1.008   ;
    51       HGA3      1    LIG   HC17     51      0.090      1.008   ;
    52       HGA3      1    LIG   HC18     52      0.090      1.008   ;
    53      HGR62      1    LIG   HC19     53      0.145      1.008   ;
    54      HGR62      1    LIG   HC20     54      0.150      1.008   ;
    55      HGR61      1    LIG   HC21     55      0.116      1.008   ;
    56       HGA1      1    LIG    H27     56      0.090      1.008   ;
    57        LPH      1    LIG    LP1     57      0.050      0.000   ;

[ bonds ]
;	ai	  aj funct			  c0			c1			  c2			c3
    1     2	 1 ;       CG311      CG311
    1    11	 1 ;       CG311      CG321
    1    18	 1 ;       CG311      NG311
    1    34	 1 ;       CG311       HGA1
    2     9	 1 ;       CG311      NG311
    2     3	 1 ;       CG311      NG2S1
    2    35	 1 ;       CG311       HGA1
    3     4	 1 ;       NG2S1      CG2O1
    3     5	 1 ;       NG2S1       HGP1
    4     7	 1 ;       CG2O1     CG2DC1
    4     6	 1 ;       CG2O1      OG2D1
    7     8	 1 ;      CG2DC1     CG2D1O
    7    36	 1 ;      CG2DC1       HGA4
    8     9	 1 ;      CG2D1O      NG311
    8    37	 1 ;      CG2D1O       HGA4
    9    10	 1 ;       NG311     HGPAM1
   11    12	 1 ;       CG321     CG2R61
   11    38	 1 ;       CG321       HGA2
   11    39	 1 ;       CG321       HGA2
   12    17	 1 ;      CG2R61     CG2R61
   12    13	 1 ;      CG2R61     CG2R61
   13    14	 1 ;      CG2R61     CG2R61
   13    40	 1 ;      CG2R61      HGR61
   14    15	 1 ;      CG2R61     CG2R61
   14    41	 1 ;      CG2R61      HGR61
   15    16	 1 ;      CG2R61     CG2R61
   15    42	 1 ;      CG2R61      HGR61
   16    17	 1 ;      CG2R61     CG2R61
   16    43	 1 ;      CG2R61      HGR61
   17    44	 1 ;      CG2R61      HGR61
   18    19	 1 ;       NG311     HGPAM1
   18    20	 1 ;       NG311      CG311
   20    21	 1 ;       CG311      NG311
   20    29	 1 ;       CG311     CG2R61
   20    56	 1 ;       CG311       HGA1
   21    23	 1 ;       NG311     HGPAM1
   21    22	 1 ;       NG311      CG301
   22    25	 1 ;       CG301      CG331
   22    26	 1 ;       CG301      CG331
   22    24	 1 ;       CG301      CG321
   24    27	 1 ;       CG321     CG2R61
   24    45	 1 ;       CG321       HGA2
   24    46	 1 ;       CG321       HGA2
   25    47	 1 ;       CG331       HGA3
   25    48	 1 ;       CG331       HGA3
   25    49	 1 ;       CG331       HGA3
   26    50	 1 ;       CG331       HGA3
   26    51	 1 ;       CG331       HGA3
   26    52	 1 ;       CG331       HGA3
   27    29	 1 ;      CG2R61     CG2R61
   27    28	 1 ;      CG2R61     CG2R61
   28    30	 1 ;      CG2R61     CG2R61
   28    53	 1 ;      CG2R61      HGR62
   29    33	 1 ;      CG2R61     CG2R61
   30    32	 1 ;      CG2R61     CG2R61
   30    31	 1 ;      CG2R61      CLGR1
   32    33	 1 ;      CG2R61     CG2R61
   32    54	 1 ;      CG2R61      HGR62
   33    55	 1 ;      CG2R61      HGR61

[ pairs ]
;	ai	  aj funct			  c0			c1			  c2			c3
    1     8	 1
    1    10	 1
    1     4	 1
    1     5	 1
    1    17	 1
    1    13	 1
    1    21	 1
    1    29	 1
    1    56	 1
    2    12	 1
    2    38	 1
    2    39	 1
    2    19	 1
    2    20	 1
    2     7	 1
    2     6	 1
    2    37	 1
    3    11	 1
    3    18	 1
    3    34	 1
    3     8	 1
    3    10	 1
    3    36	 1
    4     9	 1
    4    35	 1
    4    37	 1
    5     9	 1
    5    35	 1
    5     7	 1
    5     6	 1
    6     8	 1
    6    36	 1
    7    10	 1
    8    35	 1
    9    11	 1
    9    18	 1
    9    34	 1
    9    36	 1
   10    35	 1
   10    37	 1
   11    35	 1
   11    19	 1
   11    20	 1
   11    16	 1
   11    44	 1
   11    14	 1
   11    40	 1
   12    18	 1
   12    34	 1
   12    15	 1
   12    41	 1
   12    43	 1
   13    38	 1
   13    39	 1
   13    16	 1
   13    44	 1
   13    42	 1
   14    17	 1
   14    43	 1
   15    40	 1
   15    44	 1
   16    41	 1
   17    38	 1
   17    39	 1
   17    40	 1
   17    42	 1
   18    35	 1
   18    38	 1
   18    39	 1
   18    23	 1
   18    22	 1
   18    27	 1
   18    33	 1
   19    34	 1
   19    21	 1
   19    29	 1
   19    56	 1
   20    34	 1
   20    25	 1
   20    26	 1
   20    24	 1
   20    28	 1
   20    32	 1
   20    55	 1
   21    27	 1
   21    33	 1
   21    47	 1
   21    48	 1
   21    49	 1
   21    50	 1
   21    51	 1
   21    52	 1
   21    45	 1
   21    46	 1
   22    29	 1
   22    56	 1
   22    28	 1
   23    29	 1
   23    56	 1
   23    25	 1
   23    26	 1
   23    24	 1
   24    47	 1
   24    48	 1
   24    49	 1
   24    50	 1
   24    51	 1
   24    52	 1
   24    33	 1
   24    30	 1
   24    53	 1
   25    50	 1
   25    51	 1
   25    52	 1
   25    27	 1
   25    45	 1
   25    46	 1
   26    47	 1
   26    48	 1
   26    49	 1
   26    27	 1
   26    45	 1
   26    46	 1
   27    56	 1
   27    32	 1
   27    31	 1
   57    27	 1
   27    55	 1
   28    45	 1
   28    46	 1
   28    33	 1
   28    54	 1
   29    45	 1
   29    46	 1
   29    30	 1
   29    53	 1
   29    54	 1
   30    55	 1
   31    53	 1
   57    53	 1
   31    33	 1
   57    33	 1
   31    54	 1
   57    54	 1
   32    53	 1
   33    56	 1
   34    35	 1
   34    38	 1
   34    39	 1
   36    37	 1
   40    41	 1
   41    42	 1
   42    43	 1
   43    44	 1
   54    55	 1

[ angles ]
;	ai	  aj	ak funct			c0			  c1			c2			  c3
    2     1    11	5 ;      CG311      CG311      CG321
    2     1    18	5 ;      CG311      CG311      NG311
    2     1    34	5 ;      CG311      CG311       HGA1
   11     1    18	5 ;      CG321      CG311      NG311
   11     1    34	5 ;      CG321      CG311       HGA1
   18     1    34	5 ;      NG311      CG311       HGA1
    9     2     3	5 ;      NG311      CG311      NG2S1
    9     2     1	5 ;      NG311      CG311      CG311
    9     2    35	5 ;      NG311      CG311       HGA1
    3     2     1	5 ;      NG2S1      CG311      CG311
    3     2    35	5 ;      NG2S1      CG311       HGA1
    1     2    35	5 ;      CG311      CG311       HGA1
    4     3     2	5 ;      CG2O1      NG2S1      CG311
    4     3     5	5 ;      CG2O1      NG2S1       HGP1
    2     3     5	5 ;      CG311      NG2S1       HGP1
    7     4     6	5 ;     CG2DC1      CG2O1      OG2D1
    7     4     3	5 ;     CG2DC1      CG2O1      NG2S1
    6     4     3	5 ;      OG2D1      CG2O1      NG2S1
    8     7     4	5 ;     CG2D1O     CG2DC1      CG2O1
    8     7    36	5 ;     CG2D1O     CG2DC1       HGA4
    4     7    36	5 ;      CG2O1     CG2DC1       HGA4
    7     8     9	5 ;     CG2DC1     CG2D1O      NG311
    7     8    37	5 ;     CG2DC1     CG2D1O       HGA4
    9     8    37	5 ;      NG311     CG2D1O       HGA4
    8     9    10	5 ;     CG2D1O      NG311     HGPAM1
    8     9     2	5 ;     CG2D1O      NG311      CG311
   10     9     2	5 ;     HGPAM1      NG311      CG311
    1    11    12	5 ;      CG311      CG321     CG2R61
    1    11    38	5 ;      CG311      CG321       HGA2
    1    11    39	5 ;      CG311      CG321       HGA2
   12    11    38	5 ;     CG2R61      CG321       HGA2
   12    11    39	5 ;     CG2R61      CG321       HGA2
   38    11    39	5 ;       HGA2      CG321       HGA2
   17    12    13	5 ;     CG2R61     CG2R61     CG2R61
   17    12    11	5 ;     CG2R61     CG2R61      CG321
   13    12    11	5 ;     CG2R61     CG2R61      CG321
   12    13    14	5 ;     CG2R61     CG2R61     CG2R61
   12    13    40	5 ;     CG2R61     CG2R61      HGR61
   14    13    40	5 ;     CG2R61     CG2R61      HGR61
   15    14    13	5 ;     CG2R61     CG2R61     CG2R61
   15    14    41	5 ;     CG2R61     CG2R61      HGR61
   13    14    41	5 ;     CG2R61     CG2R61      HGR61
   16    15    14	5 ;     CG2R61     CG2R61     CG2R61
   16    15    42	5 ;     CG2R61     CG2R61      HGR61
   14    15    42	5 ;     CG2R61     CG2R61      HGR61
   17    16    15	5 ;     CG2R61     CG2R61     CG2R61
   17    16    43	5 ;     CG2R61     CG2R61      HGR61
   15    16    43	5 ;     CG2R61     CG2R61      HGR61
   16    17    12	5 ;     CG2R61     CG2R61     CG2R61
   16    17    44	5 ;     CG2R61     CG2R61      HGR61
   12    17    44	5 ;     CG2R61     CG2R61      HGR61
    1    18    19	5 ;      CG311      NG311     HGPAM1
    1    18    20	5 ;      CG311      NG311      CG311
   19    18    20	5 ;     HGPAM1      NG311      CG311
   21    20    18	5 ;      NG311      CG311      NG311
   21    20    29	5 ;      NG311      CG311     CG2R61
   21    20    56	5 ;      NG311      CG311       HGA1
   18    20    29	5 ;      NG311      CG311     CG2R61
   18    20    56	5 ;      NG311      CG311       HGA1
   29    20    56	5 ;     CG2R61      CG311       HGA1
   23    21    22	5 ;     HGPAM1      NG311      CG301
   23    21    20	5 ;     HGPAM1      NG311      CG311
   22    21    20	5 ;      CG301      NG311      CG311
   25    22    21	5 ;      CG331      CG301      NG311
   25    22    26	5 ;      CG331      CG301      CG331
   25    22    24	5 ;      CG331      CG301      CG321
   21    22    26	5 ;      NG311      CG301      CG331
   21    22    24	5 ;      NG311      CG301      CG321
   26    22    24	5 ;      CG331      CG301      CG321
   22    24    27	5 ;      CG301      CG321     CG2R61
   22    24    45	5 ;      CG301      CG321       HGA2
   22    24    46	5 ;      CG301      CG321       HGA2
   27    24    45	5 ;     CG2R61      CG321       HGA2
   27    24    46	5 ;     CG2R61      CG321       HGA2
   45    24    46	5 ;       HGA2      CG321       HGA2
   22    25    47	5 ;      CG301      CG331       HGA3
   22    25    48	5 ;      CG301      CG331       HGA3
   22    25    49	5 ;      CG301      CG331       HGA3
   47    25    48	5 ;       HGA3      CG331       HGA3
   47    25    49	5 ;       HGA3      CG331       HGA3
   48    25    49	5 ;       HGA3      CG331       HGA3
   22    26    50	5 ;      CG301      CG331       HGA3
   22    26    51	5 ;      CG301      CG331       HGA3
   22    26    52	5 ;      CG301      CG331       HGA3
   50    26    51	5 ;       HGA3      CG331       HGA3
   50    26    52	5 ;       HGA3      CG331       HGA3
   51    26    52	5 ;       HGA3      CG331       HGA3
   24    27    29	5 ;      CG321     CG2R61     CG2R61
   24    27    28	5 ;      CG321     CG2R61     CG2R61
   29    27    28	5 ;     CG2R61     CG2R61     CG2R61
   27    28    30	5 ;     CG2R61     CG2R61     CG2R61
   27    28    53	5 ;     CG2R61     CG2R61      HGR62
   30    28    53	5 ;     CG2R61     CG2R61      HGR62
   20    29    27	5 ;      CG311     CG2R61     CG2R61
   20    29    33	5 ;      CG311     CG2R61     CG2R61
   27    29    33	5 ;     CG2R61     CG2R61     CG2R61
   28    30    32	5 ;     CG2R61     CG2R61     CG2R61
   28    30    31	5 ;     CG2R61     CG2R61      CLGR1
   32    30    31	5 ;     CG2R61     CG2R61      CLGR1
   33    32    30	5 ;     CG2R61     CG2R61     CG2R61
   33    32    54	5 ;     CG2R61     CG2R61      HGR62
   30    32    54	5 ;     CG2R61     CG2R61      HGR62
   29    33    32	5 ;     CG2R61     CG2R61     CG2R61
   29    33    55	5 ;     CG2R61     CG2R61      HGR61
   32    33    55	5 ;     CG2R61     CG2R61      HGR61

[ dihedrals ]
;	ai	  aj	ak	  al funct			  c0			c1			  c2			c3			  c4			c5
   11     1     2     9	 9 ;      CG321      CG311      CG311      NG311
   11     1     2     3	 9 ;      CG321      CG311      CG311      NG2S1
   11     1     2    35	 9 ;      CG321      CG311      CG311       HGA1
   18     1     2     9	 9 ;      NG311      CG311      CG311      NG311
   18     1     2     3	 9 ;      NG311      CG311      CG311      NG2S1
   18     1     2    35	 9 ;      NG311      CG311      CG311       HGA1
   34     1     2     9	 9 ;       HGA1      CG311      CG311      NG311
   34     1     2     3	 9 ;       HGA1      CG311      CG311      NG2S1
   34     1     2    35	 9 ;       HGA1      CG311      CG311       HGA1
    2     1    11    12	 9 ;      CG311      CG311      CG321     CG2R61
    2     1    11    38	 9 ;      CG311      CG311      CG321       HGA2
    2     1    11    39	 9 ;      CG311      CG311      CG321       HGA2
   18     1    11    12	 9 ;      NG311      CG311      CG321     CG2R61
   18     1    11    38	 9 ;      NG311      CG311      CG321       HGA2
   18     1    11    39	 9 ;      NG311      CG311      CG321       HGA2
   34     1    11    12	 9 ;       HGA1      CG311      CG321     CG2R61
   34     1    11    38	 9 ;       HGA1      CG311      CG321       HGA2
   34     1    11    39	 9 ;       HGA1      CG311      CG321       HGA2
    2     1    18    19	 9 ;      CG311      CG311      NG311     HGPAM1
    2     1    18    20	 9 ;      CG311      CG311      NG311      CG311
   11     1    18    19	 9 ;      CG321      CG311      NG311     HGPAM1
   11     1    18    20	 9 ;      CG321      CG311      NG311      CG311
   34     1    18    19	 9 ;       HGA1      CG311      NG311     HGPAM1
   34     1    18    20	 9 ;       HGA1      CG311      NG311      CG311
    3     2     9     8	 9 ;      NG2S1      CG311      NG311     CG2D1O
    3     2     9    10	 9 ;      NG2S1      CG311      NG311     HGPAM1
    1     2     9     8	 9 ;      CG311      CG311      NG311     CG2D1O
    1     2     9    10	 9 ;      CG311      CG311      NG311     HGPAM1
   35     2     9     8	 9 ;       HGA1      CG311      NG311     CG2D1O
   35     2     9    10	 9 ;       HGA1      CG311      NG311     HGPAM1
    9     2     3     4	 9 ;      NG311      CG311      NG2S1      CG2O1
    9     2     3     5	 9 ;      NG311      CG311      NG2S1       HGP1
    1     2     3     4	 9 ;      CG311      CG311      NG2S1      CG2O1
    1     2     3     5	 9 ;      CG311      CG311      NG2S1       HGP1
   35     2     3     4	 9 ;       HGA1      CG311      NG2S1      CG2O1
   35     2     3     5	 9 ;       HGA1      CG311      NG2S1       HGP1
    2     3     4     7	 9 ;      CG311      NG2S1      CG2O1     CG2DC1
    2     3     4     6	 9 ;      CG311      NG2S1      CG2O1      OG2D1
    5     3     4     7	 9 ;       HGP1      NG2S1      CG2O1     CG2DC1
    5     3     4     6	 9 ;       HGP1      NG2S1      CG2O1      OG2D1
    6     4     7     8	 9 ;      OG2D1      CG2O1     CG2DC1     CG2D1O
    6     4     7    36	 9 ;      OG2D1      CG2O1     CG2DC1       HGA4
    3     4     7     8	 9 ;      NG2S1      CG2O1     CG2DC1     CG2D1O
    3     4     7    36	 9 ;      NG2S1      CG2O1     CG2DC1       HGA4
    4     7     8     9	 9 ;      CG2O1     CG2DC1     CG2D1O      NG311
    4     7     8    37	 9 ;      CG2O1     CG2DC1     CG2D1O       HGA4
   36     7     8     9	 9 ;       HGA4     CG2DC1     CG2D1O      NG311
   36     7     8    37	 9 ;       HGA4     CG2DC1     CG2D1O       HGA4
    7     8     9    10	 9 ;     CG2DC1     CG2D1O      NG311     HGPAM1
    7     8     9     2	 9 ;     CG2DC1     CG2D1O      NG311      CG311
   37     8     9    10	 9 ;       HGA4     CG2D1O      NG311     HGPAM1
   37     8     9     2	 9 ;       HGA4     CG2D1O      NG311      CG311
    1    11    12    17	 9 ;      CG311      CG321     CG2R61     CG2R61
    1    11    12    13	 9 ;      CG311      CG321     CG2R61     CG2R61
   38    11    12    17	 9 ;       HGA2      CG321     CG2R61     CG2R61
   38    11    12    13	 9 ;       HGA2      CG321     CG2R61     CG2R61
   39    11    12    17	 9 ;       HGA2      CG321     CG2R61     CG2R61
   39    11    12    13	 9 ;       HGA2      CG321     CG2R61     CG2R61
   13    12    17    16	 9 ;     CG2R61     CG2R61     CG2R61     CG2R61
   13    12    17    44	 9 ;     CG2R61     CG2R61     CG2R61      HGR61
   11    12    17    16	 9 ;      CG321     CG2R61     CG2R61     CG2R61
   11    12    17    44	 9 ;      CG321     CG2R61     CG2R61      HGR61
   17    12    13    14	 9 ;     CG2R61     CG2R61     CG2R61     CG2R61
   17    12    13    40	 9 ;     CG2R61     CG2R61     CG2R61      HGR61
   11    12    13    14	 9 ;      CG321     CG2R61     CG2R61     CG2R61
   11    12    13    40	 9 ;      CG321     CG2R61     CG2R61      HGR61
   12    13    14    15	 9 ;     CG2R61     CG2R61     CG2R61     CG2R61
   12    13    14    41	 9 ;     CG2R61     CG2R61     CG2R61      HGR61
   40    13    14    15	 9 ;      HGR61     CG2R61     CG2R61     CG2R61
   40    13    14    41	 9 ;      HGR61     CG2R61     CG2R61      HGR61
   13    14    15    16	 9 ;     CG2R61     CG2R61     CG2R61     CG2R61
   13    14    15    42	 9 ;     CG2R61     CG2R61     CG2R61      HGR61
   41    14    15    16	 9 ;      HGR61     CG2R61     CG2R61     CG2R61
   41    14    15    42	 9 ;      HGR61     CG2R61     CG2R61      HGR61
   14    15    16    17	 9 ;     CG2R61     CG2R61     CG2R61     CG2R61
   14    15    16    43	 9 ;     CG2R61     CG2R61     CG2R61      HGR61
   42    15    16    17	 9 ;      HGR61     CG2R61     CG2R61     CG2R61
   42    15    16    43	 9 ;      HGR61     CG2R61     CG2R61      HGR61
   15    16    17    12	 9 ;     CG2R61     CG2R61     CG2R61     CG2R61
   15    16    17    44	 9 ;     CG2R61     CG2R61     CG2R61      HGR61
   43    16    17    12	 9 ;      HGR61     CG2R61     CG2R61     CG2R61
   43    16    17    44	 9 ;      HGR61     CG2R61     CG2R61      HGR61
    1    18    20    21	 9 ;      CG311      NG311      CG311      NG311
    1    18    20    29	 9 ;      CG311      NG311      CG311     CG2R61
    1    18    20    56	 9 ;      CG311      NG311      CG311       HGA1
   19    18    20    21	 9 ;     HGPAM1      NG311      CG311      NG311
   19    18    20    29	 9 ;     HGPAM1      NG311      CG311     CG2R61
   19    18    20    56	 9 ;     HGPAM1      NG311      CG311       HGA1
   18    20    21    23	 9 ;      NG311      CG311      NG311     HGPAM1
   18    20    21    22	 9 ;      NG311      CG311      NG311      CG301
   29    20    21    23	 9 ;     CG2R61      CG311      NG311     HGPAM1
   29    20    21    22	 9 ;     CG2R61      CG311      NG311      CG301
   56    20    21    23	 9 ;       HGA1      CG311      NG311     HGPAM1
   56    20    21    22	 9 ;       HGA1      CG311      NG311      CG301
   21    20    29    27	 9 ;      NG311      CG311     CG2R61     CG2R61
   21    20    29    33	 9 ;      NG311      CG311     CG2R61     CG2R61
   18    20    29    27	 9 ;      NG311      CG311     CG2R61     CG2R61
   18    20    29    33	 9 ;      NG311      CG311     CG2R61     CG2R61
   56    20    29    27	 9 ;       HGA1      CG311     CG2R61     CG2R61
   56    20    29    33	 9 ;       HGA1      CG311     CG2R61     CG2R61
   23    21    22    25	 9 ;     HGPAM1      NG311      CG301      CG331
   23    21    22    26	 9 ;     HGPAM1      NG311      CG301      CG331
   23    21    22    24	 9 ;     HGPAM1      NG311      CG301      CG321
   20    21    22    25	 9 ;      CG311      NG311      CG301      CG331
   20    21    22    26	 9 ;      CG311      NG311      CG301      CG331
   20    21    22    24	 9 ;      CG311      NG311      CG301      CG321
   21    22    25    47	 9 ;      NG311      CG301      CG331       HGA3
   21    22    25    48	 9 ;      NG311      CG301      CG331       HGA3
   21    22    25    49	 9 ;      NG311      CG301      CG331       HGA3
   26    22    25    47	 9 ;      CG331      CG301      CG331       HGA3
   26    22    25    48	 9 ;      CG331      CG301      CG331       HGA3
   26    22    25    49	 9 ;      CG331      CG301      CG331       HGA3
   24    22    25    47	 9 ;      CG321      CG301      CG331       HGA3
   24    22    25    48	 9 ;      CG321      CG301      CG331       HGA3
   24    22    25    49	 9 ;      CG321      CG301      CG331       HGA3
   25    22    26    50	 9 ;      CG331      CG301      CG331       HGA3
   25    22    26    51	 9 ;      CG331      CG301      CG331       HGA3
   25    22    26    52	 9 ;      CG331      CG301      CG331       HGA3
   21    22    26    50	 9 ;      NG311      CG301      CG331       HGA3
   21    22    26    51	 9 ;      NG311      CG301      CG331       HGA3
   21    22    26    52	 9 ;      NG311      CG301      CG331       HGA3
   24    22    26    50	 9 ;      CG321      CG301      CG331       HGA3
   24    22    26    51	 9 ;      CG321      CG301      CG331       HGA3
   24    22    26    52	 9 ;      CG321      CG301      CG331       HGA3
   25    22    24    27	 9 ;      CG331      CG301      CG321     CG2R61
   25    22    24    45	 9 ;      CG331      CG301      CG321       HGA2
   25    22    24    46	 9 ;      CG331      CG301      CG321       HGA2
   21    22    24    27	 9 ;      NG311      CG301      CG321     CG2R61
   21    22    24    45	 9 ;      NG311      CG301      CG321       HGA2
   21    22    24    46	 9 ;      NG311      CG301      CG321       HGA2
   26    22    24    27	 9 ;      CG331      CG301      CG321     CG2R61
   26    22    24    45	 9 ;      CG331      CG301      CG321       HGA2
   26    22    24    46	 9 ;      CG331      CG301      CG321       HGA2
   22    24    27    29	 9 ;      CG301      CG321     CG2R61     CG2R61
   22    24    27    28	 9 ;      CG301      CG321     CG2R61     CG2R61
   45    24    27    29	 9 ;       HGA2      CG321     CG2R61     CG2R61
   45    24    27    28	 9 ;       HGA2      CG321     CG2R61     CG2R61
   46    24    27    29	 9 ;       HGA2      CG321     CG2R61     CG2R61
   46    24    27    28	 9 ;       HGA2      CG321     CG2R61     CG2R61
   24    27    29    20	 9 ;      CG321     CG2R61     CG2R61      CG311
   24    27    29    33	 9 ;      CG321     CG2R61     CG2R61     CG2R61
   28    27    29    20	 9 ;     CG2R61     CG2R61     CG2R61      CG311
   28    27    29    33	 9 ;     CG2R61     CG2R61     CG2R61     CG2R61
   24    27    28    30	 9 ;      CG321     CG2R61     CG2R61     CG2R61
   24    27    28    53	 9 ;      CG321     CG2R61     CG2R61      HGR62
   29    27    28    30	 9 ;     CG2R61     CG2R61     CG2R61     CG2R61
   29    27    28    53	 9 ;     CG2R61     CG2R61     CG2R61      HGR62
   27    28    30    32	 9 ;     CG2R61     CG2R61     CG2R61     CG2R61
   27    28    30    31	 9 ;     CG2R61     CG2R61     CG2R61      CLGR1
   53    28    30    32	 9 ;      HGR62     CG2R61     CG2R61     CG2R61
   53    28    30    31	 9 ;      HGR62     CG2R61     CG2R61      CLGR1
   20    29    33    32	 9 ;      CG311     CG2R61     CG2R61     CG2R61
   20    29    33    55	 9 ;      CG311     CG2R61     CG2R61      HGR61
   27    29    33    32	 9 ;     CG2R61     CG2R61     CG2R61     CG2R61
   27    29    33    55	 9 ;     CG2R61     CG2R61     CG2R61      HGR61
   28    30    32    33	 9 ;     CG2R61     CG2R61     CG2R61     CG2R61
   28    30    32    54	 9 ;     CG2R61     CG2R61     CG2R61      HGR62
   31    30    32    33	 9 ;      CLGR1     CG2R61     CG2R61     CG2R61
   31    30    32    54	 9 ;      CLGR1     CG2R61     CG2R61      HGR62
   30    32    33    29	 9 ;     CG2R61     CG2R61     CG2R61     CG2R61
   30    32    33    55	 9 ;     CG2R61     CG2R61     CG2R61      HGR61
   54    32    33    29	 9 ;      HGR62     CG2R61     CG2R61     CG2R61
   54    32    33    55	 9 ;      HGR62     CG2R61     CG2R61      HGR61

[ dihedrals ]
;	ai	  aj	ak	  al funct			  c0			c1			  c2			c3
    4     7     3     6	 2
    8     7     9    37	 2

[ virtual_sites2 ]
; Site   from				funct a
   57    31    30     2   -0.164

[ exclusions ]
;	ai	  aj
   31    57
   57    30
   57    28
   57    32
   57    27
   57    53
   57    33
   57    54

