GROningen MAchine for Chemical Simulation
   58
    1LIG     C1    1  -1.370   0.415  -1.603
    1LIG     N1    2  -1.362   0.542  -1.522
    1LIG     C2    3  -1.275   0.629  -1.580
    1LIG     N2    4  -1.233   0.586  -1.700
    1LIG     C3    5  -1.306   0.468  -1.734
    1LIG     N3    6  -1.299   0.406  -1.845
    1LIG     HN    7  -1.366   0.333  -1.871
    1LIG     C4    8  -1.190   0.444  -1.934
    1LIG     C5    9  -1.070   0.493  -1.853
    1LIG     C6   10  -1.112   0.618  -1.776
    1LIG     H1   11  -1.411   0.558  -1.436
    1LIG     C7   12  -1.269   0.316  -1.543
    1LIG     C8   13  -1.175   0.247  -1.621
    1LIG     C9   14  -1.094   0.147  -1.565
    1LIG    C10   15  -1.101   0.119  -1.428
    1LIG    C11   16  -1.193   0.186  -1.349
    1LIG    C12   17  -1.274   0.284  -1.405
    1LIG      O   18  -1.027   0.027  -1.361
    1LIG    C13   19  -1.061  -0.111  -1.373
    1LIG     F1   20  -1.171  -0.133  -1.447
    1LIG     F2   21  -1.079  -0.163  -1.250
    1LIG     F3   22  -0.957  -0.175  -1.432
    1LIG    C14   23  -1.511   0.367  -1.622
    1LIG    C15   24  -1.619   0.433  -1.563
    1LIG    C16   25  -1.750   0.389  -1.582
    1LIG    C17   26  -1.775   0.279  -1.665
    1LIG    C18   27  -1.669   0.214  -1.728
    1LIG    C19   28  -1.539   0.258  -1.707
    1LIG    C20   29  -1.864   0.456  -1.509
    1LIG    C21   30  -1.901   0.383  -1.380
    1LIG    C22   31  -2.026   0.297  -1.393
    1LIG     N4   32  -1.239   0.743  -1.522
    1LIG     H2   33  -1.255   0.834  -1.567
    1LIG     H3   34  -1.190   0.744  -1.434
    1LIG     HC   35  -1.395   0.524  -1.763
    1LIG    HN2   36  -1.240   0.336  -1.803
    1LIG    HC2   37  -1.160   0.357  -1.994
    1LIG    HC3   38  -1.223   0.523  -2.001
    1LIG    HC4   39  -0.988   0.517  -1.920
    1LIG    HC5   40  -1.039   0.415  -1.783
    1LIG    HC6   41  -1.033   0.647  -1.707
    1LIG    HC7   42  -1.133   0.699  -1.845
    1LIG    HC1   43  -1.166   0.271  -1.726
    1LIG    HC8   44  -1.025   0.092  -1.627
    1LIG    HC9   45  -1.203   0.161  -1.244
    1LIG   HC10   46  -1.343   0.338  -1.341
    1LIG   HC11   47  -1.600   0.520  -1.501
    1LIG   HC12   48  -1.876   0.244  -1.679
    1LIG   HC13   49  -1.688   0.130  -1.793
    1LIG   HC14   50  -1.457   0.208  -1.757
    1LIG   HC15   51  -1.834   0.558  -1.485
    1LIG   HC16   52  -1.951   0.459  -1.575
    1LIG   HC17   53  -1.918   0.458  -1.302
    1LIG   HC18   54  -1.817   0.320  -1.350
    1LIG   HC19   55  -2.046   0.248  -1.298
    1LIG   HC20   56  -2.110   0.360  -1.421
    1LIG   HC21   57  -2.009   0.221  -1.470
    1LIG    H28   58  -1.192   0.578  -1.532
   0.00000   0.00000   0.00000
