; Created by cgenff_charmm2gmx.py

[ moleculetype ]
; Name			   nrexcl
LIG				 3

[ atoms ]
;	 nr		  type	resnr residue  atom   cgnr	   charge		mass  typeB    chargeB		massB
; residue	 1 LIG rtp LIG q	qsum
     1     CG3C50      1    LIG     C1      1      1.014     12.011   ;
     2     NG3C51      1    LIG     N1      2     -0.954     14.007   ;
     3     CG3C51      1    LIG     C2      3      0.292     12.011   ;
     4     NG3C51      1    LIG     N2      4     -0.733     14.007   ;
     5     CG3RC1      1    LIG     C3      5      0.432     12.011   ;
     6      NG3P2      1    LIG     N3      6     -0.582     14.007   ;
     7       HGP2      1    LIG     HN      7      0.335      1.008   ;
     8      CG324      1    LIG     C4      8      0.182     12.011   ;
     9      CG321      1    LIG     C5      9     -0.183     12.011   ;
    10      CG321      1    LIG     C6     10      0.283     12.011   ;
    11       HGP1      1    LIG     H1     11      0.206      1.008   ;
    12     CG2R61      1    LIG     C7     12     -0.004     12.011   ;
    13     CG2R61      1    LIG     C8     13     -0.178     12.011   ;
    14     CG2R61      1    LIG     C9     14     -0.108     12.011   ;
    15     CG2R61      1    LIG    C10     15      0.217     12.011   ;
    16     CG2R61      1    LIG    C11     16     -0.108     12.011   ;
    17     CG2R61      1    LIG    C12     17     -0.178     12.011   ;
    18      OG301      1    LIG      O     18     -0.303     15.999   ;
    19      CG302      1    LIG    C13     19      0.464     12.011   ;
    20       FGA3      1    LIG     F1     20     -0.126     18.998   ;
    21       FGA3      1    LIG     F2     21     -0.126     18.998   ;
    22       FGA3      1    LIG     F3     22     -0.126     18.998   ;
    23     CG2R61      1    LIG    C14     23     -0.000     12.011   ;
    24     CG2R61      1    LIG    C15     24     -0.188     12.011   ;
    25     CG2R61      1    LIG    C16     25      0.016     12.011   ;
    26     CG2R61      1    LIG    C17     26     -0.123     12.011   ;
    27     CG2R61      1    LIG    C18     27     -0.101     12.011   ;
    28     CG2R61      1    LIG    C19     28     -0.181     12.011   ;
    29      CG321      1    LIG    C20     29     -0.179     12.011   ;
    30      CG321      1    LIG    C21     30     -0.180     12.011   ;
    31      CG331      1    LIG    C22     31     -0.270     12.011   ;
    32      NG321      1    LIG     N4     32     -0.868     14.007   ;
    33     HGPAM2      1    LIG     H2     33      0.349      1.008   ;
    34     HGPAM2      1    LIG     H3     34      0.349      1.008   ;
    35       HGA1      1    LIG     HC     35      0.090      1.008   ;
    36       HGP2      1    LIG    HN2     36      0.335      1.008   ;
    37       HGA2      1    LIG    HC2     37      0.090      1.008   ;
    38       HGA2      1    LIG    HC3     38      0.090      1.008   ;
    39       HGA2      1    LIG    HC4     39      0.090      1.008   ;
    40       HGA2      1    LIG    HC5     40      0.090      1.008   ;
    41       HGA2      1    LIG    HC6     41      0.090      1.008   ;
    42       HGA2      1    LIG    HC7     42      0.090      1.008   ;
    43      HGR61      1    LIG    HC1     43      0.116      1.008   ;
    44      HGR61      1    LIG    HC8     44      0.116      1.008   ;
    45      HGR61      1    LIG    HC9     45      0.116      1.008   ;
    46      HGR61      1    LIG   HC10     46      0.116      1.008   ;
    47      HGR61      1    LIG   HC11     47      0.116      1.008   ;
    48      HGR61      1    LIG   HC12     48      0.116      1.008   ;
    49      HGR61      1    LIG   HC13     49      0.116      1.008   ;
    50      HGR61      1    LIG   HC14     50      0.116      1.008   ;
    51       HGA2      1    LIG   HC15     51      0.090      1.008   ;
    52       HGA2      1    LIG   HC16     52      0.090      1.008   ;
    53       HGA2      1    LIG   HC17     53      0.090      1.008   ;
    54       HGA2      1    LIG   HC18     54      0.090      1.008   ;
    55       HGA3      1    LIG   HC19     55      0.090      1.008   ;
    56       HGA3      1    LIG   HC20     56      0.090      1.008   ;
    57       HGA3      1    LIG   HC21     57      0.090      1.008   ;
    58       HGA1      1    LIG    H28     58      0.137      1.008   ;

[ bonds ]
;	ai	  aj funct			  c0			c1			  c2			c3
    1     5	 1 ;      CG3C50     CG3RC1
    1    12	 1 ;      CG3C50     CG2R61
    1     2	 1 ;      CG3C50     NG3C51
    1    23	 1 ;      CG3C50     CG2R61
    2     3	 1 ;      NG3C51     CG3C51
    2    11	 1 ;      NG3C51       HGP1
    3     4	 1 ;      CG3C51     NG3C51
    3    32	 1 ;      CG3C51      NG321
    3    58	 1 ;      CG3C51       HGA1
    4    10	 1 ;      NG3C51      CG321
    4     5	 1 ;      NG3C51     CG3RC1
    5     6	 1 ;      CG3RC1      NG3P2
    5    35	 1 ;      CG3RC1       HGA1
    6     8	 1 ;       NG3P2      CG324
    6     7	 1 ;       NG3P2       HGP2
    6    36	 1 ;       NG3P2       HGP2
    8     9	 1 ;       CG324      CG321
    8    37	 1 ;       CG324       HGA2
    8    38	 1 ;       CG324       HGA2
    9    10	 1 ;       CG321      CG321
    9    39	 1 ;       CG321       HGA2
    9    40	 1 ;       CG321       HGA2
   10    41	 1 ;       CG321       HGA2
   10    42	 1 ;       CG321       HGA2
   12    13	 1 ;      CG2R61     CG2R61
   12    17	 1 ;      CG2R61     CG2R61
   13    14	 1 ;      CG2R61     CG2R61
   13    43	 1 ;      CG2R61      HGR61
   14    15	 1 ;      CG2R61     CG2R61
   14    44	 1 ;      CG2R61      HGR61
   15    18	 1 ;      CG2R61      OG301
   15    16	 1 ;      CG2R61     CG2R61
   16    17	 1 ;      CG2R61     CG2R61
   16    45	 1 ;      CG2R61      HGR61
   17    46	 1 ;      CG2R61      HGR61
   18    19	 1 ;       OG301      CG302
   19    22	 1 ;       CG302       FGA3
   19    20	 1 ;       CG302       FGA3
   19    21	 1 ;       CG302       FGA3
   23    28	 1 ;      CG2R61     CG2R61
   23    24	 1 ;      CG2R61     CG2R61
   24    25	 1 ;      CG2R61     CG2R61
   24    47	 1 ;      CG2R61      HGR61
   25    26	 1 ;      CG2R61     CG2R61
   25    29	 1 ;      CG2R61      CG321
   26    27	 1 ;      CG2R61     CG2R61
   26    48	 1 ;      CG2R61      HGR61
   27    28	 1 ;      CG2R61     CG2R61
   27    49	 1 ;      CG2R61      HGR61
   28    50	 1 ;      CG2R61      HGR61
   29    30	 1 ;       CG321      CG321
   29    51	 1 ;       CG321       HGA2
   29    52	 1 ;       CG321       HGA2
   30    31	 1 ;       CG321      CG331
   30    53	 1 ;       CG321       HGA2
   30    54	 1 ;       CG321       HGA2
   31    55	 1 ;       CG331       HGA3
   31    56	 1 ;       CG331       HGA3
   31    57	 1 ;       CG331       HGA3
   32    33	 1 ;       NG321     HGPAM2
   32    34	 1 ;       NG321     HGPAM2

[ pairs ]
;	ai	  aj funct			  c0			c1			  c2			c3
    1    32	 1
    1    58	 1
    1    10	 1
    1     8	 1
    1     7	 1
    1    36	 1
    1    14	 1
    1    43	 1
    1    16	 1
    1    46	 1
    1    27	 1
    1    50	 1
    1    25	 1
    1    47	 1
    2     6	 1
    2    35	 1
    2    13	 1
    2    17	 1
    2    28	 1
    2    24	 1
    2    10	 1
    2    33	 1
    2    34	 1
    3    12	 1
    3    23	 1
    3     9	 1
    3    41	 1
    3    42	 1
    3     6	 1
    3    35	 1
    4    12	 1
    4    23	 1
    4    11	 1
    4    33	 1
    4    34	 1
    4     8	 1
    4     7	 1
    4    36	 1
    4    39	 1
    4    40	 1
    5    13	 1
    5    17	 1
    5    11	 1
    5    28	 1
    5    24	 1
    5    32	 1
    5    58	 1
    5     9	 1
    5    41	 1
    5    42	 1
    5    37	 1
    5    38	 1
    6    12	 1
    6    23	 1
    6    10	 1
    6    39	 1
    6    40	 1
    7    35	 1
    7     9	 1
    7    37	 1
    7    38	 1
    8    35	 1
    8    41	 1
    8    42	 1
    9    36	 1
   10    32	 1
   10    58	 1
   10    35	 1
   10    37	 1
   10    38	 1
   11    12	 1
   11    23	 1
   11    32	 1
   11    58	 1
   12    35	 1
   12    28	 1
   12    24	 1
   12    15	 1
   12    44	 1
   12    45	 1
   13    23	 1
   13    16	 1
   13    46	 1
   13    18	 1
   14    17	 1
   14    19	 1
   14    45	 1
   15    43	 1
   15    46	 1
   15    22	 1
   15    20	 1
   15    21	 1
   16    44	 1
   16    19	 1
   17    23	 1
   17    43	 1
   17    18	 1
   18    44	 1
   18    45	 1
   23    35	 1
   23    26	 1
   23    29	 1
   23    49	 1
   24    27	 1
   24    50	 1
   24    48	 1
   24    30	 1
   24    51	 1
   24    52	 1
   25    28	 1
   25    49	 1
   25    31	 1
   25    53	 1
   25    54	 1
   26    47	 1
   26    30	 1
   26    51	 1
   26    52	 1
   26    50	 1
   27    29	 1
   28    47	 1
   28    48	 1
   29    47	 1
   29    48	 1
   29    55	 1
   29    56	 1
   29    57	 1
   31    51	 1
   31    52	 1
   33    58	 1
   34    58	 1
   35    36	 1
   36    37	 1
   36    38	 1
   37    39	 1
   37    40	 1
   38    39	 1
   38    40	 1
   39    41	 1
   39    42	 1
   40    41	 1
   40    42	 1
   43    44	 1
   45    46	 1
   48    49	 1
   49    50	 1
   51    53	 1
   51    54	 1
   52    53	 1
   52    54	 1
   53    55	 1
   53    56	 1
   53    57	 1
   54    55	 1
   54    56	 1
   54    57	 1

[ angles ]
;	ai	  aj	ak funct			c0			  c1			c2			  c3
    5     1    12	5 ;     CG3RC1     CG3C50     CG2R61
    5     1     2	5 ;     CG3RC1     CG3C50     NG3C51
    5     1    23	5 ;     CG3RC1     CG3C50     CG2R61
   12     1     2	5 ;     CG2R61     CG3C50     NG3C51
   12     1    23	5 ;     CG2R61     CG3C50     CG2R61
    2     1    23	5 ;     NG3C51     CG3C50     CG2R61
    3     2     1	5 ;     CG3C51     NG3C51     CG3C50
    3     2    11	5 ;     CG3C51     NG3C51       HGP1
    1     2    11	5 ;     CG3C50     NG3C51       HGP1
    4     3    32	5 ;     NG3C51     CG3C51      NG321
    4     3     2	5 ;     NG3C51     CG3C51     NG3C51
    4     3    58	5 ;     NG3C51     CG3C51       HGA1
   32     3     2	5 ;      NG321     CG3C51     NG3C51
   32     3    58	5 ;      NG321     CG3C51       HGA1
    2     3    58	5 ;     NG3C51     CG3C51       HGA1
   10     4     5	5 ;      CG321     NG3C51     CG3RC1
   10     4     3	5 ;      CG321     NG3C51     CG3C51
    5     4     3	5 ;     CG3RC1     NG3C51     CG3C51
    4     5     6	5 ;     NG3C51     CG3RC1      NG3P2
    4     5     1	5 ;     NG3C51     CG3RC1     CG3C50
    4     5    35	5 ;     NG3C51     CG3RC1       HGA1
    6     5     1	5 ;      NG3P2     CG3RC1     CG3C50
    6     5    35	5 ;      NG3P2     CG3RC1       HGA1
    1     5    35	5 ;     CG3C50     CG3RC1       HGA1
    8     6     7	5 ;      CG324      NG3P2       HGP2
    8     6     5	5 ;      CG324      NG3P2     CG3RC1
    8     6    36	5 ;      CG324      NG3P2       HGP2
    7     6     5	5 ;       HGP2      NG3P2     CG3RC1
    7     6    36	5 ;       HGP2      NG3P2       HGP2
    5     6    36	5 ;     CG3RC1      NG3P2       HGP2
    9     8     6	5 ;      CG321      CG324      NG3P2
    9     8    37	5 ;      CG321      CG324       HGA2
    9     8    38	5 ;      CG321      CG324       HGA2
    6     8    37	5 ;      NG3P2      CG324       HGA2
    6     8    38	5 ;      NG3P2      CG324       HGA2
   37     8    38	5 ;       HGA2      CG324       HGA2
   10     9     8	5 ;      CG321      CG321      CG324
   10     9    39	5 ;      CG321      CG321       HGA2
   10     9    40	5 ;      CG321      CG321       HGA2
    8     9    39	5 ;      CG324      CG321       HGA2
    8     9    40	5 ;      CG324      CG321       HGA2
   39     9    40	5 ;       HGA2      CG321       HGA2
    9    10     4	5 ;      CG321      CG321     NG3C51
    9    10    41	5 ;      CG321      CG321       HGA2
    9    10    42	5 ;      CG321      CG321       HGA2
    4    10    41	5 ;     NG3C51      CG321       HGA2
    4    10    42	5 ;     NG3C51      CG321       HGA2
   41    10    42	5 ;       HGA2      CG321       HGA2
   13    12     1	5 ;     CG2R61     CG2R61     CG3C50
   13    12    17	5 ;     CG2R61     CG2R61     CG2R61
    1    12    17	5 ;     CG3C50     CG2R61     CG2R61
   14    13    12	5 ;     CG2R61     CG2R61     CG2R61
   14    13    43	5 ;     CG2R61     CG2R61      HGR61
   12    13    43	5 ;     CG2R61     CG2R61      HGR61
   13    14    15	5 ;     CG2R61     CG2R61     CG2R61
   13    14    44	5 ;     CG2R61     CG2R61      HGR61
   15    14    44	5 ;     CG2R61     CG2R61      HGR61
   14    15    18	5 ;     CG2R61     CG2R61      OG301
   14    15    16	5 ;     CG2R61     CG2R61     CG2R61
   18    15    16	5 ;      OG301     CG2R61     CG2R61
   15    16    17	5 ;     CG2R61     CG2R61     CG2R61
   15    16    45	5 ;     CG2R61     CG2R61      HGR61
   17    16    45	5 ;     CG2R61     CG2R61      HGR61
   12    17    16	5 ;     CG2R61     CG2R61     CG2R61
   12    17    46	5 ;     CG2R61     CG2R61      HGR61
   16    17    46	5 ;     CG2R61     CG2R61      HGR61
   15    18    19	5 ;     CG2R61      OG301      CG302
   22    19    18	5 ;       FGA3      CG302      OG301
   22    19    20	5 ;       FGA3      CG302       FGA3
   22    19    21	5 ;       FGA3      CG302       FGA3
   18    19    20	5 ;      OG301      CG302       FGA3
   18    19    21	5 ;      OG301      CG302       FGA3
   20    19    21	5 ;       FGA3      CG302       FGA3
    1    23    28	5 ;     CG3C50     CG2R61     CG2R61
    1    23    24	5 ;     CG3C50     CG2R61     CG2R61
   28    23    24	5 ;     CG2R61     CG2R61     CG2R61
   23    24    25	5 ;     CG2R61     CG2R61     CG2R61
   23    24    47	5 ;     CG2R61     CG2R61      HGR61
   25    24    47	5 ;     CG2R61     CG2R61      HGR61
   24    25    26	5 ;     CG2R61     CG2R61     CG2R61
   24    25    29	5 ;     CG2R61     CG2R61      CG321
   26    25    29	5 ;     CG2R61     CG2R61      CG321
   27    26    25	5 ;     CG2R61     CG2R61     CG2R61
   27    26    48	5 ;     CG2R61     CG2R61      HGR61
   25    26    48	5 ;     CG2R61     CG2R61      HGR61
   28    27    26	5 ;     CG2R61     CG2R61     CG2R61
   28    27    49	5 ;     CG2R61     CG2R61      HGR61
   26    27    49	5 ;     CG2R61     CG2R61      HGR61
   23    28    27	5 ;     CG2R61     CG2R61     CG2R61
   23    28    50	5 ;     CG2R61     CG2R61      HGR61
   27    28    50	5 ;     CG2R61     CG2R61      HGR61
   25    29    30	5 ;     CG2R61      CG321      CG321
   25    29    51	5 ;     CG2R61      CG321       HGA2
   25    29    52	5 ;     CG2R61      CG321       HGA2
   30    29    51	5 ;      CG321      CG321       HGA2
   30    29    52	5 ;      CG321      CG321       HGA2
   51    29    52	5 ;       HGA2      CG321       HGA2
   29    30    31	5 ;      CG321      CG321      CG331
   29    30    53	5 ;      CG321      CG321       HGA2
   29    30    54	5 ;      CG321      CG321       HGA2
   31    30    53	5 ;      CG331      CG321       HGA2
   31    30    54	5 ;      CG331      CG321       HGA2
   53    30    54	5 ;       HGA2      CG321       HGA2
   30    31    55	5 ;      CG321      CG331       HGA3
   30    31    56	5 ;      CG321      CG331       HGA3
   30    31    57	5 ;      CG321      CG331       HGA3
   55    31    56	5 ;       HGA3      CG331       HGA3
   55    31    57	5 ;       HGA3      CG331       HGA3
   56    31    57	5 ;       HGA3      CG331       HGA3
   33    32    34	5 ;     HGPAM2      NG321     HGPAM2
   33    32     3	5 ;     HGPAM2      NG321     CG3C51
   34    32     3	5 ;     HGPAM2      NG321     CG3C51

[ dihedrals ]
;	ai	  aj	ak	  al funct			  c0			c1			  c2			c3			  c4			c5
   12     1     5     4	 9 ;     CG2R61     CG3C50     CG3RC1     NG3C51
   12     1     5     6	 9 ;     CG2R61     CG3C50     CG3RC1      NG3P2
   12     1     5    35	 9 ;     CG2R61     CG3C50     CG3RC1       HGA1
    2     1     5     4	 9 ;     NG3C51     CG3C50     CG3RC1     NG3C51
    2     1     5     6	 9 ;     NG3C51     CG3C50     CG3RC1      NG3P2
    2     1     5    35	 9 ;     NG3C51     CG3C50     CG3RC1       HGA1
   23     1     5     4	 9 ;     CG2R61     CG3C50     CG3RC1     NG3C51
   23     1     5     6	 9 ;     CG2R61     CG3C50     CG3RC1      NG3P2
   23     1     5    35	 9 ;     CG2R61     CG3C50     CG3RC1       HGA1
    5     1    12    13	 9 ;     CG3RC1     CG3C50     CG2R61     CG2R61
    5     1    12    17	 9 ;     CG3RC1     CG3C50     CG2R61     CG2R61
    2     1    12    13	 9 ;     NG3C51     CG3C50     CG2R61     CG2R61
    2     1    12    17	 9 ;     NG3C51     CG3C50     CG2R61     CG2R61
   23     1    12    13	 9 ;     CG2R61     CG3C50     CG2R61     CG2R61
   23     1    12    17	 9 ;     CG2R61     CG3C50     CG2R61     CG2R61
    5     1     2     3	 9 ;     CG3RC1     CG3C50     NG3C51     CG3C51
    5     1     2    11	 9 ;     CG3RC1     CG3C50     NG3C51       HGP1
   12     1     2     3	 9 ;     CG2R61     CG3C50     NG3C51     CG3C51
   12     1     2    11	 9 ;     CG2R61     CG3C50     NG3C51       HGP1
   23     1     2     3	 9 ;     CG2R61     CG3C50     NG3C51     CG3C51
   23     1     2    11	 9 ;     CG2R61     CG3C50     NG3C51       HGP1
    5     1    23    28	 9 ;     CG3RC1     CG3C50     CG2R61     CG2R61
    5     1    23    24	 9 ;     CG3RC1     CG3C50     CG2R61     CG2R61
   12     1    23    28	 9 ;     CG2R61     CG3C50     CG2R61     CG2R61
   12     1    23    24	 9 ;     CG2R61     CG3C50     CG2R61     CG2R61
    2     1    23    28	 9 ;     NG3C51     CG3C50     CG2R61     CG2R61
    2     1    23    24	 9 ;     NG3C51     CG3C50     CG2R61     CG2R61
    1     2     3     4	 9 ;     CG3C50     NG3C51     CG3C51     NG3C51
    1     2     3    32	 9 ;     CG3C50     NG3C51     CG3C51      NG321
    1     2     3    58	 9 ;     CG3C50     NG3C51     CG3C51       HGA1
   11     2     3     4	 9 ;       HGP1     NG3C51     CG3C51     NG3C51
   11     2     3    32	 9 ;       HGP1     NG3C51     CG3C51      NG321
   11     2     3    58	 9 ;       HGP1     NG3C51     CG3C51       HGA1
   32     3     4    10	 9 ;      NG321     CG3C51     NG3C51      CG321
   32     3     4     5	 9 ;      NG321     CG3C51     NG3C51     CG3RC1
    2     3     4    10	 9 ;     NG3C51     CG3C51     NG3C51      CG321
    2     3     4     5	 9 ;     NG3C51     CG3C51     NG3C51     CG3RC1
   58     3     4    10	 9 ;       HGA1     CG3C51     NG3C51      CG321
   58     3     4     5	 9 ;       HGA1     CG3C51     NG3C51     CG3RC1
    4     3    32    33	 9 ;     NG3C51     CG3C51      NG321     HGPAM2
    4     3    32    34	 9 ;     NG3C51     CG3C51      NG321     HGPAM2
    2     3    32    33	 9 ;     NG3C51     CG3C51      NG321     HGPAM2
    2     3    32    34	 9 ;     NG3C51     CG3C51      NG321     HGPAM2
   58     3    32    33	 9 ;       HGA1     CG3C51      NG321     HGPAM2
   58     3    32    34	 9 ;       HGA1     CG3C51      NG321     HGPAM2
    5     4    10     9	 9 ;     CG3RC1     NG3C51      CG321      CG321
    5     4    10    41	 9 ;     CG3RC1     NG3C51      CG321       HGA2
    5     4    10    42	 9 ;     CG3RC1     NG3C51      CG321       HGA2
    3     4    10     9	 9 ;     CG3C51     NG3C51      CG321      CG321
    3     4    10    41	 9 ;     CG3C51     NG3C51      CG321       HGA2
    3     4    10    42	 9 ;     CG3C51     NG3C51      CG321       HGA2
   10     4     5     6	 9 ;      CG321     NG3C51     CG3RC1      NG3P2
   10     4     5     1	 9 ;      CG321     NG3C51     CG3RC1     CG3C50
   10     4     5    35	 9 ;      CG321     NG3C51     CG3RC1       HGA1
    3     4     5     6	 9 ;     CG3C51     NG3C51     CG3RC1      NG3P2
    3     4     5     1	 9 ;     CG3C51     NG3C51     CG3RC1     CG3C50
    3     4     5    35	 9 ;     CG3C51     NG3C51     CG3RC1       HGA1
    4     5     6     8	 9 ;     NG3C51     CG3RC1      NG3P2      CG324
    4     5     6     7	 9 ;     NG3C51     CG3RC1      NG3P2       HGP2
    4     5     6    36	 9 ;     NG3C51     CG3RC1      NG3P2       HGP2
    1     5     6     8	 9 ;     CG3C50     CG3RC1      NG3P2      CG324
    1     5     6     7	 9 ;     CG3C50     CG3RC1      NG3P2       HGP2
    1     5     6    36	 9 ;     CG3C50     CG3RC1      NG3P2       HGP2
   35     5     6     8	 9 ;       HGA1     CG3RC1      NG3P2      CG324
   35     5     6     7	 9 ;       HGA1     CG3RC1      NG3P2       HGP2
   35     5     6    36	 9 ;       HGA1     CG3RC1      NG3P2       HGP2
    7     6     8     9	 9 ;       HGP2      NG3P2      CG324      CG321
    7     6     8    37	 9 ;       HGP2      NG3P2      CG324       HGA2
    7     6     8    38	 9 ;       HGP2      NG3P2      CG324       HGA2
    5     6     8     9	 9 ;     CG3RC1      NG3P2      CG324      CG321
    5     6     8    37	 9 ;     CG3RC1      NG3P2      CG324       HGA2
    5     6     8    38	 9 ;     CG3RC1      NG3P2      CG324       HGA2
   36     6     8     9	 9 ;       HGP2      NG3P2      CG324      CG321
   36     6     8    37	 9 ;       HGP2      NG3P2      CG324       HGA2
   36     6     8    38	 9 ;       HGP2      NG3P2      CG324       HGA2
    6     8     9    10	 9 ;      NG3P2      CG324      CG321      CG321
    6     8     9    39	 9 ;      NG3P2      CG324      CG321       HGA2
    6     8     9    40	 9 ;      NG3P2      CG324      CG321       HGA2
   37     8     9    10	 9 ;       HGA2      CG324      CG321      CG321
   37     8     9    39	 9 ;       HGA2      CG324      CG321       HGA2
   37     8     9    40	 9 ;       HGA2      CG324      CG321       HGA2
   38     8     9    10	 9 ;       HGA2      CG324      CG321      CG321
   38     8     9    39	 9 ;       HGA2      CG324      CG321       HGA2
   38     8     9    40	 9 ;       HGA2      CG324      CG321       HGA2
    8     9    10     4	 9 ;      CG324      CG321      CG321     NG3C51
    8     9    10    41	 9 ;      CG324      CG321      CG321       HGA2
    8     9    10    42	 9 ;      CG324      CG321      CG321       HGA2
   39     9    10     4	 9 ;       HGA2      CG321      CG321     NG3C51
   39     9    10    41	 9 ;       HGA2      CG321      CG321       HGA2
   39     9    10    42	 9 ;       HGA2      CG321      CG321       HGA2
   40     9    10     4	 9 ;       HGA2      CG321      CG321     NG3C51
   40     9    10    41	 9 ;       HGA2      CG321      CG321       HGA2
   40     9    10    42	 9 ;       HGA2      CG321      CG321       HGA2
    1    12    13    14	 9 ;     CG3C50     CG2R61     CG2R61     CG2R61
    1    12    13    43	 9 ;     CG3C50     CG2R61     CG2R61      HGR61
   17    12    13    14	 9 ;     CG2R61     CG2R61     CG2R61     CG2R61
   17    12    13    43	 9 ;     CG2R61     CG2R61     CG2R61      HGR61
   13    12    17    16	 9 ;     CG2R61     CG2R61     CG2R61     CG2R61
   13    12    17    46	 9 ;     CG2R61     CG2R61     CG2R61      HGR61
    1    12    17    16	 9 ;     CG3C50     CG2R61     CG2R61     CG2R61
    1    12    17    46	 9 ;     CG3C50     CG2R61     CG2R61      HGR61
   12    13    14    15	 9 ;     CG2R61     CG2R61     CG2R61     CG2R61
   12    13    14    44	 9 ;     CG2R61     CG2R61     CG2R61      HGR61
   43    13    14    15	 9 ;      HGR61     CG2R61     CG2R61     CG2R61
   43    13    14    44	 9 ;      HGR61     CG2R61     CG2R61      HGR61
   13    14    15    18	 9 ;     CG2R61     CG2R61     CG2R61      OG301
   13    14    15    16	 9 ;     CG2R61     CG2R61     CG2R61     CG2R61
   44    14    15    18	 9 ;      HGR61     CG2R61     CG2R61      OG301
   44    14    15    16	 9 ;      HGR61     CG2R61     CG2R61     CG2R61
   14    15    18    19	 9 ;     CG2R61     CG2R61      OG301      CG302
   16    15    18    19	 9 ;     CG2R61     CG2R61      OG301      CG302
   14    15    16    17	 9 ;     CG2R61     CG2R61     CG2R61     CG2R61
   14    15    16    45	 9 ;     CG2R61     CG2R61     CG2R61      HGR61
   18    15    16    17	 9 ;      OG301     CG2R61     CG2R61     CG2R61
   18    15    16    45	 9 ;      OG301     CG2R61     CG2R61      HGR61
   15    16    17    12	 9 ;     CG2R61     CG2R61     CG2R61     CG2R61
   15    16    17    46	 9 ;     CG2R61     CG2R61     CG2R61      HGR61
   45    16    17    12	 9 ;      HGR61     CG2R61     CG2R61     CG2R61
   45    16    17    46	 9 ;      HGR61     CG2R61     CG2R61      HGR61
   15    18    19    22	 9 ;     CG2R61      OG301      CG302       FGA3
   15    18    19    20	 9 ;     CG2R61      OG301      CG302       FGA3
   15    18    19    21	 9 ;     CG2R61      OG301      CG302       FGA3
    1    23    28    27	 9 ;     CG3C50     CG2R61     CG2R61     CG2R61
    1    23    28    50	 9 ;     CG3C50     CG2R61     CG2R61      HGR61
   24    23    28    27	 9 ;     CG2R61     CG2R61     CG2R61     CG2R61
   24    23    28    50	 9 ;     CG2R61     CG2R61     CG2R61      HGR61
    1    23    24    25	 9 ;     CG3C50     CG2R61     CG2R61     CG2R61
    1    23    24    47	 9 ;     CG3C50     CG2R61     CG2R61      HGR61
   28    23    24    25	 9 ;     CG2R61     CG2R61     CG2R61     CG2R61
   28    23    24    47	 9 ;     CG2R61     CG2R61     CG2R61      HGR61
   23    24    25    26	 9 ;     CG2R61     CG2R61     CG2R61     CG2R61
   23    24    25    29	 9 ;     CG2R61     CG2R61     CG2R61      CG321
   47    24    25    26	 9 ;      HGR61     CG2R61     CG2R61     CG2R61
   47    24    25    29	 9 ;      HGR61     CG2R61     CG2R61      CG321
   24    25    26    27	 9 ;     CG2R61     CG2R61     CG2R61     CG2R61
   24    25    26    48	 9 ;     CG2R61     CG2R61     CG2R61      HGR61
   29    25    26    27	 9 ;      CG321     CG2R61     CG2R61     CG2R61
   29    25    26    48	 9 ;      CG321     CG2R61     CG2R61      HGR61
   24    25    29    30	 9 ;     CG2R61     CG2R61      CG321      CG321
   24    25    29    51	 9 ;     CG2R61     CG2R61      CG321       HGA2
   24    25    29    52	 9 ;     CG2R61     CG2R61      CG321       HGA2
   26    25    29    30	 9 ;     CG2R61     CG2R61      CG321      CG321
   26    25    29    51	 9 ;     CG2R61     CG2R61      CG321       HGA2
   26    25    29    52	 9 ;     CG2R61     CG2R61      CG321       HGA2
   25    26    27    28	 9 ;     CG2R61     CG2R61     CG2R61     CG2R61
   25    26    27    49	 9 ;     CG2R61     CG2R61     CG2R61      HGR61
   48    26    27    28	 9 ;      HGR61     CG2R61     CG2R61     CG2R61
   48    26    27    49	 9 ;      HGR61     CG2R61     CG2R61      HGR61
   26    27    28    23	 9 ;     CG2R61     CG2R61     CG2R61     CG2R61
   26    27    28    50	 9 ;     CG2R61     CG2R61     CG2R61      HGR61
   49    27    28    23	 9 ;      HGR61     CG2R61     CG2R61     CG2R61
   49    27    28    50	 9 ;      HGR61     CG2R61     CG2R61      HGR61
   25    29    30    31	 9 ;     CG2R61      CG321      CG321      CG331
   25    29    30    53	 9 ;     CG2R61      CG321      CG321       HGA2
   25    29    30    54	 9 ;     CG2R61      CG321      CG321       HGA2
   51    29    30    31	 9 ;       HGA2      CG321      CG321      CG331
   51    29    30    53	 9 ;       HGA2      CG321      CG321       HGA2
   51    29    30    54	 9 ;       HGA2      CG321      CG321       HGA2
   52    29    30    31	 9 ;       HGA2      CG321      CG321      CG331
   52    29    30    53	 9 ;       HGA2      CG321      CG321       HGA2
   52    29    30    54	 9 ;       HGA2      CG321      CG321       HGA2
   29    30    31    55	 9 ;      CG321      CG321      CG331       HGA3
   29    30    31    56	 9 ;      CG321      CG321      CG331       HGA3
   29    30    31    57	 9 ;      CG321      CG321      CG331       HGA3
   53    30    31    55	 9 ;       HGA2      CG321      CG331       HGA3
   53    30    31    56	 9 ;       HGA2      CG321      CG331       HGA3
   53    30    31    57	 9 ;       HGA2      CG321      CG331       HGA3
   54    30    31    55	 9 ;       HGA2      CG321      CG331       HGA3
   54    30    31    56	 9 ;       HGA2      CG321      CG331       HGA3
   54    30    31    57	 9 ;       HGA2      CG321      CG331       HGA3

