Great Red Oystrich Makes All Chemists Sane
   55
    1LIG     C1    1  -1.363   0.431  -1.594
    1LIG     N1    2  -1.378   0.562  -1.520
    1LIG    HN3    3  -1.401   0.574  -1.421
    1LIG     C2    4  -1.357   0.655  -1.607
    1LIG     N2    5  -1.319   0.615  -1.730
    1LIG     C3    6  -1.306   0.697  -1.848
    1LIG     C4    7  -1.309   0.479  -1.731
    1LIG     O1    8  -1.272   0.410  -1.825
    1LIG     C5    9  -1.274   0.336  -1.513
    1LIG     C6   10  -1.315   0.299  -1.383
    1LIG     C7   11  -1.249   0.199  -1.311
    1LIG     C8   12  -1.142   0.132  -1.368
    1LIG     C9   13  -1.094   0.174  -1.492
    1LIG    C10   14  -1.158   0.275  -1.564
    1LIG     O2   15  -1.074   0.028  -1.312
    1LIG    C11   16  -1.098  -0.104  -1.359
    1LIG     F1   17  -1.204  -0.116  -1.442
    1LIG     F2   18  -0.989  -0.147  -1.425
    1LIG     F3   19  -1.117  -0.186  -1.253
    1LIG    C12   20  -1.502   0.365  -1.620
    1LIG    C13   21  -1.512   0.254  -1.705
    1LIG    C14   22  -1.636   0.198  -1.732
    1LIG    C15   23  -1.751   0.253  -1.677
    1LIG     F4   24  -1.868   0.198  -1.711
    1LIG    C16   25  -1.747   0.365  -1.592
    1LIG    C17   26  -1.619   0.417  -1.563
    1LIG    C18   27  -1.869   0.427  -1.537
    1LIG    C19   28  -1.929   0.539  -1.593
    1LIG     N3   29  -2.041   0.599  -1.546
    1LIG    C20   30  -2.095   0.543  -1.438
    1LIG    HN4   31  -2.081   0.682  -1.591
    1LIG     N4   32  -2.048   0.436  -1.374
    1LIG    C21   33  -1.936   0.380  -1.425
    1LIG    HN5   34  -2.095   0.398  -1.291
    1LIG     N5   35  -1.370   0.786  -1.575
    1LIG     H1   36  -1.407   0.841  -1.652
    1LIG     H2   37  -1.414   0.807  -1.487
    1LIG    HN2   38  -1.477   0.563  -1.543
    1LIG     HC   39  -1.461   0.651  -1.637
    1LIG    HC1   40  -1.274   0.635  -1.932
    1LIG    HC2   41  -1.231   0.775  -1.830
    1LIG    HC3   42  -1.402   0.743  -1.872
    1LIG    HC4   43  -1.399   0.350  -1.339
    1LIG    HC5   44  -1.282   0.174  -1.211
    1LIG    HC6   45  -1.004   0.129  -1.533
    1LIG    HC7   46  -1.120   0.306  -1.660
    1LIG    HC8   47  -1.422   0.212  -1.749
    1LIG    HC9   48  -1.643   0.111  -1.796
    1LIG   HC10   49  -1.612   0.500  -1.495
    1LIG   HC11   50  -1.883   0.581  -1.681
    1LIG   HC12   51  -2.184   0.589  -1.398
    1LIG   HC13   52  -1.896   0.293  -1.375
    1LIG    HN1   53  -1.276   0.818  -1.565
    1LIG    H22   54  -1.868   0.603  -1.530
    1LIG    H23   55  -2.156   0.479  -1.502
   0.00000   0.00000   0.00000
