GROningen Mixture of Alchemy and Childrens' Stories
   50
    1LIG     O1    1  -1.285   0.744  -1.644
    1LIG     C1    2  -1.294   0.628  -1.570
    1LIG     C2    3  -1.393   0.532  -1.589
    1LIG     C3    4  -1.366   0.403  -1.535
    1LIG     C4    5  -1.267   0.377  -1.439
    1LIG     C5    6  -1.180   0.483  -1.410
    1LIG     C6    7  -1.190   0.605  -1.479
    1LIG     C7    8  -1.517   0.558  -1.676
    1LIG     N1    9  -1.637   0.636  -1.630
    1LIG     HN   10  -1.641   0.736  -1.612
    1LIG     C8   11  -1.734   0.553  -1.619
    1LIG     N2   12  -1.697   0.425  -1.607
    1LIG     C9   13  -1.674   0.403  -1.463
    1LIG    C10   14  -1.591   0.424  -1.697
    1LIG     O2   15  -1.570   0.340  -1.783
    1LIG    C11   16  -1.465   0.650  -1.786
    1LIG    C12   17  -1.407   0.779  -1.715
    1LIG    C13   18  -1.374   0.885  -1.821
    1LIG    C14   19  -1.491   0.852  -1.606
    1LIG     N3   20  -1.866   0.582  -1.609
    1LIG     H1   21  -1.884   0.666  -1.555
    1LIG     H2   22  -1.919   0.504  -1.571
    1LIG    C15   23  -1.267   0.248  -1.367
    1LIG    C16   24  -1.293   0.239  -1.228
    1LIG    C17   25  -1.278   0.118  -1.158
    1LIG    C18   26  -1.237   0.004  -1.225
    1LIG    C19   27  -1.214   0.009  -1.363
    1LIG    C20   28  -1.228   0.129  -1.431
    1LIG     HC   29  -1.426   0.321  -1.570
    1LIG    HC1   30  -1.105   0.470  -1.333
    1LIG    HC2   31  -1.117   0.682  -1.461
    1LIG    HN2   32  -1.611   0.620  -1.534
    1LIG    HC3   33  -1.742   0.543  -1.727
    1LIG    HC4   34  -1.547   0.678  -1.853
    1LIG    HC5   35  -1.387   0.600  -1.842
    1LIG    HN1   36  -1.900   0.598  -1.703
    1LIG    HC6   37  -1.325   0.327  -1.175
    1LIG    HC7   38  -1.299   0.115  -1.052
    1LIG    HC8   39  -1.224  -0.089  -1.171
    1LIG    HC9   40  -1.184  -0.080  -1.416
    1LIG   HC10   41  -1.209   0.131  -1.538
    1LIG   HC11   42  -1.436   0.938  -1.569
    1LIG   HC12   43  -1.586   0.885  -1.650
    1LIG   HC13   44  -1.512   0.784  -1.524
    1LIG   HC14   45  -1.643   0.299  -1.447
    1LIG   HC15   46  -1.596   0.470  -1.428
    1LIG   HC16   47  -1.766   0.422  -1.408
    1LIG   HC17   48  -1.315   0.840  -1.901
    1LIG   HC18   49  -1.467   0.924  -1.863
    1LIG   HC19   50  -1.318   0.967  -1.776
   0.00000   0.00000   0.00000
