; Created by cgenff_charmm2gmx.py

[ moleculetype ]
; Name			   nrexcl
LIG				 3

[ atoms ]
;	 nr		  type	resnr residue  atom   cgnr	   charge		mass  typeB    chargeB		massB
; residue	 1 LIG rtp LIG q	qsum
     1     OG3R60      1    LIG     O1      1     -0.368     15.999   ;
     2     CG2R61      1    LIG     C1      2      0.130     12.011   ;
     3     CG2R61      1    LIG     C2      3     -0.256     12.011   ;
     4     CG2R61      1    LIG     C3      4     -0.128     12.011   ;
     5     CG2R67      1    LIG     C4      5      0.014     12.011   ;
     6     CG2R61      1    LIG     C5      6     -0.115     12.011   ;
     7     CG2R61      1    LIG     C6      7     -0.112     12.011   ;
     8     CG3C50      1    LIG     C7      8      1.577     12.011   ;
     9      NG3P2      1    LIG     N1      9     -0.588     14.007   ;
    10       HGP2      1    LIG     HN     10      0.336      1.008   ;
    11     CG3C53      1    LIG     C8     11      0.785     12.011   ;
    12     NG2R53      1    LIG     N2     12     -0.178     14.007   ;
    13      CG331      1    LIG     C9     13     -0.169     12.011   ;
    14     CG2R53      1    LIG    C10     14     -0.420     12.011   ;
    15      OG2D1      1    LIG     O2     15     -0.325     15.999   ;
    16      CG321      1    LIG    C11     16     -0.251     12.011   ;
    17      CG301      1    LIG    C12     17      0.259     12.011   ;
    18      CG331      1    LIG    C13     18     -0.287     12.011   ;
    19      CG331      1    LIG    C14     19     -0.287     12.011   ;
    20      NG3P3      1    LIG     N3     20     -0.267     14.007   ;
    21       HGP2      1    LIG     H1     21      0.301      1.008   ;
    22       HGP2      1    LIG     H2     22      0.301      1.008   ;
    23     CG2R67      1    LIG    C15     23      0.006     12.011   ;
    24     CG2R61      1    LIG    C16     24     -0.119     12.011   ;
    25     CG2R61      1    LIG    C17     25     -0.119     12.011   ;
    26     CG2R61      1    LIG    C18     26     -0.110     12.011   ;
    27     CG2R61      1    LIG    C19     27     -0.119     12.011   ;
    28     CG2R61      1    LIG    C20     28     -0.119     12.011   ;
    29      HGR61      1    LIG     HC     29      0.116      1.008   ;
    30      HGR61      1    LIG    HC1     30      0.116      1.008   ;
    31      HGR61      1    LIG    HC2     31      0.116      1.008   ;
    32       HGP2      1    LIG    HN2     32      0.336      1.008   ;
    33       HGA1      1    LIG    HC3     33      0.073      1.008   ;
    34       HGA2      1    LIG    HC4     34      0.090      1.008   ;
    35       HGA2      1    LIG    HC5     35      0.090      1.008   ;
    36       HGP2      1    LIG    HN1     36      0.301      1.008   ;
    37      HGR61      1    LIG    HC6     37      0.116      1.008   ;
    38      HGR61      1    LIG    HC7     38      0.116      1.008   ;
    39      HGR61      1    LIG    HC8     39      0.116      1.008   ;
    40      HGR61      1    LIG    HC9     40      0.116      1.008   ;
    41      HGR61      1    LIG   HC10     41      0.116      1.008   ;
    42       HGA3      1    LIG   HC11     42      0.090      1.008   ;
    43       HGA3      1    LIG   HC12     43      0.090      1.008   ;
    44       HGA3      1    LIG   HC13     44      0.090      1.008   ;
    45       HGA3      1    LIG   HC14     45      0.090      1.008   ;
    46       HGA3      1    LIG   HC15     46      0.090      1.008   ;
    47       HGA3      1    LIG   HC16     47      0.090      1.008   ;
    48       HGA3      1    LIG   HC17     48      0.090      1.008   ;
    49       HGA3      1    LIG   HC18     49      0.090      1.008   ;
    50       HGA3      1    LIG   HC19     50      0.090      1.008   ;

[ bonds ]
;	ai	  aj funct			  c0			c1			  c2			c3
    1     2	 1 ;      OG3R60     CG2R61
    1    17	 1 ;      OG3R60      CG301
    2     7	 1 ;      CG2R61     CG2R61
    2     3	 1 ;      CG2R61     CG2R61
    3     4	 1 ;      CG2R61     CG2R61
    3     8	 1 ;      CG2R61     CG3C50
    4     5	 1 ;      CG2R61     CG2R67
    4    29	 1 ;      CG2R61      HGR61
    5     6	 1 ;      CG2R67     CG2R61
    5    23	 1 ;      CG2R67     CG2R67
    6     7	 1 ;      CG2R61     CG2R61
    6    30	 1 ;      CG2R61      HGR61
    7    31	 1 ;      CG2R61      HGR61
    8    16	 1 ;      CG3C50      CG321
    8    14	 1 ;      CG3C50     CG2R53
    8     9	 1 ;      CG3C50      NG3P2
    9    10	 1 ;       NG3P2       HGP2
    9    11	 1 ;       NG3P2     CG3C53
    9    32	 1 ;       NG3P2       HGP2
   11    12	 1 ;      CG3C53     NG2R53
   11    20	 1 ;      CG3C53      NG3P3
   11    33	 1 ;      CG3C53       HGA1
   12    14	 1 ;      NG2R53     CG2R53
   12    13	 1 ;      NG2R53      CG331
   13    45	 1 ;       CG331       HGA3
   13    46	 1 ;       CG331       HGA3
   13    47	 1 ;       CG331       HGA3
   14    15	 1 ;      CG2R53      OG2D1
   16    17	 1 ;       CG321      CG301
   16    34	 1 ;       CG321       HGA2
   16    35	 1 ;       CG321       HGA2
   17    18	 1 ;       CG301      CG331
   17    19	 1 ;       CG301      CG331
   18    48	 1 ;       CG331       HGA3
   18    49	 1 ;       CG331       HGA3
   18    50	 1 ;       CG331       HGA3
   19    42	 1 ;       CG331       HGA3
   19    43	 1 ;       CG331       HGA3
   19    44	 1 ;       CG331       HGA3
   20    22	 1 ;       NG3P3       HGP2
   20    21	 1 ;       NG3P3       HGP2
   20    36	 1 ;       NG3P3       HGP2
   23    28	 1 ;      CG2R67     CG2R61
   23    24	 1 ;      CG2R67     CG2R61
   24    25	 1 ;      CG2R61     CG2R61
   24    37	 1 ;      CG2R61      HGR61
   25    26	 1 ;      CG2R61     CG2R61
   25    38	 1 ;      CG2R61      HGR61
   26    27	 1 ;      CG2R61     CG2R61
   26    39	 1 ;      CG2R61      HGR61
   27    28	 1 ;      CG2R61     CG2R61
   27    40	 1 ;      CG2R61      HGR61
   28    41	 1 ;      CG2R61      HGR61

[ pairs ]
;	ai	  aj funct			  c0			c1			  c2			c3
    1     6	 1
    1    31	 1
    1     4	 1
    1     8	 1
    1    34	 1
    1    35	 1
    1    48	 1
    1    49	 1
    1    50	 1
    1    42	 1
    1    43	 1
    1    44	 1
    2    18	 1
    2    16	 1
    2    19	 1
    2     5	 1
    2    29	 1
    2    14	 1
    2     9	 1
    2    30	 1
    3    17	 1
    3     6	 1
    3    31	 1
    3    23	 1
    3    34	 1
    3    35	 1
    3    15	 1
    3    12	 1
    3    10	 1
    3    11	 1
    3    32	 1
    4     7	 1
    4    16	 1
    4    14	 1
    4     9	 1
    4    30	 1
    4    28	 1
    4    24	 1
    5     8	 1
    5    31	 1
    5    27	 1
    5    41	 1
    5    25	 1
    5    37	 1
    6    29	 1
    6    28	 1
    6    24	 1
    7    17	 1
    7     8	 1
    7    23	 1
    8    29	 1
    8    20	 1
    8    33	 1
    8    13	 1
    8    18	 1
    8    19	 1
    9    17	 1
    9    34	 1
    9    35	 1
    9    15	 1
    9    13	 1
    9    22	 1
    9    21	 1
    9    36	 1
   10    16	 1
   10    14	 1
   10    12	 1
   10    20	 1
   10    33	 1
   11    16	 1
   11    15	 1
   11    45	 1
   11    46	 1
   11    47	 1
   12    16	 1
   12    32	 1
   12    22	 1
   12    21	 1
   12    36	 1
   13    20	 1
   13    33	 1
   13    15	 1
   14    17	 1
   14    34	 1
   14    35	 1
   14    32	 1
   14    20	 1
   14    33	 1
   14    45	 1
   14    46	 1
   14    47	 1
   15    16	 1
   16    32	 1
   16    48	 1
   16    49	 1
   16    50	 1
   16    42	 1
   16    43	 1
   16    44	 1
   18    34	 1
   18    35	 1
   18    42	 1
   18    43	 1
   18    44	 1
   19    34	 1
   19    35	 1
   19    48	 1
   19    49	 1
   19    50	 1
   20    32	 1
   21    33	 1
   22    33	 1
   23    29	 1
   23    30	 1
   23    26	 1
   23    38	 1
   23    40	 1
   24    27	 1
   24    41	 1
   24    39	 1
   25    28	 1
   25    40	 1
   26    37	 1
   26    41	 1
   27    38	 1
   28    37	 1
   28    39	 1
   30    31	 1
   32    33	 1
   33    36	 1
   37    38	 1
   38    39	 1
   39    40	 1
   40    41	 1

[ angles ]
;	ai	  aj	ak funct			c0			  c1			c2			  c3
    2     1    17	5 ;     CG2R61     OG3R60      CG301
    1     2     7	5 ;     OG3R60     CG2R61     CG2R61
    1     2     3	5 ;     OG3R60     CG2R61     CG2R61
    7     2     3	5 ;     CG2R61     CG2R61     CG2R61
    2     3     4	5 ;     CG2R61     CG2R61     CG2R61
    2     3     8	5 ;     CG2R61     CG2R61     CG3C50
    4     3     8	5 ;     CG2R61     CG2R61     CG3C50
    5     4     3	5 ;     CG2R67     CG2R61     CG2R61
    5     4    29	5 ;     CG2R67     CG2R61      HGR61
    3     4    29	5 ;     CG2R61     CG2R61      HGR61
    6     5     4	5 ;     CG2R61     CG2R67     CG2R61
    6     5    23	5 ;     CG2R61     CG2R67     CG2R67
    4     5    23	5 ;     CG2R61     CG2R67     CG2R67
    7     6     5	5 ;     CG2R61     CG2R61     CG2R67
    7     6    30	5 ;     CG2R61     CG2R61      HGR61
    5     6    30	5 ;     CG2R67     CG2R61      HGR61
    6     7     2	5 ;     CG2R61     CG2R61     CG2R61
    6     7    31	5 ;     CG2R61     CG2R61      HGR61
    2     7    31	5 ;     CG2R61     CG2R61      HGR61
   16     8     3	5 ;      CG321     CG3C50     CG2R61
   16     8    14	5 ;      CG321     CG3C50     CG2R53
   16     8     9	5 ;      CG321     CG3C50      NG3P2
    3     8    14	5 ;     CG2R61     CG3C50     CG2R53
    3     8     9	5 ;     CG2R61     CG3C50      NG3P2
   14     8     9	5 ;     CG2R53     CG3C50      NG3P2
    8     9    10	5 ;     CG3C50      NG3P2       HGP2
    8     9    11	5 ;     CG3C50      NG3P2     CG3C53
    8     9    32	5 ;     CG3C50      NG3P2       HGP2
   10     9    11	5 ;       HGP2      NG3P2     CG3C53
   10     9    32	5 ;       HGP2      NG3P2       HGP2
   11     9    32	5 ;     CG3C53      NG3P2       HGP2
    9    11    12	5 ;      NG3P2     CG3C53     NG2R53
    9    11    20	5 ;      NG3P2     CG3C53      NG3P3
    9    11    33	5 ;      NG3P2     CG3C53       HGA1
   12    11    20	5 ;     NG2R53     CG3C53      NG3P3
   12    11    33	5 ;     NG2R53     CG3C53       HGA1
   20    11    33	5 ;      NG3P3     CG3C53       HGA1
   14    12    11	5 ;     CG2R53     NG2R53     CG3C53
   14    12    13	5 ;     CG2R53     NG2R53      CG331
   11    12    13	5 ;     CG3C53     NG2R53      CG331
   12    13    45	5 ;     NG2R53      CG331       HGA3
   12    13    46	5 ;     NG2R53      CG331       HGA3
   12    13    47	5 ;     NG2R53      CG331       HGA3
   45    13    46	5 ;       HGA3      CG331       HGA3
   45    13    47	5 ;       HGA3      CG331       HGA3
   46    13    47	5 ;       HGA3      CG331       HGA3
   15    14     8	5 ;      OG2D1     CG2R53     CG3C50
   15    14    12	5 ;      OG2D1     CG2R53     NG2R53
    8    14    12	5 ;     CG3C50     CG2R53     NG2R53
   17    16     8	5 ;      CG301      CG321     CG3C50
   17    16    34	5 ;      CG301      CG321       HGA2
   17    16    35	5 ;      CG301      CG321       HGA2
    8    16    34	5 ;     CG3C50      CG321       HGA2
    8    16    35	5 ;     CG3C50      CG321       HGA2
   34    16    35	5 ;       HGA2      CG321       HGA2
   18    17     1	5 ;      CG331      CG301     OG3R60
   18    17    16	5 ;      CG331      CG301      CG321
   18    17    19	5 ;      CG331      CG301      CG331
    1    17    16	5 ;     OG3R60      CG301      CG321
    1    17    19	5 ;     OG3R60      CG301      CG331
   16    17    19	5 ;      CG321      CG301      CG331
   17    18    48	5 ;      CG301      CG331       HGA3
   17    18    49	5 ;      CG301      CG331       HGA3
   17    18    50	5 ;      CG301      CG331       HGA3
   48    18    49	5 ;       HGA3      CG331       HGA3
   48    18    50	5 ;       HGA3      CG331       HGA3
   49    18    50	5 ;       HGA3      CG331       HGA3
   17    19    42	5 ;      CG301      CG331       HGA3
   17    19    43	5 ;      CG301      CG331       HGA3
   17    19    44	5 ;      CG301      CG331       HGA3
   42    19    43	5 ;       HGA3      CG331       HGA3
   42    19    44	5 ;       HGA3      CG331       HGA3
   43    19    44	5 ;       HGA3      CG331       HGA3
   11    20    22	5 ;     CG3C53      NG3P3       HGP2
   11    20    21	5 ;     CG3C53      NG3P3       HGP2
   11    20    36	5 ;     CG3C53      NG3P3       HGP2
   22    20    21	5 ;       HGP2      NG3P3       HGP2
   22    20    36	5 ;       HGP2      NG3P3       HGP2
   21    20    36	5 ;       HGP2      NG3P3       HGP2
   28    23     5	5 ;     CG2R61     CG2R67     CG2R67
   28    23    24	5 ;     CG2R61     CG2R67     CG2R61
    5    23    24	5 ;     CG2R67     CG2R67     CG2R61
   23    24    25	5 ;     CG2R67     CG2R61     CG2R61
   23    24    37	5 ;     CG2R67     CG2R61      HGR61
   25    24    37	5 ;     CG2R61     CG2R61      HGR61
   26    25    24	5 ;     CG2R61     CG2R61     CG2R61
   26    25    38	5 ;     CG2R61     CG2R61      HGR61
   24    25    38	5 ;     CG2R61     CG2R61      HGR61
   27    26    25	5 ;     CG2R61     CG2R61     CG2R61
   27    26    39	5 ;     CG2R61     CG2R61      HGR61
   25    26    39	5 ;     CG2R61     CG2R61      HGR61
   28    27    26	5 ;     CG2R61     CG2R61     CG2R61
   28    27    40	5 ;     CG2R61     CG2R61      HGR61
   26    27    40	5 ;     CG2R61     CG2R61      HGR61
   27    28    23	5 ;     CG2R61     CG2R61     CG2R67
   27    28    41	5 ;     CG2R61     CG2R61      HGR61
   23    28    41	5 ;     CG2R67     CG2R61      HGR61

[ dihedrals ]
;	ai	  aj	ak	  al funct			  c0			c1			  c2			c3			  c4			c5
   17     1     2     7	 9 ;      CG301     OG3R60     CG2R61     CG2R61
   17     1     2     3	 9 ;      CG301     OG3R60     CG2R61     CG2R61
    2     1    17    18	 9 ;     CG2R61     OG3R60      CG301      CG331
    2     1    17    16	 9 ;     CG2R61     OG3R60      CG301      CG321
    2     1    17    19	 9 ;     CG2R61     OG3R60      CG301      CG331
    1     2     7     6	 9 ;     OG3R60     CG2R61     CG2R61     CG2R61
    1     2     7    31	 9 ;     OG3R60     CG2R61     CG2R61      HGR61
    3     2     7     6	 9 ;     CG2R61     CG2R61     CG2R61     CG2R61
    3     2     7    31	 9 ;     CG2R61     CG2R61     CG2R61      HGR61
    1     2     3     4	 9 ;     OG3R60     CG2R61     CG2R61     CG2R61
    1     2     3     8	 9 ;     OG3R60     CG2R61     CG2R61     CG3C50
    7     2     3     4	 9 ;     CG2R61     CG2R61     CG2R61     CG2R61
    7     2     3     8	 9 ;     CG2R61     CG2R61     CG2R61     CG3C50
    2     3     4     5	 9 ;     CG2R61     CG2R61     CG2R61     CG2R67
    2     3     4    29	 9 ;     CG2R61     CG2R61     CG2R61      HGR61
    8     3     4     5	 9 ;     CG3C50     CG2R61     CG2R61     CG2R67
    8     3     4    29	 9 ;     CG3C50     CG2R61     CG2R61      HGR61
    2     3     8    16	 9 ;     CG2R61     CG2R61     CG3C50      CG321
    2     3     8    14	 9 ;     CG2R61     CG2R61     CG3C50     CG2R53
    2     3     8     9	 9 ;     CG2R61     CG2R61     CG3C50      NG3P2
    4     3     8    16	 9 ;     CG2R61     CG2R61     CG3C50      CG321
    4     3     8    14	 9 ;     CG2R61     CG2R61     CG3C50     CG2R53
    4     3     8     9	 9 ;     CG2R61     CG2R61     CG3C50      NG3P2
    3     4     5     6	 9 ;     CG2R61     CG2R61     CG2R67     CG2R61
    3     4     5    23	 9 ;     CG2R61     CG2R61     CG2R67     CG2R67
   29     4     5     6	 9 ;      HGR61     CG2R61     CG2R67     CG2R61
   29     4     5    23	 9 ;      HGR61     CG2R61     CG2R67     CG2R67
    4     5     6     7	 9 ;     CG2R61     CG2R67     CG2R61     CG2R61
    4     5     6    30	 9 ;     CG2R61     CG2R67     CG2R61      HGR61
   23     5     6     7	 9 ;     CG2R67     CG2R67     CG2R61     CG2R61
   23     5     6    30	 9 ;     CG2R67     CG2R67     CG2R61      HGR61
    6     5    23    28	 9 ;     CG2R61     CG2R67     CG2R67     CG2R61
    6     5    23    24	 9 ;     CG2R61     CG2R67     CG2R67     CG2R61
    4     5    23    28	 9 ;     CG2R61     CG2R67     CG2R67     CG2R61
    4     5    23    24	 9 ;     CG2R61     CG2R67     CG2R67     CG2R61
    5     6     7     2	 9 ;     CG2R67     CG2R61     CG2R61     CG2R61
    5     6     7    31	 9 ;     CG2R67     CG2R61     CG2R61      HGR61
   30     6     7     2	 9 ;      HGR61     CG2R61     CG2R61     CG2R61
   30     6     7    31	 9 ;      HGR61     CG2R61     CG2R61      HGR61
    3     8    16    17	 9 ;     CG2R61     CG3C50      CG321      CG301
    3     8    16    34	 9 ;     CG2R61     CG3C50      CG321       HGA2
    3     8    16    35	 9 ;     CG2R61     CG3C50      CG321       HGA2
   14     8    16    17	 9 ;     CG2R53     CG3C50      CG321      CG301
   14     8    16    34	 9 ;     CG2R53     CG3C50      CG321       HGA2
   14     8    16    35	 9 ;     CG2R53     CG3C50      CG321       HGA2
    9     8    16    17	 9 ;      NG3P2     CG3C50      CG321      CG301
    9     8    16    34	 9 ;      NG3P2     CG3C50      CG321       HGA2
    9     8    16    35	 9 ;      NG3P2     CG3C50      CG321       HGA2
   16     8    14    15	 9 ;      CG321     CG3C50     CG2R53      OG2D1
   16     8    14    12	 9 ;      CG321     CG3C50     CG2R53     NG2R53
    3     8    14    15	 9 ;     CG2R61     CG3C50     CG2R53      OG2D1
    3     8    14    12	 9 ;     CG2R61     CG3C50     CG2R53     NG2R53
    9     8    14    15	 9 ;      NG3P2     CG3C50     CG2R53      OG2D1
    9     8    14    12	 9 ;      NG3P2     CG3C50     CG2R53     NG2R53
   16     8     9    10	 9 ;      CG321     CG3C50      NG3P2       HGP2
   16     8     9    11	 9 ;      CG321     CG3C50      NG3P2     CG3C53
   16     8     9    32	 9 ;      CG321     CG3C50      NG3P2       HGP2
    3     8     9    10	 9 ;     CG2R61     CG3C50      NG3P2       HGP2
    3     8     9    11	 9 ;     CG2R61     CG3C50      NG3P2     CG3C53
    3     8     9    32	 9 ;     CG2R61     CG3C50      NG3P2       HGP2
   14     8     9    10	 9 ;     CG2R53     CG3C50      NG3P2       HGP2
   14     8     9    11	 9 ;     CG2R53     CG3C50      NG3P2     CG3C53
   14     8     9    32	 9 ;     CG2R53     CG3C50      NG3P2       HGP2
    8     9    11    12	 9 ;     CG3C50      NG3P2     CG3C53     NG2R53
    8     9    11    20	 9 ;     CG3C50      NG3P2     CG3C53      NG3P3
    8     9    11    33	 9 ;     CG3C50      NG3P2     CG3C53       HGA1
   10     9    11    12	 9 ;       HGP2      NG3P2     CG3C53     NG2R53
   10     9    11    20	 9 ;       HGP2      NG3P2     CG3C53      NG3P3
   10     9    11    33	 9 ;       HGP2      NG3P2     CG3C53       HGA1
   32     9    11    12	 9 ;       HGP2      NG3P2     CG3C53     NG2R53
   32     9    11    20	 9 ;       HGP2      NG3P2     CG3C53      NG3P3
   32     9    11    33	 9 ;       HGP2      NG3P2     CG3C53       HGA1
    9    11    12    14	 9 ;      NG3P2     CG3C53     NG2R53     CG2R53
    9    11    12    13	 9 ;      NG3P2     CG3C53     NG2R53      CG331
   20    11    12    14	 9 ;      NG3P3     CG3C53     NG2R53     CG2R53
   20    11    12    13	 9 ;      NG3P3     CG3C53     NG2R53      CG331
   33    11    12    14	 9 ;       HGA1     CG3C53     NG2R53     CG2R53
   33    11    12    13	 9 ;       HGA1     CG3C53     NG2R53      CG331
    9    11    20    22	 9 ;      NG3P2     CG3C53      NG3P3       HGP2
    9    11    20    21	 9 ;      NG3P2     CG3C53      NG3P3       HGP2
    9    11    20    36	 9 ;      NG3P2     CG3C53      NG3P3       HGP2
   12    11    20    22	 9 ;     NG2R53     CG3C53      NG3P3       HGP2
   12    11    20    21	 9 ;     NG2R53     CG3C53      NG3P3       HGP2
   12    11    20    36	 9 ;     NG2R53     CG3C53      NG3P3       HGP2
   33    11    20    22	 9 ;       HGA1     CG3C53      NG3P3       HGP2
   33    11    20    21	 9 ;       HGA1     CG3C53      NG3P3       HGP2
   33    11    20    36	 9 ;       HGA1     CG3C53      NG3P3       HGP2
   11    12    14    15	 9 ;     CG3C53     NG2R53     CG2R53      OG2D1
   11    12    14     8	 9 ;     CG3C53     NG2R53     CG2R53     CG3C50
   13    12    14    15	 9 ;      CG331     NG2R53     CG2R53      OG2D1
   13    12    14     8	 9 ;      CG331     NG2R53     CG2R53     CG3C50
   14    12    13    45	 9 ;     CG2R53     NG2R53      CG331       HGA3
   14    12    13    46	 9 ;     CG2R53     NG2R53      CG331       HGA3
   14    12    13    47	 9 ;     CG2R53     NG2R53      CG331       HGA3
   11    12    13    45	 9 ;     CG3C53     NG2R53      CG331       HGA3
   11    12    13    46	 9 ;     CG3C53     NG2R53      CG331       HGA3
   11    12    13    47	 9 ;     CG3C53     NG2R53      CG331       HGA3
    8    16    17    18	 9 ;     CG3C50      CG321      CG301      CG331
    8    16    17     1	 9 ;     CG3C50      CG321      CG301     OG3R60
    8    16    17    19	 9 ;     CG3C50      CG321      CG301      CG331
   34    16    17    18	 9 ;       HGA2      CG321      CG301      CG331
   34    16    17     1	 9 ;       HGA2      CG321      CG301     OG3R60
   34    16    17    19	 9 ;       HGA2      CG321      CG301      CG331
   35    16    17    18	 9 ;       HGA2      CG321      CG301      CG331
   35    16    17     1	 9 ;       HGA2      CG321      CG301     OG3R60
   35    16    17    19	 9 ;       HGA2      CG321      CG301      CG331
    1    17    18    48	 9 ;     OG3R60      CG301      CG331       HGA3
    1    17    18    49	 9 ;     OG3R60      CG301      CG331       HGA3
    1    17    18    50	 9 ;     OG3R60      CG301      CG331       HGA3
   16    17    18    48	 9 ;      CG321      CG301      CG331       HGA3
   16    17    18    49	 9 ;      CG321      CG301      CG331       HGA3
   16    17    18    50	 9 ;      CG321      CG301      CG331       HGA3
   19    17    18    48	 9 ;      CG331      CG301      CG331       HGA3
   19    17    18    49	 9 ;      CG331      CG301      CG331       HGA3
   19    17    18    50	 9 ;      CG331      CG301      CG331       HGA3
   18    17    19    42	 9 ;      CG331      CG301      CG331       HGA3
   18    17    19    43	 9 ;      CG331      CG301      CG331       HGA3
   18    17    19    44	 9 ;      CG331      CG301      CG331       HGA3
    1    17    19    42	 9 ;     OG3R60      CG301      CG331       HGA3
    1    17    19    43	 9 ;     OG3R60      CG301      CG331       HGA3
    1    17    19    44	 9 ;     OG3R60      CG301      CG331       HGA3
   16    17    19    42	 9 ;      CG321      CG301      CG331       HGA3
   16    17    19    43	 9 ;      CG321      CG301      CG331       HGA3
   16    17    19    44	 9 ;      CG321      CG301      CG331       HGA3
    5    23    28    27	 9 ;     CG2R67     CG2R67     CG2R61     CG2R61
    5    23    28    41	 9 ;     CG2R67     CG2R67     CG2R61      HGR61
   24    23    28    27	 9 ;     CG2R61     CG2R67     CG2R61     CG2R61
   24    23    28    41	 9 ;     CG2R61     CG2R67     CG2R61      HGR61
   28    23    24    25	 9 ;     CG2R61     CG2R67     CG2R61     CG2R61
   28    23    24    37	 9 ;     CG2R61     CG2R67     CG2R61      HGR61
    5    23    24    25	 9 ;     CG2R67     CG2R67     CG2R61     CG2R61
    5    23    24    37	 9 ;     CG2R67     CG2R67     CG2R61      HGR61
   23    24    25    26	 9 ;     CG2R67     CG2R61     CG2R61     CG2R61
   23    24    25    38	 9 ;     CG2R67     CG2R61     CG2R61      HGR61
   37    24    25    26	 9 ;      HGR61     CG2R61     CG2R61     CG2R61
   37    24    25    38	 9 ;      HGR61     CG2R61     CG2R61      HGR61
   24    25    26    27	 9 ;     CG2R61     CG2R61     CG2R61     CG2R61
   24    25    26    39	 9 ;     CG2R61     CG2R61     CG2R61      HGR61
   38    25    26    27	 9 ;      HGR61     CG2R61     CG2R61     CG2R61
   38    25    26    39	 9 ;      HGR61     CG2R61     CG2R61      HGR61
   25    26    27    28	 9 ;     CG2R61     CG2R61     CG2R61     CG2R61
   25    26    27    40	 9 ;     CG2R61     CG2R61     CG2R61      HGR61
   39    26    27    28	 9 ;      HGR61     CG2R61     CG2R61     CG2R61
   39    26    27    40	 9 ;      HGR61     CG2R61     CG2R61      HGR61
   26    27    28    23	 9 ;     CG2R61     CG2R61     CG2R61     CG2R67
   26    27    28    41	 9 ;     CG2R61     CG2R61     CG2R61      HGR61
   40    27    28    23	 9 ;      HGR61     CG2R61     CG2R61     CG2R67
   40    27    28    41	 9 ;      HGR61     CG2R61     CG2R61      HGR61

[ dihedrals ]
;	ai	  aj	ak	  al funct			  c0			c1			  c2			c3
   14     8    12    15	 2

