; Created by cgenff_charmm2gmx.py

[ moleculetype ]
; Name			   nrexcl
LIG				 3

[ atoms ]
;	 nr		  type	resnr residue  atom   cgnr	   charge		mass  typeB    chargeB		massB
; residue	 1 LIG rtp LIG q	qsum
     1     CG3C31      1    LIG     C1      1     -0.058     12.011   ;
     2     CG3C31      1    LIG     C2      2     -0.180     12.011   ;
     3     CG3C31      1    LIG     C3      3     -0.027     12.011   ;
     4      CG301      1    LIG     C4      4      0.511     12.011   ;
     5      NG3P2      1    LIG     N1      5     -0.591     14.007   ;
     6      CG314      1    LIG     C5      6      0.982     12.011   ;
     7       HGP2      1    LIG     HN      7      0.345      1.008   ;
     8      NG2S0      1    LIG     N2      8     -0.207     14.007   ;
     9      CG331      1    LIG     C6      9     -0.218     12.011   ;
    10      CG2O1      1    LIG     C7     10      0.530     12.011   ;
    11      OG2D1      1    LIG      O     11     -0.542     15.999   ;
    12      CG321      1    LIG     C8     12     -0.311     12.011   ;
    13      CG331      1    LIG     C9     13     -0.293     12.011   ;
    14      NG3P3      1    LIG     N3     14     -0.360     14.007   ;
    15       HGP2      1    LIG     H1     15      0.313      1.008   ;
    16       HGP2      1    LIG     H2     16      0.313      1.008   ;
    17     CG2R61      1    LIG    C10     17     -0.040     12.011   ;
    18     CG2R61      1    LIG    C11     18     -0.114     12.011   ;
    19     CG2R61      1    LIG    C12     19     -0.013     12.011   ;
    20     CG2R61      1    LIG    C13     20     -0.117     12.011   ;
    21     CG2R61      1    LIG    C14     21     -0.115     12.011   ;
    22     CG2R61      1    LIG    C15     22     -0.113     12.011   ;
    23     CG2R51      1    LIG    C16     23      0.110     12.011   ;
    24     CG2R51      1    LIG    C17     24     -0.172     12.011   ;
    25     CG2R51      1    LIG    C18     25     -0.199     12.011   ;
    26     CG2R51      1    LIG    C19     26     -0.152     12.011   ;
    27     SG2R50      1    LIG      S     27     -0.178     32.060   ;
    28       HGA1      1    LIG     HC     28      0.090      1.008   ;
    29       HGA2      1    LIG    HC2     29      0.090      1.008   ;
    30       HGA2      1    LIG    HC3     30      0.090      1.008   ;
    31       HGA1      1    LIG    HC1     31      0.090      1.008   ;
    32       HGP2      1    LIG    HN2     32      0.345      1.008   ;
    33       HGA1      1    LIG    HC4     33      0.090      1.008   ;
    34       HGA3      1    LIG    HC5     34      0.090      1.008   ;
    35       HGA3      1    LIG    HC6     35      0.090      1.008   ;
    36       HGA3      1    LIG    HC7     36      0.090      1.008   ;
    37       HGA2      1    LIG    HC8     37      0.090      1.008   ;
    38       HGA2      1    LIG    HC9     38      0.090      1.008   ;
    39       HGA3      1    LIG   HC10     39      0.090      1.008   ;
    40       HGA3      1    LIG   HC11     40      0.090      1.008   ;
    41       HGA3      1    LIG   HC12     41      0.090      1.008   ;
    42       HGP2      1    LIG    HN1     42      0.313      1.008   ;
    43      HGR61      1    LIG   HC13     43      0.116      1.008   ;
    44      HGR61      1    LIG   HC14     44      0.116      1.008   ;
    45      HGR61      1    LIG   HC15     45      0.116      1.008   ;
    46      HGR61      1    LIG   HC16     46      0.116      1.008   ;
    47      HGR51      1    LIG   HC17     47      0.221      1.008   ;
    48      HGR51      1    LIG   HC18     48      0.194      1.008   ;
    49      HGR52      1    LIG   HC19     49      0.189      1.008   ;

[ bonds ]
;	ai	  aj funct			  c0			c1			  c2			c3
    1     2	 1 ;      CG3C31     CG3C31
    1     3	 1 ;      CG3C31     CG3C31
    1    17	 1 ;      CG3C31     CG2R61
    1    28	 1 ;      CG3C31       HGA1
    2     3	 1 ;      CG3C31     CG3C31
    2    29	 1 ;      CG3C31       HGA2
    2    30	 1 ;      CG3C31       HGA2
    3     4	 1 ;      CG3C31      CG301
    3    31	 1 ;      CG3C31       HGA1
    4     5	 1 ;       CG301      NG3P2
    4    13	 1 ;       CG301      CG331
    4    12	 1 ;       CG301      CG321
    5     7	 1 ;       NG3P2       HGP2
    5     6	 1 ;       NG3P2      CG314
    5    32	 1 ;       NG3P2       HGP2
    6    14	 1 ;       CG314      NG3P3
    6     8	 1 ;       CG314      NG2S0
    6    33	 1 ;       CG314       HGA1
    8     9	 1 ;       NG2S0      CG331
    8    10	 1 ;       NG2S0      CG2O1
    9    34	 1 ;       CG331       HGA3
    9    35	 1 ;       CG331       HGA3
    9    36	 1 ;       CG331       HGA3
   10    12	 1 ;       CG2O1      CG321
   10    11	 1 ;       CG2O1      OG2D1
   12    37	 1 ;       CG321       HGA2
   12    38	 1 ;       CG321       HGA2
   13    39	 1 ;       CG331       HGA3
   13    40	 1 ;       CG331       HGA3
   13    41	 1 ;       CG331       HGA3
   14    15	 1 ;       NG3P3       HGP2
   14    16	 1 ;       NG3P3       HGP2
   14    42	 1 ;       NG3P3       HGP2
   17    22	 1 ;      CG2R61     CG2R61
   17    18	 1 ;      CG2R61     CG2R61
   18    19	 1 ;      CG2R61     CG2R61
   18    43	 1 ;      CG2R61      HGR61
   19    20	 1 ;      CG2R61     CG2R61
   19    23	 1 ;      CG2R61     CG2R51
   20    21	 1 ;      CG2R61     CG2R61
   20    44	 1 ;      CG2R61      HGR61
   21    22	 1 ;      CG2R61     CG2R61
   21    45	 1 ;      CG2R61      HGR61
   22    46	 1 ;      CG2R61      HGR61
   23    24	 1 ;      CG2R51     CG2R51
   23    27	 1 ;      CG2R51     SG2R50
   24    25	 1 ;      CG2R51     CG2R51
   24    47	 1 ;      CG2R51      HGR51
   25    26	 1 ;      CG2R51     CG2R51
   25    48	 1 ;      CG2R51      HGR51
   26    27	 1 ;      CG2R51     SG2R50
   26    49	 1 ;      CG2R51      HGR52

[ pairs ]
;	ai	  aj funct			  c0			c1			  c2			c3
    1     5	 1
    1    13	 1
    1    12	 1
    1    21	 1
    1    46	 1
    1    19	 1
    1    43	 1
    2    22	 1
    2    18	 1
    2     5	 1
    2    13	 1
    2    12	 1
    3    22	 1
    3    18	 1
    3     7	 1
    3     6	 1
    3    32	 1
    3    39	 1
    3    40	 1
    3    41	 1
    3    10	 1
    3    37	 1
    3    38	 1
    4    17	 1
    4    28	 1
    4    29	 1
    4    30	 1
    4    14	 1
    4     8	 1
    4    33	 1
    4    11	 1
    5    31	 1
    5    39	 1
    5    40	 1
    5    41	 1
    5    10	 1
    5    37	 1
    5    38	 1
    5    15	 1
    5    16	 1
    5    42	 1
    5     9	 1
    6    13	 1
    6    12	 1
    6    34	 1
    6    35	 1
    6    36	 1
    6    11	 1
    7    13	 1
    7    12	 1
    7    14	 1
    7     8	 1
    7    33	 1
    8    32	 1
    8    15	 1
    8    16	 1
    8    42	 1
    8    37	 1
    8    38	 1
    9    14	 1
    9    33	 1
    9    12	 1
    9    11	 1
   10    13	 1
   10    14	 1
   10    33	 1
   10    34	 1
   10    35	 1
   10    36	 1
   11    37	 1
   11    38	 1
   12    31	 1
   12    32	 1
   12    39	 1
   12    40	 1
   12    41	 1
   13    31	 1
   13    32	 1
   13    37	 1
   13    38	 1
   14    32	 1
   15    33	 1
   16    33	 1
   17    29	 1
   17    30	 1
   17    31	 1
   17    20	 1
   17    23	 1
   17    45	 1
   18    28	 1
   18    21	 1
   18    46	 1
   18    44	 1
   18    24	 1
   18    27	 1
   19    22	 1
   19    45	 1
   19    25	 1
   19    47	 1
   19    26	 1
   20    43	 1
   20    24	 1
   20    27	 1
   20    46	 1
   21    23	 1
   22    28	 1
   22    43	 1
   22    44	 1
   23    43	 1
   23    44	 1
   23    48	 1
   23    49	 1
   24    49	 1
   26    47	 1
   27    47	 1
   27    48	 1
   28    29	 1
   28    30	 1
   28    31	 1
   29    31	 1
   30    31	 1
   32    33	 1
   33    42	 1
   44    45	 1
   45    46	 1
   47    48	 1
   48    49	 1

[ angles ]
;	ai	  aj	ak funct			c0			  c1			c2			  c3
    2     1     3	5 ;     CG3C31     CG3C31     CG3C31
    2     1    17	5 ;     CG3C31     CG3C31     CG2R61
    2     1    28	5 ;     CG3C31     CG3C31       HGA1
    3     1    17	5 ;     CG3C31     CG3C31     CG2R61
    3     1    28	5 ;     CG3C31     CG3C31       HGA1
   17     1    28	5 ;     CG2R61     CG3C31       HGA1
    1     2     3	5 ;     CG3C31     CG3C31     CG3C31
    1     2    29	5 ;     CG3C31     CG3C31       HGA2
    1     2    30	5 ;     CG3C31     CG3C31       HGA2
    3     2    29	5 ;     CG3C31     CG3C31       HGA2
    3     2    30	5 ;     CG3C31     CG3C31       HGA2
   29     2    30	5 ;       HGA2     CG3C31       HGA2
    4     3     1	5 ;      CG301     CG3C31     CG3C31
    4     3     2	5 ;      CG301     CG3C31     CG3C31
    4     3    31	5 ;      CG301     CG3C31       HGA1
    1     3     2	5 ;     CG3C31     CG3C31     CG3C31
    1     3    31	5 ;     CG3C31     CG3C31       HGA1
    2     3    31	5 ;     CG3C31     CG3C31       HGA1
    5     4    13	5 ;      NG3P2      CG301      CG331
    5     4    12	5 ;      NG3P2      CG301      CG321
    5     4     3	5 ;      NG3P2      CG301     CG3C31
   13     4    12	5 ;      CG331      CG301      CG321
   13     4     3	5 ;      CG331      CG301     CG3C31
   12     4     3	5 ;      CG321      CG301     CG3C31
    7     5     6	5 ;       HGP2      NG3P2      CG314
    7     5     4	5 ;       HGP2      NG3P2      CG301
    7     5    32	5 ;       HGP2      NG3P2       HGP2
    6     5     4	5 ;      CG314      NG3P2      CG301
    6     5    32	5 ;      CG314      NG3P2       HGP2
    4     5    32	5 ;      CG301      NG3P2       HGP2
   14     6     5	5 ;      NG3P3      CG314      NG3P2
   14     6     8	5 ;      NG3P3      CG314      NG2S0
   14     6    33	5 ;      NG3P3      CG314       HGA1
    5     6     8	5 ;      NG3P2      CG314      NG2S0
    5     6    33	5 ;      NG3P2      CG314       HGA1
    8     6    33	5 ;      NG2S0      CG314       HGA1
    6     8     9	5 ;      CG314      NG2S0      CG331
    6     8    10	5 ;      CG314      NG2S0      CG2O1
    9     8    10	5 ;      CG331      NG2S0      CG2O1
    8     9    34	5 ;      NG2S0      CG331       HGA3
    8     9    35	5 ;      NG2S0      CG331       HGA3
    8     9    36	5 ;      NG2S0      CG331       HGA3
   34     9    35	5 ;       HGA3      CG331       HGA3
   34     9    36	5 ;       HGA3      CG331       HGA3
   35     9    36	5 ;       HGA3      CG331       HGA3
    8    10    12	5 ;      NG2S0      CG2O1      CG321
    8    10    11	5 ;      NG2S0      CG2O1      OG2D1
   12    10    11	5 ;      CG321      CG2O1      OG2D1
    4    12    10	5 ;      CG301      CG321      CG2O1
    4    12    37	5 ;      CG301      CG321       HGA2
    4    12    38	5 ;      CG301      CG321       HGA2
   10    12    37	5 ;      CG2O1      CG321       HGA2
   10    12    38	5 ;      CG2O1      CG321       HGA2
   37    12    38	5 ;       HGA2      CG321       HGA2
    4    13    39	5 ;      CG301      CG331       HGA3
    4    13    40	5 ;      CG301      CG331       HGA3
    4    13    41	5 ;      CG301      CG331       HGA3
   39    13    40	5 ;       HGA3      CG331       HGA3
   39    13    41	5 ;       HGA3      CG331       HGA3
   40    13    41	5 ;       HGA3      CG331       HGA3
   15    14    16	5 ;       HGP2      NG3P3       HGP2
   15    14     6	5 ;       HGP2      NG3P3      CG314
   15    14    42	5 ;       HGP2      NG3P3       HGP2
   16    14     6	5 ;       HGP2      NG3P3      CG314
   16    14    42	5 ;       HGP2      NG3P3       HGP2
    6    14    42	5 ;      CG314      NG3P3       HGP2
    1    17    22	5 ;     CG3C31     CG2R61     CG2R61
    1    17    18	5 ;     CG3C31     CG2R61     CG2R61
   22    17    18	5 ;     CG2R61     CG2R61     CG2R61
   17    18    19	5 ;     CG2R61     CG2R61     CG2R61
   17    18    43	5 ;     CG2R61     CG2R61      HGR61
   19    18    43	5 ;     CG2R61     CG2R61      HGR61
   18    19    20	5 ;     CG2R61     CG2R61     CG2R61
   18    19    23	5 ;     CG2R61     CG2R61     CG2R51
   20    19    23	5 ;     CG2R61     CG2R61     CG2R51
   21    20    19	5 ;     CG2R61     CG2R61     CG2R61
   21    20    44	5 ;     CG2R61     CG2R61      HGR61
   19    20    44	5 ;     CG2R61     CG2R61      HGR61
   22    21    20	5 ;     CG2R61     CG2R61     CG2R61
   22    21    45	5 ;     CG2R61     CG2R61      HGR61
   20    21    45	5 ;     CG2R61     CG2R61      HGR61
   17    22    21	5 ;     CG2R61     CG2R61     CG2R61
   17    22    46	5 ;     CG2R61     CG2R61      HGR61
   21    22    46	5 ;     CG2R61     CG2R61      HGR61
   19    23    24	5 ;     CG2R61     CG2R51     CG2R51
   19    23    27	5 ;     CG2R61     CG2R51     SG2R50
   24    23    27	5 ;     CG2R51     CG2R51     SG2R50
   23    24    25	5 ;     CG2R51     CG2R51     CG2R51
   23    24    47	5 ;     CG2R51     CG2R51      HGR51
   25    24    47	5 ;     CG2R51     CG2R51      HGR51
   24    25    26	5 ;     CG2R51     CG2R51     CG2R51
   24    25    48	5 ;     CG2R51     CG2R51      HGR51
   26    25    48	5 ;     CG2R51     CG2R51      HGR51
   27    26    25	5 ;     SG2R50     CG2R51     CG2R51
   27    26    49	5 ;     SG2R50     CG2R51      HGR52
   25    26    49	5 ;     CG2R51     CG2R51      HGR52
   23    27    26	5 ;     CG2R51     SG2R50     CG2R51

[ dihedrals ]
;	ai	  aj	ak	  al funct			  c0			c1			  c2			c3			  c4			c5
    3     1     2    29	 9 ;     CG3C31     CG3C31     CG3C31       HGA2
    3     1     2    30	 9 ;     CG3C31     CG3C31     CG3C31       HGA2
   17     1     2     3	 9 ;     CG2R61     CG3C31     CG3C31     CG3C31
   17     1     2    29	 9 ;     CG2R61     CG3C31     CG3C31       HGA2
   17     1     2    30	 9 ;     CG2R61     CG3C31     CG3C31       HGA2
   28     1     2     3	 9 ;       HGA1     CG3C31     CG3C31     CG3C31
   28     1     2    29	 9 ;       HGA1     CG3C31     CG3C31       HGA2
   28     1     2    30	 9 ;       HGA1     CG3C31     CG3C31       HGA2
    2     1     3     4	 9 ;     CG3C31     CG3C31     CG3C31      CG301
    2     1     3    31	 9 ;     CG3C31     CG3C31     CG3C31       HGA1
   17     1     3     4	 9 ;     CG2R61     CG3C31     CG3C31      CG301
   17     1     3     2	 9 ;     CG2R61     CG3C31     CG3C31     CG3C31
   17     1     3    31	 9 ;     CG2R61     CG3C31     CG3C31       HGA1
   28     1     3     4	 9 ;       HGA1     CG3C31     CG3C31      CG301
   28     1     3     2	 9 ;       HGA1     CG3C31     CG3C31     CG3C31
   28     1     3    31	 9 ;       HGA1     CG3C31     CG3C31       HGA1
    2     1    17    22	 9 ;     CG3C31     CG3C31     CG2R61     CG2R61
    2     1    17    18	 9 ;     CG3C31     CG3C31     CG2R61     CG2R61
    3     1    17    22	 9 ;     CG3C31     CG3C31     CG2R61     CG2R61
    3     1    17    18	 9 ;     CG3C31     CG3C31     CG2R61     CG2R61
   28     1    17    22	 9 ;       HGA1     CG3C31     CG2R61     CG2R61
   28     1    17    18	 9 ;       HGA1     CG3C31     CG2R61     CG2R61
    1     2     3     4	 9 ;     CG3C31     CG3C31     CG3C31      CG301
    1     2     3    31	 9 ;     CG3C31     CG3C31     CG3C31       HGA1
   29     2     3     4	 9 ;       HGA2     CG3C31     CG3C31      CG301
   29     2     3     1	 9 ;       HGA2     CG3C31     CG3C31     CG3C31
   29     2     3    31	 9 ;       HGA2     CG3C31     CG3C31       HGA1
   30     2     3     4	 9 ;       HGA2     CG3C31     CG3C31      CG301
   30     2     3     1	 9 ;       HGA2     CG3C31     CG3C31     CG3C31
   30     2     3    31	 9 ;       HGA2     CG3C31     CG3C31       HGA1
    1     3     4     5	 9 ;     CG3C31     CG3C31      CG301      NG3P2
    1     3     4    13	 9 ;     CG3C31     CG3C31      CG301      CG331
    1     3     4    12	 9 ;     CG3C31     CG3C31      CG301      CG321
    2     3     4     5	 9 ;     CG3C31     CG3C31      CG301      NG3P2
    2     3     4    13	 9 ;     CG3C31     CG3C31      CG301      CG331
    2     3     4    12	 9 ;     CG3C31     CG3C31      CG301      CG321
   31     3     4     5	 9 ;       HGA1     CG3C31      CG301      NG3P2
   31     3     4    13	 9 ;       HGA1     CG3C31      CG301      CG331
   31     3     4    12	 9 ;       HGA1     CG3C31      CG301      CG321
   13     4     5     7	 9 ;      CG331      CG301      NG3P2       HGP2
   13     4     5     6	 9 ;      CG331      CG301      NG3P2      CG314
   13     4     5    32	 9 ;      CG331      CG301      NG3P2       HGP2
   12     4     5     7	 9 ;      CG321      CG301      NG3P2       HGP2
   12     4     5     6	 9 ;      CG321      CG301      NG3P2      CG314
   12     4     5    32	 9 ;      CG321      CG301      NG3P2       HGP2
    3     4     5     7	 9 ;     CG3C31      CG301      NG3P2       HGP2
    3     4     5     6	 9 ;     CG3C31      CG301      NG3P2      CG314
    3     4     5    32	 9 ;     CG3C31      CG301      NG3P2       HGP2
    5     4    13    39	 9 ;      NG3P2      CG301      CG331       HGA3
    5     4    13    40	 9 ;      NG3P2      CG301      CG331       HGA3
    5     4    13    41	 9 ;      NG3P2      CG301      CG331       HGA3
   12     4    13    39	 9 ;      CG321      CG301      CG331       HGA3
   12     4    13    40	 9 ;      CG321      CG301      CG331       HGA3
   12     4    13    41	 9 ;      CG321      CG301      CG331       HGA3
    3     4    13    39	 9 ;     CG3C31      CG301      CG331       HGA3
    3     4    13    40	 9 ;     CG3C31      CG301      CG331       HGA3
    3     4    13    41	 9 ;     CG3C31      CG301      CG331       HGA3
    5     4    12    10	 9 ;      NG3P2      CG301      CG321      CG2O1
    5     4    12    37	 9 ;      NG3P2      CG301      CG321       HGA2
    5     4    12    38	 9 ;      NG3P2      CG301      CG321       HGA2
   13     4    12    10	 9 ;      CG331      CG301      CG321      CG2O1
   13     4    12    37	 9 ;      CG331      CG301      CG321       HGA2
   13     4    12    38	 9 ;      CG331      CG301      CG321       HGA2
    3     4    12    10	 9 ;     CG3C31      CG301      CG321      CG2O1
    3     4    12    37	 9 ;     CG3C31      CG301      CG321       HGA2
    3     4    12    38	 9 ;     CG3C31      CG301      CG321       HGA2
    7     5     6    14	 9 ;       HGP2      NG3P2      CG314      NG3P3
    7     5     6     8	 9 ;       HGP2      NG3P2      CG314      NG2S0
    7     5     6    33	 9 ;       HGP2      NG3P2      CG314       HGA1
    4     5     6    14	 9 ;      CG301      NG3P2      CG314      NG3P3
    4     5     6     8	 9 ;      CG301      NG3P2      CG314      NG2S0
    4     5     6    33	 9 ;      CG301      NG3P2      CG314       HGA1
   32     5     6    14	 9 ;       HGP2      NG3P2      CG314      NG3P3
   32     5     6     8	 9 ;       HGP2      NG3P2      CG314      NG2S0
   32     5     6    33	 9 ;       HGP2      NG3P2      CG314       HGA1
    5     6    14    15	 9 ;      NG3P2      CG314      NG3P3       HGP2
    5     6    14    16	 9 ;      NG3P2      CG314      NG3P3       HGP2
    5     6    14    42	 9 ;      NG3P2      CG314      NG3P3       HGP2
    8     6    14    15	 9 ;      NG2S0      CG314      NG3P3       HGP2
    8     6    14    16	 9 ;      NG2S0      CG314      NG3P3       HGP2
    8     6    14    42	 9 ;      NG2S0      CG314      NG3P3       HGP2
   33     6    14    15	 9 ;       HGA1      CG314      NG3P3       HGP2
   33     6    14    16	 9 ;       HGA1      CG314      NG3P3       HGP2
   33     6    14    42	 9 ;       HGA1      CG314      NG3P3       HGP2
   14     6     8     9	 9 ;      NG3P3      CG314      NG2S0      CG331
   14     6     8    10	 9 ;      NG3P3      CG314      NG2S0      CG2O1
    5     6     8     9	 9 ;      NG3P2      CG314      NG2S0      CG331
    5     6     8    10	 9 ;      NG3P2      CG314      NG2S0      CG2O1
   33     6     8     9	 9 ;       HGA1      CG314      NG2S0      CG331
   33     6     8    10	 9 ;       HGA1      CG314      NG2S0      CG2O1
    6     8     9    34	 9 ;      CG314      NG2S0      CG331       HGA3
    6     8     9    35	 9 ;      CG314      NG2S0      CG331       HGA3
    6     8     9    36	 9 ;      CG314      NG2S0      CG331       HGA3
   10     8     9    34	 9 ;      CG2O1      NG2S0      CG331       HGA3
   10     8     9    35	 9 ;      CG2O1      NG2S0      CG331       HGA3
   10     8     9    36	 9 ;      CG2O1      NG2S0      CG331       HGA3
    6     8    10    12	 9 ;      CG314      NG2S0      CG2O1      CG321
    6     8    10    11	 9 ;      CG314      NG2S0      CG2O1      OG2D1
    9     8    10    12	 9 ;      CG331      NG2S0      CG2O1      CG321
    9     8    10    11	 9 ;      CG331      NG2S0      CG2O1      OG2D1
    8    10    12     4	 9 ;      NG2S0      CG2O1      CG321      CG301
    8    10    12    37	 9 ;      NG2S0      CG2O1      CG321       HGA2
    8    10    12    38	 9 ;      NG2S0      CG2O1      CG321       HGA2
   11    10    12     4	 9 ;      OG2D1      CG2O1      CG321      CG301
   11    10    12    37	 9 ;      OG2D1      CG2O1      CG321       HGA2
   11    10    12    38	 9 ;      OG2D1      CG2O1      CG321       HGA2
    1    17    22    21	 9 ;     CG3C31     CG2R61     CG2R61     CG2R61
    1    17    22    46	 9 ;     CG3C31     CG2R61     CG2R61      HGR61
   18    17    22    21	 9 ;     CG2R61     CG2R61     CG2R61     CG2R61
   18    17    22    46	 9 ;     CG2R61     CG2R61     CG2R61      HGR61
    1    17    18    19	 9 ;     CG3C31     CG2R61     CG2R61     CG2R61
    1    17    18    43	 9 ;     CG3C31     CG2R61     CG2R61      HGR61
   22    17    18    19	 9 ;     CG2R61     CG2R61     CG2R61     CG2R61
   22    17    18    43	 9 ;     CG2R61     CG2R61     CG2R61      HGR61
   17    18    19    20	 9 ;     CG2R61     CG2R61     CG2R61     CG2R61
   17    18    19    23	 9 ;     CG2R61     CG2R61     CG2R61     CG2R51
   43    18    19    20	 9 ;      HGR61     CG2R61     CG2R61     CG2R61
   43    18    19    23	 9 ;      HGR61     CG2R61     CG2R61     CG2R51
   18    19    20    21	 9 ;     CG2R61     CG2R61     CG2R61     CG2R61
   18    19    20    44	 9 ;     CG2R61     CG2R61     CG2R61      HGR61
   23    19    20    21	 9 ;     CG2R51     CG2R61     CG2R61     CG2R61
   23    19    20    44	 9 ;     CG2R51     CG2R61     CG2R61      HGR61
   18    19    23    24	 9 ;     CG2R61     CG2R61     CG2R51     CG2R51
   18    19    23    27	 9 ;     CG2R61     CG2R61     CG2R51     SG2R50
   20    19    23    24	 9 ;     CG2R61     CG2R61     CG2R51     CG2R51
   20    19    23    27	 9 ;     CG2R61     CG2R61     CG2R51     SG2R50
   19    20    21    22	 9 ;     CG2R61     CG2R61     CG2R61     CG2R61
   19    20    21    45	 9 ;     CG2R61     CG2R61     CG2R61      HGR61
   44    20    21    22	 9 ;      HGR61     CG2R61     CG2R61     CG2R61
   44    20    21    45	 9 ;      HGR61     CG2R61     CG2R61      HGR61
   20    21    22    17	 9 ;     CG2R61     CG2R61     CG2R61     CG2R61
   20    21    22    46	 9 ;     CG2R61     CG2R61     CG2R61      HGR61
   45    21    22    17	 9 ;      HGR61     CG2R61     CG2R61     CG2R61
   45    21    22    46	 9 ;      HGR61     CG2R61     CG2R61      HGR61
   19    23    24    25	 9 ;     CG2R61     CG2R51     CG2R51     CG2R51
   19    23    24    47	 9 ;     CG2R61     CG2R51     CG2R51      HGR51
   27    23    24    25	 9 ;     SG2R50     CG2R51     CG2R51     CG2R51
   27    23    24    47	 9 ;     SG2R50     CG2R51     CG2R51      HGR51
   19    23    27    26	 9 ;     CG2R61     CG2R51     SG2R50     CG2R51
   24    23    27    26	 9 ;     CG2R51     CG2R51     SG2R50     CG2R51
   23    24    25    26	 9 ;     CG2R51     CG2R51     CG2R51     CG2R51
   23    24    25    48	 9 ;     CG2R51     CG2R51     CG2R51      HGR51
   47    24    25    26	 9 ;      HGR51     CG2R51     CG2R51     CG2R51
   47    24    25    48	 9 ;      HGR51     CG2R51     CG2R51      HGR51
   24    25    26    27	 9 ;     CG2R51     CG2R51     CG2R51     SG2R50
   24    25    26    49	 9 ;     CG2R51     CG2R51     CG2R51      HGR52
   48    25    26    27	 9 ;      HGR51     CG2R51     CG2R51     SG2R50
   48    25    26    49	 9 ;      HGR51     CG2R51     CG2R51      HGR52
   25    26    27    23	 9 ;     CG2R51     CG2R51     SG2R50     CG2R51
   49    26    27    23	 9 ;      HGR52     CG2R51     SG2R50     CG2R51

[ dihedrals ]
;	ai	  aj	ak	  al funct			  c0			c1			  c2			c3
   10    12     8    11	 2

