Getting the Right Output Means no Artefacts in Calculating Stuff
   49
    1LIG     C1    1  -1.478   0.441  -1.522
    1LIG     C2    2  -1.450   0.296  -1.558
    1LIG     C3    3  -1.387   0.355  -1.435
    1LIG     C4    4  -1.236   0.372  -1.426
    1LIG     N1    5  -1.176   0.353  -1.557
    1LIG     C5    6  -1.093   0.260  -1.584
    1LIG     HN    7  -1.203   0.418  -1.632
    1LIG     N2    8  -1.050   0.166  -1.493
    1LIG     C6    9  -0.960   0.060  -1.534
    1LIG     C7   10  -1.094   0.166  -1.363
    1LIG      O   11  -1.061   0.079  -1.281
    1LIG     C8   12  -1.181   0.279  -1.318
    1LIG     C9   13  -1.206   0.520  -1.388
    1LIG     N3   14  -1.047   0.257  -1.712
    1LIG     H1   15  -0.949   0.275  -1.728
    1LIG     H2   16  -1.108   0.307  -1.775
    1LIG    C10   17  -1.615   0.479  -1.471
    1LIG    C11   18  -1.701   0.383  -1.416
    1LIG    C12   19  -1.830   0.414  -1.369
    1LIG    C13   20  -1.872   0.548  -1.376
    1LIG    C14   21  -1.788   0.646  -1.429
    1LIG    C15   22  -1.661   0.612  -1.475
    1LIG    C16   23  -1.915   0.307  -1.314
    1LIG    C17   24  -1.926   0.176  -1.357
    1LIG    C18   25  -2.024   0.102  -1.285
    1LIG    C19   26  -2.084   0.177  -1.187
    1LIG      S   27  -2.024   0.337  -1.184
    1LIG     HC   28  -1.428   0.515  -1.583
    1LIG    HC2   29  -1.389   0.273  -1.645
    1LIG    HC3   30  -1.533   0.227  -1.540
    1LIG    HC1   31  -1.433   0.322  -1.342
    1LIG    HN2   32  -1.100   0.414  -1.532
    1LIG    HC4   33  -1.011   0.325  -1.556
    1LIG    HC5   34  -0.939  -0.005  -1.449
    1LIG    HC6   35  -1.006   0.001  -1.614
    1LIG    HC7   36  -0.866   0.103  -1.570
    1LIG    HC8   37  -1.123   0.339  -1.248
    1LIG    HC9   38  -1.266   0.237  -1.263
    1LIG   HC10   39  -1.098   0.534  -1.380
    1LIG   HC11   40  -1.252   0.543  -1.291
    1LIG   HC12   41  -1.246   0.586  -1.464
    1LIG    HN1   42  -1.058   0.160  -1.739
    1LIG   HC13   43  -1.667   0.281  -1.410
    1LIG   HC14   44  -1.970   0.575  -1.340
    1LIG   HC15   45  -1.821   0.749  -1.433
    1LIG   HC16   46  -1.597   0.689  -1.516
    1LIG   HC17   47  -1.867   0.134  -1.437
    1LIG   HC18   48  -2.047  -0.002  -1.304
    1LIG   HC19   49  -2.160   0.141  -1.121
   0.00000   0.00000   0.00000
