Great Red Owns Many ACres of Sand 
   29
    1LIG     O2    1   1.989   4.271  -1.248
    1LIG     C2    2   2.189   4.148  -1.202
    1LIG     C3    3   2.057   4.204  -1.171
    1LIG     O3    4   2.429   4.017  -1.236
    1LIG     C4    5   2.422   4.040  -1.472
    1LIG     C5    6   2.353   4.089  -1.584
    1LIG     C6    7   2.548   3.982  -1.488
    1LIG     C7    8   2.412   4.082  -1.711
    1LIG     C8    9   2.606   3.974  -1.615
    1LIG     C9   10   2.538   4.023  -1.727
    1LIG    C10   11   2.225   4.103  -1.324
    1LIG    C11   12   2.142   4.096  -1.449
    1LIG    C12   13   2.364   4.050  -1.335
    1LIG    C13   14   2.218   4.155  -1.568
    1LIG     C1   15   2.719   3.923  -1.845
    1LIG     O1   16   2.606   4.009  -1.845
    1LIG     O4   17   2.019   4.174  -1.046
    1LIG    H12   18   1.998   4.251  -0.989
    1LIG     H1   19   2.258   4.142  -1.126
    1LIG     H2   20   2.599   3.946  -1.406
    1LIG     H3   21   2.362   4.119  -1.793
    1LIG     H4   22   2.698   3.930  -1.627
    1LIG     H5   23   2.118   3.993  -1.470
    1LIG     H6   24   2.052   4.152  -1.434
    1LIG     H7   25   2.161   4.140  -1.657
    1LIG     H8   26   2.233   4.259  -1.550
    1LIG     H9   27   2.763   3.921  -1.942
    1LIG    H10   28   2.689   3.825  -1.817
    1LIG    H11   29   2.791   3.959  -1.774
   0.00000   0.00000   0.00000
