Gravel Rubs Often Many Awfully Cauterized Sores
   55
    1LIG     C1    1  -1.264   0.420  -1.542
    1LIG     N1    2  -1.265   0.543  -1.456
    1LIG    HN3    3  -1.325   0.561  -1.375
    1LIG     C2    4  -1.174   0.620  -1.505
    1LIG     N2    5  -1.102   0.572  -1.607
    1LIG     C3    6  -1.004   0.642  -1.686
    1LIG     C4    7  -1.141   0.442  -1.631
    1LIG      O    8  -1.088   0.364  -1.709
    1LIG     C5    9  -1.260   0.298  -1.456
    1LIG     C6   10  -1.241   0.167  -1.496
    1LIG     N3   11  -1.222   0.093  -1.383
    1LIG     N4   12  -1.245   0.163  -1.270
    1LIG     C7   13  -1.266   0.287  -1.314
    1LIG    HN4   14  -1.245   0.129  -1.174
    1LIG     C8   15  -1.167  -0.041  -1.377
    1LIG     C9   16  -1.020  -0.038  -1.340
    1LIG    C10   17  -1.395   0.407  -1.622
    1LIG    C11   18  -1.520   0.389  -1.559
    1LIG    C12   19  -1.639   0.372  -1.632
    1LIG    C13   20  -1.630   0.374  -1.772
    1LIG    C14   21  -1.508   0.395  -1.837
    1LIG    C15   22  -1.392   0.412  -1.762
    1LIG    C16   23  -1.768   0.350  -1.563
    1LIG    C17   24  -1.796   0.406  -1.438
    1LIG    C18   25  -1.918   0.383  -1.374
    1LIG    C19   26  -2.011   0.303  -1.438
    1LIG     N5   27  -1.991   0.247  -1.558
    1LIG    C20   28  -1.871   0.271  -1.617
    1LIG    HN5   29  -2.062   0.189  -1.603
    1LIG      F   30  -1.853   0.212  -1.736
    1LIG     N6   31  -1.150   0.743  -1.452
    1LIG     H1   32  -1.133   0.812  -1.524
    1LIG     H2   33  -1.215   0.775  -1.382
    1LIG    HN2   34  -1.196   0.500  -1.395
    1LIG     HC   35  -1.246   0.663  -1.574
    1LIG    HC1   36  -0.963   0.576  -1.762
    1LIG    HC2   37  -0.923   0.677  -1.621
    1LIG    HC3   38  -1.051   0.728  -1.735
    1LIG    HC4   39  -1.241   0.130  -1.598
    1LIG    HC5   40  -1.286   0.371  -1.249
    1LIG    HC6   41  -1.222  -0.098  -1.303
    1LIG    HC7   42  -1.179  -0.089  -1.475
    1LIG    HC8   43  -0.981  -0.140  -1.337
    1LIG    HC9   44  -0.965   0.019  -1.415
    1LIG   HC10   45  -1.008   0.009  -1.242
    1LIG   HC11   46  -1.524   0.390  -1.451
    1LIG   HC12   47  -1.720   0.360  -1.831
    1LIG   HC13   48  -1.505   0.398  -1.945
    1LIG   HC14   49  -1.298   0.429  -1.813
    1LIG   HC15   50  -1.722   0.469  -1.390
    1LIG   HC16   51  -1.938   0.426  -1.277
    1LIG   HC17   52  -2.105   0.286  -1.388
    1LIG    HN1   53  -1.062   0.733  -1.404
    1LIG    H26   54  -1.349   0.149  -1.490
    1LIG    H27   55  -1.969   0.215  -1.389
   0.00000   0.00000   0.00000
