; Created by cgenff_charmm2gmx.py

[ moleculetype ]
; Name			   nrexcl
LIG				 3

[ atoms ]
;	 nr		  type	resnr residue  atom   cgnr	   charge		mass  typeB    chargeB		massB
; residue	 1 LIG rtp LIG q	qsum
     1     CG3C50      1    LIG     C1      1      2.034     12.011   ;
     2      NG3P2      1    LIG     N1      2     -0.579     14.007   ;
     3       HGP2      1    LIG    HN3      3      0.364      1.008   ;
     4     CG3C53      1    LIG     C2      4      0.784     12.011   ;
     5     NG2R53      1    LIG     N2      5     -0.209     14.007   ;
     6      CG331      1    LIG     C3      6     -0.169     12.011   ;
     7     CG2R53      1    LIG     C4      7     -0.364     12.011   ;
     8      OG2D1      1    LIG      O      8     -0.296     15.999   ;
     9     CG2R57      1    LIG     C5      9     -1.106     12.011   ;
    10     CG3C52      1    LIG     C6     10      0.146     12.011   ;
    11     NG3C51      1    LIG     N3     11     -0.542     14.007   ;
    12     NG3C51      1    LIG     N4     12     -0.312     14.007   ;
    13     CG2R51      1    LIG     C7     13      0.031     12.011   ;
    14       HGP1      1    LIG    HN4     14      0.305      1.008   ;
    15      CG321      1    LIG     C8     15      0.082     12.011   ;
    16      CG331      1    LIG     C9     16     -0.260     12.011   ;
    17     CG2R61      1    LIG    C10     17     -0.027     12.011   ;
    18     CG2R61      1    LIG    C11     18     -0.133     12.011   ;
    19     CG2R61      1    LIG    C12     19     -0.137     12.011   ;
    20     CG2R61      1    LIG    C13     20     -0.117     12.011   ;
    21     CG2R61      1    LIG    C14     21     -0.102     12.011   ;
    22     CG2R61      1    LIG    C15     22     -0.132     12.011   ;
    23     CG2DC1      1    LIG    C16     23      0.053     12.011   ;
    24     CG2DC2      1    LIG    C17     24     -0.246     12.011   ;
    25     CG2DC2      1    LIG    C18     25     -0.181     12.011   ;
    26      CG321      1    LIG    C19     26     -0.037     12.011   ;
    27      NG311      1    LIG     N5     27     -0.466     14.007   ;
    28     CG2D1O      1    LIG    C20     28      0.321     12.011   ;
    29     HGPAM1      1    LIG    HN5     29      0.324      1.008   ;
    30       FGA1      1    LIG      F     30     -0.107     18.998   ;
    31      NG3P3      1    LIG     N6     31     -0.267     14.007   ;
    32       HGP2      1    LIG     H1     32      0.301      1.008   ;
    33       HGP2      1    LIG     H2     33      0.301      1.008   ;
    34       HGP2      1    LIG    HN2     34      0.364      1.008   ;
    35       HGA1      1    LIG     HC     35      0.073      1.008   ;
    36       HGA3      1    LIG    HC1     36      0.090      1.008   ;
    37       HGA3      1    LIG    HC2     37      0.090      1.008   ;
    38       HGA3      1    LIG    HC3     38      0.090      1.008   ;
    39       HGA2      1    LIG    HC4     39      0.090      1.008   ;
    40      HGR52      1    LIG    HC5     40      0.158      1.008   ;
    41       HGA2      1    LIG    HC6     41      0.090      1.008   ;
    42       HGA2      1    LIG    HC7     42      0.090      1.008   ;
    43       HGA3      1    LIG    HC8     43      0.090      1.008   ;
    44       HGA3      1    LIG    HC9     44      0.090      1.008   ;
    45       HGA3      1    LIG   HC10     45      0.090      1.008   ;
    46      HGR61      1    LIG   HC11     46      0.116      1.008   ;
    47      HGR61      1    LIG   HC12     47      0.116      1.008   ;
    48      HGR61      1    LIG   HC13     48      0.116      1.008   ;
    49      HGR61      1    LIG   HC14     49      0.116      1.008   ;
    50       HGA4      1    LIG   HC15     50      0.153      1.008   ;
    51       HGA4      1    LIG   HC16     51      0.150      1.008   ;
    52       HGA2      1    LIG   HC17     52      0.090      1.008   ;
    53       HGP2      1    LIG    HN1     53      0.301      1.008   ;
    54       HGA2      1    LIG    H26     54      0.090      1.008   ;
    55       HGA2      1    LIG    H27     55      0.090      1.008   ;

[ bonds ]
;	ai	  aj funct			  c0			c1			  c2			c3
    1     7	 1 ;      CG3C50     CG2R53
    1     2	 1 ;      CG3C50      NG3P2
    1    17	 1 ;      CG3C50     CG2R61
    1     9	 1 ;      CG3C50     CG2R57
    2     4	 1 ;       NG3P2     CG3C53
    2     3	 1 ;       NG3P2       HGP2
    2    34	 1 ;       NG3P2       HGP2
    4     5	 1 ;      CG3C53     NG2R53
    4    31	 1 ;      CG3C53      NG3P3
    4    35	 1 ;      CG3C53       HGA1
    5     6	 1 ;      NG2R53      CG331
    5     7	 1 ;      NG2R53     CG2R53
    6    36	 1 ;       CG331       HGA3
    6    37	 1 ;       CG331       HGA3
    6    38	 1 ;       CG331       HGA3
    7     8	 1 ;      CG2R53      OG2D1
    9    10	 1 ;      CG2R57     CG3C52
    9    13	 1 ;      CG2R57     CG2R51
   10    11	 1 ;      CG3C52     NG3C51
   10    39	 1 ;      CG3C52       HGA2
   10    54	 1 ;      CG3C52       HGA2
   11    15	 1 ;      NG3C51      CG321
   11    12	 1 ;      NG3C51     NG3C51
   12    13	 1 ;      NG3C51     CG2R51
   12    14	 1 ;      NG3C51       HGP1
   13    40	 1 ;      CG2R51      HGR52
   15    16	 1 ;       CG321      CG331
   15    41	 1 ;       CG321       HGA2
   15    42	 1 ;       CG321       HGA2
   16    43	 1 ;       CG331       HGA3
   16    44	 1 ;       CG331       HGA3
   16    45	 1 ;       CG331       HGA3
   17    22	 1 ;      CG2R61     CG2R61
   17    18	 1 ;      CG2R61     CG2R61
   18    19	 1 ;      CG2R61     CG2R61
   18    46	 1 ;      CG2R61      HGR61
   19    20	 1 ;      CG2R61     CG2R61
   19    23	 1 ;      CG2R61     CG2DC1
   20    21	 1 ;      CG2R61     CG2R61
   20    47	 1 ;      CG2R61      HGR61
   21    22	 1 ;      CG2R61     CG2R61
   21    48	 1 ;      CG2R61      HGR61
   22    49	 1 ;      CG2R61      HGR61
   23    28	 1 ;      CG2DC1     CG2D1O
   23    24	 1 ;      CG2DC1     CG2DC2
   24    25	 1 ;      CG2DC2     CG2DC2
   24    50	 1 ;      CG2DC2       HGA4
   25    26	 1 ;      CG2DC2      CG321
   25    51	 1 ;      CG2DC2       HGA4
   26    27	 1 ;       CG321      NG311
   26    52	 1 ;       CG321       HGA2
   26    55	 1 ;       CG321       HGA2
   27    28	 1 ;       NG311     CG2D1O
   27    29	 1 ;       NG311     HGPAM1
   28    30	 1 ;      CG2D1O       FGA1
   31    32	 1 ;       NG3P3       HGP2
   31    33	 1 ;       NG3P3       HGP2
   31    53	 1 ;       NG3P3       HGP2

[ pairs ]
;	ai	  aj funct			  c0			c1			  c2			c3
    1    31	 1
    1    35	 1
    1     6	 1
    1    11	 1
    1    39	 1
    1    54	 1
    1    12	 1
    1    40	 1
    1    21	 1
    1    49	 1
    1    19	 1
    1    46	 1
    2     8	 1
    2    22	 1
    2    18	 1
    2    10	 1
    2    13	 1
    2     6	 1
    2    32	 1
    2    33	 1
    2    53	 1
    3     7	 1
    3    17	 1
    3     9	 1
    3     5	 1
    3    31	 1
    3    35	 1
    4    17	 1
    4     9	 1
    4    36	 1
    4    37	 1
    4    38	 1
    4     8	 1
    5    17	 1
    5     9	 1
    5    34	 1
    5    32	 1
    5    33	 1
    5    53	 1
    6    31	 1
    6    35	 1
    6     8	 1
    7    34	 1
    7    22	 1
    7    18	 1
    7    10	 1
    7    13	 1
    7    31	 1
    7    35	 1
    7    36	 1
    7    37	 1
    7    38	 1
    8    17	 1
    8     9	 1
    9    34	 1
    9    22	 1
    9    18	 1
    9    15	 1
    9    14	 1
   10    17	 1
   10    40	 1
   10    16	 1
   10    41	 1
   10    42	 1
   10    14	 1
   11    40	 1
   11    43	 1
   11    44	 1
   11    45	 1
   12    39	 1
   12    54	 1
   12    16	 1
   12    41	 1
   12    42	 1
   13    17	 1
   13    39	 1
   13    54	 1
   13    15	 1
   14    15	 1
   14    40	 1
   15    39	 1
   15    54	 1
   17    34	 1
   17    20	 1
   17    23	 1
   17    48	 1
   18    21	 1
   18    49	 1
   18    47	 1
   18    28	 1
   18    24	 1
   19    22	 1
   19    48	 1
   19    30	 1
   19    27	 1
   19    25	 1
   19    50	 1
   20    46	 1
   20    28	 1
   20    24	 1
   20    49	 1
   21    23	 1
   22    46	 1
   22    47	 1
   23    46	 1
   23    47	 1
   23    26	 1
   23    51	 1
   23    29	 1
   24    30	 1
   24    27	 1
   24    52	 1
   24    55	 1
   25    28	 1
   25    29	 1
   26    50	 1
   26    30	 1
   27    51	 1
   28    50	 1
   28    52	 1
   28    55	 1
   29    52	 1
   29    55	 1
   29    30	 1
   31    34	 1
   32    35	 1
   33    35	 1
   34    35	 1
   35    53	 1
   41    43	 1
   41    44	 1
   41    45	 1
   42    43	 1
   42    44	 1
   42    45	 1
   47    48	 1
   48    49	 1
   50    51	 1
   51    52	 1
   51    55	 1

[ angles ]
;	ai	  aj	ak funct			c0			  c1			c2			  c3
    7     1     2	5 ;     CG2R53     CG3C50      NG3P2
    7     1    17	5 ;     CG2R53     CG3C50     CG2R61
    7     1     9	5 ;     CG2R53     CG3C50     CG2R57
    2     1    17	5 ;      NG3P2     CG3C50     CG2R61
    2     1     9	5 ;      NG3P2     CG3C50     CG2R57
   17     1     9	5 ;     CG2R61     CG3C50     CG2R57
    4     2     1	5 ;     CG3C53      NG3P2     CG3C50
    4     2     3	5 ;     CG3C53      NG3P2       HGP2
    4     2    34	5 ;     CG3C53      NG3P2       HGP2
    1     2     3	5 ;     CG3C50      NG3P2       HGP2
    1     2    34	5 ;     CG3C50      NG3P2       HGP2
    3     2    34	5 ;       HGP2      NG3P2       HGP2
    5     4    31	5 ;     NG2R53     CG3C53      NG3P3
    5     4     2	5 ;     NG2R53     CG3C53      NG3P2
    5     4    35	5 ;     NG2R53     CG3C53       HGA1
   31     4     2	5 ;      NG3P3     CG3C53      NG3P2
   31     4    35	5 ;      NG3P3     CG3C53       HGA1
    2     4    35	5 ;      NG3P2     CG3C53       HGA1
    6     5     7	5 ;      CG331     NG2R53     CG2R53
    6     5     4	5 ;      CG331     NG2R53     CG3C53
    7     5     4	5 ;     CG2R53     NG2R53     CG3C53
    5     6    36	5 ;     NG2R53      CG331       HGA3
    5     6    37	5 ;     NG2R53      CG331       HGA3
    5     6    38	5 ;     NG2R53      CG331       HGA3
   36     6    37	5 ;       HGA3      CG331       HGA3
   36     6    38	5 ;       HGA3      CG331       HGA3
   37     6    38	5 ;       HGA3      CG331       HGA3
    8     7     5	5 ;      OG2D1     CG2R53     NG2R53
    8     7     1	5 ;      OG2D1     CG2R53     CG3C50
    5     7     1	5 ;     NG2R53     CG2R53     CG3C50
    1     9    10	5 ;     CG3C50     CG2R57     CG3C52
    1     9    13	5 ;     CG3C50     CG2R57     CG2R51
   10     9    13	5 ;     CG3C52     CG2R57     CG2R51
    9    10    11	5 ;     CG2R57     CG3C52     NG3C51
    9    10    39	5 ;     CG2R57     CG3C52       HGA2
    9    10    54	5 ;     CG2R57     CG3C52       HGA2
   11    10    39	5 ;     NG3C51     CG3C52       HGA2
   11    10    54	5 ;     NG3C51     CG3C52       HGA2
   39    10    54	5 ;       HGA2     CG3C52       HGA2
   10    11    15	5 ;     CG3C52     NG3C51      CG321
   10    11    12	5 ;     CG3C52     NG3C51     NG3C51
   15    11    12	5 ;      CG321     NG3C51     NG3C51
   11    12    13	5 ;     NG3C51     NG3C51     CG2R51
   11    12    14	5 ;     NG3C51     NG3C51       HGP1
   13    12    14	5 ;     CG2R51     NG3C51       HGP1
    9    13    12	5 ;     CG2R57     CG2R51     NG3C51
    9    13    40	5 ;     CG2R57     CG2R51      HGR52
   12    13    40	5 ;     NG3C51     CG2R51      HGR52
   16    15    11	5 ;      CG331      CG321     NG3C51
   16    15    41	5 ;      CG331      CG321       HGA2
   16    15    42	5 ;      CG331      CG321       HGA2
   11    15    41	5 ;     NG3C51      CG321       HGA2
   11    15    42	5 ;     NG3C51      CG321       HGA2
   41    15    42	5 ;       HGA2      CG321       HGA2
   15    16    43	5 ;      CG321      CG331       HGA3
   15    16    44	5 ;      CG321      CG331       HGA3
   15    16    45	5 ;      CG321      CG331       HGA3
   43    16    44	5 ;       HGA3      CG331       HGA3
   43    16    45	5 ;       HGA3      CG331       HGA3
   44    16    45	5 ;       HGA3      CG331       HGA3
   22    17     1	5 ;     CG2R61     CG2R61     CG3C50
   22    17    18	5 ;     CG2R61     CG2R61     CG2R61
    1    17    18	5 ;     CG3C50     CG2R61     CG2R61
   17    18    19	5 ;     CG2R61     CG2R61     CG2R61
   17    18    46	5 ;     CG2R61     CG2R61      HGR61
   19    18    46	5 ;     CG2R61     CG2R61      HGR61
   20    19    18	5 ;     CG2R61     CG2R61     CG2R61
   20    19    23	5 ;     CG2R61     CG2R61     CG2DC1
   18    19    23	5 ;     CG2R61     CG2R61     CG2DC1
   21    20    19	5 ;     CG2R61     CG2R61     CG2R61
   21    20    47	5 ;     CG2R61     CG2R61      HGR61
   19    20    47	5 ;     CG2R61     CG2R61      HGR61
   22    21    20	5 ;     CG2R61     CG2R61     CG2R61
   22    21    48	5 ;     CG2R61     CG2R61      HGR61
   20    21    48	5 ;     CG2R61     CG2R61      HGR61
   21    22    17	5 ;     CG2R61     CG2R61     CG2R61
   21    22    49	5 ;     CG2R61     CG2R61      HGR61
   17    22    49	5 ;     CG2R61     CG2R61      HGR61
   19    23    28	5 ;     CG2R61     CG2DC1     CG2D1O
   19    23    24	5 ;     CG2R61     CG2DC1     CG2DC2
   28    23    24	5 ;     CG2D1O     CG2DC1     CG2DC2
   23    24    25	5 ;     CG2DC1     CG2DC2     CG2DC2
   23    24    50	5 ;     CG2DC1     CG2DC2       HGA4
   25    24    50	5 ;     CG2DC2     CG2DC2       HGA4
   24    25    26	5 ;     CG2DC2     CG2DC2      CG321
   24    25    51	5 ;     CG2DC2     CG2DC2       HGA4
   26    25    51	5 ;      CG321     CG2DC2       HGA4
   27    26    25	5 ;      NG311      CG321     CG2DC2
   27    26    52	5 ;      NG311      CG321       HGA2
   27    26    55	5 ;      NG311      CG321       HGA2
   25    26    52	5 ;     CG2DC2      CG321       HGA2
   25    26    55	5 ;     CG2DC2      CG321       HGA2
   52    26    55	5 ;       HGA2      CG321       HGA2
   28    27    29	5 ;     CG2D1O      NG311     HGPAM1
   28    27    26	5 ;     CG2D1O      NG311      CG321
   29    27    26	5 ;     HGPAM1      NG311      CG321
   30    28    23	5 ;       FGA1     CG2D1O     CG2DC1
   30    28    27	5 ;       FGA1     CG2D1O      NG311
   23    28    27	5 ;     CG2DC1     CG2D1O      NG311
   32    31     4	5 ;       HGP2      NG3P3     CG3C53
   32    31    33	5 ;       HGP2      NG3P3       HGP2
   32    31    53	5 ;       HGP2      NG3P3       HGP2
    4    31    33	5 ;     CG3C53      NG3P3       HGP2
    4    31    53	5 ;     CG3C53      NG3P3       HGP2
   33    31    53	5 ;       HGP2      NG3P3       HGP2

[ dihedrals ]
;	ai	  aj	ak	  al funct			  c0			c1			  c2			c3			  c4			c5
    2     1     7     8	 9 ;      NG3P2     CG3C50     CG2R53      OG2D1
    2     1     7     5	 9 ;      NG3P2     CG3C50     CG2R53     NG2R53
   17     1     7     8	 9 ;     CG2R61     CG3C50     CG2R53      OG2D1
   17     1     7     5	 9 ;     CG2R61     CG3C50     CG2R53     NG2R53
    9     1     7     8	 9 ;     CG2R57     CG3C50     CG2R53      OG2D1
    9     1     7     5	 9 ;     CG2R57     CG3C50     CG2R53     NG2R53
    7     1     2     4	 9 ;     CG2R53     CG3C50      NG3P2     CG3C53
    7     1     2     3	 9 ;     CG2R53     CG3C50      NG3P2       HGP2
    7     1     2    34	 9 ;     CG2R53     CG3C50      NG3P2       HGP2
   17     1     2     4	 9 ;     CG2R61     CG3C50      NG3P2     CG3C53
   17     1     2     3	 9 ;     CG2R61     CG3C50      NG3P2       HGP2
   17     1     2    34	 9 ;     CG2R61     CG3C50      NG3P2       HGP2
    9     1     2     4	 9 ;     CG2R57     CG3C50      NG3P2     CG3C53
    9     1     2     3	 9 ;     CG2R57     CG3C50      NG3P2       HGP2
    9     1     2    34	 9 ;     CG2R57     CG3C50      NG3P2       HGP2
    7     1    17    22	 9 ;     CG2R53     CG3C50     CG2R61     CG2R61
    7     1    17    18	 9 ;     CG2R53     CG3C50     CG2R61     CG2R61
    2     1    17    22	 9 ;      NG3P2     CG3C50     CG2R61     CG2R61
    2     1    17    18	 9 ;      NG3P2     CG3C50     CG2R61     CG2R61
    9     1    17    22	 9 ;     CG2R57     CG3C50     CG2R61     CG2R61
    9     1    17    18	 9 ;     CG2R57     CG3C50     CG2R61     CG2R61
    7     1     9    10	 9 ;     CG2R53     CG3C50     CG2R57     CG3C52
    7     1     9    13	 9 ;     CG2R53     CG3C50     CG2R57     CG2R51
    2     1     9    10	 9 ;      NG3P2     CG3C50     CG2R57     CG3C52
    2     1     9    13	 9 ;      NG3P2     CG3C50     CG2R57     CG2R51
   17     1     9    10	 9 ;     CG2R61     CG3C50     CG2R57     CG3C52
   17     1     9    13	 9 ;     CG2R61     CG3C50     CG2R57     CG2R51
    1     2     4     5	 9 ;     CG3C50      NG3P2     CG3C53     NG2R53
    1     2     4    31	 9 ;     CG3C50      NG3P2     CG3C53      NG3P3
    1     2     4    35	 9 ;     CG3C50      NG3P2     CG3C53       HGA1
    3     2     4     5	 9 ;       HGP2      NG3P2     CG3C53     NG2R53
    3     2     4    31	 9 ;       HGP2      NG3P2     CG3C53      NG3P3
    3     2     4    35	 9 ;       HGP2      NG3P2     CG3C53       HGA1
   34     2     4     5	 9 ;       HGP2      NG3P2     CG3C53     NG2R53
   34     2     4    31	 9 ;       HGP2      NG3P2     CG3C53      NG3P3
   34     2     4    35	 9 ;       HGP2      NG3P2     CG3C53       HGA1
   31     4     5     6	 9 ;      NG3P3     CG3C53     NG2R53      CG331
   31     4     5     7	 9 ;      NG3P3     CG3C53     NG2R53     CG2R53
    2     4     5     6	 9 ;      NG3P2     CG3C53     NG2R53      CG331
    2     4     5     7	 9 ;      NG3P2     CG3C53     NG2R53     CG2R53
   35     4     5     6	 9 ;       HGA1     CG3C53     NG2R53      CG331
   35     4     5     7	 9 ;       HGA1     CG3C53     NG2R53     CG2R53
    5     4    31    32	 9 ;     NG2R53     CG3C53      NG3P3       HGP2
    5     4    31    33	 9 ;     NG2R53     CG3C53      NG3P3       HGP2
    5     4    31    53	 9 ;     NG2R53     CG3C53      NG3P3       HGP2
    2     4    31    32	 9 ;      NG3P2     CG3C53      NG3P3       HGP2
    2     4    31    33	 9 ;      NG3P2     CG3C53      NG3P3       HGP2
    2     4    31    53	 9 ;      NG3P2     CG3C53      NG3P3       HGP2
   35     4    31    32	 9 ;       HGA1     CG3C53      NG3P3       HGP2
   35     4    31    33	 9 ;       HGA1     CG3C53      NG3P3       HGP2
   35     4    31    53	 9 ;       HGA1     CG3C53      NG3P3       HGP2
    7     5     6    36	 9 ;     CG2R53     NG2R53      CG331       HGA3
    7     5     6    37	 9 ;     CG2R53     NG2R53      CG331       HGA3
    7     5     6    38	 9 ;     CG2R53     NG2R53      CG331       HGA3
    4     5     6    36	 9 ;     CG3C53     NG2R53      CG331       HGA3
    4     5     6    37	 9 ;     CG3C53     NG2R53      CG331       HGA3
    4     5     6    38	 9 ;     CG3C53     NG2R53      CG331       HGA3
    6     5     7     8	 9 ;      CG331     NG2R53     CG2R53      OG2D1
    6     5     7     1	 9 ;      CG331     NG2R53     CG2R53     CG3C50
    4     5     7     8	 9 ;     CG3C53     NG2R53     CG2R53      OG2D1
    4     5     7     1	 9 ;     CG3C53     NG2R53     CG2R53     CG3C50
    1     9    10    11	 9 ;     CG3C50     CG2R57     CG3C52     NG3C51
    1     9    10    39	 9 ;     CG3C50     CG2R57     CG3C52       HGA2
    1     9    10    54	 9 ;     CG3C50     CG2R57     CG3C52       HGA2
   13     9    10    11	 9 ;     CG2R51     CG2R57     CG3C52     NG3C51
   13     9    10    39	 9 ;     CG2R51     CG2R57     CG3C52       HGA2
   13     9    10    54	 9 ;     CG2R51     CG2R57     CG3C52       HGA2
    1     9    13    12	 9 ;     CG3C50     CG2R57     CG2R51     NG3C51
    1     9    13    40	 9 ;     CG3C50     CG2R57     CG2R51      HGR52
   10     9    13    12	 9 ;     CG3C52     CG2R57     CG2R51     NG3C51
   10     9    13    40	 9 ;     CG3C52     CG2R57     CG2R51      HGR52
    9    10    11    15	 9 ;     CG2R57     CG3C52     NG3C51      CG321
    9    10    11    12	 9 ;     CG2R57     CG3C52     NG3C51     NG3C51
   39    10    11    15	 9 ;       HGA2     CG3C52     NG3C51      CG321
   39    10    11    12	 9 ;       HGA2     CG3C52     NG3C51     NG3C51
   54    10    11    15	 9 ;       HGA2     CG3C52     NG3C51      CG321
   54    10    11    12	 9 ;       HGA2     CG3C52     NG3C51     NG3C51
   10    11    15    16	 9 ;     CG3C52     NG3C51      CG321      CG331
   10    11    15    41	 9 ;     CG3C52     NG3C51      CG321       HGA2
   10    11    15    42	 9 ;     CG3C52     NG3C51      CG321       HGA2
   12    11    15    16	 9 ;     NG3C51     NG3C51      CG321      CG331
   12    11    15    41	 9 ;     NG3C51     NG3C51      CG321       HGA2
   12    11    15    42	 9 ;     NG3C51     NG3C51      CG321       HGA2
   10    11    12    13	 9 ;     CG3C52     NG3C51     NG3C51     CG2R51
   10    11    12    14	 9 ;     CG3C52     NG3C51     NG3C51       HGP1
   15    11    12    13	 9 ;      CG321     NG3C51     NG3C51     CG2R51
   15    11    12    14	 9 ;      CG321     NG3C51     NG3C51       HGP1
   11    12    13     9	 9 ;     NG3C51     NG3C51     CG2R51     CG2R57
   11    12    13    40	 9 ;     NG3C51     NG3C51     CG2R51      HGR52
   14    12    13     9	 9 ;       HGP1     NG3C51     CG2R51     CG2R57
   14    12    13    40	 9 ;       HGP1     NG3C51     CG2R51      HGR52
   11    15    16    43	 9 ;     NG3C51      CG321      CG331       HGA3
   11    15    16    44	 9 ;     NG3C51      CG321      CG331       HGA3
   11    15    16    45	 9 ;     NG3C51      CG321      CG331       HGA3
   41    15    16    43	 9 ;       HGA2      CG321      CG331       HGA3
   41    15    16    44	 9 ;       HGA2      CG321      CG331       HGA3
   41    15    16    45	 9 ;       HGA2      CG321      CG331       HGA3
   42    15    16    43	 9 ;       HGA2      CG321      CG331       HGA3
   42    15    16    44	 9 ;       HGA2      CG321      CG331       HGA3
   42    15    16    45	 9 ;       HGA2      CG321      CG331       HGA3
    1    17    22    21	 9 ;     CG3C50     CG2R61     CG2R61     CG2R61
    1    17    22    49	 9 ;     CG3C50     CG2R61     CG2R61      HGR61
   18    17    22    21	 9 ;     CG2R61     CG2R61     CG2R61     CG2R61
   18    17    22    49	 9 ;     CG2R61     CG2R61     CG2R61      HGR61
   22    17    18    19	 9 ;     CG2R61     CG2R61     CG2R61     CG2R61
   22    17    18    46	 9 ;     CG2R61     CG2R61     CG2R61      HGR61
    1    17    18    19	 9 ;     CG3C50     CG2R61     CG2R61     CG2R61
    1    17    18    46	 9 ;     CG3C50     CG2R61     CG2R61      HGR61
   17    18    19    20	 9 ;     CG2R61     CG2R61     CG2R61     CG2R61
   17    18    19    23	 9 ;     CG2R61     CG2R61     CG2R61     CG2DC1
   46    18    19    20	 9 ;      HGR61     CG2R61     CG2R61     CG2R61
   46    18    19    23	 9 ;      HGR61     CG2R61     CG2R61     CG2DC1
   18    19    20    21	 9 ;     CG2R61     CG2R61     CG2R61     CG2R61
   18    19    20    47	 9 ;     CG2R61     CG2R61     CG2R61      HGR61
   23    19    20    21	 9 ;     CG2DC1     CG2R61     CG2R61     CG2R61
   23    19    20    47	 9 ;     CG2DC1     CG2R61     CG2R61      HGR61
   20    19    23    28	 9 ;     CG2R61     CG2R61     CG2DC1     CG2D1O
   20    19    23    24	 9 ;     CG2R61     CG2R61     CG2DC1     CG2DC2
   18    19    23    28	 9 ;     CG2R61     CG2R61     CG2DC1     CG2D1O
   18    19    23    24	 9 ;     CG2R61     CG2R61     CG2DC1     CG2DC2
   19    20    21    22	 9 ;     CG2R61     CG2R61     CG2R61     CG2R61
   19    20    21    48	 9 ;     CG2R61     CG2R61     CG2R61      HGR61
   47    20    21    22	 9 ;      HGR61     CG2R61     CG2R61     CG2R61
   47    20    21    48	 9 ;      HGR61     CG2R61     CG2R61      HGR61
   20    21    22    17	 9 ;     CG2R61     CG2R61     CG2R61     CG2R61
   20    21    22    49	 9 ;     CG2R61     CG2R61     CG2R61      HGR61
   48    21    22    17	 9 ;      HGR61     CG2R61     CG2R61     CG2R61
   48    21    22    49	 9 ;      HGR61     CG2R61     CG2R61      HGR61
   19    23    28    30	 9 ;     CG2R61     CG2DC1     CG2D1O       FGA1
   19    23    28    27	 9 ;     CG2R61     CG2DC1     CG2D1O      NG311
   24    23    28    30	 9 ;     CG2DC2     CG2DC1     CG2D1O       FGA1
   24    23    28    27	 9 ;     CG2DC2     CG2DC1     CG2D1O      NG311
   19    23    24    25	 9 ;     CG2R61     CG2DC1     CG2DC2     CG2DC2
   19    23    24    50	 9 ;     CG2R61     CG2DC1     CG2DC2       HGA4
   28    23    24    25	 9 ;     CG2D1O     CG2DC1     CG2DC2     CG2DC2
   28    23    24    50	 9 ;     CG2D1O     CG2DC1     CG2DC2       HGA4
   23    24    25    26	 9 ;     CG2DC1     CG2DC2     CG2DC2      CG321
   23    24    25    51	 9 ;     CG2DC1     CG2DC2     CG2DC2       HGA4
   50    24    25    26	 9 ;       HGA4     CG2DC2     CG2DC2      CG321
   50    24    25    51	 9 ;       HGA4     CG2DC2     CG2DC2       HGA4
   24    25    26    27	 9 ;     CG2DC2     CG2DC2      CG321      NG311
   24    25    26    52	 9 ;     CG2DC2     CG2DC2      CG321       HGA2
   24    25    26    55	 9 ;     CG2DC2     CG2DC2      CG321       HGA2
   51    25    26    27	 9 ;       HGA4     CG2DC2      CG321      NG311
   51    25    26    52	 9 ;       HGA4     CG2DC2      CG321       HGA2
   51    25    26    55	 9 ;       HGA4     CG2DC2      CG321       HGA2
   25    26    27    28	 9 ;     CG2DC2      CG321      NG311     CG2D1O
   25    26    27    29	 9 ;     CG2DC2      CG321      NG311     HGPAM1
   52    26    27    28	 9 ;       HGA2      CG321      NG311     CG2D1O
   52    26    27    29	 9 ;       HGA2      CG321      NG311     HGPAM1
   55    26    27    28	 9 ;       HGA2      CG321      NG311     CG2D1O
   55    26    27    29	 9 ;       HGA2      CG321      NG311     HGPAM1
   29    27    28    30	 9 ;     HGPAM1      NG311     CG2D1O       FGA1
   29    27    28    23	 9 ;     HGPAM1      NG311     CG2D1O     CG2DC1
   26    27    28    30	 9 ;      CG321      NG311     CG2D1O       FGA1
   26    27    28    23	 9 ;      CG321      NG311     CG2D1O     CG2DC1

[ dihedrals ]
;	ai	  aj	ak	  al funct			  c0			c1			  c2			c3
    7     1     5     8	 2
   28    23    27    30	 2

