Gravel Rubs Often Many Awfully Cauterized Sores
   53
    1LIG     C1    1  -1.454   0.333  -1.497
    1LIG     C2    2  -1.556   0.380  -1.413
    1LIG     C3    3  -1.688   0.338  -1.427
    1LIG     C4    4  -1.726   0.248  -1.528
    1LIG     C5    5  -1.627   0.207  -1.617
    1LIG     C6    6  -1.493   0.249  -1.602
    1LIG     C7    7  -1.867   0.194  -1.527
    1LIG     C8    8  -1.992   0.273  -1.555
    1LIG     C9    9  -1.958   0.238  -1.413
    1LIG    C10   10  -2.022   0.131  -1.334
    1LIG     N1   11  -2.134   0.082  -1.396
    1LIG    C11   12  -2.194  -0.022  -1.345
    1LIG     HN   13  -2.170   0.125  -1.481
    1LIG     N2   14  -2.153  -0.082  -1.228
    1LIG    C12   15  -2.214  -0.203  -1.174
    1LIG    C13   16  -2.044  -0.033  -1.159
    1LIG      O   17  -2.001  -0.080  -1.054
    1LIG    C14   18  -1.975   0.081  -1.220
    1LIG     N3   19  -2.303  -0.068  -1.413
    1LIG     H1   20  -2.393  -0.059  -1.368
    1LIG     H2   21  -2.304  -0.032  -1.508
    1LIG    C15   22  -1.313   0.373  -1.474
    1LIG    C16   23  -1.208   0.278  -1.481
    1LIG    C17   24  -1.076   0.309  -1.449
    1LIG    C18   25  -1.045   0.440  -1.413
    1LIG    C19   26  -1.145   0.538  -1.410
    1LIG    C20   27  -1.277   0.504  -1.439
    1LIG      S   28  -0.944   0.187  -1.438
    1LIG    C21   29  -1.029   0.030  -1.471
    1LIG    C22   30  -1.014  -0.064  -1.352
    1LIG     HC   31  -1.531   0.450  -1.334
    1LIG    HC1   32  -1.763   0.375  -1.359
    1LIG    HC2   33  -1.653   0.143  -1.700
    1LIG    HC3   34  -1.419   0.215  -1.673
    1LIG    HC4   35  -1.875   0.088  -1.551
    1LIG    HC5   36  -1.984   0.376  -1.589
    1LIG    HC6   37  -2.073   0.216  -1.599
    1LIG    HC7   38  -1.920   0.321  -1.354
    1LIG    HC8   39  -2.130  -0.088  -1.402
    1LIG    HC9   40  -2.164  -0.230  -1.082
    1LIG   HC10   41  -2.319  -0.185  -1.155
    1LIG   HC11   42  -2.203  -0.284  -1.247
    1LIG   HC12   43  -1.888   0.124  -1.173
    1LIG    HN1   44  -2.288  -0.167  -1.423
    1LIG   HC13   45  -1.232   0.177  -1.513
    1LIG   HC14   46  -0.944   0.467  -1.388
    1LIG   HC15   47  -1.119   0.640  -1.385
    1LIG   HC16   48  -1.353   0.581  -1.435
    1LIG   HC17   49  -0.986  -0.017  -1.559
    1LIG   HC18   50  -1.135   0.048  -1.489
    1LIG   HC19   51  -1.065  -0.158  -1.372
    1LIG   HC20   52  -0.908  -0.083  -1.334
    1LIG   HC21   53  -1.058  -0.017  -1.263
   0.00000   0.00000   0.00000
