; Created by cgenff_charmm2gmx.py

[ moleculetype ]
; Name			   nrexcl
LIG				 3

[ atoms ]
;	 nr		  type	resnr residue  atom   cgnr	   charge		mass  typeB    chargeB		massB
; residue	 1 LIG rtp LIG q	qsum
     1     CG2R67      1    LIG     C1      1      0.006     12.011   ;
     2     CG2R61      1    LIG     C2      2     -0.119     12.011   ;
     3     CG2R61      1    LIG     C3      3     -0.116     12.011   ;
     4     CG2R61      1    LIG     C4      4     -0.035     12.011   ;
     5     CG2R61      1    LIG     C5      5     -0.116     12.011   ;
     6     CG2R61      1    LIG     C6      6     -0.119     12.011   ;
     7     CG3C31      1    LIG     C7      7     -0.056     12.011   ;
     8     CG3C31      1    LIG     C8      8     -0.174     12.011   ;
     9     CG3C31      1    LIG     C9      9      0.064     12.011   ;
    10     CG2D1O      1    LIG    C10     10     -0.018     12.011   ;
    11      NG311      1    LIG     N1     11     -0.532     14.007   ;
    12      CG314      1    LIG    C11     12      0.649     12.011   ;
    13     HGPAM1      1    LIG     HN     13      0.321      1.008   ;
    14      NG2S0      1    LIG     N2     14     -0.343     14.007   ;
    15      CG331      1    LIG    C12     15     -0.238     12.011   ;
    16      CG2O1      1    LIG    C13     16      0.413     12.011   ;
    17      OG2D1      1    LIG      O     17     -0.540     15.999   ;
    18     CG2DC1      1    LIG    C14     18      0.094     12.011   ;
    19      NG3P3      1    LIG     N3     19     -0.425     14.007   ;
    20       HGP2      1    LIG     H1     20      0.313      1.008   ;
    21       HGP2      1    LIG     H2     21      0.313      1.008   ;
    22     CG2R67      1    LIG    C15     22      0.005     12.011   ;
    23     CG2R61      1    LIG    C16     23     -0.103     12.011   ;
    24     CG2R61      1    LIG    C17     24      0.070     12.011   ;
    25     CG2R61      1    LIG    C18     25     -0.096     12.011   ;
    26     CG2R61      1    LIG    C19     26     -0.117     12.011   ;
    27     CG2R61      1    LIG    C20     27     -0.119     12.011   ;
    28      SG311      1    LIG      S     28     -0.166     32.060   ;
    29      CG321      1    LIG    C21     29     -0.117     12.011   ;
    30      CG331      1    LIG    C22     30     -0.271     12.011   ;
    31      HGR61      1    LIG     HC     31      0.116      1.008   ;
    32      HGR61      1    LIG    HC1     32      0.116      1.008   ;
    33      HGR61      1    LIG    HC2     33      0.116      1.008   ;
    34      HGR61      1    LIG    HC3     34      0.116      1.008   ;
    35       HGA1      1    LIG    HC4     35      0.090      1.008   ;
    36       HGA2      1    LIG    HC5     36      0.090      1.008   ;
    37       HGA2      1    LIG    HC6     37      0.090      1.008   ;
    38       HGA1      1    LIG    HC7     38      0.090      1.008   ;
    39       HGA1      1    LIG    HC8     39      0.115      1.008   ;
    40       HGA3      1    LIG    HC9     40      0.090      1.008   ;
    41       HGA3      1    LIG   HC10     41      0.090      1.008   ;
    42       HGA3      1    LIG   HC11     42      0.090      1.008   ;
    43       HGA4      1    LIG   HC12     43      0.136      1.008   ;
    44       HGP2      1    LIG    HN1     44      0.313      1.008   ;
    45      HGR61      1    LIG   HC13     45      0.116      1.008   ;
    46      HGR61      1    LIG   HC14     46      0.116      1.008   ;
    47      HGR61      1    LIG   HC15     47      0.116      1.008   ;
    48      HGR61      1    LIG   HC16     48      0.116      1.008   ;
    49       HGA2      1    LIG   HC17     49      0.090      1.008   ;
    50       HGA2      1    LIG   HC18     50      0.090      1.008   ;
    51       HGA3      1    LIG   HC19     51      0.090      1.008   ;
    52       HGA3      1    LIG   HC20     52      0.090      1.008   ;
    53       HGA3      1    LIG   HC21     53      0.090      1.008   ;

[ bonds ]
;	ai	  aj funct			  c0			c1			  c2			c3
    1    22	 1 ;      CG2R67     CG2R67
    1     6	 1 ;      CG2R67     CG2R61
    1     2	 1 ;      CG2R67     CG2R61
    2     3	 1 ;      CG2R61     CG2R61
    2    31	 1 ;      CG2R61      HGR61
    3     4	 1 ;      CG2R61     CG2R61
    3    32	 1 ;      CG2R61      HGR61
    4     5	 1 ;      CG2R61     CG2R61
    4     7	 1 ;      CG2R61     CG3C31
    5     6	 1 ;      CG2R61     CG2R61
    5    33	 1 ;      CG2R61      HGR61
    6    34	 1 ;      CG2R61      HGR61
    7     8	 1 ;      CG3C31     CG3C31
    7     9	 1 ;      CG3C31     CG3C31
    7    35	 1 ;      CG3C31       HGA1
    8     9	 1 ;      CG3C31     CG3C31
    8    36	 1 ;      CG3C31       HGA2
    8    37	 1 ;      CG3C31       HGA2
    9    10	 1 ;      CG3C31     CG2D1O
    9    38	 1 ;      CG3C31       HGA1
   10    11	 1 ;      CG2D1O      NG311
   10    18	 1 ;      CG2D1O     CG2DC1
   11    13	 1 ;       NG311     HGPAM1
   11    12	 1 ;       NG311      CG314
   12    19	 1 ;       CG314      NG3P3
   12    14	 1 ;       CG314      NG2S0
   12    39	 1 ;       CG314       HGA1
   14    16	 1 ;       NG2S0      CG2O1
   14    15	 1 ;       NG2S0      CG331
   15    40	 1 ;       CG331       HGA3
   15    41	 1 ;       CG331       HGA3
   15    42	 1 ;       CG331       HGA3
   16    18	 1 ;       CG2O1     CG2DC1
   16    17	 1 ;       CG2O1      OG2D1
   18    43	 1 ;      CG2DC1       HGA4
   19    21	 1 ;       NG3P3       HGP2
   19    20	 1 ;       NG3P3       HGP2
   19    44	 1 ;       NG3P3       HGP2
   22    27	 1 ;      CG2R67     CG2R61
   22    23	 1 ;      CG2R67     CG2R61
   23    24	 1 ;      CG2R61     CG2R61
   23    45	 1 ;      CG2R61      HGR61
   24    25	 1 ;      CG2R61     CG2R61
   24    28	 1 ;      CG2R61      SG311
   25    26	 1 ;      CG2R61     CG2R61
   25    46	 1 ;      CG2R61      HGR61
   26    27	 1 ;      CG2R61     CG2R61
   26    47	 1 ;      CG2R61      HGR61
   27    48	 1 ;      CG2R61      HGR61
   28    29	 1 ;       SG311      CG321
   29    30	 1 ;       CG321      CG331
   29    49	 1 ;       CG321       HGA2
   29    50	 1 ;       CG321       HGA2
   30    51	 1 ;       CG331       HGA3
   30    52	 1 ;       CG331       HGA3
   30    53	 1 ;       CG331       HGA3

[ pairs ]
;	ai	  aj funct			  c0			c1			  c2			c3
    1     4	 1
    1    32	 1
    1    33	 1
    1    26	 1
    1    48	 1
    1    24	 1
    1    45	 1
    2    27	 1
    2    23	 1
    2     5	 1
    2    34	 1
    2     7	 1
    3    22	 1
    3     6	 1
    3    33	 1
    3     8	 1
    3     9	 1
    3    35	 1
    4    31	 1
    4    34	 1
    4    36	 1
    4    37	 1
    4    10	 1
    4    38	 1
    5    22	 1
    5    32	 1
    5     8	 1
    5     9	 1
    5    35	 1
    6    27	 1
    6    23	 1
    6    31	 1
    6     7	 1
    7    32	 1
    7    33	 1
    7    11	 1
    7    18	 1
    8    11	 1
    8    18	 1
    9    13	 1
    9    12	 1
    9    16	 1
    9    43	 1
   10    35	 1
   10    36	 1
   10    37	 1
   10    19	 1
   10    14	 1
   10    39	 1
   10    17	 1
   11    38	 1
   11    16	 1
   11    43	 1
   11    21	 1
   11    20	 1
   11    44	 1
   11    15	 1
   12    18	 1
   12    17	 1
   12    40	 1
   12    41	 1
   12    42	 1
   13    18	 1
   13    19	 1
   13    14	 1
   13    39	 1
   14    21	 1
   14    20	 1
   14    44	 1
   14    43	 1
   15    19	 1
   15    39	 1
   15    18	 1
   15    17	 1
   16    19	 1
   16    39	 1
   16    40	 1
   16    41	 1
   16    42	 1
   17    43	 1
   18    38	 1
   20    39	 1
   21    39	 1
   22    34	 1
   22    31	 1
   22    25	 1
   22    28	 1
   22    47	 1
   23    26	 1
   23    48	 1
   23    46	 1
   23    29	 1
   24    27	 1
   24    47	 1
   24    30	 1
   24    49	 1
   24    50	 1
   25    45	 1
   25    29	 1
   25    48	 1
   26    28	 1
   27    45	 1
   27    46	 1
   28    45	 1
   28    46	 1
   28    51	 1
   28    52	 1
   28    53	 1
   31    32	 1
   33    34	 1
   35    36	 1
   35    37	 1
   35    38	 1
   36    38	 1
   37    38	 1
   39    44	 1
   46    47	 1
   47    48	 1
   49    51	 1
   49    52	 1
   49    53	 1
   50    51	 1
   50    52	 1
   50    53	 1

[ angles ]
;	ai	  aj	ak funct			c0			  c1			c2			  c3
   22     1     6	5 ;     CG2R67     CG2R67     CG2R61
   22     1     2	5 ;     CG2R67     CG2R67     CG2R61
    6     1     2	5 ;     CG2R61     CG2R67     CG2R61
    1     2     3	5 ;     CG2R67     CG2R61     CG2R61
    1     2    31	5 ;     CG2R67     CG2R61      HGR61
    3     2    31	5 ;     CG2R61     CG2R61      HGR61
    2     3     4	5 ;     CG2R61     CG2R61     CG2R61
    2     3    32	5 ;     CG2R61     CG2R61      HGR61
    4     3    32	5 ;     CG2R61     CG2R61      HGR61
    5     4     3	5 ;     CG2R61     CG2R61     CG2R61
    5     4     7	5 ;     CG2R61     CG2R61     CG3C31
    3     4     7	5 ;     CG2R61     CG2R61     CG3C31
    6     5     4	5 ;     CG2R61     CG2R61     CG2R61
    6     5    33	5 ;     CG2R61     CG2R61      HGR61
    4     5    33	5 ;     CG2R61     CG2R61      HGR61
    1     6     5	5 ;     CG2R67     CG2R61     CG2R61
    1     6    34	5 ;     CG2R67     CG2R61      HGR61
    5     6    34	5 ;     CG2R61     CG2R61      HGR61
    4     7     8	5 ;     CG2R61     CG3C31     CG3C31
    4     7     9	5 ;     CG2R61     CG3C31     CG3C31
    4     7    35	5 ;     CG2R61     CG3C31       HGA1
    8     7     9	5 ;     CG3C31     CG3C31     CG3C31
    8     7    35	5 ;     CG3C31     CG3C31       HGA1
    9     7    35	5 ;     CG3C31     CG3C31       HGA1
    7     8     9	5 ;     CG3C31     CG3C31     CG3C31
    7     8    36	5 ;     CG3C31     CG3C31       HGA2
    7     8    37	5 ;     CG3C31     CG3C31       HGA2
    9     8    36	5 ;     CG3C31     CG3C31       HGA2
    9     8    37	5 ;     CG3C31     CG3C31       HGA2
   36     8    37	5 ;       HGA2     CG3C31       HGA2
    7     9     8	5 ;     CG3C31     CG3C31     CG3C31
    7     9    10	5 ;     CG3C31     CG3C31     CG2D1O
    7     9    38	5 ;     CG3C31     CG3C31       HGA1
    8     9    10	5 ;     CG3C31     CG3C31     CG2D1O
    8     9    38	5 ;     CG3C31     CG3C31       HGA1
   10     9    38	5 ;     CG2D1O     CG3C31       HGA1
    9    10    11	5 ;     CG3C31     CG2D1O      NG311
    9    10    18	5 ;     CG3C31     CG2D1O     CG2DC1
   11    10    18	5 ;      NG311     CG2D1O     CG2DC1
   13    11    10	5 ;     HGPAM1      NG311     CG2D1O
   13    11    12	5 ;     HGPAM1      NG311      CG314
   10    11    12	5 ;     CG2D1O      NG311      CG314
   11    12    19	5 ;      NG311      CG314      NG3P3
   11    12    14	5 ;      NG311      CG314      NG2S0
   11    12    39	5 ;      NG311      CG314       HGA1
   19    12    14	5 ;      NG3P3      CG314      NG2S0
   19    12    39	5 ;      NG3P3      CG314       HGA1
   14    12    39	5 ;      NG2S0      CG314       HGA1
   12    14    16	5 ;      CG314      NG2S0      CG2O1
   12    14    15	5 ;      CG314      NG2S0      CG331
   16    14    15	5 ;      CG2O1      NG2S0      CG331
   14    15    40	5 ;      NG2S0      CG331       HGA3
   14    15    41	5 ;      NG2S0      CG331       HGA3
   14    15    42	5 ;      NG2S0      CG331       HGA3
   40    15    41	5 ;       HGA3      CG331       HGA3
   40    15    42	5 ;       HGA3      CG331       HGA3
   41    15    42	5 ;       HGA3      CG331       HGA3
   18    16    14	5 ;     CG2DC1      CG2O1      NG2S0
   18    16    17	5 ;     CG2DC1      CG2O1      OG2D1
   14    16    17	5 ;      NG2S0      CG2O1      OG2D1
   10    18    16	5 ;     CG2D1O     CG2DC1      CG2O1
   10    18    43	5 ;     CG2D1O     CG2DC1       HGA4
   16    18    43	5 ;      CG2O1     CG2DC1       HGA4
   21    19    12	5 ;       HGP2      NG3P3      CG314
   21    19    20	5 ;       HGP2      NG3P3       HGP2
   21    19    44	5 ;       HGP2      NG3P3       HGP2
   12    19    20	5 ;      CG314      NG3P3       HGP2
   12    19    44	5 ;      CG314      NG3P3       HGP2
   20    19    44	5 ;       HGP2      NG3P3       HGP2
   27    22    23	5 ;     CG2R61     CG2R67     CG2R61
   27    22     1	5 ;     CG2R61     CG2R67     CG2R67
   23    22     1	5 ;     CG2R61     CG2R67     CG2R67
   24    23    22	5 ;     CG2R61     CG2R61     CG2R67
   24    23    45	5 ;     CG2R61     CG2R61      HGR61
   22    23    45	5 ;     CG2R67     CG2R61      HGR61
   25    24    28	5 ;     CG2R61     CG2R61      SG311
   25    24    23	5 ;     CG2R61     CG2R61     CG2R61
   28    24    23	5 ;      SG311     CG2R61     CG2R61
   26    25    24	5 ;     CG2R61     CG2R61     CG2R61
   26    25    46	5 ;     CG2R61     CG2R61      HGR61
   24    25    46	5 ;     CG2R61     CG2R61      HGR61
   25    26    27	5 ;     CG2R61     CG2R61     CG2R61
   25    26    47	5 ;     CG2R61     CG2R61      HGR61
   27    26    47	5 ;     CG2R61     CG2R61      HGR61
   26    27    22	5 ;     CG2R61     CG2R61     CG2R67
   26    27    48	5 ;     CG2R61     CG2R61      HGR61
   22    27    48	5 ;     CG2R67     CG2R61      HGR61
   24    28    29	5 ;     CG2R61      SG311      CG321
   28    29    30	5 ;      SG311      CG321      CG331
   28    29    49	5 ;      SG311      CG321       HGA2
   28    29    50	5 ;      SG311      CG321       HGA2
   30    29    49	5 ;      CG331      CG321       HGA2
   30    29    50	5 ;      CG331      CG321       HGA2
   49    29    50	5 ;       HGA2      CG321       HGA2
   29    30    51	5 ;      CG321      CG331       HGA3
   29    30    52	5 ;      CG321      CG331       HGA3
   29    30    53	5 ;      CG321      CG331       HGA3
   51    30    52	5 ;       HGA3      CG331       HGA3
   51    30    53	5 ;       HGA3      CG331       HGA3
   52    30    53	5 ;       HGA3      CG331       HGA3

[ dihedrals ]
;	ai	  aj	ak	  al funct			  c0			c1			  c2			c3			  c4			c5
    6     1    22    27	 9 ;     CG2R61     CG2R67     CG2R67     CG2R61
    6     1    22    23	 9 ;     CG2R61     CG2R67     CG2R67     CG2R61
    2     1    22    27	 9 ;     CG2R61     CG2R67     CG2R67     CG2R61
    2     1    22    23	 9 ;     CG2R61     CG2R67     CG2R67     CG2R61
   22     1     6     5	 9 ;     CG2R67     CG2R67     CG2R61     CG2R61
   22     1     6    34	 9 ;     CG2R67     CG2R67     CG2R61      HGR61
    2     1     6     5	 9 ;     CG2R61     CG2R67     CG2R61     CG2R61
    2     1     6    34	 9 ;     CG2R61     CG2R67     CG2R61      HGR61
   22     1     2     3	 9 ;     CG2R67     CG2R67     CG2R61     CG2R61
   22     1     2    31	 9 ;     CG2R67     CG2R67     CG2R61      HGR61
    6     1     2     3	 9 ;     CG2R61     CG2R67     CG2R61     CG2R61
    6     1     2    31	 9 ;     CG2R61     CG2R67     CG2R61      HGR61
    1     2     3     4	 9 ;     CG2R67     CG2R61     CG2R61     CG2R61
    1     2     3    32	 9 ;     CG2R67     CG2R61     CG2R61      HGR61
   31     2     3     4	 9 ;      HGR61     CG2R61     CG2R61     CG2R61
   31     2     3    32	 9 ;      HGR61     CG2R61     CG2R61      HGR61
    2     3     4     5	 9 ;     CG2R61     CG2R61     CG2R61     CG2R61
    2     3     4     7	 9 ;     CG2R61     CG2R61     CG2R61     CG3C31
   32     3     4     5	 9 ;      HGR61     CG2R61     CG2R61     CG2R61
   32     3     4     7	 9 ;      HGR61     CG2R61     CG2R61     CG3C31
    3     4     5     6	 9 ;     CG2R61     CG2R61     CG2R61     CG2R61
    3     4     5    33	 9 ;     CG2R61     CG2R61     CG2R61      HGR61
    7     4     5     6	 9 ;     CG3C31     CG2R61     CG2R61     CG2R61
    7     4     5    33	 9 ;     CG3C31     CG2R61     CG2R61      HGR61
    5     4     7     8	 9 ;     CG2R61     CG2R61     CG3C31     CG3C31
    5     4     7     9	 9 ;     CG2R61     CG2R61     CG3C31     CG3C31
    5     4     7    35	 9 ;     CG2R61     CG2R61     CG3C31       HGA1
    3     4     7     8	 9 ;     CG2R61     CG2R61     CG3C31     CG3C31
    3     4     7     9	 9 ;     CG2R61     CG2R61     CG3C31     CG3C31
    3     4     7    35	 9 ;     CG2R61     CG2R61     CG3C31       HGA1
    4     5     6     1	 9 ;     CG2R61     CG2R61     CG2R61     CG2R67
    4     5     6    34	 9 ;     CG2R61     CG2R61     CG2R61      HGR61
   33     5     6     1	 9 ;      HGR61     CG2R61     CG2R61     CG2R67
   33     5     6    34	 9 ;      HGR61     CG2R61     CG2R61      HGR61
    4     7     8     9	 9 ;     CG2R61     CG3C31     CG3C31     CG3C31
    4     7     8    36	 9 ;     CG2R61     CG3C31     CG3C31       HGA2
    4     7     8    37	 9 ;     CG2R61     CG3C31     CG3C31       HGA2
    9     7     8    36	 9 ;     CG3C31     CG3C31     CG3C31       HGA2
    9     7     8    37	 9 ;     CG3C31     CG3C31     CG3C31       HGA2
   35     7     8     9	 9 ;       HGA1     CG3C31     CG3C31     CG3C31
   35     7     8    36	 9 ;       HGA1     CG3C31     CG3C31       HGA2
   35     7     8    37	 9 ;       HGA1     CG3C31     CG3C31       HGA2
    4     7     9     8	 9 ;     CG2R61     CG3C31     CG3C31     CG3C31
    4     7     9    10	 9 ;     CG2R61     CG3C31     CG3C31     CG2D1O
    4     7     9    38	 9 ;     CG2R61     CG3C31     CG3C31       HGA1
    8     7     9    10	 9 ;     CG3C31     CG3C31     CG3C31     CG2D1O
    8     7     9    38	 9 ;     CG3C31     CG3C31     CG3C31       HGA1
   35     7     9     8	 9 ;       HGA1     CG3C31     CG3C31     CG3C31
   35     7     9    10	 9 ;       HGA1     CG3C31     CG3C31     CG2D1O
   35     7     9    38	 9 ;       HGA1     CG3C31     CG3C31       HGA1
    7     8     9    10	 9 ;     CG3C31     CG3C31     CG3C31     CG2D1O
    7     8     9    38	 9 ;     CG3C31     CG3C31     CG3C31       HGA1
   36     8     9     7	 9 ;       HGA2     CG3C31     CG3C31     CG3C31
   36     8     9    10	 9 ;       HGA2     CG3C31     CG3C31     CG2D1O
   36     8     9    38	 9 ;       HGA2     CG3C31     CG3C31       HGA1
   37     8     9     7	 9 ;       HGA2     CG3C31     CG3C31     CG3C31
   37     8     9    10	 9 ;       HGA2     CG3C31     CG3C31     CG2D1O
   37     8     9    38	 9 ;       HGA2     CG3C31     CG3C31       HGA1
    7     9    10    11	 9 ;     CG3C31     CG3C31     CG2D1O      NG311
    7     9    10    18	 9 ;     CG3C31     CG3C31     CG2D1O     CG2DC1
    8     9    10    11	 9 ;     CG3C31     CG3C31     CG2D1O      NG311
    8     9    10    18	 9 ;     CG3C31     CG3C31     CG2D1O     CG2DC1
   38     9    10    11	 9 ;       HGA1     CG3C31     CG2D1O      NG311
   38     9    10    18	 9 ;       HGA1     CG3C31     CG2D1O     CG2DC1
    9    10    11    13	 9 ;     CG3C31     CG2D1O      NG311     HGPAM1
    9    10    11    12	 9 ;     CG3C31     CG2D1O      NG311      CG314
   18    10    11    13	 9 ;     CG2DC1     CG2D1O      NG311     HGPAM1
   18    10    11    12	 9 ;     CG2DC1     CG2D1O      NG311      CG314
    9    10    18    16	 9 ;     CG3C31     CG2D1O     CG2DC1      CG2O1
    9    10    18    43	 9 ;     CG3C31     CG2D1O     CG2DC1       HGA4
   11    10    18    16	 9 ;      NG311     CG2D1O     CG2DC1      CG2O1
   11    10    18    43	 9 ;      NG311     CG2D1O     CG2DC1       HGA4
   13    11    12    19	 9 ;     HGPAM1      NG311      CG314      NG3P3
   13    11    12    14	 9 ;     HGPAM1      NG311      CG314      NG2S0
   13    11    12    39	 9 ;     HGPAM1      NG311      CG314       HGA1
   10    11    12    19	 9 ;     CG2D1O      NG311      CG314      NG3P3
   10    11    12    14	 9 ;     CG2D1O      NG311      CG314      NG2S0
   10    11    12    39	 9 ;     CG2D1O      NG311      CG314       HGA1
   11    12    19    21	 9 ;      NG311      CG314      NG3P3       HGP2
   11    12    19    20	 9 ;      NG311      CG314      NG3P3       HGP2
   11    12    19    44	 9 ;      NG311      CG314      NG3P3       HGP2
   14    12    19    21	 9 ;      NG2S0      CG314      NG3P3       HGP2
   14    12    19    20	 9 ;      NG2S0      CG314      NG3P3       HGP2
   14    12    19    44	 9 ;      NG2S0      CG314      NG3P3       HGP2
   39    12    19    21	 9 ;       HGA1      CG314      NG3P3       HGP2
   39    12    19    20	 9 ;       HGA1      CG314      NG3P3       HGP2
   39    12    19    44	 9 ;       HGA1      CG314      NG3P3       HGP2
   11    12    14    16	 9 ;      NG311      CG314      NG2S0      CG2O1
   11    12    14    15	 9 ;      NG311      CG314      NG2S0      CG331
   19    12    14    16	 9 ;      NG3P3      CG314      NG2S0      CG2O1
   19    12    14    15	 9 ;      NG3P3      CG314      NG2S0      CG331
   39    12    14    16	 9 ;       HGA1      CG314      NG2S0      CG2O1
   39    12    14    15	 9 ;       HGA1      CG314      NG2S0      CG331
   12    14    16    18	 9 ;      CG314      NG2S0      CG2O1     CG2DC1
   12    14    16    17	 9 ;      CG314      NG2S0      CG2O1      OG2D1
   15    14    16    18	 9 ;      CG331      NG2S0      CG2O1     CG2DC1
   15    14    16    17	 9 ;      CG331      NG2S0      CG2O1      OG2D1
   12    14    15    40	 9 ;      CG314      NG2S0      CG331       HGA3
   12    14    15    41	 9 ;      CG314      NG2S0      CG331       HGA3
   12    14    15    42	 9 ;      CG314      NG2S0      CG331       HGA3
   16    14    15    40	 9 ;      CG2O1      NG2S0      CG331       HGA3
   16    14    15    41	 9 ;      CG2O1      NG2S0      CG331       HGA3
   16    14    15    42	 9 ;      CG2O1      NG2S0      CG331       HGA3
   14    16    18    10	 9 ;      NG2S0      CG2O1     CG2DC1     CG2D1O
   14    16    18    43	 9 ;      NG2S0      CG2O1     CG2DC1       HGA4
   17    16    18    10	 9 ;      OG2D1      CG2O1     CG2DC1     CG2D1O
   17    16    18    43	 9 ;      OG2D1      CG2O1     CG2DC1       HGA4
   23    22    27    26	 9 ;     CG2R61     CG2R67     CG2R61     CG2R61
   23    22    27    48	 9 ;     CG2R61     CG2R67     CG2R61      HGR61
    1    22    27    26	 9 ;     CG2R67     CG2R67     CG2R61     CG2R61
    1    22    27    48	 9 ;     CG2R67     CG2R67     CG2R61      HGR61
   27    22    23    24	 9 ;     CG2R61     CG2R67     CG2R61     CG2R61
   27    22    23    45	 9 ;     CG2R61     CG2R67     CG2R61      HGR61
    1    22    23    24	 9 ;     CG2R67     CG2R67     CG2R61     CG2R61
    1    22    23    45	 9 ;     CG2R67     CG2R67     CG2R61      HGR61
   22    23    24    25	 9 ;     CG2R67     CG2R61     CG2R61     CG2R61
   22    23    24    28	 9 ;     CG2R67     CG2R61     CG2R61      SG311
   45    23    24    25	 9 ;      HGR61     CG2R61     CG2R61     CG2R61
   45    23    24    28	 9 ;      HGR61     CG2R61     CG2R61      SG311
   28    24    25    26	 9 ;      SG311     CG2R61     CG2R61     CG2R61
   28    24    25    46	 9 ;      SG311     CG2R61     CG2R61      HGR61
   23    24    25    26	 9 ;     CG2R61     CG2R61     CG2R61     CG2R61
   23    24    25    46	 9 ;     CG2R61     CG2R61     CG2R61      HGR61
   25    24    28    29	 9 ;     CG2R61     CG2R61      SG311      CG321
   23    24    28    29	 9 ;     CG2R61     CG2R61      SG311      CG321
   24    25    26    27	 9 ;     CG2R61     CG2R61     CG2R61     CG2R61
   24    25    26    47	 9 ;     CG2R61     CG2R61     CG2R61      HGR61
   46    25    26    27	 9 ;      HGR61     CG2R61     CG2R61     CG2R61
   46    25    26    47	 9 ;      HGR61     CG2R61     CG2R61      HGR61
   25    26    27    22	 9 ;     CG2R61     CG2R61     CG2R61     CG2R67
   25    26    27    48	 9 ;     CG2R61     CG2R61     CG2R61      HGR61
   47    26    27    22	 9 ;      HGR61     CG2R61     CG2R61     CG2R67
   47    26    27    48	 9 ;      HGR61     CG2R61     CG2R61      HGR61
   24    28    29    30	 9 ;     CG2R61      SG311      CG321      CG331
   24    28    29    49	 9 ;     CG2R61      SG311      CG321       HGA2
   24    28    29    50	 9 ;     CG2R61      SG311      CG321       HGA2
   28    29    30    51	 9 ;      SG311      CG321      CG331       HGA3
   28    29    30    52	 9 ;      SG311      CG321      CG331       HGA3
   28    29    30    53	 9 ;      SG311      CG321      CG331       HGA3
   49    29    30    51	 9 ;       HGA2      CG321      CG331       HGA3
   49    29    30    52	 9 ;       HGA2      CG321      CG331       HGA3
   49    29    30    53	 9 ;       HGA2      CG321      CG331       HGA3
   50    29    30    51	 9 ;       HGA2      CG321      CG331       HGA3
   50    29    30    52	 9 ;       HGA2      CG321      CG331       HGA3
   50    29    30    53	 9 ;       HGA2      CG321      CG331       HGA3

[ dihedrals ]
;	ai	  aj	ak	  al funct			  c0			c1			  c2			c3
   10    18     9    11	 2
   16    18    14    17	 2

