Good ROcking Metal Altar for Chronical Sinners
   58
    1LIG     C1    1  -1.320   0.459  -1.772
    1LIG     N1    2  -1.294   0.316  -1.786
    1LIG     C2    3  -1.332   0.245  -1.900
    1LIG     N2    4  -1.258   0.139  -1.917
    1LIG     C3    5  -1.179   0.131  -1.806
    1LIG     HN    6  -1.259   0.076  -1.997
    1LIG     C4    7  -1.085   0.032  -1.776
    1LIG     C5    8  -1.205   0.235  -1.717
    1LIG     C6    9  -1.027   0.033  -1.649
    1LIG     CL   10  -0.922  -0.095  -1.604
    1LIG     C7   11  -1.057   0.134  -1.558
    1LIG     C8   12  -1.143   0.240  -1.591
    1LIG     N3   13  -1.429   0.283  -1.983
    1LIG     H1   14  -1.484   0.364  -1.956
    1LIG     H2   15  -1.465   0.231  -2.062
    1LIG     C9   16  -1.388   0.507  -1.643
    1LIG    C10   17  -1.503   0.432  -1.572
    1LIG      O   18  -1.482   0.312  -1.546
    1LIG     N4   19  -1.618   0.493  -1.523
    1LIG    C11   20  -1.648   0.634  -1.539
    1LIG    C12   21  -1.705   0.420  -1.429
    1LIG    C13   22  -1.651   0.384  -1.288
    1LIG    C14   23  -1.760   0.329  -1.195
    1LIG    C15   24  -1.704   0.290  -1.059
    1LIG    C16   25  -1.625   0.403  -0.993
    1LIG    C17   26  -1.514   0.452  -1.085
    1LIG    C18   27  -1.570   0.496  -1.220
    1LIG    C19   28  -1.185   0.533  -1.803
    1LIG    C20   29  -1.195   0.683  -1.825
    1LIG     H3   30  -1.396   0.484  -1.842
    1LIG     H4   31  -1.426   0.257  -1.950
    1LIG     H5   32  -1.059  -0.040  -1.845
    1LIG     H6   33  -1.015   0.131  -1.464
    1LIG     H7   34  -1.161   0.317  -1.526
    1LIG     H8   35  -1.428   0.604  -1.667
    1LIG     H9   36  -1.309   0.495  -1.573
    1LIG    H10   37  -1.579   0.677  -1.609
    1LIG    H11   38  -1.639   0.684  -1.445
    1LIG    H12   39  -1.747   0.645  -1.577
    1LIG    H13   40  -1.731   0.328  -1.477
    1LIG    H14   41  -1.785   0.488  -1.410
    1LIG    H15   42  -1.581   0.305  -1.307
    1LIG    H16   43  -1.804   0.243  -1.240
    1LIG    H17   44  -1.832   0.407  -1.180
    1LIG    H18   45  -1.638   0.206  -1.071
    1LIG    H19   46  -1.786   0.266  -0.995
    1LIG    H20   47  -1.692   0.484  -0.973
    1LIG    H21   48  -1.582   0.367  -0.903
    1LIG    H22   49  -1.464   0.534  -1.039
    1LIG    H23   50  -1.446   0.371  -1.102
    1LIG    H24   51  -1.633   0.581  -1.206
    1LIG    H25   52  -1.487   0.521  -1.284
    1LIG    H26   53  -1.119   0.516  -1.721
    1LIG    H27   54  -1.151   0.492  -1.896
    1LIG    H28   55  -1.229   0.729  -1.735
    1LIG    H29   56  -1.265   0.703  -1.904
    1LIG    H30   57  -1.099   0.722  -1.851
    1LIG    LP1   58  -0.821  -0.218  -1.561
   0.00000   0.00000   0.00000
