; Created by cgenff_charmm2gmx.py

[ moleculetype ]
; Name			   nrexcl
LIG				 3

[ atoms ]
;	 nr		  type	resnr residue  atom   cgnr	   charge		mass  typeB    chargeB		massB
; residue	 1 LIG rtp LIG q	qsum
     1      CG311      1    LIG     C1      1      0.238     12.011   ;
     2     NG3C51      1    LIG     N1      2     -0.545     14.007   ;
     3     CG3C51      1    LIG     C2      3      0.148     12.011   ;
     4     NG3C51      1    LIG     N2      4     -0.464     14.007   ;
     5     CG2RC0      1    LIG     C3      5      0.181     12.011   ;
     6       HGP1      1    LIG     HN      6      0.254      1.008   ;
     7     CG2R61      1    LIG     C4      7     -0.130     12.011   ;
     8     CG2RC0      1    LIG     C5      8      0.211     12.011   ;
     9     CG2R61      1    LIG     C6      9      0.001     12.011   ;
    10      CLGR1      1    LIG     CL     10     -0.200     35.453   ;
    11     CG2R61      1    LIG     C7     11     -0.178     12.011   ;
    12     CG2R61      1    LIG     C8     12     -0.335     12.011   ;
    13      NG321      1    LIG     N3     13     -0.826     14.007   ;
    14     HGPAM2      1    LIG     H1     14      0.349      1.008   ;
    15     HGPAM2      1    LIG     H2     15      0.349      1.008   ;
    16      CG321      1    LIG     C9     16     -0.181     12.011   ;
    17      CG2O1      1    LIG    C10     17      0.573     12.011   ;
    18      OG2D1      1    LIG      O     18     -0.542     15.999   ;
    19      NG2S0      1    LIG     N4     19     -0.231     14.007   ;
    20      CG331      1    LIG    C11     20     -0.273     12.011   ;
    21      CG321      1    LIG    C12     21      0.070     12.011   ;
    22      CG311      1    LIG    C13     22     -0.124     12.011   ;
    23      CG321      1    LIG    C14     23     -0.186     12.011   ;
    24      CG321      1    LIG    C15     24     -0.192     12.011   ;
    25      CG321      1    LIG    C16     25     -0.154     12.011   ;
    26      CG321      1    LIG    C17     26     -0.192     12.011   ;
    27      CG321      1    LIG    C18     27     -0.186     12.011   ;
    28      CG321      1    LIG    C19     28     -0.151     12.011   ;
    29      CG331      1    LIG    C20     29     -0.280     12.011   ;
    30       HGA1      1    LIG     H3     30      0.090      1.008   ;
    31       HGA1      1    LIG     H4     31      0.161      1.008   ;
    32      HGR62      1    LIG     H5     32      0.223      1.008   ;
    33      HGR62      1    LIG     H6     33      0.195      1.008   ;
    34      HGR61      1    LIG     H7     34      0.207      1.008   ;
    35       HGA2      1    LIG     H8     35      0.090      1.008   ;
    36       HGA2      1    LIG     H9     36      0.090      1.008   ;
    37       HGA3      1    LIG    H10     37      0.090      1.008   ;
    38       HGA3      1    LIG    H11     38      0.090      1.008   ;
    39       HGA3      1    LIG    H12     39      0.090      1.008   ;
    40       HGA2      1    LIG    H13     40      0.090      1.008   ;
    41       HGA2      1    LIG    H14     41      0.090      1.008   ;
    42       HGA1      1    LIG    H15     42      0.090      1.008   ;
    43       HGA2      1    LIG    H16     43      0.090      1.008   ;
    44       HGA2      1    LIG    H17     44      0.090      1.008   ;
    45       HGA2      1    LIG    H18     45      0.090      1.008   ;
    46       HGA2      1    LIG    H19     46      0.090      1.008   ;
    47       HGA2      1    LIG    H20     47      0.090      1.008   ;
    48       HGA2      1    LIG    H21     48      0.090      1.008   ;
    49       HGA2      1    LIG    H22     49      0.090      1.008   ;
    50       HGA2      1    LIG    H23     50      0.090      1.008   ;
    51       HGA2      1    LIG    H24     51      0.090      1.008   ;
    52       HGA2      1    LIG    H25     52      0.090      1.008   ;
    53       HGA2      1    LIG    H26     53      0.090      1.008   ;
    54       HGA2      1    LIG    H27     54      0.090      1.008   ;
    55       HGA3      1    LIG    H28     55      0.090      1.008   ;
    56       HGA3      1    LIG    H29     56      0.090      1.008   ;
    57       HGA3      1    LIG    H30     57      0.090      1.008   ;
    58        LPH      1    LIG    LP1     58      0.050      0.000   ;

[ bonds ]
;	ai	  aj funct			  c0			c1			  c2			c3
    1    28	 1 ;       CG311      CG321
    1     2	 1 ;       CG311     NG3C51
    1    16	 1 ;       CG311      CG321
    1    30	 1 ;       CG311       HGA1
    2     3	 1 ;      NG3C51     CG3C51
    2     8	 1 ;      NG3C51     CG2RC0
    3    13	 1 ;      CG3C51      NG321
    3     4	 1 ;      CG3C51     NG3C51
    3    31	 1 ;      CG3C51       HGA1
    4     6	 1 ;      NG3C51       HGP1
    4     5	 1 ;      NG3C51     CG2RC0
    5     7	 1 ;      CG2RC0     CG2R61
    5     8	 1 ;      CG2RC0     CG2RC0
    7     9	 1 ;      CG2R61     CG2R61
    7    32	 1 ;      CG2R61      HGR62
    8    12	 1 ;      CG2RC0     CG2R61
    9    10	 1 ;      CG2R61      CLGR1
    9    11	 1 ;      CG2R61     CG2R61
   11    12	 1 ;      CG2R61     CG2R61
   11    33	 1 ;      CG2R61      HGR62
   12    34	 1 ;      CG2R61      HGR61
   13    15	 1 ;       NG321     HGPAM2
   13    14	 1 ;       NG321     HGPAM2
   16    17	 1 ;       CG321      CG2O1
   16    35	 1 ;       CG321       HGA2
   16    36	 1 ;       CG321       HGA2
   17    18	 1 ;       CG2O1      OG2D1
   17    19	 1 ;       CG2O1      NG2S0
   19    20	 1 ;       NG2S0      CG331
   19    21	 1 ;       NG2S0      CG321
   20    37	 1 ;       CG331       HGA3
   20    38	 1 ;       CG331       HGA3
   20    39	 1 ;       CG331       HGA3
   21    22	 1 ;       CG321      CG311
   21    40	 1 ;       CG321       HGA2
   21    41	 1 ;       CG321       HGA2
   22    27	 1 ;       CG311      CG321
   22    23	 1 ;       CG311      CG321
   22    42	 1 ;       CG311       HGA1
   23    24	 1 ;       CG321      CG321
   23    43	 1 ;       CG321       HGA2
   23    44	 1 ;       CG321       HGA2
   24    25	 1 ;       CG321      CG321
   24    45	 1 ;       CG321       HGA2
   24    46	 1 ;       CG321       HGA2
   25    26	 1 ;       CG321      CG321
   25    47	 1 ;       CG321       HGA2
   25    48	 1 ;       CG321       HGA2
   26    27	 1 ;       CG321      CG321
   26    49	 1 ;       CG321       HGA2
   26    50	 1 ;       CG321       HGA2
   27    51	 1 ;       CG321       HGA2
   27    52	 1 ;       CG321       HGA2
   28    29	 1 ;       CG321      CG331
   28    53	 1 ;       CG321       HGA2
   28    54	 1 ;       CG321       HGA2
   29    55	 1 ;       CG331       HGA3
   29    56	 1 ;       CG331       HGA3
   29    57	 1 ;       CG331       HGA3

[ pairs ]
;	ai	  aj funct			  c0			c1			  c2			c3
    1    13	 1
    1     4	 1
    1    31	 1
    1     5	 1
    1    12	 1
    1    18	 1
    1    19	 1
    1    55	 1
    1    56	 1
    1    57	 1
    2    29	 1
    2    53	 1
    2    54	 1
    2    17	 1
    2    35	 1
    2    36	 1
    2    15	 1
    2    14	 1
    2     6	 1
    2     7	 1
    2    11	 1
    2    34	 1
    3    28	 1
    3    16	 1
    3    30	 1
    3    12	 1
    3     7	 1
    4    15	 1
    4    14	 1
    4     9	 1
    4    32	 1
    4    12	 1
    5    13	 1
    5    31	 1
    5    10	 1
   58     5	 1
    5    11	 1
    5    34	 1
    6    13	 1
    6    31	 1
    6     7	 1
    6     8	 1
    7    12	 1
    7    33	 1
    8    28	 1
    8    16	 1
    8    30	 1
    8    13	 1
    8    31	 1
    8     9	 1
    8    32	 1
    8    33	 1
    9    34	 1
   10    32	 1
   58    32	 1
   10    12	 1
   58    12	 1
   10    33	 1
   58    33	 1
   11    32	 1
   14    31	 1
   15    31	 1
   16    29	 1
   16    53	 1
   16    54	 1
   16    20	 1
   16    21	 1
   17    28	 1
   17    30	 1
   17    37	 1
   17    38	 1
   17    39	 1
   17    22	 1
   17    40	 1
   17    41	 1
   18    35	 1
   18    36	 1
   18    20	 1
   18    21	 1
   19    35	 1
   19    36	 1
   19    27	 1
   19    23	 1
   19    42	 1
   20    22	 1
   20    40	 1
   20    41	 1
   21    37	 1
   21    38	 1
   21    39	 1
   21    26	 1
   21    51	 1
   21    52	 1
   21    24	 1
   21    43	 1
   21    44	 1
   22    25	 1
   22    45	 1
   22    46	 1
   22    49	 1
   22    50	 1
   23    40	 1
   23    41	 1
   23    26	 1
   23    51	 1
   23    52	 1
   23    47	 1
   23    48	 1
   24    27	 1
   24    42	 1
   24    49	 1
   24    50	 1
   25    43	 1
   25    44	 1
   25    51	 1
   25    52	 1
   26    42	 1
   26    45	 1
   26    46	 1
   27    40	 1
   27    41	 1
   27    43	 1
   27    44	 1
   27    47	 1
   27    48	 1
   28    35	 1
   28    36	 1
   29    30	 1
   30    53	 1
   30    54	 1
   30    35	 1
   30    36	 1
   33    34	 1
   40    42	 1
   41    42	 1
   42    51	 1
   42    52	 1
   42    43	 1
   42    44	 1
   43    45	 1
   43    46	 1
   44    45	 1
   44    46	 1
   45    47	 1
   45    48	 1
   46    47	 1
   46    48	 1
   47    49	 1
   47    50	 1
   48    49	 1
   48    50	 1
   49    51	 1
   49    52	 1
   50    51	 1
   50    52	 1
   53    55	 1
   53    56	 1
   53    57	 1
   54    55	 1
   54    56	 1
   54    57	 1

[ angles ]
;	ai	  aj	ak funct			c0			  c1			c2			  c3
   28     1     2	5 ;      CG321      CG311     NG3C51
   28     1    16	5 ;      CG321      CG311      CG321
   28     1    30	5 ;      CG321      CG311       HGA1
    2     1    16	5 ;     NG3C51      CG311      CG321
    2     1    30	5 ;     NG3C51      CG311       HGA1
   16     1    30	5 ;      CG321      CG311       HGA1
    3     2     1	5 ;     CG3C51     NG3C51      CG311
    3     2     8	5 ;     CG3C51     NG3C51     CG2RC0
    1     2     8	5 ;      CG311     NG3C51     CG2RC0
   13     3     4	5 ;      NG321     CG3C51     NG3C51
   13     3     2	5 ;      NG321     CG3C51     NG3C51
   13     3    31	5 ;      NG321     CG3C51       HGA1
    4     3     2	5 ;     NG3C51     CG3C51     NG3C51
    4     3    31	5 ;     NG3C51     CG3C51       HGA1
    2     3    31	5 ;     NG3C51     CG3C51       HGA1
    6     4     3	5 ;       HGP1     NG3C51     CG3C51
    6     4     5	5 ;       HGP1     NG3C51     CG2RC0
    3     4     5	5 ;     CG3C51     NG3C51     CG2RC0
    4     5     7	5 ;     NG3C51     CG2RC0     CG2R61
    4     5     8	5 ;     NG3C51     CG2RC0     CG2RC0
    7     5     8	5 ;     CG2R61     CG2RC0     CG2RC0
    5     7     9	5 ;     CG2RC0     CG2R61     CG2R61
    5     7    32	5 ;     CG2RC0     CG2R61      HGR62
    9     7    32	5 ;     CG2R61     CG2R61      HGR62
    5     8     2	5 ;     CG2RC0     CG2RC0     NG3C51
    5     8    12	5 ;     CG2RC0     CG2RC0     CG2R61
    2     8    12	5 ;     NG3C51     CG2RC0     CG2R61
    7     9    10	5 ;     CG2R61     CG2R61      CLGR1
    7     9    11	5 ;     CG2R61     CG2R61     CG2R61
   10     9    11	5 ;      CLGR1     CG2R61     CG2R61
    9    11    12	5 ;     CG2R61     CG2R61     CG2R61
    9    11    33	5 ;     CG2R61     CG2R61      HGR62
   12    11    33	5 ;     CG2R61     CG2R61      HGR62
    8    12    11	5 ;     CG2RC0     CG2R61     CG2R61
    8    12    34	5 ;     CG2RC0     CG2R61      HGR61
   11    12    34	5 ;     CG2R61     CG2R61      HGR61
   15    13    14	5 ;     HGPAM2      NG321     HGPAM2
   15    13     3	5 ;     HGPAM2      NG321     CG3C51
   14    13     3	5 ;     HGPAM2      NG321     CG3C51
    1    16    17	5 ;      CG311      CG321      CG2O1
    1    16    35	5 ;      CG311      CG321       HGA2
    1    16    36	5 ;      CG311      CG321       HGA2
   17    16    35	5 ;      CG2O1      CG321       HGA2
   17    16    36	5 ;      CG2O1      CG321       HGA2
   35    16    36	5 ;       HGA2      CG321       HGA2
   16    17    18	5 ;      CG321      CG2O1      OG2D1
   16    17    19	5 ;      CG321      CG2O1      NG2S0
   18    17    19	5 ;      OG2D1      CG2O1      NG2S0
   17    19    20	5 ;      CG2O1      NG2S0      CG331
   17    19    21	5 ;      CG2O1      NG2S0      CG321
   20    19    21	5 ;      CG331      NG2S0      CG321
   19    20    37	5 ;      NG2S0      CG331       HGA3
   19    20    38	5 ;      NG2S0      CG331       HGA3
   19    20    39	5 ;      NG2S0      CG331       HGA3
   37    20    38	5 ;       HGA3      CG331       HGA3
   37    20    39	5 ;       HGA3      CG331       HGA3
   38    20    39	5 ;       HGA3      CG331       HGA3
   19    21    22	5 ;      NG2S0      CG321      CG311
   19    21    40	5 ;      NG2S0      CG321       HGA2
   19    21    41	5 ;      NG2S0      CG321       HGA2
   22    21    40	5 ;      CG311      CG321       HGA2
   22    21    41	5 ;      CG311      CG321       HGA2
   40    21    41	5 ;       HGA2      CG321       HGA2
   21    22    27	5 ;      CG321      CG311      CG321
   21    22    23	5 ;      CG321      CG311      CG321
   21    22    42	5 ;      CG321      CG311       HGA1
   27    22    23	5 ;      CG321      CG311      CG321
   27    22    42	5 ;      CG321      CG311       HGA1
   23    22    42	5 ;      CG321      CG311       HGA1
   22    23    24	5 ;      CG311      CG321      CG321
   22    23    43	5 ;      CG311      CG321       HGA2
   22    23    44	5 ;      CG311      CG321       HGA2
   24    23    43	5 ;      CG321      CG321       HGA2
   24    23    44	5 ;      CG321      CG321       HGA2
   43    23    44	5 ;       HGA2      CG321       HGA2
   23    24    25	5 ;      CG321      CG321      CG321
   23    24    45	5 ;      CG321      CG321       HGA2
   23    24    46	5 ;      CG321      CG321       HGA2
   25    24    45	5 ;      CG321      CG321       HGA2
   25    24    46	5 ;      CG321      CG321       HGA2
   45    24    46	5 ;       HGA2      CG321       HGA2
   26    25    24	5 ;      CG321      CG321      CG321
   26    25    47	5 ;      CG321      CG321       HGA2
   26    25    48	5 ;      CG321      CG321       HGA2
   24    25    47	5 ;      CG321      CG321       HGA2
   24    25    48	5 ;      CG321      CG321       HGA2
   47    25    48	5 ;       HGA2      CG321       HGA2
   27    26    25	5 ;      CG321      CG321      CG321
   27    26    49	5 ;      CG321      CG321       HGA2
   27    26    50	5 ;      CG321      CG321       HGA2
   25    26    49	5 ;      CG321      CG321       HGA2
   25    26    50	5 ;      CG321      CG321       HGA2
   49    26    50	5 ;       HGA2      CG321       HGA2
   22    27    26	5 ;      CG311      CG321      CG321
   22    27    51	5 ;      CG311      CG321       HGA2
   22    27    52	5 ;      CG311      CG321       HGA2
   26    27    51	5 ;      CG321      CG321       HGA2
   26    27    52	5 ;      CG321      CG321       HGA2
   51    27    52	5 ;       HGA2      CG321       HGA2
   29    28     1	5 ;      CG331      CG321      CG311
   29    28    53	5 ;      CG331      CG321       HGA2
   29    28    54	5 ;      CG331      CG321       HGA2
    1    28    53	5 ;      CG311      CG321       HGA2
    1    28    54	5 ;      CG311      CG321       HGA2
   53    28    54	5 ;       HGA2      CG321       HGA2
   28    29    55	5 ;      CG321      CG331       HGA3
   28    29    56	5 ;      CG321      CG331       HGA3
   28    29    57	5 ;      CG321      CG331       HGA3
   55    29    56	5 ;       HGA3      CG331       HGA3
   55    29    57	5 ;       HGA3      CG331       HGA3
   56    29    57	5 ;       HGA3      CG331       HGA3

[ dihedrals ]
;	ai	  aj	ak	  al funct			  c0			c1			  c2			c3			  c4			c5
    2     1    28    29	 9 ;     NG3C51      CG311      CG321      CG331
    2     1    28    53	 9 ;     NG3C51      CG311      CG321       HGA2
    2     1    28    54	 9 ;     NG3C51      CG311      CG321       HGA2
   16     1    28    29	 9 ;      CG321      CG311      CG321      CG331
   16     1    28    53	 9 ;      CG321      CG311      CG321       HGA2
   16     1    28    54	 9 ;      CG321      CG311      CG321       HGA2
   30     1    28    29	 9 ;       HGA1      CG311      CG321      CG331
   30     1    28    53	 9 ;       HGA1      CG311      CG321       HGA2
   30     1    28    54	 9 ;       HGA1      CG311      CG321       HGA2
   28     1     2     3	 9 ;      CG321      CG311     NG3C51     CG3C51
   28     1     2     8	 9 ;      CG321      CG311     NG3C51     CG2RC0
   16     1     2     3	 9 ;      CG321      CG311     NG3C51     CG3C51
   16     1     2     8	 9 ;      CG321      CG311     NG3C51     CG2RC0
   30     1     2     3	 9 ;       HGA1      CG311     NG3C51     CG3C51
   30     1     2     8	 9 ;       HGA1      CG311     NG3C51     CG2RC0
   28     1    16    17	 9 ;      CG321      CG311      CG321      CG2O1
   28     1    16    35	 9 ;      CG321      CG311      CG321       HGA2
   28     1    16    36	 9 ;      CG321      CG311      CG321       HGA2
    2     1    16    17	 9 ;     NG3C51      CG311      CG321      CG2O1
    2     1    16    35	 9 ;     NG3C51      CG311      CG321       HGA2
    2     1    16    36	 9 ;     NG3C51      CG311      CG321       HGA2
   30     1    16    17	 9 ;       HGA1      CG311      CG321      CG2O1
   30     1    16    35	 9 ;       HGA1      CG311      CG321       HGA2
   30     1    16    36	 9 ;       HGA1      CG311      CG321       HGA2
    1     2     3    13	 9 ;      CG311     NG3C51     CG3C51      NG321
    1     2     3     4	 9 ;      CG311     NG3C51     CG3C51     NG3C51
    1     2     3    31	 9 ;      CG311     NG3C51     CG3C51       HGA1
    8     2     3    13	 9 ;     CG2RC0     NG3C51     CG3C51      NG321
    8     2     3     4	 9 ;     CG2RC0     NG3C51     CG3C51     NG3C51
    8     2     3    31	 9 ;     CG2RC0     NG3C51     CG3C51       HGA1
    3     2     8     5	 9 ;     CG3C51     NG3C51     CG2RC0     CG2RC0
    3     2     8    12	 9 ;     CG3C51     NG3C51     CG2RC0     CG2R61
    1     2     8     5	 9 ;      CG311     NG3C51     CG2RC0     CG2RC0
    1     2     8    12	 9 ;      CG311     NG3C51     CG2RC0     CG2R61
    4     3    13    15	 9 ;     NG3C51     CG3C51      NG321     HGPAM2
    4     3    13    14	 9 ;     NG3C51     CG3C51      NG321     HGPAM2
    2     3    13    15	 9 ;     NG3C51     CG3C51      NG321     HGPAM2
    2     3    13    14	 9 ;     NG3C51     CG3C51      NG321     HGPAM2
   31     3    13    15	 9 ;       HGA1     CG3C51      NG321     HGPAM2
   31     3    13    14	 9 ;       HGA1     CG3C51      NG321     HGPAM2
   13     3     4     6	 9 ;      NG321     CG3C51     NG3C51       HGP1
   13     3     4     5	 9 ;      NG321     CG3C51     NG3C51     CG2RC0
    2     3     4     6	 9 ;     NG3C51     CG3C51     NG3C51       HGP1
    2     3     4     5	 9 ;     NG3C51     CG3C51     NG3C51     CG2RC0
   31     3     4     6	 9 ;       HGA1     CG3C51     NG3C51       HGP1
   31     3     4     5	 9 ;       HGA1     CG3C51     NG3C51     CG2RC0
    6     4     5     7	 9 ;       HGP1     NG3C51     CG2RC0     CG2R61
    6     4     5     8	 9 ;       HGP1     NG3C51     CG2RC0     CG2RC0
    3     4     5     7	 9 ;     CG3C51     NG3C51     CG2RC0     CG2R61
    3     4     5     8	 9 ;     CG3C51     NG3C51     CG2RC0     CG2RC0
    4     5     7     9	 9 ;     NG3C51     CG2RC0     CG2R61     CG2R61
    4     5     7    32	 9 ;     NG3C51     CG2RC0     CG2R61      HGR62
    8     5     7     9	 9 ;     CG2RC0     CG2RC0     CG2R61     CG2R61
    8     5     7    32	 9 ;     CG2RC0     CG2RC0     CG2R61      HGR62
    4     5     8     2	 9 ;     NG3C51     CG2RC0     CG2RC0     NG3C51
    4     5     8    12	 9 ;     NG3C51     CG2RC0     CG2RC0     CG2R61
    7     5     8     2	 9 ;     CG2R61     CG2RC0     CG2RC0     NG3C51
    7     5     8    12	 9 ;     CG2R61     CG2RC0     CG2RC0     CG2R61
    5     7     9    10	 9 ;     CG2RC0     CG2R61     CG2R61      CLGR1
    5     7     9    11	 9 ;     CG2RC0     CG2R61     CG2R61     CG2R61
   32     7     9    10	 9 ;      HGR62     CG2R61     CG2R61      CLGR1
   32     7     9    11	 9 ;      HGR62     CG2R61     CG2R61     CG2R61
    5     8    12    11	 9 ;     CG2RC0     CG2RC0     CG2R61     CG2R61
    5     8    12    34	 9 ;     CG2RC0     CG2RC0     CG2R61      HGR61
    2     8    12    11	 9 ;     NG3C51     CG2RC0     CG2R61     CG2R61
    2     8    12    34	 9 ;     NG3C51     CG2RC0     CG2R61      HGR61
    7     9    11    12	 9 ;     CG2R61     CG2R61     CG2R61     CG2R61
    7     9    11    33	 9 ;     CG2R61     CG2R61     CG2R61      HGR62
   10     9    11    12	 9 ;      CLGR1     CG2R61     CG2R61     CG2R61
   10     9    11    33	 9 ;      CLGR1     CG2R61     CG2R61      HGR62
    9    11    12     8	 9 ;     CG2R61     CG2R61     CG2R61     CG2RC0
    9    11    12    34	 9 ;     CG2R61     CG2R61     CG2R61      HGR61
   33    11    12     8	 9 ;      HGR62     CG2R61     CG2R61     CG2RC0
   33    11    12    34	 9 ;      HGR62     CG2R61     CG2R61      HGR61
    1    16    17    18	 9 ;      CG311      CG321      CG2O1      OG2D1
    1    16    17    19	 9 ;      CG311      CG321      CG2O1      NG2S0
   35    16    17    18	 9 ;       HGA2      CG321      CG2O1      OG2D1
   35    16    17    19	 9 ;       HGA2      CG321      CG2O1      NG2S0
   36    16    17    18	 9 ;       HGA2      CG321      CG2O1      OG2D1
   36    16    17    19	 9 ;       HGA2      CG321      CG2O1      NG2S0
   16    17    19    20	 9 ;      CG321      CG2O1      NG2S0      CG331
   16    17    19    21	 9 ;      CG321      CG2O1      NG2S0      CG321
   18    17    19    20	 9 ;      OG2D1      CG2O1      NG2S0      CG331
   18    17    19    21	 9 ;      OG2D1      CG2O1      NG2S0      CG321
   17    19    20    37	 9 ;      CG2O1      NG2S0      CG331       HGA3
   17    19    20    38	 9 ;      CG2O1      NG2S0      CG331       HGA3
   17    19    20    39	 9 ;      CG2O1      NG2S0      CG331       HGA3
   21    19    20    37	 9 ;      CG321      NG2S0      CG331       HGA3
   21    19    20    38	 9 ;      CG321      NG2S0      CG331       HGA3
   21    19    20    39	 9 ;      CG321      NG2S0      CG331       HGA3
   17    19    21    22	 9 ;      CG2O1      NG2S0      CG321      CG311
   17    19    21    40	 9 ;      CG2O1      NG2S0      CG321       HGA2
   17    19    21    41	 9 ;      CG2O1      NG2S0      CG321       HGA2
   20    19    21    22	 9 ;      CG331      NG2S0      CG321      CG311
   20    19    21    40	 9 ;      CG331      NG2S0      CG321       HGA2
   20    19    21    41	 9 ;      CG331      NG2S0      CG321       HGA2
   19    21    22    27	 9 ;      NG2S0      CG321      CG311      CG321
   19    21    22    23	 9 ;      NG2S0      CG321      CG311      CG321
   19    21    22    42	 9 ;      NG2S0      CG321      CG311       HGA1
   40    21    22    27	 9 ;       HGA2      CG321      CG311      CG321
   40    21    22    23	 9 ;       HGA2      CG321      CG311      CG321
   40    21    22    42	 9 ;       HGA2      CG321      CG311       HGA1
   41    21    22    27	 9 ;       HGA2      CG321      CG311      CG321
   41    21    22    23	 9 ;       HGA2      CG321      CG311      CG321
   41    21    22    42	 9 ;       HGA2      CG321      CG311       HGA1
   21    22    27    26	 9 ;      CG321      CG311      CG321      CG321
   21    22    27    51	 9 ;      CG321      CG311      CG321       HGA2
   21    22    27    52	 9 ;      CG321      CG311      CG321       HGA2
   23    22    27    26	 9 ;      CG321      CG311      CG321      CG321
   23    22    27    51	 9 ;      CG321      CG311      CG321       HGA2
   23    22    27    52	 9 ;      CG321      CG311      CG321       HGA2
   42    22    27    26	 9 ;       HGA1      CG311      CG321      CG321
   42    22    27    51	 9 ;       HGA1      CG311      CG321       HGA2
   42    22    27    52	 9 ;       HGA1      CG311      CG321       HGA2
   21    22    23    24	 9 ;      CG321      CG311      CG321      CG321
   21    22    23    43	 9 ;      CG321      CG311      CG321       HGA2
   21    22    23    44	 9 ;      CG321      CG311      CG321       HGA2
   27    22    23    24	 9 ;      CG321      CG311      CG321      CG321
   27    22    23    43	 9 ;      CG321      CG311      CG321       HGA2
   27    22    23    44	 9 ;      CG321      CG311      CG321       HGA2
   42    22    23    24	 9 ;       HGA1      CG311      CG321      CG321
   42    22    23    43	 9 ;       HGA1      CG311      CG321       HGA2
   42    22    23    44	 9 ;       HGA1      CG311      CG321       HGA2
   22    23    24    25	 9 ;      CG311      CG321      CG321      CG321
   22    23    24    45	 9 ;      CG311      CG321      CG321       HGA2
   22    23    24    46	 9 ;      CG311      CG321      CG321       HGA2
   43    23    24    25	 9 ;       HGA2      CG321      CG321      CG321
   43    23    24    45	 9 ;       HGA2      CG321      CG321       HGA2
   43    23    24    46	 9 ;       HGA2      CG321      CG321       HGA2
   44    23    24    25	 9 ;       HGA2      CG321      CG321      CG321
   44    23    24    45	 9 ;       HGA2      CG321      CG321       HGA2
   44    23    24    46	 9 ;       HGA2      CG321      CG321       HGA2
   23    24    25    26	 9 ;      CG321      CG321      CG321      CG321
   23    24    25    47	 9 ;      CG321      CG321      CG321       HGA2
   23    24    25    48	 9 ;      CG321      CG321      CG321       HGA2
   45    24    25    26	 9 ;       HGA2      CG321      CG321      CG321
   45    24    25    47	 9 ;       HGA2      CG321      CG321       HGA2
   45    24    25    48	 9 ;       HGA2      CG321      CG321       HGA2
   46    24    25    26	 9 ;       HGA2      CG321      CG321      CG321
   46    24    25    47	 9 ;       HGA2      CG321      CG321       HGA2
   46    24    25    48	 9 ;       HGA2      CG321      CG321       HGA2
   24    25    26    27	 9 ;      CG321      CG321      CG321      CG321
   24    25    26    49	 9 ;      CG321      CG321      CG321       HGA2
   24    25    26    50	 9 ;      CG321      CG321      CG321       HGA2
   47    25    26    27	 9 ;       HGA2      CG321      CG321      CG321
   47    25    26    49	 9 ;       HGA2      CG321      CG321       HGA2
   47    25    26    50	 9 ;       HGA2      CG321      CG321       HGA2
   48    25    26    27	 9 ;       HGA2      CG321      CG321      CG321
   48    25    26    49	 9 ;       HGA2      CG321      CG321       HGA2
   48    25    26    50	 9 ;       HGA2      CG321      CG321       HGA2
   25    26    27    22	 9 ;      CG321      CG321      CG321      CG311
   25    26    27    51	 9 ;      CG321      CG321      CG321       HGA2
   25    26    27    52	 9 ;      CG321      CG321      CG321       HGA2
   49    26    27    22	 9 ;       HGA2      CG321      CG321      CG311
   49    26    27    51	 9 ;       HGA2      CG321      CG321       HGA2
   49    26    27    52	 9 ;       HGA2      CG321      CG321       HGA2
   50    26    27    22	 9 ;       HGA2      CG321      CG321      CG311
   50    26    27    51	 9 ;       HGA2      CG321      CG321       HGA2
   50    26    27    52	 9 ;       HGA2      CG321      CG321       HGA2
    1    28    29    55	 9 ;      CG311      CG321      CG331       HGA3
    1    28    29    56	 9 ;      CG311      CG321      CG331       HGA3
    1    28    29    57	 9 ;      CG311      CG321      CG331       HGA3
   53    28    29    55	 9 ;       HGA2      CG321      CG331       HGA3
   53    28    29    56	 9 ;       HGA2      CG321      CG331       HGA3
   53    28    29    57	 9 ;       HGA2      CG321      CG331       HGA3
   54    28    29    55	 9 ;       HGA2      CG321      CG331       HGA3
   54    28    29    56	 9 ;       HGA2      CG321      CG331       HGA3
   54    28    29    57	 9 ;       HGA2      CG321      CG331       HGA3

[ dihedrals ]
;	ai	  aj	ak	  al funct			  c0			c1			  c2			c3
   17    16    19    18	 2

[ virtual_sites2 ]
; Site   from				funct a
   58    10     9     2   -0.164

[ exclusions ]
;	ai	  aj
   10    58
   58     9
   58     7
   58    11
   58     5
   58    32
   58    12
   58    33

