GROningen Mixture of Alchemy and Childrens' Stories
   77
    1LIG     N1    1  -1.218   0.445  -1.565
    1LIG     H1    2  -1.293   0.500  -1.610
    1LIG     H2    3  -1.150   0.428  -1.641
    1LIG     C1    4  -1.156   0.541  -1.462
    1LIG     C2    5  -1.226   0.675  -1.482
    1LIG     O1    6  -1.129   0.772  -1.438
    1LIG     H3    7  -1.041   0.736  -1.459
    1LIG     C3    8  -1.284   0.711  -1.622
    1LIG     C4    9  -1.414   0.801  -1.603
    1LIG     C5   10  -1.531   0.755  -1.687
    1LIG     C6   11  -1.528   0.632  -1.754
    1LIG     C7   12  -1.626   0.601  -1.848
    1LIG     F1   13  -1.618   0.485  -1.914
    1LIG     C8   14  -1.729   0.689  -1.877
    1LIG     C9   15  -1.737   0.807  -1.804
    1LIG    C10   16  -1.641   0.839  -1.708
    1LIG     F2   17  -1.835   0.894  -1.830
    1LIG     N2   18  -1.185   0.784  -1.704
    1LIG    C11   19  -1.096   0.727  -1.792
    1LIG     O2   20  -1.088   0.604  -1.804
    1LIG    C12   21  -1.007   0.819  -1.872
    1LIG     H4   22  -1.181   0.886  -1.696
    1LIG    C13   23  -1.271   0.310  -1.519
    1LIG    C14   24  -1.261   0.302  -1.364
    1LIG    C15   25  -1.287   0.159  -1.315
    1LIG    C16   26  -1.187   0.060  -1.375
    1LIG    C17   27  -1.182   0.065  -1.527
    1LIG    C18   28  -1.172   0.207  -1.580
    1LIG    C19   29  -1.420   0.294  -1.562
    1LIG    C20   30  -1.527   0.364  -1.502
    1LIG    C21   31  -1.662   0.361  -1.545
    1LIG    C22   32  -1.689   0.283  -1.657
    1LIG    C23   33  -1.587   0.207  -1.718
    1LIG    C24   34  -1.455   0.213  -1.672
    1LIG     N3   35  -1.763   0.430  -1.478
    1LIG    C25   36  -1.807   0.567  -1.510
    1LIG    C26   37  -1.932   0.566  -1.597
    1LIG    C27   38  -2.061   0.562  -1.514
    1LIG     O3   39  -2.052   0.487  -1.393
    1LIG    C28   40  -1.992   0.358  -1.407
    1LIG    C29   41  -1.842   0.362  -1.374
    1LIG    HC2   42  -1.173   0.504  -1.361
    1LIG    HC3   43  -1.049   0.552  -1.481
    1LIG     HC   44  -1.309   0.679  -1.411
    1LIG    HC1   45  -1.312   0.619  -1.673
    1LIG    HC4   46  -1.389   0.903  -1.630
    1LIG    HC5   47  -1.443   0.798  -1.498
    1LIG    HC6   48  -1.450   0.560  -1.732
    1LIG    HC7   49  -1.801   0.667  -1.954
    1LIG    HC8   50  -1.652   0.929  -1.649
    1LIG    HC9   51  -0.943   0.760  -1.937
    1LIG   HC10   52  -1.069   0.885  -1.933
    1LIG   HC11   53  -0.946   0.878  -1.804
    1LIG   HC12   54  -1.335   0.369  -1.320
    1LIG   HC13   55  -1.161   0.333  -1.333
    1LIG   HC14   56  -1.278   0.157  -1.206
    1LIG   HC15   57  -1.388   0.130  -1.343
    1LIG   HC16   58  -1.215  -0.040  -1.344
    1LIG   HC17   59  -1.088   0.083  -1.336
    1LIG   HC18   60  -1.095   0.009  -1.561
    1LIG   HC19   61  -1.272   0.019  -1.567
    1LIG   HC20   62  -1.190   0.204  -1.688
    1LIG   HC21   63  -1.070   0.243  -1.564
    1LIG   HC22   64  -1.504   0.425  -1.415
    1LIG   HC23   65  -1.789   0.281  -1.698
    1LIG   HC24   66  -1.611   0.144  -1.802
    1LIG   HC25   67  -1.379   0.154  -1.721
    1LIG   HC26   68  -1.727   0.619  -1.562
    1LIG   HC27   69  -1.829   0.620  -1.417
    1LIG   HC28   70  -1.933   0.656  -1.659
    1LIG   HC29   71  -1.929   0.479  -1.662
    1LIG   HC30   72  -2.088   0.664  -1.488
    1LIG   HC31   73  -2.141   0.520  -1.575
    1LIG   HC32   74  -2.041   0.288  -1.339
    1LIG   HC33   75  -2.005   0.323  -1.510
    1LIG   HC34   76  -1.805   0.260  -1.363
    1LIG   HC35   77  -1.828   0.415  -1.279
   0.00000   0.00000   0.00000
