Gromacs Runs One Microsecond At Cannonball Speeds
   65
    1LIG      S    1  -1.521   0.272  -1.686
    1LIG     O1    2  -1.590   0.359  -1.594
    1LIG     O2    3  -1.549   0.132  -1.704
    1LIG     N1    4  -1.521   0.343  -1.838
    1LIG     C1    5  -1.424   0.456  -1.839
    1LIG     C2    6  -1.315   0.432  -1.726
    1LIG     N2    7  -1.354   0.299  -1.668
    1LIG     C3    8  -1.319   0.549  -1.623
    1LIG     C4    9  -1.259   0.679  -1.679
    1LIG     N3   10  -1.116   0.655  -1.726
    1LIG     C5   11  -1.117   0.554  -1.838
    1LIG     C6   12  -1.176   0.421  -1.791
    1LIG     C7   13  -1.269   0.799  -1.586
    1LIG     H1   14  -1.504   0.270  -1.908
    1LIG     H2   15  -1.086   0.743  -1.768
    1LIG     C8   16  -1.291   0.224  -1.563
    1LIG     C9   17  -1.199   0.122  -1.586
    1LIG    C10   18  -1.128   0.068  -1.478
    1LIG      F   19  -1.039  -0.029  -1.501
    1LIG    C11   20  -1.145   0.115  -1.348
    1LIG    C12   21  -1.234   0.220  -1.325
    1LIG    C13   22  -1.306   0.273  -1.432
    1LIG    C14   23  -1.008   0.627  -1.618
    1LIG    C15   24  -0.883   0.715  -1.628
    1LIG    C16   25  -0.763   0.669  -1.689
    1LIG    C17   26  -0.649   0.750  -1.689
    1LIG    C18   27  -0.655   0.877  -1.630
    1LIG    C19   28  -0.771   0.923  -1.569
    1LIG    C20   29  -0.884   0.842  -1.566
    1LIG     O3   30  -0.524   0.724  -1.735
    1LIG    C21   31  -0.403   0.741  -1.663
    1LIG    C22   32  -0.384   0.629  -1.559
    1LIG    C23   33  -0.326   0.501  -1.622
    1LIG    C24   34  -0.293   0.672  -1.444
    1LIG    HC2   35  -1.477   0.549  -1.820
    1LIG    HC3   36  -1.375   0.461  -1.936
    1LIG    HC4   37  -1.423   0.567  -1.596
    1LIG    HC5   38  -1.264   0.519  -1.534
    1LIG     HC   39  -1.317   0.703  -1.768
    1LIG    HC6   40  -1.015   0.538  -1.872
    1LIG    HC7   41  -1.177   0.592  -1.920
    1LIG    HC8   42  -1.183   0.355  -1.877
    1LIG    HC9   43  -1.107   0.376  -1.719
    1LIG    HC1   44  -1.224   0.886  -1.635
    1LIG   HC10   45  -1.374   0.820  -1.565
    1LIG   HC11   46  -1.216   0.778  -1.493
    1LIG   HC12   47  -1.182   0.085  -1.686
    1LIG   HC13   48  -1.090   0.071  -1.266
    1LIG   HC14   49  -1.247   0.259  -1.226
    1LIG   HC15   50  -1.375   0.355  -1.414
    1LIG   HC16   51  -1.053   0.644  -1.521
    1LIG   HC17   52  -0.978   0.523  -1.626
    1LIG   HC18   53  -0.760   0.572  -1.737
    1LIG   HC19   54  -0.568   0.941  -1.632
    1LIG   HC20   55  -0.774   1.021  -1.524
    1LIG   HC21   56  -0.974   0.877  -1.517
    1LIG   HC22   57  -0.319   0.740  -1.732
    1LIG   HC23   58  -0.405   0.837  -1.611
    1LIG   HC24   59  -0.481   0.605  -1.518
    1LIG   HC25   60  -0.389   0.469  -1.704
    1LIG   HC26   61  -0.322   0.423  -1.546
    1LIG   HC27   62  -0.226   0.521  -1.659
    1LIG   HC28   63  -0.333   0.763  -1.398
    1LIG   HC29   64  -0.192   0.692  -1.481
    1LIG   HC30   65  -0.289   0.593  -1.369
   0.00000   0.00000   0.00000
