; Created by cgenff_charmm2gmx.py

[ moleculetype ]
; Name			   nrexcl
LIG				 3

[ atoms ]
;	 nr		  type	resnr residue  atom   cgnr	   charge		mass  typeB    chargeB		massB
; residue	 1 LIG rtp LIG q	qsum
     1      SG3O2      1    LIG      S      1      0.311     32.060   ;
     2      OG2P1      1    LIG     O1      2     -0.246     15.999   ;
     3      OG2P1      1    LIG     O2      3     -0.246     15.999   ;
     4     NG3C51      1    LIG     N1      4     -0.562     14.007   ;
     5     CG3C52      1    LIG     C1      5      0.080     12.011   ;
     6     CG3C50      1    LIG     C2      6      0.202     12.011   ;
     7     NG3C51      1    LIG     N2      7     -0.408     14.007   ;
     8      CG321      1    LIG     C3      8     -0.124     12.011   ;
     9      CG314      1    LIG     C4      9      0.198     12.011   ;
    10      NG3P1      1    LIG     N3     10     -0.462     14.007   ;
    11      CG324      1    LIG     C5     11      0.103     12.011   ;
    12      CG321      1    LIG     C6     12     -0.123     12.011   ;
    13      CG331      1    LIG     C7     13     -0.213     12.011   ;
    14       HGP1      1    LIG     H1     14      0.398      1.008   ;
    15       HGP2      1    LIG     H2     15      0.319      1.008   ;
    16     CG2R61      1    LIG     C8     16      0.378     12.011   ;
    17     CG2R61      1    LIG     C9     17     -0.169     12.011   ;
    18     CG2R66      1    LIG    C10     18      0.105     12.011   ;
    19       FGR1      1    LIG      F     19     -0.211     18.998   ;
    20     CG2R61      1    LIG    C11     20     -0.107     12.011   ;
    21     CG2R61      1    LIG    C12     21     -0.149     12.011   ;
    22     CG2R61      1    LIG    C13     22     -0.107     12.011   ;
    23      CG324      1    LIG    C14     23      0.119     12.011   ;
    24     CG2R61      1    LIG    C15     24      0.069     12.011   ;
    25     CG2R61      1    LIG    C16     25     -0.123     12.011   ;
    26     CG2R61      1    LIG    C17     26      0.227     12.011   ;
    27     CG2R61      1    LIG    C18     27     -0.119     12.011   ;
    28     CG2R61      1    LIG    C19     28     -0.108     12.011   ;
    29     CG2R61      1    LIG    C20     29     -0.120     12.011   ;
    30      OG301      1    LIG     O3     30     -0.381     15.999   ;
    31      CG321      1    LIG    C21     31     -0.037     12.011   ;
    32      CG311      1    LIG    C22     32     -0.042     12.011   ;
    33      CG331      1    LIG    C23     33     -0.286     12.011   ;
    34      CG331      1    LIG    C24     34     -0.286     12.011   ;
    35       HGA2      1    LIG    HC2     35      0.090      1.008   ;
    36       HGA2      1    LIG    HC3     36      0.090      1.008   ;
    37       HGA2      1    LIG    HC4     37      0.090      1.008   ;
    38       HGA2      1    LIG    HC5     38      0.090      1.008   ;
    39       HGA1      1    LIG     HC     39      0.090      1.008   ;
    40       HGA2      1    LIG    HC6     40      0.090      1.008   ;
    41       HGA2      1    LIG    HC7     41      0.090      1.008   ;
    42       HGA2      1    LIG    HC8     42      0.090      1.008   ;
    43       HGA2      1    LIG    HC9     43      0.090      1.008   ;
    44       HGA3      1    LIG    HC1     44      0.090      1.008   ;
    45       HGA3      1    LIG   HC10     45      0.090      1.008   ;
    46       HGA3      1    LIG   HC11     46      0.090      1.008   ;
    47      HGR62      1    LIG   HC12     47      0.175      1.008   ;
    48      HGR62      1    LIG   HC13     48      0.179      1.008   ;
    49      HGR61      1    LIG   HC14     49      0.116      1.008   ;
    50      HGR61      1    LIG   HC15     50      0.116      1.008   ;
    51       HGA2      1    LIG   HC16     51      0.090      1.008   ;
    52       HGA2      1    LIG   HC17     52      0.090      1.008   ;
    53      HGR61      1    LIG   HC18     53      0.116      1.008   ;
    54      HGR61      1    LIG   HC19     54      0.116      1.008   ;
    55      HGR61      1    LIG   HC20     55      0.116      1.008   ;
    56      HGR61      1    LIG   HC21     56      0.116      1.008   ;
    57       HGA2      1    LIG   HC22     57      0.090      1.008   ;
    58       HGA2      1    LIG   HC23     58      0.090      1.008   ;
    59       HGA1      1    LIG   HC24     59      0.090      1.008   ;
    60       HGA3      1    LIG   HC25     60      0.090      1.008   ;
    61       HGA3      1    LIG   HC26     61      0.090      1.008   ;
    62       HGA3      1    LIG   HC27     62      0.090      1.008   ;
    63       HGA3      1    LIG   HC28     63      0.090      1.008   ;
    64       HGA3      1    LIG   HC29     64      0.090      1.008   ;
    65       HGA3      1    LIG   HC30     65      0.090      1.008   ;

[ bonds ]
;	ai	  aj funct			  c0			c1			  c2			c3
    1     7	 1 ;       SG3O2     NG3C51
    1     4	 1 ;       SG3O2     NG3C51
    1     3	 1 ;       SG3O2      OG2P1
    1     2	 1 ;       SG3O2      OG2P1
    4     5	 1 ;      NG3C51     CG3C52
    4    14	 1 ;      NG3C51       HGP1
    5     6	 1 ;      CG3C52     CG3C50
    5    35	 1 ;      CG3C52       HGA2
    5    36	 1 ;      CG3C52       HGA2
    6    12	 1 ;      CG3C50      CG321
    6     8	 1 ;      CG3C50      CG321
    6     7	 1 ;      CG3C50     NG3C51
    7    16	 1 ;      NG3C51     CG2R61
    8     9	 1 ;       CG321      CG314
    8    37	 1 ;       CG321       HGA2
    8    38	 1 ;       CG321       HGA2
    9    10	 1 ;       CG314      NG3P1
    9    13	 1 ;       CG314      CG331
    9    39	 1 ;       CG314       HGA1
   10    15	 1 ;       NG3P1       HGP2
   10    11	 1 ;       NG3P1      CG324
   10    23	 1 ;       NG3P1      CG324
   11    12	 1 ;       CG324      CG321
   11    40	 1 ;       CG324       HGA2
   11    41	 1 ;       CG324       HGA2
   12    42	 1 ;       CG321       HGA2
   12    43	 1 ;       CG321       HGA2
   13    44	 1 ;       CG331       HGA3
   13    45	 1 ;       CG331       HGA3
   13    46	 1 ;       CG331       HGA3
   16    17	 1 ;      CG2R61     CG2R61
   16    22	 1 ;      CG2R61     CG2R61
   17    18	 1 ;      CG2R61     CG2R66
   17    47	 1 ;      CG2R61      HGR62
   18    19	 1 ;      CG2R66       FGR1
   18    20	 1 ;      CG2R66     CG2R61
   20    21	 1 ;      CG2R61     CG2R61
   20    48	 1 ;      CG2R61      HGR62
   21    22	 1 ;      CG2R61     CG2R61
   21    49	 1 ;      CG2R61      HGR61
   22    50	 1 ;      CG2R61      HGR61
   23    24	 1 ;       CG324     CG2R61
   23    51	 1 ;       CG324       HGA2
   23    52	 1 ;       CG324       HGA2
   24    25	 1 ;      CG2R61     CG2R61
   24    29	 1 ;      CG2R61     CG2R61
   25    26	 1 ;      CG2R61     CG2R61
   25    53	 1 ;      CG2R61      HGR61
   26    30	 1 ;      CG2R61      OG301
   26    27	 1 ;      CG2R61     CG2R61
   27    28	 1 ;      CG2R61     CG2R61
   27    54	 1 ;      CG2R61      HGR61
   28    29	 1 ;      CG2R61     CG2R61
   28    55	 1 ;      CG2R61      HGR61
   29    56	 1 ;      CG2R61      HGR61
   30    31	 1 ;       OG301      CG321
   31    32	 1 ;       CG321      CG311
   31    57	 1 ;       CG321       HGA2
   31    58	 1 ;       CG321       HGA2
   32    33	 1 ;       CG311      CG331
   32    34	 1 ;       CG311      CG331
   32    59	 1 ;       CG311       HGA1
   33    60	 1 ;       CG331       HGA3
   33    61	 1 ;       CG331       HGA3
   33    62	 1 ;       CG331       HGA3
   34    63	 1 ;       CG331       HGA3
   34    64	 1 ;       CG331       HGA3
   34    65	 1 ;       CG331       HGA3

[ pairs ]
;	ai	  aj funct			  c0			c1			  c2			c3
    1    35	 1
    1    36	 1
    1    12	 1
    1     8	 1
    1    17	 1
    1    22	 1
    2     6	 1
    2    16	 1
    2     5	 1
    2    14	 1
    3     6	 1
    3    16	 1
    3     5	 1
    3    14	 1
    4    16	 1
    4    12	 1
    4     8	 1
    5    11	 1
    5    42	 1
    5    43	 1
    5     9	 1
    5    37	 1
    5    38	 1
    5    16	 1
    6    14	 1
    6    17	 1
    6    22	 1
    6    10	 1
    6    13	 1
    6    39	 1
    6    40	 1
    6    41	 1
    7    14	 1
    7    35	 1
    7    36	 1
    7    11	 1
    7    42	 1
    7    43	 1
    7     9	 1
    7    37	 1
    7    38	 1
    7    18	 1
    7    47	 1
    7    21	 1
    7    50	 1
    8    35	 1
    8    36	 1
    8    11	 1
    8    42	 1
    8    43	 1
    8    16	 1
    8    15	 1
    8    23	 1
    8    44	 1
    8    45	 1
    8    46	 1
    9    12	 1
    9    40	 1
    9    41	 1
    9    24	 1
    9    51	 1
    9    52	 1
   10    37	 1
   10    38	 1
   10    44	 1
   10    45	 1
   10    46	 1
   10    42	 1
   10    43	 1
   10    25	 1
   10    29	 1
   11    13	 1
   11    39	 1
   11    24	 1
   11    51	 1
   11    52	 1
   12    35	 1
   12    36	 1
   12    37	 1
   12    38	 1
   12    16	 1
   12    15	 1
   12    23	 1
   13    37	 1
   13    38	 1
   13    15	 1
   13    23	 1
   14    35	 1
   14    36	 1
   15    39	 1
   15    40	 1
   15    41	 1
   15    24	 1
   15    51	 1
   15    52	 1
   16    19	 1
   16    20	 1
   16    49	 1
   17    21	 1
   17    50	 1
   17    48	 1
   18    22	 1
   18    49	 1
   19    47	 1
   19    21	 1
   19    48	 1
   20    47	 1
   20    50	 1
   22    47	 1
   22    48	 1
   23    39	 1
   23    40	 1
   23    41	 1
   23    26	 1
   23    53	 1
   23    28	 1
   23    56	 1
   24    30	 1
   24    27	 1
   24    55	 1
   25    51	 1
   25    52	 1
   25    28	 1
   25    56	 1
   25    31	 1
   25    54	 1
   26    29	 1
   26    55	 1
   26    32	 1
   26    57	 1
   26    58	 1
   27    53	 1
   27    31	 1
   27    56	 1
   28    30	 1
   29    51	 1
   29    52	 1
   29    53	 1
   29    54	 1
   30    53	 1
   30    54	 1
   30    33	 1
   30    34	 1
   30    59	 1
   31    60	 1
   31    61	 1
   31    62	 1
   31    63	 1
   31    64	 1
   31    65	 1
   33    57	 1
   33    58	 1
   33    63	 1
   33    64	 1
   33    65	 1
   34    57	 1
   34    58	 1
   34    60	 1
   34    61	 1
   34    62	 1
   37    39	 1
   38    39	 1
   39    44	 1
   39    45	 1
   39    46	 1
   40    42	 1
   40    43	 1
   41    42	 1
   41    43	 1
   48    49	 1
   49    50	 1
   54    55	 1
   55    56	 1
   57    59	 1
   58    59	 1
   59    60	 1
   59    61	 1
   59    62	 1
   59    63	 1
   59    64	 1
   59    65	 1

[ angles ]
;	ai	  aj	ak funct			c0			  c1			c2			  c3
    7     1     4	5 ;     NG3C51      SG3O2     NG3C51
    7     1     3	5 ;     NG3C51      SG3O2      OG2P1
    7     1     2	5 ;     NG3C51      SG3O2      OG2P1
    4     1     3	5 ;     NG3C51      SG3O2      OG2P1
    4     1     2	5 ;     NG3C51      SG3O2      OG2P1
    3     1     2	5 ;      OG2P1      SG3O2      OG2P1
    5     4    14	5 ;     CG3C52     NG3C51       HGP1
    5     4     1	5 ;     CG3C52     NG3C51      SG3O2
   14     4     1	5 ;       HGP1     NG3C51      SG3O2
    6     5     4	5 ;     CG3C50     CG3C52     NG3C51
    6     5    35	5 ;     CG3C50     CG3C52       HGA2
    6     5    36	5 ;     CG3C50     CG3C52       HGA2
    4     5    35	5 ;     NG3C51     CG3C52       HGA2
    4     5    36	5 ;     NG3C51     CG3C52       HGA2
   35     5    36	5 ;       HGA2     CG3C52       HGA2
   12     6     5	5 ;      CG321     CG3C50     CG3C52
   12     6     8	5 ;      CG321     CG3C50      CG321
   12     6     7	5 ;      CG321     CG3C50     NG3C51
    5     6     8	5 ;     CG3C52     CG3C50      CG321
    5     6     7	5 ;     CG3C52     CG3C50     NG3C51
    8     6     7	5 ;      CG321     CG3C50     NG3C51
    6     7    16	5 ;     CG3C50     NG3C51     CG2R61
    6     7     1	5 ;     CG3C50     NG3C51      SG3O2
   16     7     1	5 ;     CG2R61     NG3C51      SG3O2
    9     8     6	5 ;      CG314      CG321     CG3C50
    9     8    37	5 ;      CG314      CG321       HGA2
    9     8    38	5 ;      CG314      CG321       HGA2
    6     8    37	5 ;     CG3C50      CG321       HGA2
    6     8    38	5 ;     CG3C50      CG321       HGA2
   37     8    38	5 ;       HGA2      CG321       HGA2
   10     9    13	5 ;      NG3P1      CG314      CG331
   10     9     8	5 ;      NG3P1      CG314      CG321
   10     9    39	5 ;      NG3P1      CG314       HGA1
   13     9     8	5 ;      CG331      CG314      CG321
   13     9    39	5 ;      CG331      CG314       HGA1
    8     9    39	5 ;      CG321      CG314       HGA1
   15    10    11	5 ;       HGP2      NG3P1      CG324
   15    10    23	5 ;       HGP2      NG3P1      CG324
   15    10     9	5 ;       HGP2      NG3P1      CG314
   11    10    23	5 ;      CG324      NG3P1      CG324
   11    10     9	5 ;      CG324      NG3P1      CG314
   23    10     9	5 ;      CG324      NG3P1      CG314
   10    11    12	5 ;      NG3P1      CG324      CG321
   10    11    40	5 ;      NG3P1      CG324       HGA2
   10    11    41	5 ;      NG3P1      CG324       HGA2
   12    11    40	5 ;      CG321      CG324       HGA2
   12    11    41	5 ;      CG321      CG324       HGA2
   40    11    41	5 ;       HGA2      CG324       HGA2
   11    12     6	5 ;      CG324      CG321     CG3C50
   11    12    42	5 ;      CG324      CG321       HGA2
   11    12    43	5 ;      CG324      CG321       HGA2
    6    12    42	5 ;     CG3C50      CG321       HGA2
    6    12    43	5 ;     CG3C50      CG321       HGA2
   42    12    43	5 ;       HGA2      CG321       HGA2
    9    13    44	5 ;      CG314      CG331       HGA3
    9    13    45	5 ;      CG314      CG331       HGA3
    9    13    46	5 ;      CG314      CG331       HGA3
   44    13    45	5 ;       HGA3      CG331       HGA3
   44    13    46	5 ;       HGA3      CG331       HGA3
   45    13    46	5 ;       HGA3      CG331       HGA3
   17    16     7	5 ;     CG2R61     CG2R61     NG3C51
   17    16    22	5 ;     CG2R61     CG2R61     CG2R61
    7    16    22	5 ;     NG3C51     CG2R61     CG2R61
   18    17    16	5 ;     CG2R66     CG2R61     CG2R61
   18    17    47	5 ;     CG2R66     CG2R61      HGR62
   16    17    47	5 ;     CG2R61     CG2R61      HGR62
   19    18    17	5 ;       FGR1     CG2R66     CG2R61
   19    18    20	5 ;       FGR1     CG2R66     CG2R61
   17    18    20	5 ;     CG2R61     CG2R66     CG2R61
   18    20    21	5 ;     CG2R66     CG2R61     CG2R61
   18    20    48	5 ;     CG2R66     CG2R61      HGR62
   21    20    48	5 ;     CG2R61     CG2R61      HGR62
   20    21    22	5 ;     CG2R61     CG2R61     CG2R61
   20    21    49	5 ;     CG2R61     CG2R61      HGR61
   22    21    49	5 ;     CG2R61     CG2R61      HGR61
   16    22    21	5 ;     CG2R61     CG2R61     CG2R61
   16    22    50	5 ;     CG2R61     CG2R61      HGR61
   21    22    50	5 ;     CG2R61     CG2R61      HGR61
   24    23    10	5 ;     CG2R61      CG324      NG3P1
   24    23    51	5 ;     CG2R61      CG324       HGA2
   24    23    52	5 ;     CG2R61      CG324       HGA2
   10    23    51	5 ;      NG3P1      CG324       HGA2
   10    23    52	5 ;      NG3P1      CG324       HGA2
   51    23    52	5 ;       HGA2      CG324       HGA2
   25    24    29	5 ;     CG2R61     CG2R61     CG2R61
   25    24    23	5 ;     CG2R61     CG2R61      CG324
   29    24    23	5 ;     CG2R61     CG2R61      CG324
   26    25    24	5 ;     CG2R61     CG2R61     CG2R61
   26    25    53	5 ;     CG2R61     CG2R61      HGR61
   24    25    53	5 ;     CG2R61     CG2R61      HGR61
   30    26    27	5 ;      OG301     CG2R61     CG2R61
   30    26    25	5 ;      OG301     CG2R61     CG2R61
   27    26    25	5 ;     CG2R61     CG2R61     CG2R61
   26    27    28	5 ;     CG2R61     CG2R61     CG2R61
   26    27    54	5 ;     CG2R61     CG2R61      HGR61
   28    27    54	5 ;     CG2R61     CG2R61      HGR61
   27    28    29	5 ;     CG2R61     CG2R61     CG2R61
   27    28    55	5 ;     CG2R61     CG2R61      HGR61
   29    28    55	5 ;     CG2R61     CG2R61      HGR61
   28    29    24	5 ;     CG2R61     CG2R61     CG2R61
   28    29    56	5 ;     CG2R61     CG2R61      HGR61
   24    29    56	5 ;     CG2R61     CG2R61      HGR61
   31    30    26	5 ;      CG321      OG301     CG2R61
   30    31    32	5 ;      OG301      CG321      CG311
   30    31    57	5 ;      OG301      CG321       HGA2
   30    31    58	5 ;      OG301      CG321       HGA2
   32    31    57	5 ;      CG311      CG321       HGA2
   32    31    58	5 ;      CG311      CG321       HGA2
   57    31    58	5 ;       HGA2      CG321       HGA2
   31    32    33	5 ;      CG321      CG311      CG331
   31    32    34	5 ;      CG321      CG311      CG331
   31    32    59	5 ;      CG321      CG311       HGA1
   33    32    34	5 ;      CG331      CG311      CG331
   33    32    59	5 ;      CG331      CG311       HGA1
   34    32    59	5 ;      CG331      CG311       HGA1
   32    33    60	5 ;      CG311      CG331       HGA3
   32    33    61	5 ;      CG311      CG331       HGA3
   32    33    62	5 ;      CG311      CG331       HGA3
   60    33    61	5 ;       HGA3      CG331       HGA3
   60    33    62	5 ;       HGA3      CG331       HGA3
   61    33    62	5 ;       HGA3      CG331       HGA3
   32    34    63	5 ;      CG311      CG331       HGA3
   32    34    64	5 ;      CG311      CG331       HGA3
   32    34    65	5 ;      CG311      CG331       HGA3
   63    34    64	5 ;       HGA3      CG331       HGA3
   63    34    65	5 ;       HGA3      CG331       HGA3
   64    34    65	5 ;       HGA3      CG331       HGA3

[ dihedrals ]
;	ai	  aj	ak	  al funct			  c0			c1			  c2			c3			  c4			c5
    4     1     7     6	 9 ;     NG3C51      SG3O2     NG3C51     CG3C50
    4     1     7    16	 9 ;     NG3C51      SG3O2     NG3C51     CG2R61
    3     1     7     6	 9 ;      OG2P1      SG3O2     NG3C51     CG3C50
    3     1     7    16	 9 ;      OG2P1      SG3O2     NG3C51     CG2R61
    2     1     7     6	 9 ;      OG2P1      SG3O2     NG3C51     CG3C50
    2     1     7    16	 9 ;      OG2P1      SG3O2     NG3C51     CG2R61
    7     1     4     5	 9 ;     NG3C51      SG3O2     NG3C51     CG3C52
    7     1     4    14	 9 ;     NG3C51      SG3O2     NG3C51       HGP1
    3     1     4     5	 9 ;      OG2P1      SG3O2     NG3C51     CG3C52
    3     1     4    14	 9 ;      OG2P1      SG3O2     NG3C51       HGP1
    2     1     4     5	 9 ;      OG2P1      SG3O2     NG3C51     CG3C52
    2     1     4    14	 9 ;      OG2P1      SG3O2     NG3C51       HGP1
   14     4     5     6	 9 ;       HGP1     NG3C51     CG3C52     CG3C50
   14     4     5    35	 9 ;       HGP1     NG3C51     CG3C52       HGA2
   14     4     5    36	 9 ;       HGP1     NG3C51     CG3C52       HGA2
    1     4     5     6	 9 ;      SG3O2     NG3C51     CG3C52     CG3C50
    1     4     5    35	 9 ;      SG3O2     NG3C51     CG3C52       HGA2
    1     4     5    36	 9 ;      SG3O2     NG3C51     CG3C52       HGA2
    4     5     6    12	 9 ;     NG3C51     CG3C52     CG3C50      CG321
    4     5     6     8	 9 ;     NG3C51     CG3C52     CG3C50      CG321
    4     5     6     7	 9 ;     NG3C51     CG3C52     CG3C50     NG3C51
   35     5     6    12	 9 ;       HGA2     CG3C52     CG3C50      CG321
   35     5     6     8	 9 ;       HGA2     CG3C52     CG3C50      CG321
   35     5     6     7	 9 ;       HGA2     CG3C52     CG3C50     NG3C51
   36     5     6    12	 9 ;       HGA2     CG3C52     CG3C50      CG321
   36     5     6     8	 9 ;       HGA2     CG3C52     CG3C50      CG321
   36     5     6     7	 9 ;       HGA2     CG3C52     CG3C50     NG3C51
    5     6    12    11	 9 ;     CG3C52     CG3C50      CG321      CG324
    5     6    12    42	 9 ;     CG3C52     CG3C50      CG321       HGA2
    5     6    12    43	 9 ;     CG3C52     CG3C50      CG321       HGA2
    8     6    12    11	 9 ;      CG321     CG3C50      CG321      CG324
    8     6    12    42	 9 ;      CG321     CG3C50      CG321       HGA2
    8     6    12    43	 9 ;      CG321     CG3C50      CG321       HGA2
    7     6    12    11	 9 ;     NG3C51     CG3C50      CG321      CG324
    7     6    12    42	 9 ;     NG3C51     CG3C50      CG321       HGA2
    7     6    12    43	 9 ;     NG3C51     CG3C50      CG321       HGA2
   12     6     8     9	 9 ;      CG321     CG3C50      CG321      CG314
   12     6     8    37	 9 ;      CG321     CG3C50      CG321       HGA2
   12     6     8    38	 9 ;      CG321     CG3C50      CG321       HGA2
    5     6     8     9	 9 ;     CG3C52     CG3C50      CG321      CG314
    5     6     8    37	 9 ;     CG3C52     CG3C50      CG321       HGA2
    5     6     8    38	 9 ;     CG3C52     CG3C50      CG321       HGA2
    7     6     8     9	 9 ;     NG3C51     CG3C50      CG321      CG314
    7     6     8    37	 9 ;     NG3C51     CG3C50      CG321       HGA2
    7     6     8    38	 9 ;     NG3C51     CG3C50      CG321       HGA2
   12     6     7    16	 9 ;      CG321     CG3C50     NG3C51     CG2R61
   12     6     7     1	 9 ;      CG321     CG3C50     NG3C51      SG3O2
    5     6     7    16	 9 ;     CG3C52     CG3C50     NG3C51     CG2R61
    5     6     7     1	 9 ;     CG3C52     CG3C50     NG3C51      SG3O2
    8     6     7    16	 9 ;      CG321     CG3C50     NG3C51     CG2R61
    8     6     7     1	 9 ;      CG321     CG3C50     NG3C51      SG3O2
    6     7    16    17	 9 ;     CG3C50     NG3C51     CG2R61     CG2R61
    6     7    16    22	 9 ;     CG3C50     NG3C51     CG2R61     CG2R61
    1     7    16    17	 9 ;      SG3O2     NG3C51     CG2R61     CG2R61
    1     7    16    22	 9 ;      SG3O2     NG3C51     CG2R61     CG2R61
    6     8     9    10	 9 ;     CG3C50      CG321      CG314      NG3P1
    6     8     9    13	 9 ;     CG3C50      CG321      CG314      CG331
    6     8     9    39	 9 ;     CG3C50      CG321      CG314       HGA1
   37     8     9    10	 9 ;       HGA2      CG321      CG314      NG3P1
   37     8     9    13	 9 ;       HGA2      CG321      CG314      CG331
   37     8     9    39	 9 ;       HGA2      CG321      CG314       HGA1
   38     8     9    10	 9 ;       HGA2      CG321      CG314      NG3P1
   38     8     9    13	 9 ;       HGA2      CG321      CG314      CG331
   38     8     9    39	 9 ;       HGA2      CG321      CG314       HGA1
   13     9    10    15	 9 ;      CG331      CG314      NG3P1       HGP2
   13     9    10    11	 9 ;      CG331      CG314      NG3P1      CG324
   13     9    10    23	 9 ;      CG331      CG314      NG3P1      CG324
    8     9    10    15	 9 ;      CG321      CG314      NG3P1       HGP2
    8     9    10    11	 9 ;      CG321      CG314      NG3P1      CG324
    8     9    10    23	 9 ;      CG321      CG314      NG3P1      CG324
   39     9    10    15	 9 ;       HGA1      CG314      NG3P1       HGP2
   39     9    10    11	 9 ;       HGA1      CG314      NG3P1      CG324
   39     9    10    23	 9 ;       HGA1      CG314      NG3P1      CG324
   10     9    13    44	 9 ;      NG3P1      CG314      CG331       HGA3
   10     9    13    45	 9 ;      NG3P1      CG314      CG331       HGA3
   10     9    13    46	 9 ;      NG3P1      CG314      CG331       HGA3
    8     9    13    44	 9 ;      CG321      CG314      CG331       HGA3
    8     9    13    45	 9 ;      CG321      CG314      CG331       HGA3
    8     9    13    46	 9 ;      CG321      CG314      CG331       HGA3
   39     9    13    44	 9 ;       HGA1      CG314      CG331       HGA3
   39     9    13    45	 9 ;       HGA1      CG314      CG331       HGA3
   39     9    13    46	 9 ;       HGA1      CG314      CG331       HGA3
   15    10    11    12	 9 ;       HGP2      NG3P1      CG324      CG321
   15    10    11    40	 9 ;       HGP2      NG3P1      CG324       HGA2
   15    10    11    41	 9 ;       HGP2      NG3P1      CG324       HGA2
   23    10    11    12	 9 ;      CG324      NG3P1      CG324      CG321
   23    10    11    40	 9 ;      CG324      NG3P1      CG324       HGA2
   23    10    11    41	 9 ;      CG324      NG3P1      CG324       HGA2
    9    10    11    12	 9 ;      CG314      NG3P1      CG324      CG321
    9    10    11    40	 9 ;      CG314      NG3P1      CG324       HGA2
    9    10    11    41	 9 ;      CG314      NG3P1      CG324       HGA2
   15    10    23    24	 9 ;       HGP2      NG3P1      CG324     CG2R61
   15    10    23    51	 9 ;       HGP2      NG3P1      CG324       HGA2
   15    10    23    52	 9 ;       HGP2      NG3P1      CG324       HGA2
   11    10    23    24	 9 ;      CG324      NG3P1      CG324     CG2R61
   11    10    23    51	 9 ;      CG324      NG3P1      CG324       HGA2
   11    10    23    52	 9 ;      CG324      NG3P1      CG324       HGA2
    9    10    23    24	 9 ;      CG314      NG3P1      CG324     CG2R61
    9    10    23    51	 9 ;      CG314      NG3P1      CG324       HGA2
    9    10    23    52	 9 ;      CG314      NG3P1      CG324       HGA2
   10    11    12     6	 9 ;      NG3P1      CG324      CG321     CG3C50
   10    11    12    42	 9 ;      NG3P1      CG324      CG321       HGA2
   10    11    12    43	 9 ;      NG3P1      CG324      CG321       HGA2
   40    11    12     6	 9 ;       HGA2      CG324      CG321     CG3C50
   40    11    12    42	 9 ;       HGA2      CG324      CG321       HGA2
   40    11    12    43	 9 ;       HGA2      CG324      CG321       HGA2
   41    11    12     6	 9 ;       HGA2      CG324      CG321     CG3C50
   41    11    12    42	 9 ;       HGA2      CG324      CG321       HGA2
   41    11    12    43	 9 ;       HGA2      CG324      CG321       HGA2
    7    16    17    18	 9 ;     NG3C51     CG2R61     CG2R61     CG2R66
    7    16    17    47	 9 ;     NG3C51     CG2R61     CG2R61      HGR62
   22    16    17    18	 9 ;     CG2R61     CG2R61     CG2R61     CG2R66
   22    16    17    47	 9 ;     CG2R61     CG2R61     CG2R61      HGR62
   17    16    22    21	 9 ;     CG2R61     CG2R61     CG2R61     CG2R61
   17    16    22    50	 9 ;     CG2R61     CG2R61     CG2R61      HGR61
    7    16    22    21	 9 ;     NG3C51     CG2R61     CG2R61     CG2R61
    7    16    22    50	 9 ;     NG3C51     CG2R61     CG2R61      HGR61
   16    17    18    19	 9 ;     CG2R61     CG2R61     CG2R66       FGR1
   16    17    18    20	 9 ;     CG2R61     CG2R61     CG2R66     CG2R61
   47    17    18    19	 9 ;      HGR62     CG2R61     CG2R66       FGR1
   47    17    18    20	 9 ;      HGR62     CG2R61     CG2R66     CG2R61
   19    18    20    21	 9 ;       FGR1     CG2R66     CG2R61     CG2R61
   19    18    20    48	 9 ;       FGR1     CG2R66     CG2R61      HGR62
   17    18    20    21	 9 ;     CG2R61     CG2R66     CG2R61     CG2R61
   17    18    20    48	 9 ;     CG2R61     CG2R66     CG2R61      HGR62
   18    20    21    22	 9 ;     CG2R66     CG2R61     CG2R61     CG2R61
   18    20    21    49	 9 ;     CG2R66     CG2R61     CG2R61      HGR61
   48    20    21    22	 9 ;      HGR62     CG2R61     CG2R61     CG2R61
   48    20    21    49	 9 ;      HGR62     CG2R61     CG2R61      HGR61
   20    21    22    16	 9 ;     CG2R61     CG2R61     CG2R61     CG2R61
   20    21    22    50	 9 ;     CG2R61     CG2R61     CG2R61      HGR61
   49    21    22    16	 9 ;      HGR61     CG2R61     CG2R61     CG2R61
   49    21    22    50	 9 ;      HGR61     CG2R61     CG2R61      HGR61
   10    23    24    25	 9 ;      NG3P1      CG324     CG2R61     CG2R61
   10    23    24    29	 9 ;      NG3P1      CG324     CG2R61     CG2R61
   51    23    24    25	 9 ;       HGA2      CG324     CG2R61     CG2R61
   51    23    24    29	 9 ;       HGA2      CG324     CG2R61     CG2R61
   52    23    24    25	 9 ;       HGA2      CG324     CG2R61     CG2R61
   52    23    24    29	 9 ;       HGA2      CG324     CG2R61     CG2R61
   29    24    25    26	 9 ;     CG2R61     CG2R61     CG2R61     CG2R61
   29    24    25    53	 9 ;     CG2R61     CG2R61     CG2R61      HGR61
   23    24    25    26	 9 ;      CG324     CG2R61     CG2R61     CG2R61
   23    24    25    53	 9 ;      CG324     CG2R61     CG2R61      HGR61
   25    24    29    28	 9 ;     CG2R61     CG2R61     CG2R61     CG2R61
   25    24    29    56	 9 ;     CG2R61     CG2R61     CG2R61      HGR61
   23    24    29    28	 9 ;      CG324     CG2R61     CG2R61     CG2R61
   23    24    29    56	 9 ;      CG324     CG2R61     CG2R61      HGR61
   24    25    26    30	 9 ;     CG2R61     CG2R61     CG2R61      OG301
   24    25    26    27	 9 ;     CG2R61     CG2R61     CG2R61     CG2R61
   53    25    26    30	 9 ;      HGR61     CG2R61     CG2R61      OG301
   53    25    26    27	 9 ;      HGR61     CG2R61     CG2R61     CG2R61
   27    26    30    31	 9 ;     CG2R61     CG2R61      OG301      CG321
   25    26    30    31	 9 ;     CG2R61     CG2R61      OG301      CG321
   30    26    27    28	 9 ;      OG301     CG2R61     CG2R61     CG2R61
   30    26    27    54	 9 ;      OG301     CG2R61     CG2R61      HGR61
   25    26    27    28	 9 ;     CG2R61     CG2R61     CG2R61     CG2R61
   25    26    27    54	 9 ;     CG2R61     CG2R61     CG2R61      HGR61
   26    27    28    29	 9 ;     CG2R61     CG2R61     CG2R61     CG2R61
   26    27    28    55	 9 ;     CG2R61     CG2R61     CG2R61      HGR61
   54    27    28    29	 9 ;      HGR61     CG2R61     CG2R61     CG2R61
   54    27    28    55	 9 ;      HGR61     CG2R61     CG2R61      HGR61
   27    28    29    24	 9 ;     CG2R61     CG2R61     CG2R61     CG2R61
   27    28    29    56	 9 ;     CG2R61     CG2R61     CG2R61      HGR61
   55    28    29    24	 9 ;      HGR61     CG2R61     CG2R61     CG2R61
   55    28    29    56	 9 ;      HGR61     CG2R61     CG2R61      HGR61
   26    30    31    32	 9 ;     CG2R61      OG301      CG321      CG311
   26    30    31    57	 9 ;     CG2R61      OG301      CG321       HGA2
   26    30    31    58	 9 ;     CG2R61      OG301      CG321       HGA2
   30    31    32    33	 9 ;      OG301      CG321      CG311      CG331
   30    31    32    34	 9 ;      OG301      CG321      CG311      CG331
   30    31    32    59	 9 ;      OG301      CG321      CG311       HGA1
   57    31    32    33	 9 ;       HGA2      CG321      CG311      CG331
   57    31    32    34	 9 ;       HGA2      CG321      CG311      CG331
   57    31    32    59	 9 ;       HGA2      CG321      CG311       HGA1
   58    31    32    33	 9 ;       HGA2      CG321      CG311      CG331
   58    31    32    34	 9 ;       HGA2      CG321      CG311      CG331
   58    31    32    59	 9 ;       HGA2      CG321      CG311       HGA1
   31    32    33    60	 9 ;      CG321      CG311      CG331       HGA3
   31    32    33    61	 9 ;      CG321      CG311      CG331       HGA3
   31    32    33    62	 9 ;      CG321      CG311      CG331       HGA3
   34    32    33    60	 9 ;      CG331      CG311      CG331       HGA3
   34    32    33    61	 9 ;      CG331      CG311      CG331       HGA3
   34    32    33    62	 9 ;      CG331      CG311      CG331       HGA3
   59    32    33    60	 9 ;       HGA1      CG311      CG331       HGA3
   59    32    33    61	 9 ;       HGA1      CG311      CG331       HGA3
   59    32    33    62	 9 ;       HGA1      CG311      CG331       HGA3
   31    32    34    63	 9 ;      CG321      CG311      CG331       HGA3
   31    32    34    64	 9 ;      CG321      CG311      CG331       HGA3
   31    32    34    65	 9 ;      CG321      CG311      CG331       HGA3
   33    32    34    63	 9 ;      CG331      CG311      CG331       HGA3
   33    32    34    64	 9 ;      CG331      CG311      CG331       HGA3
   33    32    34    65	 9 ;      CG331      CG311      CG331       HGA3
   59    32    34    63	 9 ;       HGA1      CG311      CG331       HGA3
   59    32    34    64	 9 ;       HGA1      CG311      CG331       HGA3
   59    32    34    65	 9 ;       HGA1      CG311      CG331       HGA3

