Gromacs Runs One Microsecond At Cannonball Speeds
   68
    1LIG      S    1  -1.229   0.452  -1.684
    1LIG     O1    2  -1.238   0.393  -1.816
    1LIG     O2    3  -1.105   0.474  -1.614
    1LIG     N1    4  -1.341   0.373  -1.586
    1LIG     C1    5  -1.480   0.409  -1.623
    1LIG     C2    6  -1.538   0.323  -1.737
    1LIG     C3    7  -1.681   0.365  -1.774
    1LIG     N2    8  -1.770   0.354  -1.650
    1LIG     C4    9  -1.716   0.432  -1.531
    1LIG     C5   10  -1.572   0.395  -1.501
    1LIG     C6   11  -1.730   0.278  -1.889
    1LIG     C7   12  -1.467   0.559  -1.670
    1LIG     N3   13  -1.324   0.595  -1.685
    1LIG      H   14  -1.772   0.255  -1.623
    1LIG     C8   15  -1.299   0.259  -1.511
    1LIG     C9   16  -1.280   0.134  -1.569
    1LIG    C10   17  -1.237   0.028  -1.489
    1LIG      F   18  -1.221  -0.093  -1.545
    1LIG    C11   19  -1.211   0.045  -1.354
    1LIG    C12   20  -1.228   0.170  -1.296
    1LIG    C13   21  -1.271   0.277  -1.375
    1LIG    C14   22  -1.277   0.702  -1.592
    1LIG    C15   23  -1.368   0.824  -1.600
    1LIG    C16   24  -1.916   0.395  -1.675
    1LIG    C17   25  -2.010   0.352  -1.566
    1LIG    C18   26  -2.027   0.215  -1.538
    1LIG    C19   27  -2.114   0.171  -1.439
    1LIG    C20   28  -2.184   0.264  -1.364
    1LIG    C21   29  -2.170   0.400  -1.390
    1LIG    C22   30  -2.083   0.444  -1.491
    1LIG     O3   31  -2.133   0.039  -1.407
    1LIG    C23   32  -2.220   0.012  -1.296
    1LIG    C24   33  -2.336  -0.077  -1.341
    1LIG    C25   34  -2.138  -0.058  -1.188
    1LIG    HC2   35  -1.474   0.334  -1.824
    1LIG    HC3   36  -1.538   0.219  -1.705
    1LIG     HC   37  -1.680   0.469  -1.807
    1LIG    HC4   38  -1.721   0.539  -1.554
    1LIG    HC5   39  -1.777   0.411  -1.444
    1LIG    HC6   40  -1.535   0.460  -1.422
    1LIG    HC7   41  -1.569   0.292  -1.466
    1LIG    HC1   42  -1.832   0.307  -1.916
    1LIG    HC8   43  -1.665   0.290  -1.975
    1LIG    HC9   44  -1.730   0.173  -1.857
    1LIG   HC10   45  -1.518   0.572  -1.765
    1LIG   HC11   46  -1.513   0.624  -1.595
    1LIG   HC12   47  -1.297   0.119  -1.675
    1LIG   HC13   48  -1.179  -0.039  -1.293
    1LIG   HC14   49  -1.207   0.185  -1.191
    1LIG   HC15   50  -1.284   0.375  -1.330
    1LIG   HC16   51  -1.176   0.731  -1.619
    1LIG   HC17   52  -1.278   0.663  -1.490
    1LIG   HC18   53  -1.312   0.913  -1.570
    1LIG   HC19   54  -1.453   0.811  -1.533
    1LIG   HC20   55  -1.403   0.837  -1.702
    1LIG   HC21   56  -1.949   0.350  -1.769
    1LIG   HC22   57  -1.921   0.503  -1.685
    1LIG   HC23   58  -1.970   0.142  -1.596
    1LIG   HC24   59  -2.251   0.231  -1.285
    1LIG   HC25   60  -2.226   0.473  -1.332
    1LIG   HC26   61  -2.073   0.550  -1.510
    1LIG   HC27   62  -2.260   0.105  -1.257
    1LIG   HC28   63  -2.394  -0.026  -1.418
    1LIG   HC29   64  -2.297  -0.171  -1.381
    1LIG   HC30   65  -2.401  -0.098  -1.255
    1LIG   HC31   66  -2.056   0.007  -1.158
    1LIG   HC32   67  -2.098  -0.151  -1.227
    1LIG   HC33   68  -2.202  -0.079  -1.102
   0.00000   0.00000   0.00000
