; Created by cgenff_charmm2gmx.py

[ moleculetype ]
; Name			   nrexcl
LIG				 3

[ atoms ]
;	 nr		  type	resnr residue  atom   cgnr	   charge		mass  typeB    chargeB		massB
; residue	 1 LIG rtp LIG q	qsum
     1      SG3O2      1    LIG      S      1      0.183     32.060   ;
     2      OG2P1      1    LIG     O1      2     -0.216     15.999   ;
     3      OG2P1      1    LIG     O2      3     -0.216     15.999   ;
     4     NG3C51      1    LIG     N1      4     -0.409     14.007   ;
     5     CG3C50      1    LIG     C1      5      0.255     12.011   ;
     6      CG321      1    LIG     C2      6     -0.124     12.011   ;
     7      CG314      1    LIG     C3      7      0.198     12.011   ;
     8      NG3P1      1    LIG     N2      8     -0.462     14.007   ;
     9      CG324      1    LIG     C4      9      0.103     12.011   ;
    10      CG321      1    LIG     C5     10     -0.123     12.011   ;
    11      CG331      1    LIG     C6     11     -0.213     12.011   ;
    12     CG3C52      1    LIG     C7     12     -0.073     12.011   ;
    13     NG3C51      1    LIG     N3     13     -0.249     14.007   ;
    14       HGP2      1    LIG      H     14      0.319      1.008   ;
    15     CG2R61      1    LIG     C8     15      0.378     12.011   ;
    16     CG2R61      1    LIG     C9     16     -0.169     12.011   ;
    17     CG2R66      1    LIG    C10     17      0.105     12.011   ;
    18       FGR1      1    LIG      F     18     -0.211     18.998   ;
    19     CG2R61      1    LIG    C11     19     -0.107     12.011   ;
    20     CG2R61      1    LIG    C12     20     -0.149     12.011   ;
    21     CG2R61      1    LIG    C13     21     -0.107     12.011   ;
    22      CG321      1    LIG    C14     22      0.065     12.011   ;
    23      CG331      1    LIG    C15     23     -0.261     12.011   ;
    24      CG324      1    LIG    C16     24      0.119     12.011   ;
    25     CG2R61      1    LIG    C17     25      0.069     12.011   ;
    26     CG2R61      1    LIG    C18     26     -0.123     12.011   ;
    27     CG2R61      1    LIG    C19     27      0.159     12.011   ;
    28     CG2R61      1    LIG    C20     28     -0.119     12.011   ;
    29     CG2R61      1    LIG    C21     29     -0.108     12.011   ;
    30     CG2R61      1    LIG    C22     30     -0.120     12.011   ;
    31      OG301      1    LIG     O3     31     -0.341     15.999   ;
    32      CG311      1    LIG    C23     32      0.059     12.011   ;
    33      CG331      1    LIG    C24     33     -0.251     12.011   ;
    34      CG331      1    LIG    C25     34     -0.251     12.011   ;
    35       HGA2      1    LIG    HC2     35      0.090      1.008   ;
    36       HGA2      1    LIG    HC3     36      0.090      1.008   ;
    37       HGA1      1    LIG     HC     37      0.090      1.008   ;
    38       HGA2      1    LIG    HC4     38      0.090      1.008   ;
    39       HGA2      1    LIG    HC5     39      0.090      1.008   ;
    40       HGA2      1    LIG    HC6     40      0.090      1.008   ;
    41       HGA2      1    LIG    HC7     41      0.090      1.008   ;
    42       HGA3      1    LIG    HC1     42      0.090      1.008   ;
    43       HGA3      1    LIG    HC8     43      0.090      1.008   ;
    44       HGA3      1    LIG    HC9     44      0.090      1.008   ;
    45       HGA2      1    LIG   HC10     45      0.090      1.008   ;
    46       HGA2      1    LIG   HC11     46      0.090      1.008   ;
    47      HGR62      1    LIG   HC12     47      0.175      1.008   ;
    48      HGR62      1    LIG   HC13     48      0.179      1.008   ;
    49      HGR61      1    LIG   HC14     49      0.116      1.008   ;
    50      HGR61      1    LIG   HC15     50      0.116      1.008   ;
    51       HGA2      1    LIG   HC16     51      0.090      1.008   ;
    52       HGA2      1    LIG   HC17     52      0.090      1.008   ;
    53       HGA3      1    LIG   HC18     53      0.090      1.008   ;
    54       HGA3      1    LIG   HC19     54      0.090      1.008   ;
    55       HGA3      1    LIG   HC20     55      0.090      1.008   ;
    56       HGA2      1    LIG   HC21     56      0.090      1.008   ;
    57       HGA2      1    LIG   HC22     57      0.090      1.008   ;
    58      HGR61      1    LIG   HC23     58      0.116      1.008   ;
    59      HGR61      1    LIG   HC24     59      0.116      1.008   ;
    60      HGR61      1    LIG   HC25     60      0.116      1.008   ;
    61      HGR61      1    LIG   HC26     61      0.116      1.008   ;
    62       HGA1      1    LIG   HC27     62      0.090      1.008   ;
    63       HGA3      1    LIG   HC28     63      0.090      1.008   ;
    64       HGA3      1    LIG   HC29     64      0.090      1.008   ;
    65       HGA3      1    LIG   HC30     65      0.090      1.008   ;
    66       HGA3      1    LIG   HC31     66      0.090      1.008   ;
    67       HGA3      1    LIG   HC32     67      0.090      1.008   ;
    68       HGA3      1    LIG   HC33     68      0.090      1.008   ;

[ bonds ]
;	ai	  aj funct			  c0			c1			  c2			c3
    1     3	 1 ;       SG3O2      OG2P1
    1     2	 1 ;       SG3O2      OG2P1
    1    13	 1 ;       SG3O2     NG3C51
    1     4	 1 ;       SG3O2     NG3C51
    4    15	 1 ;      NG3C51     CG2R61
    4     5	 1 ;      NG3C51     CG3C50
    5    12	 1 ;      CG3C50     CG3C52
    5     6	 1 ;      CG3C50      CG321
    5    10	 1 ;      CG3C50      CG321
    6     7	 1 ;       CG321      CG314
    6    35	 1 ;       CG321       HGA2
    6    36	 1 ;       CG321       HGA2
    7    11	 1 ;       CG314      CG331
    7     8	 1 ;       CG314      NG3P1
    7    37	 1 ;       CG314       HGA1
    8     9	 1 ;       NG3P1      CG324
    8    14	 1 ;       NG3P1       HGP2
    8    24	 1 ;       NG3P1      CG324
    9    10	 1 ;       CG324      CG321
    9    38	 1 ;       CG324       HGA2
    9    39	 1 ;       CG324       HGA2
   10    40	 1 ;       CG321       HGA2
   10    41	 1 ;       CG321       HGA2
   11    42	 1 ;       CG331       HGA3
   11    43	 1 ;       CG331       HGA3
   11    44	 1 ;       CG331       HGA3
   12    13	 1 ;      CG3C52     NG3C51
   12    45	 1 ;      CG3C52       HGA2
   12    46	 1 ;      CG3C52       HGA2
   13    22	 1 ;      NG3C51      CG321
   15    16	 1 ;      CG2R61     CG2R61
   15    21	 1 ;      CG2R61     CG2R61
   16    17	 1 ;      CG2R61     CG2R66
   16    47	 1 ;      CG2R61      HGR62
   17    18	 1 ;      CG2R66       FGR1
   17    19	 1 ;      CG2R66     CG2R61
   19    20	 1 ;      CG2R61     CG2R61
   19    48	 1 ;      CG2R61      HGR62
   20    21	 1 ;      CG2R61     CG2R61
   20    49	 1 ;      CG2R61      HGR61
   21    50	 1 ;      CG2R61      HGR61
   22    23	 1 ;       CG321      CG331
   22    51	 1 ;       CG321       HGA2
   22    52	 1 ;       CG321       HGA2
   23    53	 1 ;       CG331       HGA3
   23    54	 1 ;       CG331       HGA3
   23    55	 1 ;       CG331       HGA3
   24    25	 1 ;       CG324     CG2R61
   24    56	 1 ;       CG324       HGA2
   24    57	 1 ;       CG324       HGA2
   25    26	 1 ;      CG2R61     CG2R61
   25    30	 1 ;      CG2R61     CG2R61
   26    27	 1 ;      CG2R61     CG2R61
   26    58	 1 ;      CG2R61      HGR61
   27    31	 1 ;      CG2R61      OG301
   27    28	 1 ;      CG2R61     CG2R61
   28    29	 1 ;      CG2R61     CG2R61
   28    59	 1 ;      CG2R61      HGR61
   29    30	 1 ;      CG2R61     CG2R61
   29    60	 1 ;      CG2R61      HGR61
   30    61	 1 ;      CG2R61      HGR61
   31    32	 1 ;       OG301      CG311
   32    34	 1 ;       CG311      CG331
   32    33	 1 ;       CG311      CG331
   32    62	 1 ;       CG311       HGA1
   33    63	 1 ;       CG331       HGA3
   33    64	 1 ;       CG331       HGA3
   33    65	 1 ;       CG331       HGA3
   34    66	 1 ;       CG331       HGA3
   34    67	 1 ;       CG331       HGA3
   34    68	 1 ;       CG331       HGA3

[ pairs ]
;	ai	  aj funct			  c0			c1			  c2			c3
    1    16	 1
    1    21	 1
    1     6	 1
    1    10	 1
    1    45	 1
    1    46	 1
    1    23	 1
    1    51	 1
    1    52	 1
    2    22	 1
    2    12	 1
    2    15	 1
    2     5	 1
    3    22	 1
    3    12	 1
    3    15	 1
    3     5	 1
    4    22	 1
    4    45	 1
    4    46	 1
    4     7	 1
    4    35	 1
    4    36	 1
    4     9	 1
    4    40	 1
    4    41	 1
    4    17	 1
    4    47	 1
    4    20	 1
    4    50	 1
    5    16	 1
    5    21	 1
    5    11	 1
    5     8	 1
    5    37	 1
    5    38	 1
    5    39	 1
    5    22	 1
    6    15	 1
    6    13	 1
    6    45	 1
    6    46	 1
    6     9	 1
    6    40	 1
    6    41	 1
    6    42	 1
    6    43	 1
    6    44	 1
    6    14	 1
    6    24	 1
    7    12	 1
    7    10	 1
    7    38	 1
    7    39	 1
    7    25	 1
    7    56	 1
    7    57	 1
    8    35	 1
    8    36	 1
    8    42	 1
    8    43	 1
    8    44	 1
    8    40	 1
    8    41	 1
    8    26	 1
    8    30	 1
    9    12	 1
    9    11	 1
    9    37	 1
    9    25	 1
    9    56	 1
    9    57	 1
   10    15	 1
   10    13	 1
   10    45	 1
   10    46	 1
   10    35	 1
   10    36	 1
   10    14	 1
   10    24	 1
   11    35	 1
   11    36	 1
   11    14	 1
   11    24	 1
   12    15	 1
   12    35	 1
   12    36	 1
   12    40	 1
   12    41	 1
   12    23	 1
   12    51	 1
   12    52	 1
   13    15	 1
   13    53	 1
   13    54	 1
   13    55	 1
   14    37	 1
   14    38	 1
   14    39	 1
   14    25	 1
   14    56	 1
   14    57	 1
   15    18	 1
   15    19	 1
   15    49	 1
   16    20	 1
   16    50	 1
   16    48	 1
   17    21	 1
   17    49	 1
   18    47	 1
   18    20	 1
   18    48	 1
   19    47	 1
   19    50	 1
   21    47	 1
   21    48	 1
   22    45	 1
   22    46	 1
   24    37	 1
   24    38	 1
   24    39	 1
   24    27	 1
   24    58	 1
   24    29	 1
   24    61	 1
   25    31	 1
   25    28	 1
   25    60	 1
   26    56	 1
   26    57	 1
   26    29	 1
   26    61	 1
   26    32	 1
   26    59	 1
   27    30	 1
   27    60	 1
   27    34	 1
   27    33	 1
   27    62	 1
   28    58	 1
   28    32	 1
   28    61	 1
   29    31	 1
   30    56	 1
   30    57	 1
   30    58	 1
   30    59	 1
   31    58	 1
   31    59	 1
   31    66	 1
   31    67	 1
   31    68	 1
   31    63	 1
   31    64	 1
   31    65	 1
   33    66	 1
   33    67	 1
   33    68	 1
   34    63	 1
   34    64	 1
   34    65	 1
   35    37	 1
   36    37	 1
   37    42	 1
   37    43	 1
   37    44	 1
   38    40	 1
   38    41	 1
   39    40	 1
   39    41	 1
   48    49	 1
   49    50	 1
   51    53	 1
   51    54	 1
   51    55	 1
   52    53	 1
   52    54	 1
   52    55	 1
   59    60	 1
   60    61	 1
   62    66	 1
   62    67	 1
   62    68	 1
   62    63	 1
   62    64	 1
   62    65	 1

[ angles ]
;	ai	  aj	ak funct			c0			  c1			c2			  c3
    3     1     2	5 ;      OG2P1      SG3O2      OG2P1
    3     1    13	5 ;      OG2P1      SG3O2     NG3C51
    3     1     4	5 ;      OG2P1      SG3O2     NG3C51
    2     1    13	5 ;      OG2P1      SG3O2     NG3C51
    2     1     4	5 ;      OG2P1      SG3O2     NG3C51
   13     1     4	5 ;     NG3C51      SG3O2     NG3C51
    1     4    15	5 ;      SG3O2     NG3C51     CG2R61
    1     4     5	5 ;      SG3O2     NG3C51     CG3C50
   15     4     5	5 ;     CG2R61     NG3C51     CG3C50
    4     5    12	5 ;     NG3C51     CG3C50     CG3C52
    4     5     6	5 ;     NG3C51     CG3C50      CG321
    4     5    10	5 ;     NG3C51     CG3C50      CG321
   12     5     6	5 ;     CG3C52     CG3C50      CG321
   12     5    10	5 ;     CG3C52     CG3C50      CG321
    6     5    10	5 ;      CG321     CG3C50      CG321
    5     6     7	5 ;     CG3C50      CG321      CG314
    5     6    35	5 ;     CG3C50      CG321       HGA2
    5     6    36	5 ;     CG3C50      CG321       HGA2
    7     6    35	5 ;      CG314      CG321       HGA2
    7     6    36	5 ;      CG314      CG321       HGA2
   35     6    36	5 ;       HGA2      CG321       HGA2
    6     7    11	5 ;      CG321      CG314      CG331
    6     7     8	5 ;      CG321      CG314      NG3P1
    6     7    37	5 ;      CG321      CG314       HGA1
   11     7     8	5 ;      CG331      CG314      NG3P1
   11     7    37	5 ;      CG331      CG314       HGA1
    8     7    37	5 ;      NG3P1      CG314       HGA1
    7     8     9	5 ;      CG314      NG3P1      CG324
    7     8    14	5 ;      CG314      NG3P1       HGP2
    7     8    24	5 ;      CG314      NG3P1      CG324
    9     8    14	5 ;      CG324      NG3P1       HGP2
    9     8    24	5 ;      CG324      NG3P1      CG324
   14     8    24	5 ;       HGP2      NG3P1      CG324
   10     9     8	5 ;      CG321      CG324      NG3P1
   10     9    38	5 ;      CG321      CG324       HGA2
   10     9    39	5 ;      CG321      CG324       HGA2
    8     9    38	5 ;      NG3P1      CG324       HGA2
    8     9    39	5 ;      NG3P1      CG324       HGA2
   38     9    39	5 ;       HGA2      CG324       HGA2
    5    10     9	5 ;     CG3C50      CG321      CG324
    5    10    40	5 ;     CG3C50      CG321       HGA2
    5    10    41	5 ;     CG3C50      CG321       HGA2
    9    10    40	5 ;      CG324      CG321       HGA2
    9    10    41	5 ;      CG324      CG321       HGA2
   40    10    41	5 ;       HGA2      CG321       HGA2
    7    11    42	5 ;      CG314      CG331       HGA3
    7    11    43	5 ;      CG314      CG331       HGA3
    7    11    44	5 ;      CG314      CG331       HGA3
   42    11    43	5 ;       HGA3      CG331       HGA3
   42    11    44	5 ;       HGA3      CG331       HGA3
   43    11    44	5 ;       HGA3      CG331       HGA3
   13    12     5	5 ;     NG3C51     CG3C52     CG3C50
   13    12    45	5 ;     NG3C51     CG3C52       HGA2
   13    12    46	5 ;     NG3C51     CG3C52       HGA2
    5    12    45	5 ;     CG3C50     CG3C52       HGA2
    5    12    46	5 ;     CG3C50     CG3C52       HGA2
   45    12    46	5 ;       HGA2     CG3C52       HGA2
    1    13    22	5 ;      SG3O2     NG3C51      CG321
    1    13    12	5 ;      SG3O2     NG3C51     CG3C52
   22    13    12	5 ;      CG321     NG3C51     CG3C52
    4    15    16	5 ;     NG3C51     CG2R61     CG2R61
    4    15    21	5 ;     NG3C51     CG2R61     CG2R61
   16    15    21	5 ;     CG2R61     CG2R61     CG2R61
   15    16    17	5 ;     CG2R61     CG2R61     CG2R66
   15    16    47	5 ;     CG2R61     CG2R61      HGR62
   17    16    47	5 ;     CG2R66     CG2R61      HGR62
   16    17    18	5 ;     CG2R61     CG2R66       FGR1
   16    17    19	5 ;     CG2R61     CG2R66     CG2R61
   18    17    19	5 ;       FGR1     CG2R66     CG2R61
   17    19    20	5 ;     CG2R66     CG2R61     CG2R61
   17    19    48	5 ;     CG2R66     CG2R61      HGR62
   20    19    48	5 ;     CG2R61     CG2R61      HGR62
   21    20    19	5 ;     CG2R61     CG2R61     CG2R61
   21    20    49	5 ;     CG2R61     CG2R61      HGR61
   19    20    49	5 ;     CG2R61     CG2R61      HGR61
   15    21    20	5 ;     CG2R61     CG2R61     CG2R61
   15    21    50	5 ;     CG2R61     CG2R61      HGR61
   20    21    50	5 ;     CG2R61     CG2R61      HGR61
   13    22    23	5 ;     NG3C51      CG321      CG331
   13    22    51	5 ;     NG3C51      CG321       HGA2
   13    22    52	5 ;     NG3C51      CG321       HGA2
   23    22    51	5 ;      CG331      CG321       HGA2
   23    22    52	5 ;      CG331      CG321       HGA2
   51    22    52	5 ;       HGA2      CG321       HGA2
   22    23    53	5 ;      CG321      CG331       HGA3
   22    23    54	5 ;      CG321      CG331       HGA3
   22    23    55	5 ;      CG321      CG331       HGA3
   53    23    54	5 ;       HGA3      CG331       HGA3
   53    23    55	5 ;       HGA3      CG331       HGA3
   54    23    55	5 ;       HGA3      CG331       HGA3
    8    24    25	5 ;      NG3P1      CG324     CG2R61
    8    24    56	5 ;      NG3P1      CG324       HGA2
    8    24    57	5 ;      NG3P1      CG324       HGA2
   25    24    56	5 ;     CG2R61      CG324       HGA2
   25    24    57	5 ;     CG2R61      CG324       HGA2
   56    24    57	5 ;       HGA2      CG324       HGA2
   24    25    26	5 ;      CG324     CG2R61     CG2R61
   24    25    30	5 ;      CG324     CG2R61     CG2R61
   26    25    30	5 ;     CG2R61     CG2R61     CG2R61
   25    26    27	5 ;     CG2R61     CG2R61     CG2R61
   25    26    58	5 ;     CG2R61     CG2R61      HGR61
   27    26    58	5 ;     CG2R61     CG2R61      HGR61
   26    27    31	5 ;     CG2R61     CG2R61      OG301
   26    27    28	5 ;     CG2R61     CG2R61     CG2R61
   31    27    28	5 ;      OG301     CG2R61     CG2R61
   27    28    29	5 ;     CG2R61     CG2R61     CG2R61
   27    28    59	5 ;     CG2R61     CG2R61      HGR61
   29    28    59	5 ;     CG2R61     CG2R61      HGR61
   30    29    28	5 ;     CG2R61     CG2R61     CG2R61
   30    29    60	5 ;     CG2R61     CG2R61      HGR61
   28    29    60	5 ;     CG2R61     CG2R61      HGR61
   25    30    29	5 ;     CG2R61     CG2R61     CG2R61
   25    30    61	5 ;     CG2R61     CG2R61      HGR61
   29    30    61	5 ;     CG2R61     CG2R61      HGR61
   27    31    32	5 ;     CG2R61      OG301      CG311
   31    32    34	5 ;      OG301      CG311      CG331
   31    32    33	5 ;      OG301      CG311      CG331
   31    32    62	5 ;      OG301      CG311       HGA1
   34    32    33	5 ;      CG331      CG311      CG331
   34    32    62	5 ;      CG331      CG311       HGA1
   33    32    62	5 ;      CG331      CG311       HGA1
   32    33    63	5 ;      CG311      CG331       HGA3
   32    33    64	5 ;      CG311      CG331       HGA3
   32    33    65	5 ;      CG311      CG331       HGA3
   63    33    64	5 ;       HGA3      CG331       HGA3
   63    33    65	5 ;       HGA3      CG331       HGA3
   64    33    65	5 ;       HGA3      CG331       HGA3
   32    34    66	5 ;      CG311      CG331       HGA3
   32    34    67	5 ;      CG311      CG331       HGA3
   32    34    68	5 ;      CG311      CG331       HGA3
   66    34    67	5 ;       HGA3      CG331       HGA3
   66    34    68	5 ;       HGA3      CG331       HGA3
   67    34    68	5 ;       HGA3      CG331       HGA3

[ dihedrals ]
;	ai	  aj	ak	  al funct			  c0			c1			  c2			c3			  c4			c5
    3     1    13    22	 9 ;      OG2P1      SG3O2     NG3C51      CG321
    3     1    13    12	 9 ;      OG2P1      SG3O2     NG3C51     CG3C52
    2     1    13    22	 9 ;      OG2P1      SG3O2     NG3C51      CG321
    2     1    13    12	 9 ;      OG2P1      SG3O2     NG3C51     CG3C52
    4     1    13    22	 9 ;     NG3C51      SG3O2     NG3C51      CG321
    4     1    13    12	 9 ;     NG3C51      SG3O2     NG3C51     CG3C52
    3     1     4    15	 9 ;      OG2P1      SG3O2     NG3C51     CG2R61
    3     1     4     5	 9 ;      OG2P1      SG3O2     NG3C51     CG3C50
    2     1     4    15	 9 ;      OG2P1      SG3O2     NG3C51     CG2R61
    2     1     4     5	 9 ;      OG2P1      SG3O2     NG3C51     CG3C50
   13     1     4    15	 9 ;     NG3C51      SG3O2     NG3C51     CG2R61
   13     1     4     5	 9 ;     NG3C51      SG3O2     NG3C51     CG3C50
    1     4    15    16	 9 ;      SG3O2     NG3C51     CG2R61     CG2R61
    1     4    15    21	 9 ;      SG3O2     NG3C51     CG2R61     CG2R61
    5     4    15    16	 9 ;     CG3C50     NG3C51     CG2R61     CG2R61
    5     4    15    21	 9 ;     CG3C50     NG3C51     CG2R61     CG2R61
    1     4     5    12	 9 ;      SG3O2     NG3C51     CG3C50     CG3C52
    1     4     5     6	 9 ;      SG3O2     NG3C51     CG3C50      CG321
    1     4     5    10	 9 ;      SG3O2     NG3C51     CG3C50      CG321
   15     4     5    12	 9 ;     CG2R61     NG3C51     CG3C50     CG3C52
   15     4     5     6	 9 ;     CG2R61     NG3C51     CG3C50      CG321
   15     4     5    10	 9 ;     CG2R61     NG3C51     CG3C50      CG321
    4     5    12    13	 9 ;     NG3C51     CG3C50     CG3C52     NG3C51
    4     5    12    45	 9 ;     NG3C51     CG3C50     CG3C52       HGA2
    4     5    12    46	 9 ;     NG3C51     CG3C50     CG3C52       HGA2
    6     5    12    13	 9 ;      CG321     CG3C50     CG3C52     NG3C51
    6     5    12    45	 9 ;      CG321     CG3C50     CG3C52       HGA2
    6     5    12    46	 9 ;      CG321     CG3C50     CG3C52       HGA2
   10     5    12    13	 9 ;      CG321     CG3C50     CG3C52     NG3C51
   10     5    12    45	 9 ;      CG321     CG3C50     CG3C52       HGA2
   10     5    12    46	 9 ;      CG321     CG3C50     CG3C52       HGA2
    4     5     6     7	 9 ;     NG3C51     CG3C50      CG321      CG314
    4     5     6    35	 9 ;     NG3C51     CG3C50      CG321       HGA2
    4     5     6    36	 9 ;     NG3C51     CG3C50      CG321       HGA2
   12     5     6     7	 9 ;     CG3C52     CG3C50      CG321      CG314
   12     5     6    35	 9 ;     CG3C52     CG3C50      CG321       HGA2
   12     5     6    36	 9 ;     CG3C52     CG3C50      CG321       HGA2
   10     5     6     7	 9 ;      CG321     CG3C50      CG321      CG314
   10     5     6    35	 9 ;      CG321     CG3C50      CG321       HGA2
   10     5     6    36	 9 ;      CG321     CG3C50      CG321       HGA2
    4     5    10     9	 9 ;     NG3C51     CG3C50      CG321      CG324
    4     5    10    40	 9 ;     NG3C51     CG3C50      CG321       HGA2
    4     5    10    41	 9 ;     NG3C51     CG3C50      CG321       HGA2
   12     5    10     9	 9 ;     CG3C52     CG3C50      CG321      CG324
   12     5    10    40	 9 ;     CG3C52     CG3C50      CG321       HGA2
   12     5    10    41	 9 ;     CG3C52     CG3C50      CG321       HGA2
    6     5    10     9	 9 ;      CG321     CG3C50      CG321      CG324
    6     5    10    40	 9 ;      CG321     CG3C50      CG321       HGA2
    6     5    10    41	 9 ;      CG321     CG3C50      CG321       HGA2
    5     6     7    11	 9 ;     CG3C50      CG321      CG314      CG331
    5     6     7     8	 9 ;     CG3C50      CG321      CG314      NG3P1
    5     6     7    37	 9 ;     CG3C50      CG321      CG314       HGA1
   35     6     7    11	 9 ;       HGA2      CG321      CG314      CG331
   35     6     7     8	 9 ;       HGA2      CG321      CG314      NG3P1
   35     6     7    37	 9 ;       HGA2      CG321      CG314       HGA1
   36     6     7    11	 9 ;       HGA2      CG321      CG314      CG331
   36     6     7     8	 9 ;       HGA2      CG321      CG314      NG3P1
   36     6     7    37	 9 ;       HGA2      CG321      CG314       HGA1
    6     7    11    42	 9 ;      CG321      CG314      CG331       HGA3
    6     7    11    43	 9 ;      CG321      CG314      CG331       HGA3
    6     7    11    44	 9 ;      CG321      CG314      CG331       HGA3
    8     7    11    42	 9 ;      NG3P1      CG314      CG331       HGA3
    8     7    11    43	 9 ;      NG3P1      CG314      CG331       HGA3
    8     7    11    44	 9 ;      NG3P1      CG314      CG331       HGA3
   37     7    11    42	 9 ;       HGA1      CG314      CG331       HGA3
   37     7    11    43	 9 ;       HGA1      CG314      CG331       HGA3
   37     7    11    44	 9 ;       HGA1      CG314      CG331       HGA3
    6     7     8     9	 9 ;      CG321      CG314      NG3P1      CG324
    6     7     8    14	 9 ;      CG321      CG314      NG3P1       HGP2
    6     7     8    24	 9 ;      CG321      CG314      NG3P1      CG324
   11     7     8     9	 9 ;      CG331      CG314      NG3P1      CG324
   11     7     8    14	 9 ;      CG331      CG314      NG3P1       HGP2
   11     7     8    24	 9 ;      CG331      CG314      NG3P1      CG324
   37     7     8     9	 9 ;       HGA1      CG314      NG3P1      CG324
   37     7     8    14	 9 ;       HGA1      CG314      NG3P1       HGP2
   37     7     8    24	 9 ;       HGA1      CG314      NG3P1      CG324
    7     8     9    10	 9 ;      CG314      NG3P1      CG324      CG321
    7     8     9    38	 9 ;      CG314      NG3P1      CG324       HGA2
    7     8     9    39	 9 ;      CG314      NG3P1      CG324       HGA2
   14     8     9    10	 9 ;       HGP2      NG3P1      CG324      CG321
   14     8     9    38	 9 ;       HGP2      NG3P1      CG324       HGA2
   14     8     9    39	 9 ;       HGP2      NG3P1      CG324       HGA2
   24     8     9    10	 9 ;      CG324      NG3P1      CG324      CG321
   24     8     9    38	 9 ;      CG324      NG3P1      CG324       HGA2
   24     8     9    39	 9 ;      CG324      NG3P1      CG324       HGA2
    7     8    24    25	 9 ;      CG314      NG3P1      CG324     CG2R61
    7     8    24    56	 9 ;      CG314      NG3P1      CG324       HGA2
    7     8    24    57	 9 ;      CG314      NG3P1      CG324       HGA2
    9     8    24    25	 9 ;      CG324      NG3P1      CG324     CG2R61
    9     8    24    56	 9 ;      CG324      NG3P1      CG324       HGA2
    9     8    24    57	 9 ;      CG324      NG3P1      CG324       HGA2
   14     8    24    25	 9 ;       HGP2      NG3P1      CG324     CG2R61
   14     8    24    56	 9 ;       HGP2      NG3P1      CG324       HGA2
   14     8    24    57	 9 ;       HGP2      NG3P1      CG324       HGA2
    8     9    10     5	 9 ;      NG3P1      CG324      CG321     CG3C50
    8     9    10    40	 9 ;      NG3P1      CG324      CG321       HGA2
    8     9    10    41	 9 ;      NG3P1      CG324      CG321       HGA2
   38     9    10     5	 9 ;       HGA2      CG324      CG321     CG3C50
   38     9    10    40	 9 ;       HGA2      CG324      CG321       HGA2
   38     9    10    41	 9 ;       HGA2      CG324      CG321       HGA2
   39     9    10     5	 9 ;       HGA2      CG324      CG321     CG3C50
   39     9    10    40	 9 ;       HGA2      CG324      CG321       HGA2
   39     9    10    41	 9 ;       HGA2      CG324      CG321       HGA2
    5    12    13     1	 9 ;     CG3C50     CG3C52     NG3C51      SG3O2
    5    12    13    22	 9 ;     CG3C50     CG3C52     NG3C51      CG321
   45    12    13     1	 9 ;       HGA2     CG3C52     NG3C51      SG3O2
   45    12    13    22	 9 ;       HGA2     CG3C52     NG3C51      CG321
   46    12    13     1	 9 ;       HGA2     CG3C52     NG3C51      SG3O2
   46    12    13    22	 9 ;       HGA2     CG3C52     NG3C51      CG321
    1    13    22    23	 9 ;      SG3O2     NG3C51      CG321      CG331
    1    13    22    51	 9 ;      SG3O2     NG3C51      CG321       HGA2
    1    13    22    52	 9 ;      SG3O2     NG3C51      CG321       HGA2
   12    13    22    23	 9 ;     CG3C52     NG3C51      CG321      CG331
   12    13    22    51	 9 ;     CG3C52     NG3C51      CG321       HGA2
   12    13    22    52	 9 ;     CG3C52     NG3C51      CG321       HGA2
    4    15    16    17	 9 ;     NG3C51     CG2R61     CG2R61     CG2R66
    4    15    16    47	 9 ;     NG3C51     CG2R61     CG2R61      HGR62
   21    15    16    17	 9 ;     CG2R61     CG2R61     CG2R61     CG2R66
   21    15    16    47	 9 ;     CG2R61     CG2R61     CG2R61      HGR62
    4    15    21    20	 9 ;     NG3C51     CG2R61     CG2R61     CG2R61
    4    15    21    50	 9 ;     NG3C51     CG2R61     CG2R61      HGR61
   16    15    21    20	 9 ;     CG2R61     CG2R61     CG2R61     CG2R61
   16    15    21    50	 9 ;     CG2R61     CG2R61     CG2R61      HGR61
   15    16    17    18	 9 ;     CG2R61     CG2R61     CG2R66       FGR1
   15    16    17    19	 9 ;     CG2R61     CG2R61     CG2R66     CG2R61
   47    16    17    18	 9 ;      HGR62     CG2R61     CG2R66       FGR1
   47    16    17    19	 9 ;      HGR62     CG2R61     CG2R66     CG2R61
   16    17    19    20	 9 ;     CG2R61     CG2R66     CG2R61     CG2R61
   16    17    19    48	 9 ;     CG2R61     CG2R66     CG2R61      HGR62
   18    17    19    20	 9 ;       FGR1     CG2R66     CG2R61     CG2R61
   18    17    19    48	 9 ;       FGR1     CG2R66     CG2R61      HGR62
   17    19    20    21	 9 ;     CG2R66     CG2R61     CG2R61     CG2R61
   17    19    20    49	 9 ;     CG2R66     CG2R61     CG2R61      HGR61
   48    19    20    21	 9 ;      HGR62     CG2R61     CG2R61     CG2R61
   48    19    20    49	 9 ;      HGR62     CG2R61     CG2R61      HGR61
   19    20    21    15	 9 ;     CG2R61     CG2R61     CG2R61     CG2R61
   19    20    21    50	 9 ;     CG2R61     CG2R61     CG2R61      HGR61
   49    20    21    15	 9 ;      HGR61     CG2R61     CG2R61     CG2R61
   49    20    21    50	 9 ;      HGR61     CG2R61     CG2R61      HGR61
   13    22    23    53	 9 ;     NG3C51      CG321      CG331       HGA3
   13    22    23    54	 9 ;     NG3C51      CG321      CG331       HGA3
   13    22    23    55	 9 ;     NG3C51      CG321      CG331       HGA3
   51    22    23    53	 9 ;       HGA2      CG321      CG331       HGA3
   51    22    23    54	 9 ;       HGA2      CG321      CG331       HGA3
   51    22    23    55	 9 ;       HGA2      CG321      CG331       HGA3
   52    22    23    53	 9 ;       HGA2      CG321      CG331       HGA3
   52    22    23    54	 9 ;       HGA2      CG321      CG331       HGA3
   52    22    23    55	 9 ;       HGA2      CG321      CG331       HGA3
    8    24    25    26	 9 ;      NG3P1      CG324     CG2R61     CG2R61
    8    24    25    30	 9 ;      NG3P1      CG324     CG2R61     CG2R61
   56    24    25    26	 9 ;       HGA2      CG324     CG2R61     CG2R61
   56    24    25    30	 9 ;       HGA2      CG324     CG2R61     CG2R61
   57    24    25    26	 9 ;       HGA2      CG324     CG2R61     CG2R61
   57    24    25    30	 9 ;       HGA2      CG324     CG2R61     CG2R61
   24    25    26    27	 9 ;      CG324     CG2R61     CG2R61     CG2R61
   24    25    26    58	 9 ;      CG324     CG2R61     CG2R61      HGR61
   30    25    26    27	 9 ;     CG2R61     CG2R61     CG2R61     CG2R61
   30    25    26    58	 9 ;     CG2R61     CG2R61     CG2R61      HGR61
   24    25    30    29	 9 ;      CG324     CG2R61     CG2R61     CG2R61
   24    25    30    61	 9 ;      CG324     CG2R61     CG2R61      HGR61
   26    25    30    29	 9 ;     CG2R61     CG2R61     CG2R61     CG2R61
   26    25    30    61	 9 ;     CG2R61     CG2R61     CG2R61      HGR61
   25    26    27    31	 9 ;     CG2R61     CG2R61     CG2R61      OG301
   25    26    27    28	 9 ;     CG2R61     CG2R61     CG2R61     CG2R61
   58    26    27    31	 9 ;      HGR61     CG2R61     CG2R61      OG301
   58    26    27    28	 9 ;      HGR61     CG2R61     CG2R61     CG2R61
   26    27    31    32	 9 ;     CG2R61     CG2R61      OG301      CG311
   28    27    31    32	 9 ;     CG2R61     CG2R61      OG301      CG311
   26    27    28    29	 9 ;     CG2R61     CG2R61     CG2R61     CG2R61
   26    27    28    59	 9 ;     CG2R61     CG2R61     CG2R61      HGR61
   31    27    28    29	 9 ;      OG301     CG2R61     CG2R61     CG2R61
   31    27    28    59	 9 ;      OG301     CG2R61     CG2R61      HGR61
   27    28    29    30	 9 ;     CG2R61     CG2R61     CG2R61     CG2R61
   27    28    29    60	 9 ;     CG2R61     CG2R61     CG2R61      HGR61
   59    28    29    30	 9 ;      HGR61     CG2R61     CG2R61     CG2R61
   59    28    29    60	 9 ;      HGR61     CG2R61     CG2R61      HGR61
   28    29    30    25	 9 ;     CG2R61     CG2R61     CG2R61     CG2R61
   28    29    30    61	 9 ;     CG2R61     CG2R61     CG2R61      HGR61
   60    29    30    25	 9 ;      HGR61     CG2R61     CG2R61     CG2R61
   60    29    30    61	 9 ;      HGR61     CG2R61     CG2R61      HGR61
   27    31    32    34	 9 ;     CG2R61      OG301      CG311      CG331
   27    31    32    33	 9 ;     CG2R61      OG301      CG311      CG331
   27    31    32    62	 9 ;     CG2R61      OG301      CG311       HGA1
   31    32    34    66	 9 ;      OG301      CG311      CG331       HGA3
   31    32    34    67	 9 ;      OG301      CG311      CG331       HGA3
   31    32    34    68	 9 ;      OG301      CG311      CG331       HGA3
   33    32    34    66	 9 ;      CG331      CG311      CG331       HGA3
   33    32    34    67	 9 ;      CG331      CG311      CG331       HGA3
   33    32    34    68	 9 ;      CG331      CG311      CG331       HGA3
   62    32    34    66	 9 ;       HGA1      CG311      CG331       HGA3
   62    32    34    67	 9 ;       HGA1      CG311      CG331       HGA3
   62    32    34    68	 9 ;       HGA1      CG311      CG331       HGA3
   31    32    33    63	 9 ;      OG301      CG311      CG331       HGA3
   31    32    33    64	 9 ;      OG301      CG311      CG331       HGA3
   31    32    33    65	 9 ;      OG301      CG311      CG331       HGA3
   34    32    33    63	 9 ;      CG331      CG311      CG331       HGA3
   34    32    33    64	 9 ;      CG331      CG311      CG331       HGA3
   34    32    33    65	 9 ;      CG331      CG311      CG331       HGA3
   62    32    33    63	 9 ;       HGA1      CG311      CG331       HGA3
   62    32    33    64	 9 ;       HGA1      CG311      CG331       HGA3
   62    32    33    65	 9 ;       HGA1      CG311      CG331       HGA3

