; Created by cgenff_charmm2gmx.py

[ moleculetype ]
; Name			   nrexcl
LIG				 3

[ atoms ]
;	 nr		  type	resnr residue  atom   cgnr	   charge		mass  typeB    chargeB		massB
; residue	 1 LIG rtp LIG q	qsum
     1     CG2DC1      1    LIG     C1      1      0.413     12.011   ;
     2      CG321      1    LIG     C2      2     -0.119     12.011   ;
     3     CG2R61      1    LIG     C3      3     -0.215     12.011   ;
     4     CG2R61      1    LIG     C4      4      0.144     12.011   ;
     5     NG2R61      1    LIG     N1      5     -0.321     14.007   ;
     6       HGP1      1    LIG     HN      6      0.337      1.008   ;
     7     CG2R64      1    LIG     C5      7     -0.036     12.011   ;
     8     CG2R61      1    LIG     C6      8     -0.229     12.011   ;
     9     CG2R61      1    LIG     C7      9     -0.039     12.011   ;
    10     CG2DC2      1    LIG     C8     10     -0.319     12.011   ;
    11     CG2DC1      1    LIG     C9     11     -0.173     12.011   ;
    12     CG2R51      1    LIG    C10     12     -0.215     12.011   ;
    13     CG2R51      1    LIG    C11     13     -0.332     12.011   ;
    14     SG2R50      1    LIG      S     14     -0.019     32.060   ;
    15     CG2R51      1    LIG    C12     15     -0.129     12.011   ;
    16     CG2R51      1    LIG    C13     16     -0.210     12.011   ;
    17      NG2S3      1    LIG     N2     17     -0.639     14.007   ;
    18       HGP4      1    LIG     H1     18      0.342      1.008   ;
    19       HGP4      1    LIG     H2     19      0.342      1.008   ;
    20       HGA2      1    LIG     H3     20      0.090      1.008   ;
    21       HGA2      1    LIG     H4     21      0.090      1.008   ;
    22      HGR61      1    LIG     H5     22      0.127      1.008   ;
    23      HGR61      1    LIG     H6     23      0.116      1.008   ;
    24       HGA4      1    LIG     H7     24      0.157      1.008   ;
    25       HGA4      1    LIG     H8     25      0.170      1.008   ;
    26      HGR52      1    LIG     H9     26      0.233      1.008   ;
    27      HGR52      1    LIG    H10     27      0.189      1.008   ;
    28      HGR51      1    LIG    H11     28      0.245      1.008   ;

[ bonds ]
;	ai	  aj funct			  c0			c1			  c2			c3
    1    12	 1 ;      CG2DC1     CG2R51
    1     2	 1 ;      CG2DC1      CG321
    1    11	 1 ;      CG2DC1     CG2DC1
    2     3	 1 ;       CG321     CG2R61
    2    20	 1 ;       CG321       HGA2
    2    21	 1 ;       CG321       HGA2
    3     9	 1 ;      CG2R61     CG2R61
    3     4	 1 ;      CG2R61     CG2R61
    4    10	 1 ;      CG2R61     CG2DC2
    4     5	 1 ;      CG2R61     NG2R61
    5     7	 1 ;      NG2R61     CG2R64
    5     6	 1 ;      NG2R61       HGP1
    7     8	 1 ;      CG2R64     CG2R61
    7    17	 1 ;      CG2R64      NG2S3
    8     9	 1 ;      CG2R61     CG2R61
    8    22	 1 ;      CG2R61      HGR61
    9    23	 1 ;      CG2R61      HGR61
   10    11	 1 ;      CG2DC2     CG2DC1
   10    24	 1 ;      CG2DC2       HGA4
   11    25	 1 ;      CG2DC1       HGA4
   12    16	 1 ;      CG2R51     CG2R51
   12    13	 1 ;      CG2R51     CG2R51
   13    14	 1 ;      CG2R51     SG2R50
   13    26	 1 ;      CG2R51      HGR52
   14    15	 1 ;      SG2R50     CG2R51
   15    16	 1 ;      CG2R51     CG2R51
   15    27	 1 ;      CG2R51      HGR52
   16    28	 1 ;      CG2R51      HGR51
   17    19	 1 ;       NG2S3       HGP4
   17    18	 1 ;       NG2S3       HGP4

[ pairs ]
;	ai	  aj funct			  c0			c1			  c2			c3
    1     9	 1
    1     4	 1
    1    24	 1
    1    15	 1
    1    28	 1
    1    14	 1
    1    26	 1
    2    16	 1
    2    13	 1
    2    10	 1
    2    25	 1
    2     8	 1
    2    23	 1
    2     5	 1
    3    12	 1
    3    11	 1
    3    24	 1
    3     7	 1
    3     6	 1
    3    22	 1
    4    20	 1
    4    21	 1
    4     8	 1
    4    23	 1
    4    17	 1
    4    25	 1
    5     9	 1
    5    11	 1
    5    24	 1
    5    22	 1
    5    19	 1
    5    18	 1
    6    10	 1
    6     8	 1
    6    17	 1
    7    10	 1
    7    23	 1
    8    19	 1
    8    18	 1
    9    20	 1
    9    21	 1
    9    10	 1
    9    17	 1
   10    12	 1
   11    16	 1
   11    13	 1
   11    20	 1
   11    21	 1
   12    20	 1
   12    21	 1
   12    25	 1
   12    27	 1
   13    28	 1
   13    27	 1
   14    28	 1
   15    26	 1
   16    26	 1
   17    22	 1
   22    23	 1
   24    25	 1
   27    28	 1

[ angles ]
;	ai	  aj	ak funct			c0			  c1			c2			  c3
   12     1     2	5 ;     CG2R51     CG2DC1      CG321
   12     1    11	5 ;     CG2R51     CG2DC1     CG2DC1
    2     1    11	5 ;      CG321     CG2DC1     CG2DC1
    1     2     3	5 ;     CG2DC1      CG321     CG2R61
    1     2    20	5 ;     CG2DC1      CG321       HGA2
    1     2    21	5 ;     CG2DC1      CG321       HGA2
    3     2    20	5 ;     CG2R61      CG321       HGA2
    3     2    21	5 ;     CG2R61      CG321       HGA2
   20     2    21	5 ;       HGA2      CG321       HGA2
    2     3     9	5 ;      CG321     CG2R61     CG2R61
    2     3     4	5 ;      CG321     CG2R61     CG2R61
    9     3     4	5 ;     CG2R61     CG2R61     CG2R61
    3     4    10	5 ;     CG2R61     CG2R61     CG2DC2
    3     4     5	5 ;     CG2R61     CG2R61     NG2R61
   10     4     5	5 ;     CG2DC2     CG2R61     NG2R61
    4     5     7	5 ;     CG2R61     NG2R61     CG2R64
    4     5     6	5 ;     CG2R61     NG2R61       HGP1
    7     5     6	5 ;     CG2R64     NG2R61       HGP1
    8     7     5	5 ;     CG2R61     CG2R64     NG2R61
    8     7    17	5 ;     CG2R61     CG2R64      NG2S3
    5     7    17	5 ;     NG2R61     CG2R64      NG2S3
    9     8     7	5 ;     CG2R61     CG2R61     CG2R64
    9     8    22	5 ;     CG2R61     CG2R61      HGR61
    7     8    22	5 ;     CG2R64     CG2R61      HGR61
    3     9     8	5 ;     CG2R61     CG2R61     CG2R61
    3     9    23	5 ;     CG2R61     CG2R61      HGR61
    8     9    23	5 ;     CG2R61     CG2R61      HGR61
   11    10     4	5 ;     CG2DC1     CG2DC2     CG2R61
   11    10    24	5 ;     CG2DC1     CG2DC2       HGA4
    4    10    24	5 ;     CG2R61     CG2DC2       HGA4
    1    11    10	5 ;     CG2DC1     CG2DC1     CG2DC2
    1    11    25	5 ;     CG2DC1     CG2DC1       HGA4
   10    11    25	5 ;     CG2DC2     CG2DC1       HGA4
   16    12     1	5 ;     CG2R51     CG2R51     CG2DC1
   16    12    13	5 ;     CG2R51     CG2R51     CG2R51
    1    12    13	5 ;     CG2DC1     CG2R51     CG2R51
   14    13    12	5 ;     SG2R50     CG2R51     CG2R51
   14    13    26	5 ;     SG2R50     CG2R51      HGR52
   12    13    26	5 ;     CG2R51     CG2R51      HGR52
   15    14    13	5 ;     CG2R51     SG2R50     CG2R51
   16    15    14	5 ;     CG2R51     CG2R51     SG2R50
   16    15    27	5 ;     CG2R51     CG2R51      HGR52
   14    15    27	5 ;     SG2R50     CG2R51      HGR52
   15    16    12	5 ;     CG2R51     CG2R51     CG2R51
   15    16    28	5 ;     CG2R51     CG2R51      HGR51
   12    16    28	5 ;     CG2R51     CG2R51      HGR51
   19    17     7	5 ;       HGP4      NG2S3     CG2R64
   19    17    18	5 ;       HGP4      NG2S3       HGP4
    7    17    18	5 ;     CG2R64      NG2S3       HGP4

[ dihedrals ]
;	ai	  aj	ak	  al funct			  c0			c1			  c2			c3			  c4			c5
    2     1    12    16	 9 ;      CG321     CG2DC1     CG2R51     CG2R51
    2     1    12    13	 9 ;      CG321     CG2DC1     CG2R51     CG2R51
   11     1    12    16	 9 ;     CG2DC1     CG2DC1     CG2R51     CG2R51
   11     1    12    13	 9 ;     CG2DC1     CG2DC1     CG2R51     CG2R51
   12     1     2     3	 9 ;     CG2R51     CG2DC1      CG321     CG2R61
   12     1     2    20	 9 ;     CG2R51     CG2DC1      CG321       HGA2
   12     1     2    21	 9 ;     CG2R51     CG2DC1      CG321       HGA2
   11     1     2     3	 9 ;     CG2DC1     CG2DC1      CG321     CG2R61
   11     1     2    20	 9 ;     CG2DC1     CG2DC1      CG321       HGA2
   11     1     2    21	 9 ;     CG2DC1     CG2DC1      CG321       HGA2
   12     1    11    10	 9 ;     CG2R51     CG2DC1     CG2DC1     CG2DC2
   12     1    11    25	 9 ;     CG2R51     CG2DC1     CG2DC1       HGA4
    2     1    11    10	 9 ;      CG321     CG2DC1     CG2DC1     CG2DC2
    2     1    11    25	 9 ;      CG321     CG2DC1     CG2DC1       HGA4
    1     2     3     9	 9 ;     CG2DC1      CG321     CG2R61     CG2R61
    1     2     3     4	 9 ;     CG2DC1      CG321     CG2R61     CG2R61
   20     2     3     9	 9 ;       HGA2      CG321     CG2R61     CG2R61
   20     2     3     4	 9 ;       HGA2      CG321     CG2R61     CG2R61
   21     2     3     9	 9 ;       HGA2      CG321     CG2R61     CG2R61
   21     2     3     4	 9 ;       HGA2      CG321     CG2R61     CG2R61
    2     3     9     8	 9 ;      CG321     CG2R61     CG2R61     CG2R61
    2     3     9    23	 9 ;      CG321     CG2R61     CG2R61      HGR61
    4     3     9     8	 9 ;     CG2R61     CG2R61     CG2R61     CG2R61
    4     3     9    23	 9 ;     CG2R61     CG2R61     CG2R61      HGR61
    2     3     4    10	 9 ;      CG321     CG2R61     CG2R61     CG2DC2
    2     3     4     5	 9 ;      CG321     CG2R61     CG2R61     NG2R61
    9     3     4    10	 9 ;     CG2R61     CG2R61     CG2R61     CG2DC2
    9     3     4     5	 9 ;     CG2R61     CG2R61     CG2R61     NG2R61
    3     4    10    11	 9 ;     CG2R61     CG2R61     CG2DC2     CG2DC1
    3     4    10    24	 9 ;     CG2R61     CG2R61     CG2DC2       HGA4
    5     4    10    11	 9 ;     NG2R61     CG2R61     CG2DC2     CG2DC1
    5     4    10    24	 9 ;     NG2R61     CG2R61     CG2DC2       HGA4
    3     4     5     7	 9 ;     CG2R61     CG2R61     NG2R61     CG2R64
    3     4     5     6	 9 ;     CG2R61     CG2R61     NG2R61       HGP1
   10     4     5     7	 9 ;     CG2DC2     CG2R61     NG2R61     CG2R64
   10     4     5     6	 9 ;     CG2DC2     CG2R61     NG2R61       HGP1
    4     5     7     8	 9 ;     CG2R61     NG2R61     CG2R64     CG2R61
    4     5     7    17	 9 ;     CG2R61     NG2R61     CG2R64      NG2S3
    6     5     7     8	 9 ;       HGP1     NG2R61     CG2R64     CG2R61
    6     5     7    17	 9 ;       HGP1     NG2R61     CG2R64      NG2S3
    5     7     8     9	 9 ;     NG2R61     CG2R64     CG2R61     CG2R61
    5     7     8    22	 9 ;     NG2R61     CG2R64     CG2R61      HGR61
   17     7     8     9	 9 ;      NG2S3     CG2R64     CG2R61     CG2R61
   17     7     8    22	 9 ;      NG2S3     CG2R64     CG2R61      HGR61
    8     7    17    19	 9 ;     CG2R61     CG2R64      NG2S3       HGP4
    8     7    17    18	 9 ;     CG2R61     CG2R64      NG2S3       HGP4
    5     7    17    19	 9 ;     NG2R61     CG2R64      NG2S3       HGP4
    5     7    17    18	 9 ;     NG2R61     CG2R64      NG2S3       HGP4
    7     8     9     3	 9 ;     CG2R64     CG2R61     CG2R61     CG2R61
    7     8     9    23	 9 ;     CG2R64     CG2R61     CG2R61      HGR61
   22     8     9     3	 9 ;      HGR61     CG2R61     CG2R61     CG2R61
   22     8     9    23	 9 ;      HGR61     CG2R61     CG2R61      HGR61
    4    10    11     1	 9 ;     CG2R61     CG2DC2     CG2DC1     CG2DC1
    4    10    11    25	 9 ;     CG2R61     CG2DC2     CG2DC1       HGA4
   24    10    11     1	 9 ;       HGA4     CG2DC2     CG2DC1     CG2DC1
   24    10    11    25	 9 ;       HGA4     CG2DC2     CG2DC1       HGA4
    1    12    16    15	 9 ;     CG2DC1     CG2R51     CG2R51     CG2R51
    1    12    16    28	 9 ;     CG2DC1     CG2R51     CG2R51      HGR51
   13    12    16    15	 9 ;     CG2R51     CG2R51     CG2R51     CG2R51
   13    12    16    28	 9 ;     CG2R51     CG2R51     CG2R51      HGR51
   16    12    13    14	 9 ;     CG2R51     CG2R51     CG2R51     SG2R50
   16    12    13    26	 9 ;     CG2R51     CG2R51     CG2R51      HGR52
    1    12    13    14	 9 ;     CG2DC1     CG2R51     CG2R51     SG2R50
    1    12    13    26	 9 ;     CG2DC1     CG2R51     CG2R51      HGR52
   12    13    14    15	 9 ;     CG2R51     CG2R51     SG2R50     CG2R51
   26    13    14    15	 9 ;      HGR52     CG2R51     SG2R50     CG2R51
   13    14    15    16	 9 ;     CG2R51     SG2R50     CG2R51     CG2R51
   13    14    15    27	 9 ;     CG2R51     SG2R50     CG2R51      HGR52
   14    15    16    12	 9 ;     SG2R50     CG2R51     CG2R51     CG2R51
   14    15    16    28	 9 ;     SG2R50     CG2R51     CG2R51      HGR51
   27    15    16    12	 9 ;      HGR52     CG2R51     CG2R51     CG2R51
   27    15    16    28	 9 ;      HGR52     CG2R51     CG2R51      HGR51

[ dihedrals ]
;	ai	  aj	ak	  al funct			  c0			c1			  c2			c3
   17    18    19     7	 2

