GROningen Mixture of Alchemy and Childrens' Stories
   28
    1LIG     C1    1  -1.244   0.425  -1.678
    1LIG     C2    2  -1.290   0.293  -1.694
    1LIG     C3    3  -1.207   0.183  -1.666
    1LIG     C4    4  -1.074   0.203  -1.622
    1LIG     N1    5  -0.992   0.101  -1.593
    1LIG     HN    6  -0.896   0.118  -1.562
    1LIG     C5    7  -1.038  -0.025  -1.606
    1LIG     C6    8  -1.167  -0.054  -1.648
    1LIG     C7    9  -1.252   0.052  -1.680
    1LIG     C8   10  -1.030   0.334  -1.608
    1LIG     C9   11  -1.112   0.444  -1.634
    1LIG    C10   12  -1.334   0.538  -1.702
    1LIG    C11   13  -1.470   0.531  -1.678
    1LIG      S   14  -1.551   0.677  -1.715
    1LIG    C12   15  -1.406   0.752  -1.765
    1LIG    C13   16  -1.298   0.667  -1.753
    1LIG     N2   17  -0.951  -0.127  -1.568
    1LIG     H1   18  -0.857  -0.091  -1.579
    1LIG     H2   19  -0.967  -0.211  -1.623
    1LIG     H3   20  -1.319   0.284  -1.796
    1LIG     H4   21  -1.365   0.285  -1.618
    1LIG     H5   22  -1.199  -0.151  -1.656
    1LIG     H6   23  -1.348   0.033  -1.713
    1LIG     H7   24  -0.932   0.350  -1.577
    1LIG     H8   25  -1.076   0.539  -1.622
    1LIG     H9   26  -1.517   0.448  -1.640
    1LIG    H10   27  -1.400   0.849  -1.800
    1LIG    H11   28  -1.202   0.694  -1.778
   0.00000   0.00000   0.00000
