; Created by cgenff_charmm2gmx.py

[ moleculetype ]
; Name			   nrexcl
LIG				 3

[ atoms ]
;	 nr		  type	resnr residue  atom   cgnr	   charge		mass  typeB    chargeB		massB
; residue	 1 LIG rtp LIG q	qsum
     1      OG2D1      1    LIG      O      1     -0.317     15.999   ;
     2     CG2R53      1    LIG     C1      2     -0.408     12.011   ;
     3     NG2R53      1    LIG     N1      3     -0.199     14.007   ;
     4     CG3C53      1    LIG     C2      4      0.827     12.011   ;
     5      NG3P2      1    LIG     N2      5     -0.588     14.007   ;
     6       HGP2      1    LIG     HN      6      0.336      1.008   ;
     7     CG3C50      1    LIG     C3      7      1.379     12.011   ;
     8     CG2R61      1    LIG     C4      8     -0.215     12.011   ;
     9     CG2R61      1    LIG     C5      9     -0.131     12.011   ;
    10     CG2R61      1    LIG     C6     10     -0.105     12.011   ;
    11     CG2R61      1    LIG     C7     11     -0.116     12.011   ;
    12     CG2R61      1    LIG     C8     12     -0.105     12.011   ;
    13     CG2R61      1    LIG     C9     13     -0.131     12.011   ;
    14      CG311      1    LIG    C10     14     -0.044     12.011   ;
    15      CG321      1    LIG    C11     15     -0.129     12.011   ;
    16      CG321      1    LIG    C12     16     -0.241     12.011   ;
    17      CG321      1    LIG    C13     17     -0.154     12.011   ;
    18      CG321      1    LIG    C14     18     -0.241     12.011   ;
    19      CG321      1    LIG    C15     19     -0.129     12.011   ;
    20      NG3P3      1    LIG     N3     20     -0.267     14.007   ;
    21       HGP2      1    LIG     H1     21      0.301      1.008   ;
    22       HGP2      1    LIG     H2     22      0.301      1.008   ;
    23      CG321      1    LIG    C16     23     -0.084     12.011   ;
    24     CG2R61      1    LIG    C17     24      0.006     12.011   ;
    25     CG2R61      1    LIG    C18     25     -0.123     12.011   ;
    26     CG2R61      1    LIG    C19     26     -0.112     12.011   ;
    27     CG2R61      1    LIG    C20     27     -0.116     12.011   ;
    28     CG2R61      1    LIG    C21     28     -0.112     12.011   ;
    29     CG2R61      1    LIG    C22     29     -0.123     12.011   ;
    30       HGA1      1    LIG     HC     30      0.073      1.008   ;
    31       HGP2      1    LIG    HN2     31      0.336      1.008   ;
    32      HGR61      1    LIG    HC1     32      0.116      1.008   ;
    33      HGR61      1    LIG    HC2     33      0.116      1.008   ;
    34      HGR61      1    LIG    HC3     34      0.116      1.008   ;
    35      HGR61      1    LIG    HC4     35      0.116      1.008   ;
    36      HGR61      1    LIG    HC5     36      0.116      1.008   ;
    37       HGA1      1    LIG    HC6     37      0.090      1.008   ;
    38       HGA2      1    LIG    HC7     38      0.090      1.008   ;
    39       HGA2      1    LIG    HC8     39      0.090      1.008   ;
    40       HGA2      1    LIG    HC9     40      0.090      1.008   ;
    41       HGA2      1    LIG   HC10     41      0.090      1.008   ;
    42       HGA2      1    LIG   HC11     42      0.090      1.008   ;
    43       HGA2      1    LIG   HC12     43      0.090      1.008   ;
    44       HGA2      1    LIG   HC13     44      0.090      1.008   ;
    45       HGA2      1    LIG   HC14     45      0.090      1.008   ;
    46       HGA2      1    LIG   HC15     46      0.090      1.008   ;
    47       HGA2      1    LIG   HC16     47      0.090      1.008   ;
    48       HGP2      1    LIG    HN1     48      0.301      1.008   ;
    49       HGA2      1    LIG   HC17     49      0.090      1.008   ;
    50       HGA2      1    LIG   HC18     50      0.090      1.008   ;
    51      HGR61      1    LIG   HC19     51      0.116      1.008   ;
    52      HGR61      1    LIG   HC20     52      0.116      1.008   ;
    53      HGR61      1    LIG   HC21     53      0.116      1.008   ;
    54      HGR61      1    LIG   HC22     54      0.116      1.008   ;
    55      HGR61      1    LIG   HC23     55      0.116      1.008   ;

[ bonds ]
;	ai	  aj funct			  c0			c1			  c2			c3
    1     2	 1 ;       OG2D1     CG2R53
    2     3	 1 ;      CG2R53     NG2R53
    2     7	 1 ;      CG2R53     CG3C50
    3    23	 1 ;      NG2R53      CG321
    3     4	 1 ;      NG2R53     CG3C53
    4    20	 1 ;      CG3C53      NG3P3
    4     5	 1 ;      CG3C53      NG3P2
    4    30	 1 ;      CG3C53       HGA1
    5     7	 1 ;       NG3P2     CG3C50
    5     6	 1 ;       NG3P2       HGP2
    5    31	 1 ;       NG3P2       HGP2
    7    14	 1 ;      CG3C50      CG311
    7     8	 1 ;      CG3C50     CG2R61
    8     9	 1 ;      CG2R61     CG2R61
    8    13	 1 ;      CG2R61     CG2R61
    9    10	 1 ;      CG2R61     CG2R61
    9    32	 1 ;      CG2R61      HGR61
   10    11	 1 ;      CG2R61     CG2R61
   10    33	 1 ;      CG2R61      HGR61
   11    12	 1 ;      CG2R61     CG2R61
   11    34	 1 ;      CG2R61      HGR61
   12    13	 1 ;      CG2R61     CG2R61
   12    35	 1 ;      CG2R61      HGR61
   13    36	 1 ;      CG2R61      HGR61
   14    19	 1 ;       CG311      CG321
   14    15	 1 ;       CG311      CG321
   14    37	 1 ;       CG311       HGA1
   15    16	 1 ;       CG321      CG321
   15    38	 1 ;       CG321       HGA2
   15    39	 1 ;       CG321       HGA2
   16    17	 1 ;       CG321      CG321
   16    40	 1 ;       CG321       HGA2
   16    41	 1 ;       CG321       HGA2
   17    18	 1 ;       CG321      CG321
   17    42	 1 ;       CG321       HGA2
   17    43	 1 ;       CG321       HGA2
   18    19	 1 ;       CG321      CG321
   18    44	 1 ;       CG321       HGA2
   18    45	 1 ;       CG321       HGA2
   19    46	 1 ;       CG321       HGA2
   19    47	 1 ;       CG321       HGA2
   20    22	 1 ;       NG3P3       HGP2
   20    21	 1 ;       NG3P3       HGP2
   20    48	 1 ;       NG3P3       HGP2
   23    24	 1 ;       CG321     CG2R61
   23    49	 1 ;       CG321       HGA2
   23    50	 1 ;       CG321       HGA2
   24    25	 1 ;      CG2R61     CG2R61
   24    29	 1 ;      CG2R61     CG2R61
   25    26	 1 ;      CG2R61     CG2R61
   25    51	 1 ;      CG2R61      HGR61
   26    27	 1 ;      CG2R61     CG2R61
   26    52	 1 ;      CG2R61      HGR61
   27    28	 1 ;      CG2R61     CG2R61
   27    53	 1 ;      CG2R61      HGR61
   28    29	 1 ;      CG2R61     CG2R61
   28    54	 1 ;      CG2R61      HGR61
   29    55	 1 ;      CG2R61      HGR61

[ pairs ]
;	ai	  aj funct			  c0			c1			  c2			c3
    1    23	 1
    1     4	 1
    1    14	 1
    1     5	 1
    1     8	 1
    2    24	 1
    2    49	 1
    2    50	 1
    2    20	 1
    2    30	 1
    2     6	 1
    2    31	 1
    2    19	 1
    2    15	 1
    2    37	 1
    2     9	 1
    2    13	 1
    3    14	 1
    3     8	 1
    3    22	 1
    3    21	 1
    3    48	 1
    3     6	 1
    3    31	 1
    3    25	 1
    3    29	 1
    4    24	 1
    4    49	 1
    4    50	 1
    4    14	 1
    4     8	 1
    5    23	 1
    5    22	 1
    5    21	 1
    5    48	 1
    5    19	 1
    5    15	 1
    5    37	 1
    5     9	 1
    5    13	 1
    6    20	 1
    6    30	 1
    6    14	 1
    6     8	 1
    7    23	 1
    7    20	 1
    7    30	 1
    7    10	 1
    7    32	 1
    7    12	 1
    7    36	 1
    7    18	 1
    7    46	 1
    7    47	 1
    7    16	 1
    7    38	 1
    7    39	 1
    8    31	 1
    8    19	 1
    8    15	 1
    8    37	 1
    8    11	 1
    8    33	 1
    8    35	 1
    9    14	 1
    9    12	 1
    9    36	 1
    9    34	 1
   10    13	 1
   10    35	 1
   11    32	 1
   11    36	 1
   12    33	 1
   13    14	 1
   13    32	 1
   13    34	 1
   14    31	 1
   14    17	 1
   14    40	 1
   14    41	 1
   14    44	 1
   14    45	 1
   15    18	 1
   15    46	 1
   15    47	 1
   15    42	 1
   15    43	 1
   16    19	 1
   16    37	 1
   16    44	 1
   16    45	 1
   17    38	 1
   17    39	 1
   17    46	 1
   17    47	 1
   18    37	 1
   18    40	 1
   18    41	 1
   19    38	 1
   19    39	 1
   19    42	 1
   19    43	 1
   20    23	 1
   20    31	 1
   21    30	 1
   22    30	 1
   23    30	 1
   23    26	 1
   23    51	 1
   23    28	 1
   23    55	 1
   24    27	 1
   24    52	 1
   24    54	 1
   25    49	 1
   25    50	 1
   25    28	 1
   25    55	 1
   25    53	 1
   26    29	 1
   26    54	 1
   27    51	 1
   27    55	 1
   28    52	 1
   29    49	 1
   29    50	 1
   29    51	 1
   29    53	 1
   30    48	 1
   30    31	 1
   32    33	 1
   33    34	 1
   34    35	 1
   35    36	 1
   37    46	 1
   37    47	 1
   37    38	 1
   37    39	 1
   38    40	 1
   38    41	 1
   39    40	 1
   39    41	 1
   40    42	 1
   40    43	 1
   41    42	 1
   41    43	 1
   42    44	 1
   42    45	 1
   43    44	 1
   43    45	 1
   44    46	 1
   44    47	 1
   45    46	 1
   45    47	 1
   51    52	 1
   52    53	 1
   53    54	 1
   54    55	 1

[ angles ]
;	ai	  aj	ak funct			c0			  c1			c2			  c3
    1     2     3	5 ;      OG2D1     CG2R53     NG2R53
    1     2     7	5 ;      OG2D1     CG2R53     CG3C50
    3     2     7	5 ;     NG2R53     CG2R53     CG3C50
   23     3     2	5 ;      CG321     NG2R53     CG2R53
   23     3     4	5 ;      CG321     NG2R53     CG3C53
    2     3     4	5 ;     CG2R53     NG2R53     CG3C53
    3     4    20	5 ;     NG2R53     CG3C53      NG3P3
    3     4     5	5 ;     NG2R53     CG3C53      NG3P2
    3     4    30	5 ;     NG2R53     CG3C53       HGA1
   20     4     5	5 ;      NG3P3     CG3C53      NG3P2
   20     4    30	5 ;      NG3P3     CG3C53       HGA1
    5     4    30	5 ;      NG3P2     CG3C53       HGA1
    4     5     7	5 ;     CG3C53      NG3P2     CG3C50
    4     5     6	5 ;     CG3C53      NG3P2       HGP2
    4     5    31	5 ;     CG3C53      NG3P2       HGP2
    7     5     6	5 ;     CG3C50      NG3P2       HGP2
    7     5    31	5 ;     CG3C50      NG3P2       HGP2
    6     5    31	5 ;       HGP2      NG3P2       HGP2
    2     7    14	5 ;     CG2R53     CG3C50      CG311
    2     7     5	5 ;     CG2R53     CG3C50      NG3P2
    2     7     8	5 ;     CG2R53     CG3C50     CG2R61
   14     7     5	5 ;      CG311     CG3C50      NG3P2
   14     7     8	5 ;      CG311     CG3C50     CG2R61
    5     7     8	5 ;      NG3P2     CG3C50     CG2R61
    7     8     9	5 ;     CG3C50     CG2R61     CG2R61
    7     8    13	5 ;     CG3C50     CG2R61     CG2R61
    9     8    13	5 ;     CG2R61     CG2R61     CG2R61
    8     9    10	5 ;     CG2R61     CG2R61     CG2R61
    8     9    32	5 ;     CG2R61     CG2R61      HGR61
   10     9    32	5 ;     CG2R61     CG2R61      HGR61
    9    10    11	5 ;     CG2R61     CG2R61     CG2R61
    9    10    33	5 ;     CG2R61     CG2R61      HGR61
   11    10    33	5 ;     CG2R61     CG2R61      HGR61
   10    11    12	5 ;     CG2R61     CG2R61     CG2R61
   10    11    34	5 ;     CG2R61     CG2R61      HGR61
   12    11    34	5 ;     CG2R61     CG2R61      HGR61
   13    12    11	5 ;     CG2R61     CG2R61     CG2R61
   13    12    35	5 ;     CG2R61     CG2R61      HGR61
   11    12    35	5 ;     CG2R61     CG2R61      HGR61
    8    13    12	5 ;     CG2R61     CG2R61     CG2R61
    8    13    36	5 ;     CG2R61     CG2R61      HGR61
   12    13    36	5 ;     CG2R61     CG2R61      HGR61
   19    14     7	5 ;      CG321      CG311     CG3C50
   19    14    15	5 ;      CG321      CG311      CG321
   19    14    37	5 ;      CG321      CG311       HGA1
    7    14    15	5 ;     CG3C50      CG311      CG321
    7    14    37	5 ;     CG3C50      CG311       HGA1
   15    14    37	5 ;      CG321      CG311       HGA1
   14    15    16	5 ;      CG311      CG321      CG321
   14    15    38	5 ;      CG311      CG321       HGA2
   14    15    39	5 ;      CG311      CG321       HGA2
   16    15    38	5 ;      CG321      CG321       HGA2
   16    15    39	5 ;      CG321      CG321       HGA2
   38    15    39	5 ;       HGA2      CG321       HGA2
   17    16    15	5 ;      CG321      CG321      CG321
   17    16    40	5 ;      CG321      CG321       HGA2
   17    16    41	5 ;      CG321      CG321       HGA2
   15    16    40	5 ;      CG321      CG321       HGA2
   15    16    41	5 ;      CG321      CG321       HGA2
   40    16    41	5 ;       HGA2      CG321       HGA2
   18    17    16	5 ;      CG321      CG321      CG321
   18    17    42	5 ;      CG321      CG321       HGA2
   18    17    43	5 ;      CG321      CG321       HGA2
   16    17    42	5 ;      CG321      CG321       HGA2
   16    17    43	5 ;      CG321      CG321       HGA2
   42    17    43	5 ;       HGA2      CG321       HGA2
   19    18    17	5 ;      CG321      CG321      CG321
   19    18    44	5 ;      CG321      CG321       HGA2
   19    18    45	5 ;      CG321      CG321       HGA2
   17    18    44	5 ;      CG321      CG321       HGA2
   17    18    45	5 ;      CG321      CG321       HGA2
   44    18    45	5 ;       HGA2      CG321       HGA2
   18    19    14	5 ;      CG321      CG321      CG311
   18    19    46	5 ;      CG321      CG321       HGA2
   18    19    47	5 ;      CG321      CG321       HGA2
   14    19    46	5 ;      CG311      CG321       HGA2
   14    19    47	5 ;      CG311      CG321       HGA2
   46    19    47	5 ;       HGA2      CG321       HGA2
   22    20     4	5 ;       HGP2      NG3P3     CG3C53
   22    20    21	5 ;       HGP2      NG3P3       HGP2
   22    20    48	5 ;       HGP2      NG3P3       HGP2
    4    20    21	5 ;     CG3C53      NG3P3       HGP2
    4    20    48	5 ;     CG3C53      NG3P3       HGP2
   21    20    48	5 ;       HGP2      NG3P3       HGP2
   24    23     3	5 ;     CG2R61      CG321     NG2R53
   24    23    49	5 ;     CG2R61      CG321       HGA2
   24    23    50	5 ;     CG2R61      CG321       HGA2
    3    23    49	5 ;     NG2R53      CG321       HGA2
    3    23    50	5 ;     NG2R53      CG321       HGA2
   49    23    50	5 ;       HGA2      CG321       HGA2
   25    24    23	5 ;     CG2R61     CG2R61      CG321
   25    24    29	5 ;     CG2R61     CG2R61     CG2R61
   23    24    29	5 ;      CG321     CG2R61     CG2R61
   26    25    24	5 ;     CG2R61     CG2R61     CG2R61
   26    25    51	5 ;     CG2R61     CG2R61      HGR61
   24    25    51	5 ;     CG2R61     CG2R61      HGR61
   25    26    27	5 ;     CG2R61     CG2R61     CG2R61
   25    26    52	5 ;     CG2R61     CG2R61      HGR61
   27    26    52	5 ;     CG2R61     CG2R61      HGR61
   26    27    28	5 ;     CG2R61     CG2R61     CG2R61
   26    27    53	5 ;     CG2R61     CG2R61      HGR61
   28    27    53	5 ;     CG2R61     CG2R61      HGR61
   27    28    29	5 ;     CG2R61     CG2R61     CG2R61
   27    28    54	5 ;     CG2R61     CG2R61      HGR61
   29    28    54	5 ;     CG2R61     CG2R61      HGR61
   24    29    28	5 ;     CG2R61     CG2R61     CG2R61
   24    29    55	5 ;     CG2R61     CG2R61      HGR61
   28    29    55	5 ;     CG2R61     CG2R61      HGR61

[ dihedrals ]
;	ai	  aj	ak	  al funct			  c0			c1			  c2			c3			  c4			c5
    1     2     3    23	 9 ;      OG2D1     CG2R53     NG2R53      CG321
    1     2     3     4	 9 ;      OG2D1     CG2R53     NG2R53     CG3C53
    7     2     3    23	 9 ;     CG3C50     CG2R53     NG2R53      CG321
    7     2     3     4	 9 ;     CG3C50     CG2R53     NG2R53     CG3C53
    1     2     7    14	 9 ;      OG2D1     CG2R53     CG3C50      CG311
    1     2     7     5	 9 ;      OG2D1     CG2R53     CG3C50      NG3P2
    1     2     7     8	 9 ;      OG2D1     CG2R53     CG3C50     CG2R61
    3     2     7    14	 9 ;     NG2R53     CG2R53     CG3C50      CG311
    3     2     7     5	 9 ;     NG2R53     CG2R53     CG3C50      NG3P2
    3     2     7     8	 9 ;     NG2R53     CG2R53     CG3C50     CG2R61
    2     3    23    24	 9 ;     CG2R53     NG2R53      CG321     CG2R61
    2     3    23    49	 9 ;     CG2R53     NG2R53      CG321       HGA2
    2     3    23    50	 9 ;     CG2R53     NG2R53      CG321       HGA2
    4     3    23    24	 9 ;     CG3C53     NG2R53      CG321     CG2R61
    4     3    23    49	 9 ;     CG3C53     NG2R53      CG321       HGA2
    4     3    23    50	 9 ;     CG3C53     NG2R53      CG321       HGA2
   23     3     4    20	 9 ;      CG321     NG2R53     CG3C53      NG3P3
   23     3     4     5	 9 ;      CG321     NG2R53     CG3C53      NG3P2
   23     3     4    30	 9 ;      CG321     NG2R53     CG3C53       HGA1
    2     3     4    20	 9 ;     CG2R53     NG2R53     CG3C53      NG3P3
    2     3     4     5	 9 ;     CG2R53     NG2R53     CG3C53      NG3P2
    2     3     4    30	 9 ;     CG2R53     NG2R53     CG3C53       HGA1
    3     4    20    22	 9 ;     NG2R53     CG3C53      NG3P3       HGP2
    3     4    20    21	 9 ;     NG2R53     CG3C53      NG3P3       HGP2
    3     4    20    48	 9 ;     NG2R53     CG3C53      NG3P3       HGP2
    5     4    20    22	 9 ;      NG3P2     CG3C53      NG3P3       HGP2
    5     4    20    21	 9 ;      NG3P2     CG3C53      NG3P3       HGP2
    5     4    20    48	 9 ;      NG3P2     CG3C53      NG3P3       HGP2
   30     4    20    22	 9 ;       HGA1     CG3C53      NG3P3       HGP2
   30     4    20    21	 9 ;       HGA1     CG3C53      NG3P3       HGP2
   30     4    20    48	 9 ;       HGA1     CG3C53      NG3P3       HGP2
    3     4     5     7	 9 ;     NG2R53     CG3C53      NG3P2     CG3C50
    3     4     5     6	 9 ;     NG2R53     CG3C53      NG3P2       HGP2
    3     4     5    31	 9 ;     NG2R53     CG3C53      NG3P2       HGP2
   20     4     5     7	 9 ;      NG3P3     CG3C53      NG3P2     CG3C50
   20     4     5     6	 9 ;      NG3P3     CG3C53      NG3P2       HGP2
   20     4     5    31	 9 ;      NG3P3     CG3C53      NG3P2       HGP2
   30     4     5     7	 9 ;       HGA1     CG3C53      NG3P2     CG3C50
   30     4     5     6	 9 ;       HGA1     CG3C53      NG3P2       HGP2
   30     4     5    31	 9 ;       HGA1     CG3C53      NG3P2       HGP2
    4     5     7     2	 9 ;     CG3C53      NG3P2     CG3C50     CG2R53
    4     5     7    14	 9 ;     CG3C53      NG3P2     CG3C50      CG311
    4     5     7     8	 9 ;     CG3C53      NG3P2     CG3C50     CG2R61
    6     5     7     2	 9 ;       HGP2      NG3P2     CG3C50     CG2R53
    6     5     7    14	 9 ;       HGP2      NG3P2     CG3C50      CG311
    6     5     7     8	 9 ;       HGP2      NG3P2     CG3C50     CG2R61
   31     5     7     2	 9 ;       HGP2      NG3P2     CG3C50     CG2R53
   31     5     7    14	 9 ;       HGP2      NG3P2     CG3C50      CG311
   31     5     7     8	 9 ;       HGP2      NG3P2     CG3C50     CG2R61
    2     7    14    19	 9 ;     CG2R53     CG3C50      CG311      CG321
    2     7    14    15	 9 ;     CG2R53     CG3C50      CG311      CG321
    2     7    14    37	 9 ;     CG2R53     CG3C50      CG311       HGA1
    5     7    14    19	 9 ;      NG3P2     CG3C50      CG311      CG321
    5     7    14    15	 9 ;      NG3P2     CG3C50      CG311      CG321
    5     7    14    37	 9 ;      NG3P2     CG3C50      CG311       HGA1
    8     7    14    19	 9 ;     CG2R61     CG3C50      CG311      CG321
    8     7    14    15	 9 ;     CG2R61     CG3C50      CG311      CG321
    8     7    14    37	 9 ;     CG2R61     CG3C50      CG311       HGA1
    2     7     8     9	 9 ;     CG2R53     CG3C50     CG2R61     CG2R61
    2     7     8    13	 9 ;     CG2R53     CG3C50     CG2R61     CG2R61
   14     7     8     9	 9 ;      CG311     CG3C50     CG2R61     CG2R61
   14     7     8    13	 9 ;      CG311     CG3C50     CG2R61     CG2R61
    5     7     8     9	 9 ;      NG3P2     CG3C50     CG2R61     CG2R61
    5     7     8    13	 9 ;      NG3P2     CG3C50     CG2R61     CG2R61
    7     8     9    10	 9 ;     CG3C50     CG2R61     CG2R61     CG2R61
    7     8     9    32	 9 ;     CG3C50     CG2R61     CG2R61      HGR61
   13     8     9    10	 9 ;     CG2R61     CG2R61     CG2R61     CG2R61
   13     8     9    32	 9 ;     CG2R61     CG2R61     CG2R61      HGR61
    7     8    13    12	 9 ;     CG3C50     CG2R61     CG2R61     CG2R61
    7     8    13    36	 9 ;     CG3C50     CG2R61     CG2R61      HGR61
    9     8    13    12	 9 ;     CG2R61     CG2R61     CG2R61     CG2R61
    9     8    13    36	 9 ;     CG2R61     CG2R61     CG2R61      HGR61
    8     9    10    11	 9 ;     CG2R61     CG2R61     CG2R61     CG2R61
    8     9    10    33	 9 ;     CG2R61     CG2R61     CG2R61      HGR61
   32     9    10    11	 9 ;      HGR61     CG2R61     CG2R61     CG2R61
   32     9    10    33	 9 ;      HGR61     CG2R61     CG2R61      HGR61
    9    10    11    12	 9 ;     CG2R61     CG2R61     CG2R61     CG2R61
    9    10    11    34	 9 ;     CG2R61     CG2R61     CG2R61      HGR61
   33    10    11    12	 9 ;      HGR61     CG2R61     CG2R61     CG2R61
   33    10    11    34	 9 ;      HGR61     CG2R61     CG2R61      HGR61
   10    11    12    13	 9 ;     CG2R61     CG2R61     CG2R61     CG2R61
   10    11    12    35	 9 ;     CG2R61     CG2R61     CG2R61      HGR61
   34    11    12    13	 9 ;      HGR61     CG2R61     CG2R61     CG2R61
   34    11    12    35	 9 ;      HGR61     CG2R61     CG2R61      HGR61
   11    12    13     8	 9 ;     CG2R61     CG2R61     CG2R61     CG2R61
   11    12    13    36	 9 ;     CG2R61     CG2R61     CG2R61      HGR61
   35    12    13     8	 9 ;      HGR61     CG2R61     CG2R61     CG2R61
   35    12    13    36	 9 ;      HGR61     CG2R61     CG2R61      HGR61
    7    14    19    18	 9 ;     CG3C50      CG311      CG321      CG321
    7    14    19    46	 9 ;     CG3C50      CG311      CG321       HGA2
    7    14    19    47	 9 ;     CG3C50      CG311      CG321       HGA2
   15    14    19    18	 9 ;      CG321      CG311      CG321      CG321
   15    14    19    46	 9 ;      CG321      CG311      CG321       HGA2
   15    14    19    47	 9 ;      CG321      CG311      CG321       HGA2
   37    14    19    18	 9 ;       HGA1      CG311      CG321      CG321
   37    14    19    46	 9 ;       HGA1      CG311      CG321       HGA2
   37    14    19    47	 9 ;       HGA1      CG311      CG321       HGA2
   19    14    15    16	 9 ;      CG321      CG311      CG321      CG321
   19    14    15    38	 9 ;      CG321      CG311      CG321       HGA2
   19    14    15    39	 9 ;      CG321      CG311      CG321       HGA2
    7    14    15    16	 9 ;     CG3C50      CG311      CG321      CG321
    7    14    15    38	 9 ;     CG3C50      CG311      CG321       HGA2
    7    14    15    39	 9 ;     CG3C50      CG311      CG321       HGA2
   37    14    15    16	 9 ;       HGA1      CG311      CG321      CG321
   37    14    15    38	 9 ;       HGA1      CG311      CG321       HGA2
   37    14    15    39	 9 ;       HGA1      CG311      CG321       HGA2
   14    15    16    17	 9 ;      CG311      CG321      CG321      CG321
   14    15    16    40	 9 ;      CG311      CG321      CG321       HGA2
   14    15    16    41	 9 ;      CG311      CG321      CG321       HGA2
   38    15    16    17	 9 ;       HGA2      CG321      CG321      CG321
   38    15    16    40	 9 ;       HGA2      CG321      CG321       HGA2
   38    15    16    41	 9 ;       HGA2      CG321      CG321       HGA2
   39    15    16    17	 9 ;       HGA2      CG321      CG321      CG321
   39    15    16    40	 9 ;       HGA2      CG321      CG321       HGA2
   39    15    16    41	 9 ;       HGA2      CG321      CG321       HGA2
   15    16    17    18	 9 ;      CG321      CG321      CG321      CG321
   15    16    17    42	 9 ;      CG321      CG321      CG321       HGA2
   15    16    17    43	 9 ;      CG321      CG321      CG321       HGA2
   40    16    17    18	 9 ;       HGA2      CG321      CG321      CG321
   40    16    17    42	 9 ;       HGA2      CG321      CG321       HGA2
   40    16    17    43	 9 ;       HGA2      CG321      CG321       HGA2
   41    16    17    18	 9 ;       HGA2      CG321      CG321      CG321
   41    16    17    42	 9 ;       HGA2      CG321      CG321       HGA2
   41    16    17    43	 9 ;       HGA2      CG321      CG321       HGA2
   16    17    18    19	 9 ;      CG321      CG321      CG321      CG321
   16    17    18    44	 9 ;      CG321      CG321      CG321       HGA2
   16    17    18    45	 9 ;      CG321      CG321      CG321       HGA2
   42    17    18    19	 9 ;       HGA2      CG321      CG321      CG321
   42    17    18    44	 9 ;       HGA2      CG321      CG321       HGA2
   42    17    18    45	 9 ;       HGA2      CG321      CG321       HGA2
   43    17    18    19	 9 ;       HGA2      CG321      CG321      CG321
   43    17    18    44	 9 ;       HGA2      CG321      CG321       HGA2
   43    17    18    45	 9 ;       HGA2      CG321      CG321       HGA2
   17    18    19    14	 9 ;      CG321      CG321      CG321      CG311
   17    18    19    46	 9 ;      CG321      CG321      CG321       HGA2
   17    18    19    47	 9 ;      CG321      CG321      CG321       HGA2
   44    18    19    14	 9 ;       HGA2      CG321      CG321      CG311
   44    18    19    46	 9 ;       HGA2      CG321      CG321       HGA2
   44    18    19    47	 9 ;       HGA2      CG321      CG321       HGA2
   45    18    19    14	 9 ;       HGA2      CG321      CG321      CG311
   45    18    19    46	 9 ;       HGA2      CG321      CG321       HGA2
   45    18    19    47	 9 ;       HGA2      CG321      CG321       HGA2
    3    23    24    25	 9 ;     NG2R53      CG321     CG2R61     CG2R61
    3    23    24    29	 9 ;     NG2R53      CG321     CG2R61     CG2R61
   49    23    24    25	 9 ;       HGA2      CG321     CG2R61     CG2R61
   49    23    24    29	 9 ;       HGA2      CG321     CG2R61     CG2R61
   50    23    24    25	 9 ;       HGA2      CG321     CG2R61     CG2R61
   50    23    24    29	 9 ;       HGA2      CG321     CG2R61     CG2R61
   23    24    25    26	 9 ;      CG321     CG2R61     CG2R61     CG2R61
   23    24    25    51	 9 ;      CG321     CG2R61     CG2R61      HGR61
   29    24    25    26	 9 ;     CG2R61     CG2R61     CG2R61     CG2R61
   29    24    25    51	 9 ;     CG2R61     CG2R61     CG2R61      HGR61
   25    24    29    28	 9 ;     CG2R61     CG2R61     CG2R61     CG2R61
   25    24    29    55	 9 ;     CG2R61     CG2R61     CG2R61      HGR61
   23    24    29    28	 9 ;      CG321     CG2R61     CG2R61     CG2R61
   23    24    29    55	 9 ;      CG321     CG2R61     CG2R61      HGR61
   24    25    26    27	 9 ;     CG2R61     CG2R61     CG2R61     CG2R61
   24    25    26    52	 9 ;     CG2R61     CG2R61     CG2R61      HGR61
   51    25    26    27	 9 ;      HGR61     CG2R61     CG2R61     CG2R61
   51    25    26    52	 9 ;      HGR61     CG2R61     CG2R61      HGR61
   25    26    27    28	 9 ;     CG2R61     CG2R61     CG2R61     CG2R61
   25    26    27    53	 9 ;     CG2R61     CG2R61     CG2R61      HGR61
   52    26    27    28	 9 ;      HGR61     CG2R61     CG2R61     CG2R61
   52    26    27    53	 9 ;      HGR61     CG2R61     CG2R61      HGR61
   26    27    28    29	 9 ;     CG2R61     CG2R61     CG2R61     CG2R61
   26    27    28    54	 9 ;     CG2R61     CG2R61     CG2R61      HGR61
   53    27    28    29	 9 ;      HGR61     CG2R61     CG2R61     CG2R61
   53    27    28    54	 9 ;      HGR61     CG2R61     CG2R61      HGR61
   27    28    29    24	 9 ;     CG2R61     CG2R61     CG2R61     CG2R61
   27    28    29    55	 9 ;     CG2R61     CG2R61     CG2R61      HGR61
   54    28    29    24	 9 ;      HGR61     CG2R61     CG2R61     CG2R61
   54    28    29    55	 9 ;      HGR61     CG2R61     CG2R61      HGR61

[ dihedrals ]
;	ai	  aj	ak	  al funct			  c0			c1			  c2			c3
    2     7     3     1	 2

