Grunge ROck MAChoS
   55
    1LIG      O    1  -1.168   0.401  -1.711
    1LIG     C1    2  -1.177   0.421  -1.590
    1LIG     N1    3  -1.143   0.535  -1.523
    1LIG     C2    4  -1.158   0.512  -1.391
    1LIG     N2    5  -1.208   0.399  -1.357
    1LIG     HN    6  -1.225   0.366  -1.262
    1LIG     C3    7  -1.235   0.325  -1.485
    1LIG     C4    8  -1.385   0.310  -1.515
    1LIG     C5    9  -1.432   0.223  -1.615
    1LIG     C6   10  -1.569   0.201  -1.632
    1LIG     C7   11  -1.661   0.264  -1.549
    1LIG     C8   12  -1.617   0.352  -1.450
    1LIG     C9   13  -1.480   0.375  -1.433
    1LIG    C10   14  -1.158   0.188  -1.478
    1LIG    C11   15  -1.127   0.148  -1.332
    1LIG    C12   16  -1.048   0.018  -1.322
    1LIG    C13   17  -0.919   0.024  -1.402
    1LIG    C14   18  -0.947   0.060  -1.548
    1LIG    C15   19  -1.026   0.190  -1.560
    1LIG     N3   20  -1.119   0.603  -1.298
    1LIG     H1   21  -1.115   0.561  -1.206
    1LIG     H2   22  -1.033   0.652  -1.321
    1LIG    C16   23  -1.117   0.661  -1.589
    1LIG    C17   24  -1.241   0.738  -1.627
    1LIG    C18   25  -1.276   0.757  -1.762
    1LIG    C19   26  -1.393   0.822  -1.797
    1LIG    C20   27  -1.480   0.868  -1.698
    1LIG    C21   28  -1.447   0.850  -1.564
    1LIG    C22   29  -1.329   0.785  -1.528
    1LIG     HC   30  -1.257   0.557  -1.394
    1LIG    HN2   31  -1.301   0.438  -1.360
    1LIG    HC1   32  -1.362   0.174  -1.679
    1LIG    HC2   33  -1.603   0.133  -1.709
    1LIG    HC3   34  -1.767   0.246  -1.562
    1LIG    HC4   35  -1.689   0.402  -1.387
    1LIG    HC5   36  -1.447   0.443  -1.357
    1LIG    HC6   37  -1.222   0.112  -1.521
    1LIG    HC7   38  -1.221   0.137  -1.278
    1LIG    HC8   39  -1.069   0.228  -1.285
    1LIG    HC9   40  -1.024  -0.001  -1.217
    1LIG   HC10   41  -1.110  -0.064  -1.360
    1LIG   HC11   42  -0.870  -0.073  -1.398
    1LIG   HC12   43  -0.854   0.100  -1.359
    1LIG   HC13   44  -0.852   0.071  -1.600
    1LIG   HC14   45  -1.004  -0.021  -1.594
    1LIG   HC15   46  -1.051   0.206  -1.665
    1LIG   HC16   47  -0.964   0.273  -1.525
    1LIG    HN1   48  -1.191   0.673  -1.295
    1LIG   HC17   49  -1.060   0.641  -1.680
    1LIG   HC18   50  -1.057   0.723  -1.523
    1LIG   HC19   51  -1.210   0.720  -1.839
    1LIG   HC20   52  -1.418   0.836  -1.901
    1LIG   HC21   53  -1.571   0.919  -1.725
    1LIG   HC22   54  -1.514   0.886  -1.487
    1LIG   HC23   55  -1.304   0.771  -1.424
   0.00000   0.00000   0.00000
