; Created by cgenff_charmm2gmx.py

[ moleculetype ]
; Name			   nrexcl
LIG				 3

[ atoms ]
;	 nr		  type	resnr residue  atom   cgnr	   charge		mass  typeB    chargeB		massB
; residue	 1 LIG rtp LIG q	qsum
     1      OG2D1      1    LIG     O1      1     -0.394     15.999   ;
     2     CG2R53      1    LIG     C1      2      0.118     12.011   ;
     3     NG2R53      1    LIG     N1      3     -0.318     14.007   ;
     4     CG3C51      1    LIG     C2      4      0.347     12.011   ;
     5     NG3C51      1    LIG     N2      5     -0.729     14.007   ;
     6       HGP1      1    LIG     HN      6      0.231      1.008   ;
     7     CG3C50      1    LIG     C3      7      0.772     12.011   ;
     8      NG321      1    LIG     N3      8     -0.877     14.007   ;
     9     HGPAM2      1    LIG     H1      9      0.349      1.008   ;
    10     HGPAM2      1    LIG     H2     10      0.349      1.008   ;
    11     CG2R61      1    LIG     C4     11     -0.009     12.011   ;
    12     CG2R61      1    LIG     C5     12     -0.182     12.011   ;
    13     CG2R61      1    LIG     C6     13     -0.105     12.011   ;
    14     CG2R61      1    LIG     C7     14     -0.116     12.011   ;
    15     CG2R61      1    LIG     C8     15     -0.105     12.011   ;
    16     CG2R61      1    LIG     C9     16     -0.182     12.011   ;
    17      CG311      1    LIG    C10     17     -0.043     12.011   ;
    18      CG321      1    LIG    C11     18     -0.131     12.011   ;
    19      CG321      1    LIG    C12     19     -0.241     12.011   ;
    20      CG321      1    LIG    C13     20     -0.154     12.011   ;
    21      CG321      1    LIG    C14     21     -0.241     12.011   ;
    22      CG321      1    LIG    C15     22     -0.131     12.011   ;
    23      CG321      1    LIG    C16     23     -0.053     12.011   ;
    24      CG321      1    LIG    C17     24     -0.207     12.011   ;
    25      CG321      1    LIG    C18     25     -0.168     12.011   ;
    26      CG321      1    LIG    C19     26     -0.180     12.011   ;
    27      CG321      1    LIG    C20     27     -0.282     12.011   ;
    28      CG2O3      1    LIG    C21     28      0.622     12.011   ;
    29      OG2D2      1    LIG     O2     29     -0.760     15.999   ;
    30      OG2D2      1    LIG     O3     30     -0.760     15.999   ;
    31      HGR61      1    LIG     HC     31      0.116      1.008   ;
    32      HGR61      1    LIG    HC1     32      0.116      1.008   ;
    33      HGR61      1    LIG    HC2     33      0.116      1.008   ;
    34      HGR61      1    LIG    HC3     34      0.116      1.008   ;
    35      HGR61      1    LIG    HC4     35      0.116      1.008   ;
    36       HGA1      1    LIG    HC5     36      0.090      1.008   ;
    37       HGA2      1    LIG    HC6     37      0.090      1.008   ;
    38       HGA2      1    LIG    HC7     38      0.090      1.008   ;
    39       HGA2      1    LIG    HC8     39      0.090      1.008   ;
    40       HGA2      1    LIG    HC9     40      0.090      1.008   ;
    41       HGA2      1    LIG   HC10     41      0.090      1.008   ;
    42       HGA2      1    LIG   HC11     42      0.090      1.008   ;
    43       HGA2      1    LIG   HC12     43      0.090      1.008   ;
    44       HGA2      1    LIG   HC13     44      0.090      1.008   ;
    45       HGA2      1    LIG   HC14     45      0.090      1.008   ;
    46       HGA2      1    LIG   HC15     46      0.090      1.008   ;
    47       HGA2      1    LIG   HC16     47      0.090      1.008   ;
    48       HGA2      1    LIG   HC17     48      0.090      1.008   ;
    49       HGA2      1    LIG   HC18     49      0.090      1.008   ;
    50       HGA2      1    LIG   HC19     50      0.090      1.008   ;
    51       HGA2      1    LIG   HC20     51      0.090      1.008   ;
    52       HGA2      1    LIG   HC21     52      0.090      1.008   ;
    53       HGA2      1    LIG   HC22     53      0.090      1.008   ;
    54       HGA2      1    LIG   HC23     54      0.090      1.008   ;
    55       HGA2      1    LIG   HC24     55      0.090      1.008   ;
    56       HGA2      1    LIG   HC25     56      0.090      1.008   ;
    57       HGA1      1    LIG    H30     57      0.110      1.008   ;

[ bonds ]
;	ai	  aj funct			  c0			c1			  c2			c3
    1     2	 1 ;       OG2D1     CG2R53
    2     3	 1 ;      CG2R53     NG2R53
    2     7	 1 ;      CG2R53     CG3C50
    3    23	 1 ;      NG2R53      CG321
    3     4	 1 ;      NG2R53     CG3C51
    4     8	 1 ;      CG3C51      NG321
    4     5	 1 ;      CG3C51     NG3C51
    4    57	 1 ;      CG3C51       HGA1
    5     7	 1 ;      NG3C51     CG3C50
    5     6	 1 ;      NG3C51       HGP1
    7    17	 1 ;      CG3C50      CG311
    7    11	 1 ;      CG3C50     CG2R61
    8    10	 1 ;       NG321     HGPAM2
    8     9	 1 ;       NG321     HGPAM2
   11    12	 1 ;      CG2R61     CG2R61
   11    16	 1 ;      CG2R61     CG2R61
   12    13	 1 ;      CG2R61     CG2R61
   12    31	 1 ;      CG2R61      HGR61
   13    14	 1 ;      CG2R61     CG2R61
   13    32	 1 ;      CG2R61      HGR61
   14    15	 1 ;      CG2R61     CG2R61
   14    33	 1 ;      CG2R61      HGR61
   15    16	 1 ;      CG2R61     CG2R61
   15    34	 1 ;      CG2R61      HGR61
   16    35	 1 ;      CG2R61      HGR61
   17    22	 1 ;       CG311      CG321
   17    18	 1 ;       CG311      CG321
   17    36	 1 ;       CG311       HGA1
   18    19	 1 ;       CG321      CG321
   18    37	 1 ;       CG321       HGA2
   18    38	 1 ;       CG321       HGA2
   19    20	 1 ;       CG321      CG321
   19    39	 1 ;       CG321       HGA2
   19    40	 1 ;       CG321       HGA2
   20    21	 1 ;       CG321      CG321
   20    41	 1 ;       CG321       HGA2
   20    42	 1 ;       CG321       HGA2
   21    22	 1 ;       CG321      CG321
   21    43	 1 ;       CG321       HGA2
   21    44	 1 ;       CG321       HGA2
   22    45	 1 ;       CG321       HGA2
   22    46	 1 ;       CG321       HGA2
   23    24	 1 ;       CG321      CG321
   23    47	 1 ;       CG321       HGA2
   23    48	 1 ;       CG321       HGA2
   24    25	 1 ;       CG321      CG321
   24    49	 1 ;       CG321       HGA2
   24    50	 1 ;       CG321       HGA2
   25    26	 1 ;       CG321      CG321
   25    51	 1 ;       CG321       HGA2
   25    52	 1 ;       CG321       HGA2
   26    27	 1 ;       CG321      CG321
   26    53	 1 ;       CG321       HGA2
   26    54	 1 ;       CG321       HGA2
   27    28	 1 ;       CG321      CG2O3
   27    55	 1 ;       CG321       HGA2
   27    56	 1 ;       CG321       HGA2
   28    29	 1 ;       CG2O3      OG2D2
   28    30	 1 ;       CG2O3      OG2D2

[ pairs ]
;	ai	  aj funct			  c0			c1			  c2			c3
    1    23	 1
    1     4	 1
    1    17	 1
    1     5	 1
    1    11	 1
    2    24	 1
    2    47	 1
    2    48	 1
    2     8	 1
    2    57	 1
    2     6	 1
    2    22	 1
    2    18	 1
    2    36	 1
    2    12	 1
    2    16	 1
    3    17	 1
    3    11	 1
    3    10	 1
    3     9	 1
    3     6	 1
    3    25	 1
    3    49	 1
    3    50	 1
    4    24	 1
    4    47	 1
    4    48	 1
    4    17	 1
    4    11	 1
    5    23	 1
    5    10	 1
    5     9	 1
    5    22	 1
    5    18	 1
    5    36	 1
    5    12	 1
    5    16	 1
    6     8	 1
    6    57	 1
    6    17	 1
    6    11	 1
    7    23	 1
    7     8	 1
    7    57	 1
    7    13	 1
    7    31	 1
    7    15	 1
    7    35	 1
    7    21	 1
    7    45	 1
    7    46	 1
    7    19	 1
    7    37	 1
    7    38	 1
    8    23	 1
    9    57	 1
   10    57	 1
   11    22	 1
   11    18	 1
   11    36	 1
   11    14	 1
   11    32	 1
   11    34	 1
   12    17	 1
   12    15	 1
   12    35	 1
   12    33	 1
   13    16	 1
   13    34	 1
   14    31	 1
   14    35	 1
   15    32	 1
   16    17	 1
   16    31	 1
   16    33	 1
   17    20	 1
   17    39	 1
   17    40	 1
   17    43	 1
   17    44	 1
   18    21	 1
   18    45	 1
   18    46	 1
   18    41	 1
   18    42	 1
   19    22	 1
   19    36	 1
   19    43	 1
   19    44	 1
   20    37	 1
   20    38	 1
   20    45	 1
   20    46	 1
   21    36	 1
   21    39	 1
   21    40	 1
   22    37	 1
   22    38	 1
   22    41	 1
   22    42	 1
   23    57	 1
   23    26	 1
   23    51	 1
   23    52	 1
   24    27	 1
   24    53	 1
   24    54	 1
   25    47	 1
   25    48	 1
   25    28	 1
   25    55	 1
   25    56	 1
   26    49	 1
   26    50	 1
   26    29	 1
   26    30	 1
   27    51	 1
   27    52	 1
   28    53	 1
   28    54	 1
   29    55	 1
   29    56	 1
   30    55	 1
   30    56	 1
   31    32	 1
   32    33	 1
   33    34	 1
   34    35	 1
   36    45	 1
   36    46	 1
   36    37	 1
   36    38	 1
   37    39	 1
   37    40	 1
   38    39	 1
   38    40	 1
   39    41	 1
   39    42	 1
   40    41	 1
   40    42	 1
   41    43	 1
   41    44	 1
   42    43	 1
   42    44	 1
   43    45	 1
   43    46	 1
   44    45	 1
   44    46	 1
   47    49	 1
   47    50	 1
   48    49	 1
   48    50	 1
   49    51	 1
   49    52	 1
   50    51	 1
   50    52	 1
   51    53	 1
   51    54	 1
   52    53	 1
   52    54	 1
   53    55	 1
   53    56	 1
   54    55	 1
   54    56	 1

[ angles ]
;	ai	  aj	ak funct			c0			  c1			c2			  c3
    1     2     3	5 ;      OG2D1     CG2R53     NG2R53
    1     2     7	5 ;      OG2D1     CG2R53     CG3C50
    3     2     7	5 ;     NG2R53     CG2R53     CG3C50
   23     3     2	5 ;      CG321     NG2R53     CG2R53
   23     3     4	5 ;      CG321     NG2R53     CG3C51
    2     3     4	5 ;     CG2R53     NG2R53     CG3C51
    3     4     8	5 ;     NG2R53     CG3C51      NG321
    3     4     5	5 ;     NG2R53     CG3C51     NG3C51
    3     4    57	5 ;     NG2R53     CG3C51       HGA1
    8     4     5	5 ;      NG321     CG3C51     NG3C51
    8     4    57	5 ;      NG321     CG3C51       HGA1
    5     4    57	5 ;     NG3C51     CG3C51       HGA1
    4     5     7	5 ;     CG3C51     NG3C51     CG3C50
    4     5     6	5 ;     CG3C51     NG3C51       HGP1
    7     5     6	5 ;     CG3C50     NG3C51       HGP1
    2     7    17	5 ;     CG2R53     CG3C50      CG311
    2     7     5	5 ;     CG2R53     CG3C50     NG3C51
    2     7    11	5 ;     CG2R53     CG3C50     CG2R61
   17     7     5	5 ;      CG311     CG3C50     NG3C51
   17     7    11	5 ;      CG311     CG3C50     CG2R61
    5     7    11	5 ;     NG3C51     CG3C50     CG2R61
   10     8     4	5 ;     HGPAM2      NG321     CG3C51
   10     8     9	5 ;     HGPAM2      NG321     HGPAM2
    4     8     9	5 ;     CG3C51      NG321     HGPAM2
    7    11    12	5 ;     CG3C50     CG2R61     CG2R61
    7    11    16	5 ;     CG3C50     CG2R61     CG2R61
   12    11    16	5 ;     CG2R61     CG2R61     CG2R61
   11    12    13	5 ;     CG2R61     CG2R61     CG2R61
   11    12    31	5 ;     CG2R61     CG2R61      HGR61
   13    12    31	5 ;     CG2R61     CG2R61      HGR61
   12    13    14	5 ;     CG2R61     CG2R61     CG2R61
   12    13    32	5 ;     CG2R61     CG2R61      HGR61
   14    13    32	5 ;     CG2R61     CG2R61      HGR61
   13    14    15	5 ;     CG2R61     CG2R61     CG2R61
   13    14    33	5 ;     CG2R61     CG2R61      HGR61
   15    14    33	5 ;     CG2R61     CG2R61      HGR61
   16    15    14	5 ;     CG2R61     CG2R61     CG2R61
   16    15    34	5 ;     CG2R61     CG2R61      HGR61
   14    15    34	5 ;     CG2R61     CG2R61      HGR61
   11    16    15	5 ;     CG2R61     CG2R61     CG2R61
   11    16    35	5 ;     CG2R61     CG2R61      HGR61
   15    16    35	5 ;     CG2R61     CG2R61      HGR61
   22    17     7	5 ;      CG321      CG311     CG3C50
   22    17    18	5 ;      CG321      CG311      CG321
   22    17    36	5 ;      CG321      CG311       HGA1
    7    17    18	5 ;     CG3C50      CG311      CG321
    7    17    36	5 ;     CG3C50      CG311       HGA1
   18    17    36	5 ;      CG321      CG311       HGA1
   17    18    19	5 ;      CG311      CG321      CG321
   17    18    37	5 ;      CG311      CG321       HGA2
   17    18    38	5 ;      CG311      CG321       HGA2
   19    18    37	5 ;      CG321      CG321       HGA2
   19    18    38	5 ;      CG321      CG321       HGA2
   37    18    38	5 ;       HGA2      CG321       HGA2
   20    19    18	5 ;      CG321      CG321      CG321
   20    19    39	5 ;      CG321      CG321       HGA2
   20    19    40	5 ;      CG321      CG321       HGA2
   18    19    39	5 ;      CG321      CG321       HGA2
   18    19    40	5 ;      CG321      CG321       HGA2
   39    19    40	5 ;       HGA2      CG321       HGA2
   21    20    19	5 ;      CG321      CG321      CG321
   21    20    41	5 ;      CG321      CG321       HGA2
   21    20    42	5 ;      CG321      CG321       HGA2
   19    20    41	5 ;      CG321      CG321       HGA2
   19    20    42	5 ;      CG321      CG321       HGA2
   41    20    42	5 ;       HGA2      CG321       HGA2
   22    21    20	5 ;      CG321      CG321      CG321
   22    21    43	5 ;      CG321      CG321       HGA2
   22    21    44	5 ;      CG321      CG321       HGA2
   20    21    43	5 ;      CG321      CG321       HGA2
   20    21    44	5 ;      CG321      CG321       HGA2
   43    21    44	5 ;       HGA2      CG321       HGA2
   21    22    17	5 ;      CG321      CG321      CG311
   21    22    45	5 ;      CG321      CG321       HGA2
   21    22    46	5 ;      CG321      CG321       HGA2
   17    22    45	5 ;      CG311      CG321       HGA2
   17    22    46	5 ;      CG311      CG321       HGA2
   45    22    46	5 ;       HGA2      CG321       HGA2
   24    23     3	5 ;      CG321      CG321     NG2R53
   24    23    47	5 ;      CG321      CG321       HGA2
   24    23    48	5 ;      CG321      CG321       HGA2
    3    23    47	5 ;     NG2R53      CG321       HGA2
    3    23    48	5 ;     NG2R53      CG321       HGA2
   47    23    48	5 ;       HGA2      CG321       HGA2
   23    24    25	5 ;      CG321      CG321      CG321
   23    24    49	5 ;      CG321      CG321       HGA2
   23    24    50	5 ;      CG321      CG321       HGA2
   25    24    49	5 ;      CG321      CG321       HGA2
   25    24    50	5 ;      CG321      CG321       HGA2
   49    24    50	5 ;       HGA2      CG321       HGA2
   24    25    26	5 ;      CG321      CG321      CG321
   24    25    51	5 ;      CG321      CG321       HGA2
   24    25    52	5 ;      CG321      CG321       HGA2
   26    25    51	5 ;      CG321      CG321       HGA2
   26    25    52	5 ;      CG321      CG321       HGA2
   51    25    52	5 ;       HGA2      CG321       HGA2
   25    26    27	5 ;      CG321      CG321      CG321
   25    26    53	5 ;      CG321      CG321       HGA2
   25    26    54	5 ;      CG321      CG321       HGA2
   27    26    53	5 ;      CG321      CG321       HGA2
   27    26    54	5 ;      CG321      CG321       HGA2
   53    26    54	5 ;       HGA2      CG321       HGA2
   26    27    28	5 ;      CG321      CG321      CG2O3
   26    27    55	5 ;      CG321      CG321       HGA2
   26    27    56	5 ;      CG321      CG321       HGA2
   28    27    55	5 ;      CG2O3      CG321       HGA2
   28    27    56	5 ;      CG2O3      CG321       HGA2
   55    27    56	5 ;       HGA2      CG321       HGA2
   29    28    27	5 ;      OG2D2      CG2O3      CG321
   29    28    30	5 ;      OG2D2      CG2O3      OG2D2
   27    28    30	5 ;      CG321      CG2O3      OG2D2

[ dihedrals ]
;	ai	  aj	ak	  al funct			  c0			c1			  c2			c3			  c4			c5
    1     2     3    23	 9 ;      OG2D1     CG2R53     NG2R53      CG321
    1     2     3     4	 9 ;      OG2D1     CG2R53     NG2R53     CG3C51
    7     2     3    23	 9 ;     CG3C50     CG2R53     NG2R53      CG321
    7     2     3     4	 9 ;     CG3C50     CG2R53     NG2R53     CG3C51
    1     2     7    17	 9 ;      OG2D1     CG2R53     CG3C50      CG311
    1     2     7     5	 9 ;      OG2D1     CG2R53     CG3C50     NG3C51
    1     2     7    11	 9 ;      OG2D1     CG2R53     CG3C50     CG2R61
    3     2     7    17	 9 ;     NG2R53     CG2R53     CG3C50      CG311
    3     2     7     5	 9 ;     NG2R53     CG2R53     CG3C50     NG3C51
    3     2     7    11	 9 ;     NG2R53     CG2R53     CG3C50     CG2R61
    2     3    23    24	 9 ;     CG2R53     NG2R53      CG321      CG321
    2     3    23    47	 9 ;     CG2R53     NG2R53      CG321       HGA2
    2     3    23    48	 9 ;     CG2R53     NG2R53      CG321       HGA2
    4     3    23    24	 9 ;     CG3C51     NG2R53      CG321      CG321
    4     3    23    47	 9 ;     CG3C51     NG2R53      CG321       HGA2
    4     3    23    48	 9 ;     CG3C51     NG2R53      CG321       HGA2
   23     3     4     8	 9 ;      CG321     NG2R53     CG3C51      NG321
   23     3     4     5	 9 ;      CG321     NG2R53     CG3C51     NG3C51
   23     3     4    57	 9 ;      CG321     NG2R53     CG3C51       HGA1
    2     3     4     8	 9 ;     CG2R53     NG2R53     CG3C51      NG321
    2     3     4     5	 9 ;     CG2R53     NG2R53     CG3C51     NG3C51
    2     3     4    57	 9 ;     CG2R53     NG2R53     CG3C51       HGA1
    3     4     8    10	 9 ;     NG2R53     CG3C51      NG321     HGPAM2
    3     4     8     9	 9 ;     NG2R53     CG3C51      NG321     HGPAM2
    5     4     8    10	 9 ;     NG3C51     CG3C51      NG321     HGPAM2
    5     4     8     9	 9 ;     NG3C51     CG3C51      NG321     HGPAM2
   57     4     8    10	 9 ;       HGA1     CG3C51      NG321     HGPAM2
   57     4     8     9	 9 ;       HGA1     CG3C51      NG321     HGPAM2
    3     4     5     7	 9 ;     NG2R53     CG3C51     NG3C51     CG3C50
    3     4     5     6	 9 ;     NG2R53     CG3C51     NG3C51       HGP1
    8     4     5     7	 9 ;      NG321     CG3C51     NG3C51     CG3C50
    8     4     5     6	 9 ;      NG321     CG3C51     NG3C51       HGP1
   57     4     5     7	 9 ;       HGA1     CG3C51     NG3C51     CG3C50
   57     4     5     6	 9 ;       HGA1     CG3C51     NG3C51       HGP1
    4     5     7     2	 9 ;     CG3C51     NG3C51     CG3C50     CG2R53
    4     5     7    17	 9 ;     CG3C51     NG3C51     CG3C50      CG311
    4     5     7    11	 9 ;     CG3C51     NG3C51     CG3C50     CG2R61
    6     5     7     2	 9 ;       HGP1     NG3C51     CG3C50     CG2R53
    6     5     7    17	 9 ;       HGP1     NG3C51     CG3C50      CG311
    6     5     7    11	 9 ;       HGP1     NG3C51     CG3C50     CG2R61
    2     7    17    22	 9 ;     CG2R53     CG3C50      CG311      CG321
    2     7    17    18	 9 ;     CG2R53     CG3C50      CG311      CG321
    2     7    17    36	 9 ;     CG2R53     CG3C50      CG311       HGA1
    5     7    17    22	 9 ;     NG3C51     CG3C50      CG311      CG321
    5     7    17    18	 9 ;     NG3C51     CG3C50      CG311      CG321
    5     7    17    36	 9 ;     NG3C51     CG3C50      CG311       HGA1
   11     7    17    22	 9 ;     CG2R61     CG3C50      CG311      CG321
   11     7    17    18	 9 ;     CG2R61     CG3C50      CG311      CG321
   11     7    17    36	 9 ;     CG2R61     CG3C50      CG311       HGA1
    2     7    11    12	 9 ;     CG2R53     CG3C50     CG2R61     CG2R61
    2     7    11    16	 9 ;     CG2R53     CG3C50     CG2R61     CG2R61
   17     7    11    12	 9 ;      CG311     CG3C50     CG2R61     CG2R61
   17     7    11    16	 9 ;      CG311     CG3C50     CG2R61     CG2R61
    5     7    11    12	 9 ;     NG3C51     CG3C50     CG2R61     CG2R61
    5     7    11    16	 9 ;     NG3C51     CG3C50     CG2R61     CG2R61
    7    11    12    13	 9 ;     CG3C50     CG2R61     CG2R61     CG2R61
    7    11    12    31	 9 ;     CG3C50     CG2R61     CG2R61      HGR61
   16    11    12    13	 9 ;     CG2R61     CG2R61     CG2R61     CG2R61
   16    11    12    31	 9 ;     CG2R61     CG2R61     CG2R61      HGR61
    7    11    16    15	 9 ;     CG3C50     CG2R61     CG2R61     CG2R61
    7    11    16    35	 9 ;     CG3C50     CG2R61     CG2R61      HGR61
   12    11    16    15	 9 ;     CG2R61     CG2R61     CG2R61     CG2R61
   12    11    16    35	 9 ;     CG2R61     CG2R61     CG2R61      HGR61
   11    12    13    14	 9 ;     CG2R61     CG2R61     CG2R61     CG2R61
   11    12    13    32	 9 ;     CG2R61     CG2R61     CG2R61      HGR61
   31    12    13    14	 9 ;      HGR61     CG2R61     CG2R61     CG2R61
   31    12    13    32	 9 ;      HGR61     CG2R61     CG2R61      HGR61
   12    13    14    15	 9 ;     CG2R61     CG2R61     CG2R61     CG2R61
   12    13    14    33	 9 ;     CG2R61     CG2R61     CG2R61      HGR61
   32    13    14    15	 9 ;      HGR61     CG2R61     CG2R61     CG2R61
   32    13    14    33	 9 ;      HGR61     CG2R61     CG2R61      HGR61
   13    14    15    16	 9 ;     CG2R61     CG2R61     CG2R61     CG2R61
   13    14    15    34	 9 ;     CG2R61     CG2R61     CG2R61      HGR61
   33    14    15    16	 9 ;      HGR61     CG2R61     CG2R61     CG2R61
   33    14    15    34	 9 ;      HGR61     CG2R61     CG2R61      HGR61
   14    15    16    11	 9 ;     CG2R61     CG2R61     CG2R61     CG2R61
   14    15    16    35	 9 ;     CG2R61     CG2R61     CG2R61      HGR61
   34    15    16    11	 9 ;      HGR61     CG2R61     CG2R61     CG2R61
   34    15    16    35	 9 ;      HGR61     CG2R61     CG2R61      HGR61
    7    17    22    21	 9 ;     CG3C50      CG311      CG321      CG321
    7    17    22    45	 9 ;     CG3C50      CG311      CG321       HGA2
    7    17    22    46	 9 ;     CG3C50      CG311      CG321       HGA2
   18    17    22    21	 9 ;      CG321      CG311      CG321      CG321
   18    17    22    45	 9 ;      CG321      CG311      CG321       HGA2
   18    17    22    46	 9 ;      CG321      CG311      CG321       HGA2
   36    17    22    21	 9 ;       HGA1      CG311      CG321      CG321
   36    17    22    45	 9 ;       HGA1      CG311      CG321       HGA2
   36    17    22    46	 9 ;       HGA1      CG311      CG321       HGA2
   22    17    18    19	 9 ;      CG321      CG311      CG321      CG321
   22    17    18    37	 9 ;      CG321      CG311      CG321       HGA2
   22    17    18    38	 9 ;      CG321      CG311      CG321       HGA2
    7    17    18    19	 9 ;     CG3C50      CG311      CG321      CG321
    7    17    18    37	 9 ;     CG3C50      CG311      CG321       HGA2
    7    17    18    38	 9 ;     CG3C50      CG311      CG321       HGA2
   36    17    18    19	 9 ;       HGA1      CG311      CG321      CG321
   36    17    18    37	 9 ;       HGA1      CG311      CG321       HGA2
   36    17    18    38	 9 ;       HGA1      CG311      CG321       HGA2
   17    18    19    20	 9 ;      CG311      CG321      CG321      CG321
   17    18    19    39	 9 ;      CG311      CG321      CG321       HGA2
   17    18    19    40	 9 ;      CG311      CG321      CG321       HGA2
   37    18    19    20	 9 ;       HGA2      CG321      CG321      CG321
   37    18    19    39	 9 ;       HGA2      CG321      CG321       HGA2
   37    18    19    40	 9 ;       HGA2      CG321      CG321       HGA2
   38    18    19    20	 9 ;       HGA2      CG321      CG321      CG321
   38    18    19    39	 9 ;       HGA2      CG321      CG321       HGA2
   38    18    19    40	 9 ;       HGA2      CG321      CG321       HGA2
   18    19    20    21	 9 ;      CG321      CG321      CG321      CG321
   18    19    20    41	 9 ;      CG321      CG321      CG321       HGA2
   18    19    20    42	 9 ;      CG321      CG321      CG321       HGA2
   39    19    20    21	 9 ;       HGA2      CG321      CG321      CG321
   39    19    20    41	 9 ;       HGA2      CG321      CG321       HGA2
   39    19    20    42	 9 ;       HGA2      CG321      CG321       HGA2
   40    19    20    21	 9 ;       HGA2      CG321      CG321      CG321
   40    19    20    41	 9 ;       HGA2      CG321      CG321       HGA2
   40    19    20    42	 9 ;       HGA2      CG321      CG321       HGA2
   19    20    21    22	 9 ;      CG321      CG321      CG321      CG321
   19    20    21    43	 9 ;      CG321      CG321      CG321       HGA2
   19    20    21    44	 9 ;      CG321      CG321      CG321       HGA2
   41    20    21    22	 9 ;       HGA2      CG321      CG321      CG321
   41    20    21    43	 9 ;       HGA2      CG321      CG321       HGA2
   41    20    21    44	 9 ;       HGA2      CG321      CG321       HGA2
   42    20    21    22	 9 ;       HGA2      CG321      CG321      CG321
   42    20    21    43	 9 ;       HGA2      CG321      CG321       HGA2
   42    20    21    44	 9 ;       HGA2      CG321      CG321       HGA2
   20    21    22    17	 9 ;      CG321      CG321      CG321      CG311
   20    21    22    45	 9 ;      CG321      CG321      CG321       HGA2
   20    21    22    46	 9 ;      CG321      CG321      CG321       HGA2
   43    21    22    17	 9 ;       HGA2      CG321      CG321      CG311
   43    21    22    45	 9 ;       HGA2      CG321      CG321       HGA2
   43    21    22    46	 9 ;       HGA2      CG321      CG321       HGA2
   44    21    22    17	 9 ;       HGA2      CG321      CG321      CG311
   44    21    22    45	 9 ;       HGA2      CG321      CG321       HGA2
   44    21    22    46	 9 ;       HGA2      CG321      CG321       HGA2
    3    23    24    25	 9 ;     NG2R53      CG321      CG321      CG321
    3    23    24    49	 9 ;     NG2R53      CG321      CG321       HGA2
    3    23    24    50	 9 ;     NG2R53      CG321      CG321       HGA2
   47    23    24    25	 9 ;       HGA2      CG321      CG321      CG321
   47    23    24    49	 9 ;       HGA2      CG321      CG321       HGA2
   47    23    24    50	 9 ;       HGA2      CG321      CG321       HGA2
   48    23    24    25	 9 ;       HGA2      CG321      CG321      CG321
   48    23    24    49	 9 ;       HGA2      CG321      CG321       HGA2
   48    23    24    50	 9 ;       HGA2      CG321      CG321       HGA2
   23    24    25    26	 9 ;      CG321      CG321      CG321      CG321
   23    24    25    51	 9 ;      CG321      CG321      CG321       HGA2
   23    24    25    52	 9 ;      CG321      CG321      CG321       HGA2
   49    24    25    26	 9 ;       HGA2      CG321      CG321      CG321
   49    24    25    51	 9 ;       HGA2      CG321      CG321       HGA2
   49    24    25    52	 9 ;       HGA2      CG321      CG321       HGA2
   50    24    25    26	 9 ;       HGA2      CG321      CG321      CG321
   50    24    25    51	 9 ;       HGA2      CG321      CG321       HGA2
   50    24    25    52	 9 ;       HGA2      CG321      CG321       HGA2
   24    25    26    27	 9 ;      CG321      CG321      CG321      CG321
   24    25    26    53	 9 ;      CG321      CG321      CG321       HGA2
   24    25    26    54	 9 ;      CG321      CG321      CG321       HGA2
   51    25    26    27	 9 ;       HGA2      CG321      CG321      CG321
   51    25    26    53	 9 ;       HGA2      CG321      CG321       HGA2
   51    25    26    54	 9 ;       HGA2      CG321      CG321       HGA2
   52    25    26    27	 9 ;       HGA2      CG321      CG321      CG321
   52    25    26    53	 9 ;       HGA2      CG321      CG321       HGA2
   52    25    26    54	 9 ;       HGA2      CG321      CG321       HGA2
   25    26    27    28	 9 ;      CG321      CG321      CG321      CG2O3
   25    26    27    55	 9 ;      CG321      CG321      CG321       HGA2
   25    26    27    56	 9 ;      CG321      CG321      CG321       HGA2
   53    26    27    28	 9 ;       HGA2      CG321      CG321      CG2O3
   53    26    27    55	 9 ;       HGA2      CG321      CG321       HGA2
   53    26    27    56	 9 ;       HGA2      CG321      CG321       HGA2
   54    26    27    28	 9 ;       HGA2      CG321      CG321      CG2O3
   54    26    27    55	 9 ;       HGA2      CG321      CG321       HGA2
   54    26    27    56	 9 ;       HGA2      CG321      CG321       HGA2
   26    27    28    29	 9 ;      CG321      CG321      CG2O3      OG2D2
   26    27    28    30	 9 ;      CG321      CG321      CG2O3      OG2D2
   55    27    28    29	 9 ;       HGA2      CG321      CG2O3      OG2D2
   55    27    28    30	 9 ;       HGA2      CG321      CG2O3      OG2D2
   56    27    28    29	 9 ;       HGA2      CG321      CG2O3      OG2D2
   56    27    28    30	 9 ;       HGA2      CG321      CG2O3      OG2D2

[ dihedrals ]
;	ai	  aj	ak	  al funct			  c0			c1			  c2			c3
    2     7     3     1	 2
   28    30    29    27	 2

