Georgetown Riga Oslo Madrid Amsterdam Chisinau Stockholm
   57
    1LIG     O1    1  -1.153   0.345  -1.672
    1LIG     C1    2  -1.194   0.362  -1.558
    1LIG     N1    3  -1.164   0.464  -1.473
    1LIG     C2    4  -1.212   0.434  -1.351
    1LIG     N2    5  -1.293   0.333  -1.345
    1LIG     HN    6  -1.345   0.301  -1.263
    1LIG     C3    7  -1.294   0.272  -1.482
    1LIG     N3    8  -1.178   0.500  -1.239
    1LIG     H1    9  -1.235   0.482  -1.158
    1LIG     H2   10  -1.132   0.590  -1.241
    1LIG     C4   11  -1.430   0.283  -1.552
    1LIG     C5   12  -1.462   0.203  -1.662
    1LIG     C6   13  -1.590   0.203  -1.718
    1LIG     C7   14  -1.689   0.285  -1.666
    1LIG     C8   15  -1.660   0.367  -1.557
    1LIG     C9   16  -1.532   0.365  -1.500
    1LIG    C10   17  -1.239   0.127  -1.463
    1LIG    C11   18  -1.249   0.082  -1.316
    1LIG    C12   19  -1.192  -0.059  -1.295
    1LIG    C13   20  -1.048  -0.068  -1.341
    1LIG    C14   21  -1.035  -0.026  -1.487
    1LIG    C15   22  -1.092   0.113  -1.511
    1LIG    C16   23  -1.108   0.590  -1.520
    1LIG    C17   24  -1.210   0.704  -1.507
    1LIG    C18   25  -1.342   0.684  -1.584
    1LIG    C19   26  -1.433   0.807  -1.587
    1LIG    C20   27  -1.580   0.772  -1.564
    1LIG    C21   28  -1.666   0.893  -1.594
    1LIG     O2   29  -1.607   0.986  -1.658
    1LIG     O3   30  -1.786   0.887  -1.555
    1LIG     HC   31  -1.385   0.139  -1.705
    1LIG    HC1   32  -1.612   0.139  -1.803
    1LIG    HC2   33  -1.788   0.286  -1.710
    1LIG    HC3   34  -1.737   0.431  -1.516
    1LIG    HC4   35  -1.512   0.428  -1.414
    1LIG    HC5   36  -1.301   0.060  -1.523
    1LIG    HC6   37  -1.353   0.082  -1.285
    1LIG    HC7   38  -1.193   0.152  -1.253
    1LIG    HC8   39  -1.198  -0.084  -1.189
    1LIG    HC9   40  -1.253  -0.130  -1.351
    1LIG   HC10   41  -1.013  -0.171  -1.330
    1LIG   HC11   42  -0.986  -0.003  -1.280
    1LIG   HC12   43  -0.929  -0.026  -1.514
    1LIG   HC13   44  -1.087  -0.098  -1.550
    1LIG   HC14   45  -1.088   0.134  -1.618
    1LIG   HC15   46  -1.031   0.186  -1.459
    1LIG   HC16   47  -1.020   0.614  -1.461
    1LIG   HC17   48  -1.079   0.579  -1.625
    1LIG   HC18   49  -1.235   0.715  -1.401
    1LIG   HC19   50  -1.164   0.797  -1.541
    1LIG   HC20   51  -1.316   0.658  -1.687
    1LIG   HC21   52  -1.396   0.601  -1.539
    1LIG   HC22   53  -1.424   0.854  -1.685
    1LIG   HC23   54  -1.401   0.877  -1.511
    1LIG   HC24   55  -1.594   0.743  -1.460
    1LIG   HC25   56  -1.608   0.690  -1.630
    1LIG    H30   57  -1.296   0.501  -1.367
   0.00000   0.00000   0.00000
