; Created by cgenff_charmm2gmx.py

[ moleculetype ]
; Name			   nrexcl
LIG				 3

[ atoms ]
;	 nr		  type	resnr residue  atom   cgnr	   charge		mass  typeB    chargeB		massB
; residue	 1 LIG rtp LIG q	qsum
     1      SG3O3      1    LIG      S      1      0.407     32.060   ;
     2      OG2P1      1    LIG     O1      2     -0.514     15.999   ;
     3      CG321      1    LIG     C1      3     -0.117     12.011   ;
     4      CG311      1    LIG     C2      4     -0.074     12.011   ;
     5      CG311      1    LIG     C3      5      0.092     12.011   ;
     6      CG314      1    LIG     C4      6     -0.011     12.011   ;
     7      CG321      1    LIG     C5      7      0.061     12.011   ;
     8      CG321      1    LIG     C6      8     -0.123     12.011   ;
     9     CG2R61      1    LIG     C7      9      0.006     12.011   ;
    10     CG2R61      1    LIG     C8     10     -0.111     12.011   ;
    11     CG2R61      1    LIG     C9     11      0.227     12.011   ;
    12     CG2R61      1    LIG    C10     12     -0.028     12.011   ;
    13     CG2R66      1    LIG    C11     13      0.028     12.011   ;
    14       FGR1      1    LIG     F1     14     -0.230     18.998   ;
    15     CG2R61      1    LIG    C12     15     -0.121     12.011   ;
    16      OG301      1    LIG     O2     16     -0.317     15.999   ;
    17      CG311      1    LIG    C13     17      0.350     12.011   ;
    18      CG302      1    LIG    C14     18      0.178     12.011   ;
    19       FGA3      1    LIG     F2     19     -0.115     18.998   ;
    20       FGA3      1    LIG     F3     20     -0.115     18.998   ;
    21       FGA3      1    LIG     F4     21     -0.115     18.998   ;
    22      CG321      1    LIG    C15     22     -0.044     12.011   ;
    23      OG301      1    LIG     O3     23     -0.326     15.999   ;
    24      CG331      1    LIG    C16     24     -0.100     12.011   ;
    25      NG2S3      1    LIG     N1     25     -0.731     14.007   ;
    26       HGP4      1    LIG     H1     26      0.357      1.008   ;
    27       HGP4      1    LIG     H2     27      0.357      1.008   ;
    28      OG311      1    LIG     O4     28     -0.595     15.999   ;
    29       HGP1      1    LIG     H3     29      0.422      1.008   ;
    30      NG3P2      1    LIG     N2     30     -0.356     14.007   ;
    31       HGP2      1    LIG     H4     31      0.318      1.008   ;
    32       HGP2      1    LIG     H5     32      0.318      1.008   ;
    33      CG324      1    LIG    C17     33      0.151     12.011   ;
    34      CG321      1    LIG    C18     34     -0.186     12.011   ;
    35      CG321      1    LIG    C19     35      0.075     12.011   ;
    36      OG301      1    LIG     O5     36     -0.414     15.999   ;
    37      CG301      1    LIG    C20     37      0.161     12.011   ;
    38      CG331      1    LIG    C21     38     -0.258     12.011   ;
    39      CG331      1    LIG    C22     39     -0.258     12.011   ;
    40      CG331      1    LIG    C23     40     -0.258     12.011   ;
    41       HGA2      1    LIG    HC2     41      0.090      1.008   ;
    42       HGA2      1    LIG    HC3     42      0.090      1.008   ;
    43       HGA1      1    LIG     HC     43      0.090      1.008   ;
    44       HGA1      1    LIG    HC1     44      0.090      1.008   ;
    45       HGA1      1    LIG    HC4     45      0.109      1.008   ;
    46       HGA2      1    LIG    HC5     46      0.090      1.008   ;
    47       HGA2      1    LIG    HC6     47      0.090      1.008   ;
    48       HGA2      1    LIG    HC7     48      0.090      1.008   ;
    49       HGA2      1    LIG    HC8     49      0.090      1.008   ;
    50      HGR61      1    LIG    HC9     50      0.116      1.008   ;
    51      HGR62      1    LIG   HC10     51      0.174      1.008   ;
    52       HGA1      1    LIG   HC11     52      0.090      1.008   ;
    53       HGA2      1    LIG   HC12     53      0.090      1.008   ;
    54       HGA2      1    LIG   HC13     54      0.090      1.008   ;
    55       HGA3      1    LIG   HC14     55      0.090      1.008   ;
    56       HGA3      1    LIG   HC15     56      0.090      1.008   ;
    57       HGA3      1    LIG   HC16     57      0.090      1.008   ;
    58       HGA2      1    LIG   HC17     58      0.090      1.008   ;
    59       HGA2      1    LIG   HC18     59      0.090      1.008   ;
    60       HGA2      1    LIG   HC19     60      0.090      1.008   ;
    61       HGA2      1    LIG   HC20     61      0.090      1.008   ;
    62       HGA2      1    LIG   HC21     62      0.090      1.008   ;
    63       HGA2      1    LIG   HC22     63      0.090      1.008   ;
    64       HGA3      1    LIG   HC23     64      0.090      1.008   ;
    65       HGA3      1    LIG   HC24     65      0.090      1.008   ;
    66       HGA3      1    LIG   HC25     66      0.090      1.008   ;
    67       HGA3      1    LIG   HC26     67      0.090      1.008   ;
    68       HGA3      1    LIG   HC27     68      0.090      1.008   ;
    69       HGA3      1    LIG   HC28     69      0.090      1.008   ;
    70       HGA3      1    LIG   HC29     70      0.090      1.008   ;
    71       HGA3      1    LIG   HC30     71      0.090      1.008   ;
    72       HGA3      1    LIG   HC31     72      0.090      1.008   ;

[ bonds ]
;	ai	  aj funct			  c0			c1			  c2			c3
    1     7	 1 ;       SG3O3      CG321
    1     2	 1 ;       SG3O3      OG2P1
    1     3	 1 ;       SG3O3      CG321
    3     4	 1 ;       CG321      CG311
    3    41	 1 ;       CG321       HGA2
    3    42	 1 ;       CG321       HGA2
    4     5	 1 ;       CG311      CG311
    4     8	 1 ;       CG311      CG321
    4    43	 1 ;       CG311       HGA1
    5     6	 1 ;       CG311      CG314
    5    28	 1 ;       CG311      OG311
    5    44	 1 ;       CG311       HGA1
    6     7	 1 ;       CG314      CG321
    6    30	 1 ;       CG314      NG3P2
    6    45	 1 ;       CG314       HGA1
    7    46	 1 ;       CG321       HGA2
    7    47	 1 ;       CG321       HGA2
    8     9	 1 ;       CG321     CG2R61
    8    48	 1 ;       CG321       HGA2
    8    49	 1 ;       CG321       HGA2
    9    15	 1 ;      CG2R61     CG2R61
    9    10	 1 ;      CG2R61     CG2R61
   10    11	 1 ;      CG2R61     CG2R61
   10    50	 1 ;      CG2R61      HGR61
   11    12	 1 ;      CG2R61     CG2R61
   11    16	 1 ;      CG2R61      OG301
   12    13	 1 ;      CG2R61     CG2R66
   12    25	 1 ;      CG2R61      NG2S3
   13    15	 1 ;      CG2R66     CG2R61
   13    14	 1 ;      CG2R66       FGR1
   15    51	 1 ;      CG2R61      HGR62
   16    17	 1 ;       OG301      CG311
   17    22	 1 ;       CG311      CG321
   17    18	 1 ;       CG311      CG302
   17    52	 1 ;       CG311       HGA1
   18    19	 1 ;       CG302       FGA3
   18    20	 1 ;       CG302       FGA3
   18    21	 1 ;       CG302       FGA3
   22    23	 1 ;       CG321      OG301
   22    53	 1 ;       CG321       HGA2
   22    54	 1 ;       CG321       HGA2
   23    24	 1 ;       OG301      CG331
   24    55	 1 ;       CG331       HGA3
   24    56	 1 ;       CG331       HGA3
   24    57	 1 ;       CG331       HGA3
   25    27	 1 ;       NG2S3       HGP4
   25    26	 1 ;       NG2S3       HGP4
   28    29	 1 ;       OG311       HGP1
   30    32	 1 ;       NG3P2       HGP2
   30    33	 1 ;       NG3P2      CG324
   30    31	 1 ;       NG3P2       HGP2
   33    34	 1 ;       CG324      CG321
   33    58	 1 ;       CG324       HGA2
   33    59	 1 ;       CG324       HGA2
   34    35	 1 ;       CG321      CG321
   34    60	 1 ;       CG321       HGA2
   34    61	 1 ;       CG321       HGA2
   35    36	 1 ;       CG321      OG301
   35    62	 1 ;       CG321       HGA2
   35    63	 1 ;       CG321       HGA2
   36    37	 1 ;       OG301      CG301
   37    38	 1 ;       CG301      CG331
   37    40	 1 ;       CG301      CG331
   37    39	 1 ;       CG301      CG331
   38    64	 1 ;       CG331       HGA3
   38    65	 1 ;       CG331       HGA3
   38    66	 1 ;       CG331       HGA3
   39    67	 1 ;       CG331       HGA3
   39    68	 1 ;       CG331       HGA3
   39    69	 1 ;       CG331       HGA3
   40    70	 1 ;       CG331       HGA3
   40    71	 1 ;       CG331       HGA3
   40    72	 1 ;       CG331       HGA3

[ pairs ]
;	ai	  aj funct			  c0			c1			  c2			c3
    1     5	 1
    1     8	 1
    1    43	 1
    1    30	 1
    1    45	 1
    2     6	 1
    2    46	 1
    2    47	 1
    2     4	 1
    2    41	 1
    2    42	 1
    3     6	 1
    3    46	 1
    3    47	 1
    3    28	 1
    3    44	 1
    3     9	 1
    3    48	 1
    3    49	 1
    4     7	 1
    4    30	 1
    4    45	 1
    4    29	 1
    4    15	 1
    4    10	 1
    5    41	 1
    5    42	 1
    5     9	 1
    5    48	 1
    5    49	 1
    5    46	 1
    5    47	 1
    5    32	 1
    5    33	 1
    5    31	 1
    6     8	 1
    6    43	 1
    6    29	 1
    6    34	 1
    6    58	 1
    6    59	 1
    7    41	 1
    7    42	 1
    7    28	 1
    7    44	 1
    7    32	 1
    7    33	 1
    7    31	 1
    8    41	 1
    8    42	 1
    8    28	 1
    8    44	 1
    8    13	 1
    8    51	 1
    8    11	 1
    8    50	 1
    9    43	 1
    9    12	 1
    9    16	 1
    9    14	 1
   10    48	 1
   10    49	 1
   10    13	 1
   10    51	 1
   10    25	 1
   10    17	 1
   11    15	 1
   11    14	 1
   11    27	 1
   11    26	 1
   11    22	 1
   11    18	 1
   11    52	 1
   12    50	 1
   12    17	 1
   12    51	 1
   13    16	 1
   13    27	 1
   13    26	 1
   14    25	 1
   14    51	 1
   15    48	 1
   15    49	 1
   15    50	 1
   15    25	 1
   16    50	 1
   16    25	 1
   16    23	 1
   16    53	 1
   16    54	 1
   16    19	 1
   16    20	 1
   16    21	 1
   17    24	 1
   18    23	 1
   18    53	 1
   18    54	 1
   19    22	 1
   19    52	 1
   20    22	 1
   20    52	 1
   21    22	 1
   21    52	 1
   22    55	 1
   22    56	 1
   22    57	 1
   23    52	 1
   24    53	 1
   24    54	 1
   28    43	 1
   28    30	 1
   28    45	 1
   29    44	 1
   30    44	 1
   30    46	 1
   30    47	 1
   30    35	 1
   30    60	 1
   30    61	 1
   31    45	 1
   31    34	 1
   31    58	 1
   31    59	 1
   32    45	 1
   32    34	 1
   32    58	 1
   32    59	 1
   33    45	 1
   33    36	 1
   33    62	 1
   33    63	 1
   34    37	 1
   35    58	 1
   35    59	 1
   35    38	 1
   35    40	 1
   35    39	 1
   36    60	 1
   36    61	 1
   36    64	 1
   36    65	 1
   36    66	 1
   36    70	 1
   36    71	 1
   36    72	 1
   36    67	 1
   36    68	 1
   36    69	 1
   37    62	 1
   37    63	 1
   38    70	 1
   38    71	 1
   38    72	 1
   38    67	 1
   38    68	 1
   38    69	 1
   39    64	 1
   39    65	 1
   39    66	 1
   39    70	 1
   39    71	 1
   39    72	 1
   40    64	 1
   40    65	 1
   40    66	 1
   40    67	 1
   40    68	 1
   40    69	 1
   41    43	 1
   42    43	 1
   43    44	 1
   43    48	 1
   43    49	 1
   44    45	 1
   45    46	 1
   45    47	 1
   52    53	 1
   52    54	 1
   58    60	 1
   58    61	 1
   59    60	 1
   59    61	 1
   60    62	 1
   60    63	 1
   61    62	 1
   61    63	 1

[ angles ]
;	ai	  aj	ak funct			c0			  c1			c2			  c3
    7     1     2	5 ;      CG321      SG3O3      OG2P1
    7     1     3	5 ;      CG321      SG3O3      CG321
    2     1     3	5 ;      OG2P1      SG3O3      CG321
    1     3     4	5 ;      SG3O3      CG321      CG311
    1     3    41	5 ;      SG3O3      CG321       HGA2
    1     3    42	5 ;      SG3O3      CG321       HGA2
    4     3    41	5 ;      CG311      CG321       HGA2
    4     3    42	5 ;      CG311      CG321       HGA2
   41     3    42	5 ;       HGA2      CG321       HGA2
    3     4     5	5 ;      CG321      CG311      CG311
    3     4     8	5 ;      CG321      CG311      CG321
    3     4    43	5 ;      CG321      CG311       HGA1
    5     4     8	5 ;      CG311      CG311      CG321
    5     4    43	5 ;      CG311      CG311       HGA1
    8     4    43	5 ;      CG321      CG311       HGA1
    6     5    28	5 ;      CG314      CG311      OG311
    6     5     4	5 ;      CG314      CG311      CG311
    6     5    44	5 ;      CG314      CG311       HGA1
   28     5     4	5 ;      OG311      CG311      CG311
   28     5    44	5 ;      OG311      CG311       HGA1
    4     5    44	5 ;      CG311      CG311       HGA1
    7     6    30	5 ;      CG321      CG314      NG3P2
    7     6     5	5 ;      CG321      CG314      CG311
    7     6    45	5 ;      CG321      CG314       HGA1
   30     6     5	5 ;      NG3P2      CG314      CG311
   30     6    45	5 ;      NG3P2      CG314       HGA1
    5     6    45	5 ;      CG311      CG314       HGA1
    1     7     6	5 ;      SG3O3      CG321      CG314
    1     7    46	5 ;      SG3O3      CG321       HGA2
    1     7    47	5 ;      SG3O3      CG321       HGA2
    6     7    46	5 ;      CG314      CG321       HGA2
    6     7    47	5 ;      CG314      CG321       HGA2
   46     7    47	5 ;       HGA2      CG321       HGA2
    4     8     9	5 ;      CG311      CG321     CG2R61
    4     8    48	5 ;      CG311      CG321       HGA2
    4     8    49	5 ;      CG311      CG321       HGA2
    9     8    48	5 ;     CG2R61      CG321       HGA2
    9     8    49	5 ;     CG2R61      CG321       HGA2
   48     8    49	5 ;       HGA2      CG321       HGA2
    8     9    15	5 ;      CG321     CG2R61     CG2R61
    8     9    10	5 ;      CG321     CG2R61     CG2R61
   15     9    10	5 ;     CG2R61     CG2R61     CG2R61
    9    10    11	5 ;     CG2R61     CG2R61     CG2R61
    9    10    50	5 ;     CG2R61     CG2R61      HGR61
   11    10    50	5 ;     CG2R61     CG2R61      HGR61
   10    11    12	5 ;     CG2R61     CG2R61     CG2R61
   10    11    16	5 ;     CG2R61     CG2R61      OG301
   12    11    16	5 ;     CG2R61     CG2R61      OG301
   13    12    11	5 ;     CG2R66     CG2R61     CG2R61
   13    12    25	5 ;     CG2R66     CG2R61      NG2S3
   11    12    25	5 ;     CG2R61     CG2R61      NG2S3
   15    13    14	5 ;     CG2R61     CG2R66       FGR1
   15    13    12	5 ;     CG2R61     CG2R66     CG2R61
   14    13    12	5 ;       FGR1     CG2R66     CG2R61
    9    15    13	5 ;     CG2R61     CG2R61     CG2R66
    9    15    51	5 ;     CG2R61     CG2R61      HGR62
   13    15    51	5 ;     CG2R66     CG2R61      HGR62
   11    16    17	5 ;     CG2R61      OG301      CG311
   16    17    22	5 ;      OG301      CG311      CG321
   16    17    18	5 ;      OG301      CG311      CG302
   16    17    52	5 ;      OG301      CG311       HGA1
   22    17    18	5 ;      CG321      CG311      CG302
   22    17    52	5 ;      CG321      CG311       HGA1
   18    17    52	5 ;      CG302      CG311       HGA1
   17    18    19	5 ;      CG311      CG302       FGA3
   17    18    20	5 ;      CG311      CG302       FGA3
   17    18    21	5 ;      CG311      CG302       FGA3
   19    18    20	5 ;       FGA3      CG302       FGA3
   19    18    21	5 ;       FGA3      CG302       FGA3
   20    18    21	5 ;       FGA3      CG302       FGA3
   23    22    17	5 ;      OG301      CG321      CG311
   23    22    53	5 ;      OG301      CG321       HGA2
   23    22    54	5 ;      OG301      CG321       HGA2
   17    22    53	5 ;      CG311      CG321       HGA2
   17    22    54	5 ;      CG311      CG321       HGA2
   53    22    54	5 ;       HGA2      CG321       HGA2
   24    23    22	5 ;      CG331      OG301      CG321
   23    24    55	5 ;      OG301      CG331       HGA3
   23    24    56	5 ;      OG301      CG331       HGA3
   23    24    57	5 ;      OG301      CG331       HGA3
   55    24    56	5 ;       HGA3      CG331       HGA3
   55    24    57	5 ;       HGA3      CG331       HGA3
   56    24    57	5 ;       HGA3      CG331       HGA3
   12    25    27	5 ;     CG2R61      NG2S3       HGP4
   12    25    26	5 ;     CG2R61      NG2S3       HGP4
   27    25    26	5 ;       HGP4      NG2S3       HGP4
   29    28     5	5 ;       HGP1      OG311      CG311
   32    30    33	5 ;       HGP2      NG3P2      CG324
   32    30     6	5 ;       HGP2      NG3P2      CG314
   32    30    31	5 ;       HGP2      NG3P2       HGP2
   33    30     6	5 ;      CG324      NG3P2      CG314
   33    30    31	5 ;      CG324      NG3P2       HGP2
    6    30    31	5 ;      CG314      NG3P2       HGP2
   30    33    34	5 ;      NG3P2      CG324      CG321
   30    33    58	5 ;      NG3P2      CG324       HGA2
   30    33    59	5 ;      NG3P2      CG324       HGA2
   34    33    58	5 ;      CG321      CG324       HGA2
   34    33    59	5 ;      CG321      CG324       HGA2
   58    33    59	5 ;       HGA2      CG324       HGA2
   33    34    35	5 ;      CG324      CG321      CG321
   33    34    60	5 ;      CG324      CG321       HGA2
   33    34    61	5 ;      CG324      CG321       HGA2
   35    34    60	5 ;      CG321      CG321       HGA2
   35    34    61	5 ;      CG321      CG321       HGA2
   60    34    61	5 ;       HGA2      CG321       HGA2
   34    35    36	5 ;      CG321      CG321      OG301
   34    35    62	5 ;      CG321      CG321       HGA2
   34    35    63	5 ;      CG321      CG321       HGA2
   36    35    62	5 ;      OG301      CG321       HGA2
   36    35    63	5 ;      OG301      CG321       HGA2
   62    35    63	5 ;       HGA2      CG321       HGA2
   37    36    35	5 ;      CG301      OG301      CG321
   38    37    40	5 ;      CG331      CG301      CG331
   38    37    36	5 ;      CG331      CG301      OG301
   38    37    39	5 ;      CG331      CG301      CG331
   40    37    36	5 ;      CG331      CG301      OG301
   40    37    39	5 ;      CG331      CG301      CG331
   36    37    39	5 ;      OG301      CG301      CG331
   37    38    64	5 ;      CG301      CG331       HGA3
   37    38    65	5 ;      CG301      CG331       HGA3
   37    38    66	5 ;      CG301      CG331       HGA3
   64    38    65	5 ;       HGA3      CG331       HGA3
   64    38    66	5 ;       HGA3      CG331       HGA3
   65    38    66	5 ;       HGA3      CG331       HGA3
   37    39    67	5 ;      CG301      CG331       HGA3
   37    39    68	5 ;      CG301      CG331       HGA3
   37    39    69	5 ;      CG301      CG331       HGA3
   67    39    68	5 ;       HGA3      CG331       HGA3
   67    39    69	5 ;       HGA3      CG331       HGA3
   68    39    69	5 ;       HGA3      CG331       HGA3
   37    40    70	5 ;      CG301      CG331       HGA3
   37    40    71	5 ;      CG301      CG331       HGA3
   37    40    72	5 ;      CG301      CG331       HGA3
   70    40    71	5 ;       HGA3      CG331       HGA3
   70    40    72	5 ;       HGA3      CG331       HGA3
   71    40    72	5 ;       HGA3      CG331       HGA3

[ dihedrals ]
;	ai	  aj	ak	  al funct			  c0			c1			  c2			c3			  c4			c5
    2     1     7     6	 9 ;      OG2P1      SG3O3      CG321      CG314
    2     1     7    46	 9 ;      OG2P1      SG3O3      CG321       HGA2
    2     1     7    47	 9 ;      OG2P1      SG3O3      CG321       HGA2
    3     1     7     6	 9 ;      CG321      SG3O3      CG321      CG314
    3     1     7    46	 9 ;      CG321      SG3O3      CG321       HGA2
    3     1     7    47	 9 ;      CG321      SG3O3      CG321       HGA2
    7     1     3     4	 9 ;      CG321      SG3O3      CG321      CG311
    7     1     3    41	 9 ;      CG321      SG3O3      CG321       HGA2
    7     1     3    42	 9 ;      CG321      SG3O3      CG321       HGA2
    2     1     3     4	 9 ;      OG2P1      SG3O3      CG321      CG311
    2     1     3    41	 9 ;      OG2P1      SG3O3      CG321       HGA2
    2     1     3    42	 9 ;      OG2P1      SG3O3      CG321       HGA2
    1     3     4     5	 9 ;      SG3O3      CG321      CG311      CG311
    1     3     4     8	 9 ;      SG3O3      CG321      CG311      CG321
    1     3     4    43	 9 ;      SG3O3      CG321      CG311       HGA1
   41     3     4     5	 9 ;       HGA2      CG321      CG311      CG311
   41     3     4     8	 9 ;       HGA2      CG321      CG311      CG321
   41     3     4    43	 9 ;       HGA2      CG321      CG311       HGA1
   42     3     4     5	 9 ;       HGA2      CG321      CG311      CG311
   42     3     4     8	 9 ;       HGA2      CG321      CG311      CG321
   42     3     4    43	 9 ;       HGA2      CG321      CG311       HGA1
    3     4     5     6	 9 ;      CG321      CG311      CG311      CG314
    3     4     5    28	 9 ;      CG321      CG311      CG311      OG311
    3     4     5    44	 9 ;      CG321      CG311      CG311       HGA1
    8     4     5     6	 9 ;      CG321      CG311      CG311      CG314
    8     4     5    28	 9 ;      CG321      CG311      CG311      OG311
    8     4     5    44	 9 ;      CG321      CG311      CG311       HGA1
   43     4     5     6	 9 ;       HGA1      CG311      CG311      CG314
   43     4     5    28	 9 ;       HGA1      CG311      CG311      OG311
   43     4     5    44	 9 ;       HGA1      CG311      CG311       HGA1
    3     4     8     9	 9 ;      CG321      CG311      CG321     CG2R61
    3     4     8    48	 9 ;      CG321      CG311      CG321       HGA2
    3     4     8    49	 9 ;      CG321      CG311      CG321       HGA2
    5     4     8     9	 9 ;      CG311      CG311      CG321     CG2R61
    5     4     8    48	 9 ;      CG311      CG311      CG321       HGA2
    5     4     8    49	 9 ;      CG311      CG311      CG321       HGA2
   43     4     8     9	 9 ;       HGA1      CG311      CG321     CG2R61
   43     4     8    48	 9 ;       HGA1      CG311      CG321       HGA2
   43     4     8    49	 9 ;       HGA1      CG311      CG321       HGA2
   28     5     6     7	 9 ;      OG311      CG311      CG314      CG321
   28     5     6    30	 9 ;      OG311      CG311      CG314      NG3P2
   28     5     6    45	 9 ;      OG311      CG311      CG314       HGA1
    4     5     6     7	 9 ;      CG311      CG311      CG314      CG321
    4     5     6    30	 9 ;      CG311      CG311      CG314      NG3P2
    4     5     6    45	 9 ;      CG311      CG311      CG314       HGA1
   44     5     6     7	 9 ;       HGA1      CG311      CG314      CG321
   44     5     6    30	 9 ;       HGA1      CG311      CG314      NG3P2
   44     5     6    45	 9 ;       HGA1      CG311      CG314       HGA1
    6     5    28    29	 9 ;      CG314      CG311      OG311       HGP1
    4     5    28    29	 9 ;      CG311      CG311      OG311       HGP1
   44     5    28    29	 9 ;       HGA1      CG311      OG311       HGP1
   30     6     7     1	 9 ;      NG3P2      CG314      CG321      SG3O3
   30     6     7    46	 9 ;      NG3P2      CG314      CG321       HGA2
   30     6     7    47	 9 ;      NG3P2      CG314      CG321       HGA2
    5     6     7     1	 9 ;      CG311      CG314      CG321      SG3O3
    5     6     7    46	 9 ;      CG311      CG314      CG321       HGA2
    5     6     7    47	 9 ;      CG311      CG314      CG321       HGA2
   45     6     7     1	 9 ;       HGA1      CG314      CG321      SG3O3
   45     6     7    46	 9 ;       HGA1      CG314      CG321       HGA2
   45     6     7    47	 9 ;       HGA1      CG314      CG321       HGA2
    7     6    30    32	 9 ;      CG321      CG314      NG3P2       HGP2
    7     6    30    33	 9 ;      CG321      CG314      NG3P2      CG324
    7     6    30    31	 9 ;      CG321      CG314      NG3P2       HGP2
    5     6    30    32	 9 ;      CG311      CG314      NG3P2       HGP2
    5     6    30    33	 9 ;      CG311      CG314      NG3P2      CG324
    5     6    30    31	 9 ;      CG311      CG314      NG3P2       HGP2
   45     6    30    32	 9 ;       HGA1      CG314      NG3P2       HGP2
   45     6    30    33	 9 ;       HGA1      CG314      NG3P2      CG324
   45     6    30    31	 9 ;       HGA1      CG314      NG3P2       HGP2
    4     8     9    15	 9 ;      CG311      CG321     CG2R61     CG2R61
    4     8     9    10	 9 ;      CG311      CG321     CG2R61     CG2R61
   48     8     9    15	 9 ;       HGA2      CG321     CG2R61     CG2R61
   48     8     9    10	 9 ;       HGA2      CG321     CG2R61     CG2R61
   49     8     9    15	 9 ;       HGA2      CG321     CG2R61     CG2R61
   49     8     9    10	 9 ;       HGA2      CG321     CG2R61     CG2R61
    8     9    15    13	 9 ;      CG321     CG2R61     CG2R61     CG2R66
    8     9    15    51	 9 ;      CG321     CG2R61     CG2R61      HGR62
   10     9    15    13	 9 ;     CG2R61     CG2R61     CG2R61     CG2R66
   10     9    15    51	 9 ;     CG2R61     CG2R61     CG2R61      HGR62
    8     9    10    11	 9 ;      CG321     CG2R61     CG2R61     CG2R61
    8     9    10    50	 9 ;      CG321     CG2R61     CG2R61      HGR61
   15     9    10    11	 9 ;     CG2R61     CG2R61     CG2R61     CG2R61
   15     9    10    50	 9 ;     CG2R61     CG2R61     CG2R61      HGR61
    9    10    11    12	 9 ;     CG2R61     CG2R61     CG2R61     CG2R61
    9    10    11    16	 9 ;     CG2R61     CG2R61     CG2R61      OG301
   50    10    11    12	 9 ;      HGR61     CG2R61     CG2R61     CG2R61
   50    10    11    16	 9 ;      HGR61     CG2R61     CG2R61      OG301
   10    11    12    13	 9 ;     CG2R61     CG2R61     CG2R61     CG2R66
   10    11    12    25	 9 ;     CG2R61     CG2R61     CG2R61      NG2S3
   16    11    12    13	 9 ;      OG301     CG2R61     CG2R61     CG2R66
   16    11    12    25	 9 ;      OG301     CG2R61     CG2R61      NG2S3
   10    11    16    17	 9 ;     CG2R61     CG2R61      OG301      CG311
   12    11    16    17	 9 ;     CG2R61     CG2R61      OG301      CG311
   11    12    13    15	 9 ;     CG2R61     CG2R61     CG2R66     CG2R61
   11    12    13    14	 9 ;     CG2R61     CG2R61     CG2R66       FGR1
   25    12    13    15	 9 ;      NG2S3     CG2R61     CG2R66     CG2R61
   25    12    13    14	 9 ;      NG2S3     CG2R61     CG2R66       FGR1
   13    12    25    27	 9 ;     CG2R66     CG2R61      NG2S3       HGP4
   13    12    25    26	 9 ;     CG2R66     CG2R61      NG2S3       HGP4
   11    12    25    27	 9 ;     CG2R61     CG2R61      NG2S3       HGP4
   11    12    25    26	 9 ;     CG2R61     CG2R61      NG2S3       HGP4
   14    13    15     9	 9 ;       FGR1     CG2R66     CG2R61     CG2R61
   14    13    15    51	 9 ;       FGR1     CG2R66     CG2R61      HGR62
   12    13    15     9	 9 ;     CG2R61     CG2R66     CG2R61     CG2R61
   12    13    15    51	 9 ;     CG2R61     CG2R66     CG2R61      HGR62
   11    16    17    22	 9 ;     CG2R61      OG301      CG311      CG321
   11    16    17    18	 9 ;     CG2R61      OG301      CG311      CG302
   11    16    17    52	 9 ;     CG2R61      OG301      CG311       HGA1
   16    17    22    23	 9 ;      OG301      CG311      CG321      OG301
   16    17    22    53	 9 ;      OG301      CG311      CG321       HGA2
   16    17    22    54	 9 ;      OG301      CG311      CG321       HGA2
   18    17    22    23	 9 ;      CG302      CG311      CG321      OG301
   18    17    22    53	 9 ;      CG302      CG311      CG321       HGA2
   18    17    22    54	 9 ;      CG302      CG311      CG321       HGA2
   52    17    22    23	 9 ;       HGA1      CG311      CG321      OG301
   52    17    22    53	 9 ;       HGA1      CG311      CG321       HGA2
   52    17    22    54	 9 ;       HGA1      CG311      CG321       HGA2
   16    17    18    19	 9 ;      OG301      CG311      CG302       FGA3
   16    17    18    20	 9 ;      OG301      CG311      CG302       FGA3
   16    17    18    21	 9 ;      OG301      CG311      CG302       FGA3
   22    17    18    19	 9 ;      CG321      CG311      CG302       FGA3
   22    17    18    20	 9 ;      CG321      CG311      CG302       FGA3
   22    17    18    21	 9 ;      CG321      CG311      CG302       FGA3
   52    17    18    19	 9 ;       HGA1      CG311      CG302       FGA3
   52    17    18    20	 9 ;       HGA1      CG311      CG302       FGA3
   52    17    18    21	 9 ;       HGA1      CG311      CG302       FGA3
   17    22    23    24	 9 ;      CG311      CG321      OG301      CG331
   53    22    23    24	 9 ;       HGA2      CG321      OG301      CG331
   54    22    23    24	 9 ;       HGA2      CG321      OG301      CG331
   22    23    24    55	 9 ;      CG321      OG301      CG331       HGA3
   22    23    24    56	 9 ;      CG321      OG301      CG331       HGA3
   22    23    24    57	 9 ;      CG321      OG301      CG331       HGA3
   32    30    33    34	 9 ;       HGP2      NG3P2      CG324      CG321
   32    30    33    58	 9 ;       HGP2      NG3P2      CG324       HGA2
   32    30    33    59	 9 ;       HGP2      NG3P2      CG324       HGA2
    6    30    33    34	 9 ;      CG314      NG3P2      CG324      CG321
    6    30    33    58	 9 ;      CG314      NG3P2      CG324       HGA2
    6    30    33    59	 9 ;      CG314      NG3P2      CG324       HGA2
   31    30    33    34	 9 ;       HGP2      NG3P2      CG324      CG321
   31    30    33    58	 9 ;       HGP2      NG3P2      CG324       HGA2
   31    30    33    59	 9 ;       HGP2      NG3P2      CG324       HGA2
   30    33    34    35	 9 ;      NG3P2      CG324      CG321      CG321
   30    33    34    60	 9 ;      NG3P2      CG324      CG321       HGA2
   30    33    34    61	 9 ;      NG3P2      CG324      CG321       HGA2
   58    33    34    35	 9 ;       HGA2      CG324      CG321      CG321
   58    33    34    60	 9 ;       HGA2      CG324      CG321       HGA2
   58    33    34    61	 9 ;       HGA2      CG324      CG321       HGA2
   59    33    34    35	 9 ;       HGA2      CG324      CG321      CG321
   59    33    34    60	 9 ;       HGA2      CG324      CG321       HGA2
   59    33    34    61	 9 ;       HGA2      CG324      CG321       HGA2
   33    34    35    36	 9 ;      CG324      CG321      CG321      OG301
   33    34    35    62	 9 ;      CG324      CG321      CG321       HGA2
   33    34    35    63	 9 ;      CG324      CG321      CG321       HGA2
   60    34    35    36	 9 ;       HGA2      CG321      CG321      OG301
   60    34    35    62	 9 ;       HGA2      CG321      CG321       HGA2
   60    34    35    63	 9 ;       HGA2      CG321      CG321       HGA2
   61    34    35    36	 9 ;       HGA2      CG321      CG321      OG301
   61    34    35    62	 9 ;       HGA2      CG321      CG321       HGA2
   61    34    35    63	 9 ;       HGA2      CG321      CG321       HGA2
   34    35    36    37	 9 ;      CG321      CG321      OG301      CG301
   62    35    36    37	 9 ;       HGA2      CG321      OG301      CG301
   63    35    36    37	 9 ;       HGA2      CG321      OG301      CG301
   35    36    37    38	 9 ;      CG321      OG301      CG301      CG331
   35    36    37    40	 9 ;      CG321      OG301      CG301      CG331
   35    36    37    39	 9 ;      CG321      OG301      CG301      CG331
   40    37    38    64	 9 ;      CG331      CG301      CG331       HGA3
   40    37    38    65	 9 ;      CG331      CG301      CG331       HGA3
   40    37    38    66	 9 ;      CG331      CG301      CG331       HGA3
   36    37    38    64	 9 ;      OG301      CG301      CG331       HGA3
   36    37    38    65	 9 ;      OG301      CG301      CG331       HGA3
   36    37    38    66	 9 ;      OG301      CG301      CG331       HGA3
   39    37    38    64	 9 ;      CG331      CG301      CG331       HGA3
   39    37    38    65	 9 ;      CG331      CG301      CG331       HGA3
   39    37    38    66	 9 ;      CG331      CG301      CG331       HGA3
   38    37    40    70	 9 ;      CG331      CG301      CG331       HGA3
   38    37    40    71	 9 ;      CG331      CG301      CG331       HGA3
   38    37    40    72	 9 ;      CG331      CG301      CG331       HGA3
   36    37    40    70	 9 ;      OG301      CG301      CG331       HGA3
   36    37    40    71	 9 ;      OG301      CG301      CG331       HGA3
   36    37    40    72	 9 ;      OG301      CG301      CG331       HGA3
   39    37    40    70	 9 ;      CG331      CG301      CG331       HGA3
   39    37    40    71	 9 ;      CG331      CG301      CG331       HGA3
   39    37    40    72	 9 ;      CG331      CG301      CG331       HGA3
   38    37    39    67	 9 ;      CG331      CG301      CG331       HGA3
   38    37    39    68	 9 ;      CG331      CG301      CG331       HGA3
   38    37    39    69	 9 ;      CG331      CG301      CG331       HGA3
   40    37    39    67	 9 ;      CG331      CG301      CG331       HGA3
   40    37    39    68	 9 ;      CG331      CG301      CG331       HGA3
   40    37    39    69	 9 ;      CG331      CG301      CG331       HGA3
   36    37    39    67	 9 ;      OG301      CG301      CG331       HGA3
   36    37    39    68	 9 ;      OG301      CG301      CG331       HGA3
   36    37    39    69	 9 ;      OG301      CG301      CG331       HGA3

[ dihedrals ]
;	ai	  aj	ak	  al funct			  c0			c1			  c2			c3
   25    26    27    12	 2

