Green Red Orange Magenta Azure Cyan Skyblue
   72
    1LIG      S    1  -1.493   0.494  -1.873
    1LIG     O1    2  -1.536   0.616  -1.797
    1LIG     C1    3  -1.619   0.364  -1.842
    1LIG     C2    4  -1.652   0.357  -1.693
    1LIG     C3    5  -1.528   0.311  -1.613
    1LIG     C4    6  -1.403   0.404  -1.628
    1LIG     C5    7  -1.361   0.419  -1.774
    1LIG     C6    8  -1.773   0.265  -1.664
    1LIG     C7    9  -1.879   0.314  -1.569
    1LIG     C8   10  -1.960   0.225  -1.495
    1LIG     C9   11  -2.070   0.272  -1.421
    1LIG    C10   12  -2.098   0.410  -1.415
    1LIG    C11   13  -2.012   0.497  -1.483
    1LIG     F1   14  -2.035   0.630  -1.478
    1LIG    C12   15  -1.907   0.451  -1.561
    1LIG     O2   16  -2.157   0.190  -1.351
    1LIG    C13   17  -2.179   0.059  -1.407
    1LIG    C14   18  -2.175  -0.050  -1.300
    1LIG     F2   19  -2.132  -0.169  -1.348
    1LIG     F3   20  -2.097  -0.019  -1.194
    1LIG     F4   21  -2.300  -0.071  -1.251
    1LIG    C15   22  -2.316   0.053  -1.478
    1LIG     O3   23  -2.301   0.028  -1.618
    1LIG    C16   24  -2.406  -0.056  -1.666
    1LIG     N1   25  -2.197   0.461  -1.328
    1LIG     H1   26  -2.281   0.405  -1.326
    1LIG     H2   27  -2.159   0.482  -1.235
    1LIG     O4   28  -1.481   0.181  -1.651
    1LIG     H3   29  -1.386   0.172  -1.634
    1LIG     N2   30  -1.292   0.331  -1.549
    1LIG     H4   31  -1.327   0.238  -1.525
    1LIG     H5   32  -1.217   0.314  -1.618
    1LIG    C17   33  -1.237   0.396  -1.426
    1LIG    C18   34  -1.252   0.304  -1.305
    1LIG    C19   35  -1.288   0.158  -1.335
    1LIG     O5   36  -1.194   0.071  -1.273
    1LIG    C20   37  -1.135  -0.031  -1.358
    1LIG    C21   38  -0.981  -0.024  -1.348
    1LIG    C22   39  -1.184  -0.166  -1.304
    1LIG    C23   40  -1.179  -0.018  -1.505
    1LIG    HC2   41  -1.709   0.388  -1.898
    1LIG    HC3   42  -1.580   0.268  -1.875
    1LIG     HC   43  -1.678   0.458  -1.660
    1LIG    HC1   44  -1.555   0.308  -1.507
    1LIG    HC4   45  -1.423   0.502  -1.584
    1LIG    HC5   46  -1.272   0.481  -1.780
    1LIG    HC6   47  -1.338   0.320  -1.815
    1LIG    HC7   48  -1.822   0.244  -1.759
    1LIG    HC8   49  -1.734   0.170  -1.625
    1LIG    HC9   50  -1.938   0.120  -1.496
    1LIG   HC10   51  -1.847   0.521  -1.617
    1LIG   HC11   52  -2.101   0.039  -1.480
    1LIG   HC12   53  -2.367   0.148  -1.464
    1LIG   HC13   54  -2.375  -0.026  -1.433
    1LIG   HC14   55  -2.393  -0.074  -1.773
    1LIG   HC15   56  -2.502  -0.007  -1.649
    1LIG   HC16   57  -2.404  -0.151  -1.613
    1LIG   HC17   58  -1.291   0.489  -1.408
    1LIG   HC18   59  -1.131   0.419  -1.442
    1LIG   HC19   60  -1.157   0.304  -1.252
    1LIG   HC20   61  -1.328   0.346  -1.240
    1LIG   HC21   62  -1.387   0.137  -1.296
    1LIG   HC22   63  -1.287   0.142  -1.442
    1LIG   HC23   64  -0.947   0.072  -1.387
    1LIG   HC24   65  -0.951  -0.035  -1.244
    1LIG   HC25   66  -0.938  -0.104  -1.407
    1LIG   HC26   67  -1.154  -0.177  -1.200
    1LIG   HC27   68  -1.293  -0.170  -1.311
    1LIG   HC28   69  -1.141  -0.247  -1.364
    1LIG   HC29   70  -1.132  -0.097  -1.564
    1LIG   HC30   71  -1.149   0.079  -1.544
    1LIG   HC31   72  -1.287  -0.028  -1.511
   0.00000   0.00000   0.00000
