Great Red Owns Many ACres of Sand 
  100
    1LIG     C1    1  -1.240   0.633  -1.522
    1LIG     N1    2  -1.387   0.619  -1.503
    1LIG     C2    3  -1.457   0.509  -1.551
    1LIG     O1    4  -1.406   0.419  -1.616
    1LIG     H1    5  -1.436   0.704  -1.479
    1LIG     C3    6  -1.605   0.510  -1.531
    1LIG     C4    7  -1.686   0.608  -1.590
    1LIG     C5    8  -1.814   0.634  -1.539
    1LIG     C6    9  -1.867   0.551  -1.439
    1LIG     C7   10  -1.794   0.438  -1.396
    1LIG     C8   11  -1.665   0.418  -1.445
    1LIG     N2   12  -1.888   0.751  -1.583
    1LIG     C9   13  -2.030   0.730  -1.621
    1LIG      S   14  -1.845   0.903  -1.520
    1LIG     O2   15  -1.789   0.882  -1.387
    1LIG     O3   16  -1.953   0.996  -1.539
    1LIG    C10   17  -1.708   0.953  -1.623
    1LIG    C11   18  -1.837   0.345  -1.288
    1LIG     O4   19  -1.783   0.355  -1.178
    1LIG     N3   20  -1.934   0.250  -1.305
    1LIG    C12   21  -2.011   0.209  -1.419
    1LIG     H2   22  -1.950   0.199  -1.218
    1LIG    C13   23  -1.161   0.600  -1.393
    1LIG     O5   24  -1.088   0.478  -1.412
    1LIG    C14   25  -1.166   0.363  -1.383
    1LIG    C15   26  -1.097   0.237  -1.431
    1LIG    C16   27  -0.961   0.217  -1.401
    1LIG    C17   28  -0.901   0.094  -1.426
    1LIG     F1   29  -0.773   0.076  -1.394
    1LIG    C18   30  -0.974  -0.012  -1.479
    1LIG    C19   31  -1.107   0.009  -1.513
    1LIG     F2   32  -1.179  -0.093  -1.561
    1LIG    C20   33  -1.168   0.132  -1.492
    1LIG    C21   34  -1.204   0.775  -1.568
    1LIG    C22   35  -1.320   0.849  -1.636
    1LIG    C23   36  -1.333   0.819  -1.788
    1LIG    C24   37  -1.413   0.930  -1.855
    1LIG    C25   38  -1.197   0.791  -1.854
    1LIG     O6   39  -1.108   0.876  -1.860
    1LIG     N4   40  -1.166   0.670  -1.908
    1LIG     H3   41  -1.070   0.667  -1.942
    1LIG    C26   42  -1.230   0.539  -1.892
    1LIG    C27   43  -1.354   0.529  -1.985
    1LIG     O7   44  -1.345   0.544  -2.107
    1LIG     N5   45  -1.472   0.491  -1.924
    1LIG     H4   46  -1.472   0.472  -1.825
    1LIG    C28   47  -1.596   0.482  -1.997
    1LIG    C29   48  -1.707   0.430  -1.910
    1LIG    C30   49  -1.833   0.491  -1.912
    1LIG    C31   50  -1.937   0.443  -1.831
    1LIG    C32   51  -1.914   0.334  -1.747
    1LIG    C33   52  -1.789   0.273  -1.744
    1LIG    C34   53  -1.686   0.321  -1.824
    1LIG    C35   54  -1.133   0.419  -1.913
    1LIG    C36   55  -1.009   0.454  -1.996
    1LIG    C37   56  -1.089   0.357  -1.781
    1LIG     O8   57  -1.160   0.847  -1.452
    1LIG     H5   58  -1.144   0.939  -1.478
    1LIG     HC   59  -1.210   0.563  -1.600
    1LIG    HC1   60  -1.649   0.664  -1.675
    1LIG    HC2   61  -1.963   0.573  -1.395
    1LIG    HC3   62  -1.610   0.329  -1.416
    1LIG    HC4   63  -2.045   0.626  -1.649
    1LIG    HC5   64  -2.094   0.754  -1.536
    1LIG    HC6   65  -2.055   0.795  -1.705
    1LIG    HC7   66  -1.710   1.061  -1.637
    1LIG    HC8   67  -1.614   0.924  -1.575
    1LIG    HC9   68  -1.716   0.904  -1.720
    1LIG   HC10   69  -2.091   0.142  -1.387
    1LIG   HC11   70  -2.054   0.296  -1.468
    1LIG   HC12   71  -1.946   0.156  -1.489
    1LIG   HC13   72  -1.091   0.681  -1.372
    1LIG   HC14   73  -1.230   0.588  -1.310
    1LIG   HC15   74  -1.182   0.356  -1.276
    1LIG   HC16   75  -1.263   0.372  -1.434
    1LIG   HC17   76  -0.904   0.297  -1.357
    1LIG   HC18   77  -0.927  -0.108  -1.495
    1LIG   HC19   78  -1.271   0.148  -1.522
    1LIG   HC20   79  -1.120   0.768  -1.638
    1LIG   HC21   80  -1.413   0.819  -1.587
    1LIG   HC22   81  -1.306   0.956  -1.623
    1LIG   HC23   82  -1.392   0.727  -1.798
    1LIG   HC24   83  -1.423   0.909  -1.962
    1LIG   HC25   84  -1.362   1.025  -1.841
    1LIG   HC26   85  -1.513   0.935  -1.811
    1LIG   HC27   86  -1.266   0.533  -1.789
    1LIG   HC28   87  -1.583   0.415  -2.082
    1LIG   HC29   88  -1.623   0.582  -2.033
    1LIG   HC30   89  -1.851   0.575  -1.977
    1LIG   HC31   90  -2.034   0.490  -1.834
    1LIG   HC32   91  -1.995   0.296  -1.685
    1LIG   HC33   92  -1.772   0.188  -1.679
    1LIG   HC34   93  -1.588   0.275  -1.820
    1LIG   HC35   94  -1.188   0.343  -1.968
    1LIG   HC36   95  -0.964   0.362  -2.033
    1LIG   HC37   96  -1.039   0.517  -2.081
    1LIG   HC38   97  -0.938   0.508  -1.934
    1LIG   HC39   98  -1.176   0.332  -1.721
    1LIG   HC40   99  -1.027   0.428  -1.726
    1LIG   HC41  100  -1.031   0.266  -1.800
   0.00000   0.00000   0.00000
