Guyana Rwanda Oman Macau Angola Cameroon Senegal
   88
    1LIG     C1    1  -1.383   0.701  -1.851
    1LIG     N1    2  -1.512   0.645  -1.896
    1LIG     C2    3  -1.552   0.515  -1.917
    1LIG     O1    4  -1.655   0.498  -1.981
    1LIG     H1    5  -1.569   0.705  -1.955
    1LIG     C3    6  -1.474   0.403  -1.867
    1LIG     C4    7  -1.367   0.326  -1.924
    1LIG     C5    8  -1.289   0.332  -2.040
    1LIG     C6    9  -1.340   0.219  -1.839
    1LIG     C7   10  -1.212   0.223  -2.078
    1LIG     C8   11  -1.201   0.119  -1.988
    1LIG     N2   12  -1.258   0.116  -1.865
    1LIG     HN   13  -1.239   0.041  -1.798
    1LIG     N3   14  -1.409   0.242  -1.722
    1LIG     C9   15  -1.493   0.350  -1.741
    1LIG    C10   16  -1.396   0.172  -1.603
    1LIG     O2   17  -1.476   0.083  -1.579
    1LIG     N4   18  -1.296   0.222  -1.522
    1LIG    C11   19  -1.214   0.340  -1.546
    1LIG    C12   20  -1.275   0.171  -1.386
    1LIG    C13   21  -1.092   0.316  -1.459
    1LIG    C14   22  -1.150   0.247  -1.336
    1LIG    C15   23  -1.265   0.018  -1.377
    1LIG     O3   24  -1.153  -0.034  -1.450
    1LIG    C16   25  -1.166  -0.175  -1.464
    1LIG    C17   26  -1.279  -0.227  -1.377
    1LIG    C18   27  -1.288   0.738  -1.967
    1LIG    C19   28  -1.160   0.659  -1.965
    1LIG    C20   29  -1.088   0.637  -2.083
    1LIG    C21   30  -0.981   0.548  -2.083
    1LIG     F1   31  -0.918   0.522  -2.199
    1LIG    C22   32  -0.944   0.480  -1.968
    1LIG    C23   33  -1.012   0.507  -1.850
    1LIG    C24   34  -1.118   0.597  -1.847
    1LIG     F2   35  -0.980   0.442  -1.738
    1LIG    C25   36  -1.409   0.815  -1.747
    1LIG    C26   37  -1.344   0.784  -1.610
    1LIG     N5   38  -1.430   0.817  -1.492
    1LIG     H2   39  -1.401   0.757  -1.414
    1LIG     H3   40  -1.412   0.913  -1.458
    1LIG    C27   41  -1.576   0.796  -1.510
    1LIG    C28   42  -1.620   0.675  -1.434
    1LIG    C29   43  -1.716   0.686  -1.332
    1LIG    C30   44  -1.758   0.572  -1.263
    1LIG    C31   45  -1.701   0.448  -1.294
    1LIG    C32   46  -1.608   0.436  -1.397
    1LIG    C33   47  -1.569   0.549  -1.468
    1LIG     O4   48  -1.849   0.571  -1.161
    1LIG    C34   49  -1.891   0.443  -1.116
    1LIG     O5   50  -1.353   0.937  -1.797
    1LIG     H4   51  -1.268   0.958  -1.754
    1LIG     HC   52  -1.334   0.621  -1.795
    1LIG    HC1   53  -1.288   0.422  -2.100
    1LIG    HC2   54  -1.163   0.219  -2.174
    1LIG    HC3   55  -1.143   0.033  -2.018
    1LIG    HC4   56  -1.564   0.387  -1.668
    1LIG    HC5   57  -1.187   0.348  -1.651
    1LIG    HC6   58  -1.267   0.430  -1.513
    1LIG    HC7   59  -1.359   0.203  -1.325
    1LIG    HC8   60  -1.021   0.252  -1.511
    1LIG    HC9   61  -1.046   0.411  -1.432
    1LIG   HC10   62  -1.177   0.320  -1.260
    1LIG   HC11   63  -1.077   0.176  -1.296
    1LIG   HC12   64  -1.254  -0.010  -1.272
    1LIG   HC13   65  -1.356  -0.026  -1.416
    1LIG   HC14   66  -1.073  -0.223  -1.433
    1LIG   HC15   67  -1.186  -0.199  -1.568
    1LIG   HC16   68  -1.264   0.844  -1.960
    1LIG   HC17   69  -1.339   0.720  -2.062
    1LIG   HC18   70  -1.115   0.688  -2.174
    1LIG   HC19   71  -0.864   0.408  -1.970
    1LIG   HC20   72  -1.168   0.620  -1.753
    1LIG   HC21   73  -1.516   0.828  -1.734
    1LIG   HC22   74  -1.251   0.840  -1.602
    1LIG   HC23   75  -1.320   0.677  -1.606
    1LIG   HC24   76  -1.630   0.883  -1.473
    1LIG   HC25   77  -1.598   0.782  -1.616
    1LIG   HC26   78  -1.757   0.782  -1.306
    1LIG   HC27   79  -1.730   0.360  -1.237
    1LIG   HC28   80  -1.567   0.340  -1.421
    1LIG   HC29   81  -1.498   0.539  -1.549
    1LIG   HC30   82  -1.282  -0.336  -1.381
    1LIG   HC31   83  -1.374  -0.187  -1.414
    1LIG   HC32   84  -1.264  -0.194  -1.275
    1LIG   HC33   85  -1.977   0.454  -1.049
    1LIG   HC34   86  -1.810   0.394  -1.063
    1LIG   HC35   87  -1.920   0.382  -1.202
    1LIG    H42   88  -1.425   0.164  -1.880
   0.00000   0.00000   0.00000
