Green Red Orange Magenta Azure Cyan Skyblue
   67
    1LIG     C1    1  -1.298   0.673  -1.626
    1LIG     C2    2  -1.202   0.579  -1.548
    1LIG     O1    3  -1.192   0.625  -1.413
    1LIG     H1    4  -1.101   0.616  -1.379
    1LIG     C3    5  -1.234   0.428  -1.565
    1LIG     N1    6  -1.127   0.369  -1.648
    1LIG     C4    7  -1.141   0.351  -1.784
    1LIG     O2    8  -1.237   0.392  -1.846
    1LIG     C5    9  -1.021   0.289  -1.847
    1LIG     H2   10  -1.046   0.330  -1.603
    1LIG     C6   11  -1.241   0.353  -1.429
    1LIG     C7   12  -1.193   0.209  -1.438
    1LIG     C8   13  -1.263   0.115  -1.514
    1LIG     C9   14  -1.222  -0.019  -1.517
    1LIG     F1   15  -1.292  -0.107  -1.589
    1LIG    C10   16  -1.111  -0.061  -1.444
    1LIG    C11   17  -1.041   0.033  -1.371
    1LIG    C12   18  -1.081   0.167  -1.365
    1LIG     F2   19  -0.934  -0.005  -1.300
    1LIG     N2   20  -1.404   0.583  -1.681
    1LIG     H3   21  -1.386   0.567  -1.782
    1LIG     H4   22  -1.387   0.490  -1.641
    1LIG    C13   23  -1.550   0.604  -1.664
    1LIG    C14   24  -1.617   0.703  -1.756
    1LIG    C15   25  -1.600   0.736  -1.610
    1LIG    C16   26  -1.721   0.746  -1.522
    1LIG    C17   27  -1.616   0.469  -1.643
    1LIG    C18   28  -1.746   0.464  -1.588
    1LIG    C19   29  -1.829   0.350  -1.596
    1LIG    C20   30  -1.774   0.236  -1.658
    1LIG    C21   31  -1.643   0.237  -1.708
    1LIG    C22   32  -1.565   0.352  -1.701
    1LIG    C23   33  -1.974   0.356  -1.544
    1LIG    C24   34  -2.033   0.496  -1.574
    1LIG    C25   35  -2.067   0.252  -1.611
    1LIG    C26   36  -1.980   0.331  -1.391
    1LIG     F3   37  -2.018   0.203  -1.365
    1LIG     F4   38  -1.858   0.348  -1.334
    1LIG    HC2   39  -1.341   0.747  -1.559
    1LIG    HC3   40  -1.244   0.722  -1.707
    1LIG     HC   41  -1.103   0.594  -1.592
    1LIG    HC1   42  -1.329   0.418  -1.617
    1LIG    HC4   43  -1.038   0.277  -1.954
    1LIG    HC5   44  -0.934   0.353  -1.832
    1LIG    HC6   45  -1.002   0.191  -1.803
    1LIG    HC7   46  -1.344   0.354  -1.395
    1LIG    HC8   47  -1.180   0.406  -1.356
    1LIG    HC9   48  -1.349   0.145  -1.571
    1LIG   HC10   49  -1.081  -0.164  -1.445
    1LIG   HC11   50  -1.025   0.237  -1.306
    1LIG   HC12   51  -1.558   0.757  -1.831
    1LIG   HC13   52  -1.718   0.677  -1.787
    1LIG   HC14   53  -1.523   0.809  -1.589
    1LIG   HC15   54  -1.730   0.848  -1.485
    1LIG   HC16   55  -1.810   0.719  -1.579
    1LIG   HC17   56  -1.710   0.677  -1.438
    1LIG   HC18   57  -1.784   0.551  -1.537
    1LIG   HC19   58  -1.834   0.147  -1.667
    1LIG   HC20   59  -1.603   0.147  -1.753
    1LIG   HC21   60  -1.465   0.351  -1.740
    1LIG   HC22   61  -1.970   0.572  -1.529
    1LIG   HC23   62  -2.133   0.502  -1.533
    1LIG   HC24   63  -2.036   0.511  -1.682
    1LIG   HC25   64  -2.030   0.152  -1.592
    1LIG   HC26   65  -2.168   0.262  -1.570
    1LIG   HC27   66  -2.070   0.270  -1.719
    1LIG   HC28   67  -2.052   0.400  -1.346
   0.00000   0.00000   0.00000
