GRoups of Organic Molecules in ACtion for Science
   70
    1LIG     N1    1  -1.599   0.382  -1.497
    1LIG     H1    2  -1.535   0.401  -1.419
    1LIG     H2    3  -1.591   0.468  -1.554
    1LIG     C1    4  -1.542   0.274  -1.586
    1LIG     C2    5  -1.415   0.328  -1.661
    1LIG     O1    6  -1.467   0.440  -1.733
    1LIG     H3    7  -1.467   0.517  -1.672
    1LIG     C3    8  -1.293   0.367  -1.569
    1LIG     C4    9  -1.162   0.315  -1.635
    1LIG     C5   10  -1.100   0.194  -1.567
    1LIG     C6   11  -1.163   0.070  -1.570
    1LIG     C7   12  -1.106  -0.040  -1.505
    1LIG     F1   13  -1.169  -0.157  -1.508
    1LIG     C8   14  -0.985  -0.028  -1.437
    1LIG     C9   15  -0.921   0.095  -1.437
    1LIG    C10   16  -0.977   0.206  -1.501
    1LIG     F2   17  -0.804   0.108  -1.373
    1LIG     N2   18  -1.270   0.513  -1.541
    1LIG    C11   19  -1.197   0.572  -1.441
    1LIG     O2   20  -1.152   0.510  -1.344
    1LIG    C12   21  -1.178   0.721  -1.457
    1LIG     H4   22  -1.280   0.573  -1.622
    1LIG    C13   23  -1.743   0.369  -1.442
    1LIG    C14   24  -1.728   0.362  -1.288
    1LIG    C15   25  -1.860   0.328  -1.219
    1LIG    C16   26  -1.916   0.194  -1.266
    1LIG    C17   27  -1.924   0.185  -1.418
    1LIG    C18   28  -1.796   0.231  -1.489
    1LIG    C19   29  -1.828   0.490  -1.485
    1LIG    C20   30  -1.768   0.618  -1.492
    1LIG    C21   31  -1.831   0.729  -1.550
    1LIG    C22   32  -1.966   0.716  -1.584
    1LIG    C23   33  -2.032   0.594  -1.569
    1LIG    C24   34  -1.962   0.482  -1.523
    1LIG     N3   35  -1.759   0.848  -1.578
    1LIG    C25   36  -1.628   0.847  -1.635
    1LIG    C26   37  -1.602   0.994  -1.661
    1LIG     O3   38  -1.682   1.060  -1.562
    1LIG    C27   39  -1.777   0.971  -1.517
    1LIG     O4   40  -1.859   1.003  -1.432
    1LIG    HC2   41  -1.617   0.244  -1.660
    1LIG    HC3   42  -1.514   0.188  -1.526
    1LIG     HC   43  -1.382   0.252  -1.732
    1LIG    HC1   44  -1.305   0.316  -1.473
    1LIG    HC4   45  -1.089   0.395  -1.633
    1LIG    HC5   46  -1.183   0.289  -1.738
    1LIG    HC6   47  -1.257   0.058  -1.622
    1LIG    HC7   48  -0.943  -0.112  -1.385
    1LIG    HC8   49  -0.924   0.300  -1.501
    1LIG    HC9   50  -1.119   0.759  -1.373
    1LIG   HC10   51  -1.126   0.741  -1.550
    1LIG   HC11   52  -1.275   0.770  -1.458
    1LIG   HC12   53  -1.693   0.458  -1.251
    1LIG   HC13   54  -1.654   0.285  -1.263
    1LIG   HC14   55  -1.844   0.323  -1.111
    1LIG   HC15   56  -1.933   0.407  -1.240
    1LIG   HC16   57  -2.016   0.181  -1.225
    1LIG   HC17   58  -1.851   0.114  -1.230
    1LIG   HC18   59  -1.944   0.082  -1.445
    1LIG   HC19   60  -2.007   0.247  -1.452
    1LIG   HC20   61  -1.817   0.237  -1.596
    1LIG   HC21   62  -1.718   0.156  -1.473
    1LIG   HC22   63  -1.669   0.631  -1.451
    1LIG   HC23   64  -2.020   0.801  -1.624
    1LIG   HC24   65  -2.137   0.587  -1.591
    1LIG   HC25   66  -2.013   0.387  -1.518
    1LIG   HC26   67  -1.625   0.790  -1.728
    1LIG   HC27   68  -1.555   0.807  -1.564
    1LIG   HC28   69  -1.497   1.018  -1.648
    1LIG   HC29   70  -1.635   1.021  -1.761
   0.00000   0.00000   0.00000
