Getting the Right Output Means no Artefacts in Calculating Stuff
   54
    1LIG     F1    1  -1.461   0.999  -1.844
    1LIG     C1    2  -1.399   0.898  -1.782
    1LIG     C2    3  -1.271   0.863  -1.825
    1LIG     C3    4  -1.205   0.752  -1.771
    1LIG     C4    5  -1.266   0.675  -1.672
    1LIG     C5    6  -1.393   0.714  -1.627
    1LIG     C6    7  -1.463   0.826  -1.681
    1LIG     N1    8  -1.212   0.555  -1.620
    1LIG     C7    9  -1.246   0.425  -1.655
    1LIG     O1   10  -1.318   0.393  -1.748
    1LIG     H1   11  -1.142   0.562  -1.546
    1LIG     C8   12  -1.188   0.317  -1.567
    1LIG     N2   13  -1.137   0.207  -1.628
    1LIG     C9   14  -1.074   0.117  -1.546
    1LIG    HN3   15  -1.144   0.192  -1.729
    1LIG    C10   16  -1.062   0.129  -1.408
    1LIG    C11   17  -1.118   0.242  -1.349
    1LIG    C12   18  -1.181   0.337  -1.429
    1LIG     O2   19  -0.990   0.031  -1.345
    1LIG    C13   20  -1.028  -0.105  -1.367
    1LIG    C14   21  -1.165  -0.127  -1.303
    1LIG    C15   22  -1.608   0.851  -1.634
    1LIG     N3   23  -1.609   0.982  -1.563
    1LIG    C16   24  -1.696   1.072  -1.584
    1LIG    HN4   25  -1.536   0.999  -1.494
    1LIG     O3   26  -1.803   1.062  -1.664
    1LIG    C17   27  -1.841   0.929  -1.702
    1LIG    C18   28  -1.722   0.843  -1.740
    1LIG     F2   29  -1.765   0.715  -1.756
    1LIG     F3   30  -1.680   0.886  -1.863
    1LIG    C19   31  -1.634   0.744  -1.525
    1LIG     N4   32  -1.689   1.193  -1.526
    1LIG     H2   33  -1.595   1.225  -1.507
    1LIG     H3   34  -1.753   1.203  -1.448
    1LIG     HC   35  -1.222   0.923  -1.900
    1LIG    HC1   36  -1.106   0.726  -1.806
    1LIG    HC2   37  -1.439   0.657  -1.547
    1LIG    HC3   38  -1.031   0.030  -1.592
    1LIG    HC4   39  -1.113   0.255  -1.242
    1LIG    HC5   40  -1.225   0.425  -1.385
    1LIG    HC6   41  -0.955  -0.172  -1.321
    1LIG    HC7   42  -1.035  -0.125  -1.474
    1LIG    HC8   43  -1.175  -0.232  -1.274
    1LIG    HC9   44  -1.174  -0.064  -1.214
    1LIG   HC10   45  -1.243  -0.102  -1.374
    1LIG    HN2   46  -1.550   1.021  -1.635
    1LIG   HC11   47  -1.755   1.035  -1.500
    1LIG   HC12   48  -1.908   0.935  -1.787
    1LIG   HC13   49  -1.893   0.882  -1.619
    1LIG   HC14   50  -1.735   0.757  -1.485
    1LIG   HC15   51  -1.625   0.645  -1.569
    1LIG   HC16   52  -1.562   0.755  -1.445
    1LIG    HN1   53  -1.724   1.257  -1.596
    1LIG    H25   54  -1.285   0.269  -1.558
   0.00000   0.00000   0.00000
