; Created by cgenff_charmm2gmx.py

[ moleculetype ]
; Name			   nrexcl
LIG				 3

[ atoms ]
;	 nr		  type	resnr residue  atom   cgnr	   charge		mass  typeB    chargeB		massB
; residue	 1 LIG rtp LIG q	qsum
     1       FGR1      1    LIG     F1      1     -0.137     18.998   ;
     2     CG2R66      1    LIG     C1      2      0.015     12.011   ;
     3     CG2R61      1    LIG     C2      3     -0.093     12.011   ;
     4     CG2R61      1    LIG     C3      4     -0.154     12.011   ;
     5     CG2R61      1    LIG     C4      5      0.167     12.011   ;
     6     CG2R61      1    LIG     C5      6     -0.160     12.011   ;
     7     CG2R61      1    LIG     C6      7      0.115     12.011   ;
     8      NG2S1      1    LIG     N1      8     -0.504     14.007   ;
     9      CG2O1      1    LIG     C7      9      0.362     12.011   ;
    10      OG2D1      1    LIG     O1     10     -0.480     15.999   ;
    11       HGP1      1    LIG     H1     11      0.329      1.008   ;
    12      CG311      1    LIG     C8     12      0.422     12.011   ;
    13      NG311      1    LIG     N2     13     -0.539     14.007   ;
    14     CG2D1O      1    LIG     C9     14     -0.088     12.011   ;
    15     HGPAM1      1    LIG    HN3     15      0.375      1.008   ;
    16     CG2D1O      1    LIG    C10     16     -0.004     12.011   ;
    17     CG2DC2      1    LIG    C11     17     -0.071     12.011   ;
    18     CG2DC2      1    LIG    C12     18     -0.381     12.011   ;
    19      OG301      1    LIG     O2     19     -0.286     15.999   ;
    20      CG321      1    LIG    C13     20      0.098     12.011   ;
    21      CG331      1    LIG    C14     21     -0.330     12.011   ;
    22      CG301      1    LIG    C15     22      0.571     12.011   ;
    23      NG3P2      1    LIG     N3     23     -0.570     14.007   ;
    24      CG314      1    LIG    C16     24      0.622     12.011   ;
    25       HGP2      1    LIG    HN4     25      0.372      1.008   ;
    26     OG3C61      1    LIG     O3     26     -0.315     15.999   ;
    27      CG321      1    LIG    C17     27      0.157     12.011   ;
    28      CG312      1    LIG    C18     28      0.229     12.011   ;
    29       FGA2      1    LIG     F2     29     -0.186     18.998   ;
    30       FGA2      1    LIG     F3     30     -0.186     18.998   ;
    31      CG331      1    LIG    C19     31     -0.325     12.011   ;
    32      NG3P3      1    LIG     N4     32     -0.358     14.007   ;
    33       HGP2      1    LIG     H2     33      0.333      1.008   ;
    34       HGP2      1    LIG     H3     34      0.333      1.008   ;
    35      HGR62      1    LIG     HC     35      0.179      1.008   ;
    36      HGR61      1    LIG    HC1     36      0.116      1.008   ;
    37      HGR61      1    LIG    HC2     37      0.116      1.008   ;
    38       HGA4      1    LIG    HC3     38      0.141      1.008   ;
    39       HGA4      1    LIG    HC4     39      0.120      1.008   ;
    40       HGA4      1    LIG    HC5     40      0.158      1.008   ;
    41       HGA2      1    LIG    HC6     41      0.090      1.008   ;
    42       HGA2      1    LIG    HC7     42      0.090      1.008   ;
    43       HGA3      1    LIG    HC8     43      0.090      1.008   ;
    44       HGA3      1    LIG    HC9     44      0.090      1.008   ;
    45       HGA3      1    LIG   HC10     45      0.090      1.008   ;
    46       HGP2      1    LIG    HN2     46      0.372      1.008   ;
    47       HGA1      1    LIG   HC11     47      0.142      1.008   ;
    48       HGA2      1    LIG   HC12     48      0.090      1.008   ;
    49       HGA2      1    LIG   HC13     49      0.090      1.008   ;
    50       HGA3      1    LIG   HC14     50      0.090      1.008   ;
    51       HGA3      1    LIG   HC15     51      0.090      1.008   ;
    52       HGA3      1    LIG   HC16     52      0.090      1.008   ;
    53       HGP2      1    LIG    HN1     53      0.333      1.008   ;
    54       HGA1      1    LIG    H25     54      0.090      1.008   ;

[ bonds ]
;	ai	  aj funct			  c0			c1			  c2			c3
    1     2	 1 ;        FGR1     CG2R66
    2     3	 1 ;      CG2R66     CG2R61
    2     7	 1 ;      CG2R66     CG2R61
    3     4	 1 ;      CG2R61     CG2R61
    3    35	 1 ;      CG2R61      HGR62
    4     5	 1 ;      CG2R61     CG2R61
    4    36	 1 ;      CG2R61      HGR61
    5     8	 1 ;      CG2R61      NG2S1
    5     6	 1 ;      CG2R61     CG2R61
    6     7	 1 ;      CG2R61     CG2R61
    6    37	 1 ;      CG2R61      HGR61
    7    22	 1 ;      CG2R61      CG301
    8    11	 1 ;       NG2S1       HGP1
    8     9	 1 ;       NG2S1      CG2O1
    9    10	 1 ;       CG2O1      OG2D1
    9    12	 1 ;       CG2O1      CG311
   12    13	 1 ;       CG311      NG311
   12    18	 1 ;       CG311     CG2DC2
   12    54	 1 ;       CG311       HGA1
   13    15	 1 ;       NG311     HGPAM1
   13    14	 1 ;       NG311     CG2D1O
   14    16	 1 ;      CG2D1O     CG2D1O
   14    38	 1 ;      CG2D1O       HGA4
   16    19	 1 ;      CG2D1O      OG301
   16    17	 1 ;      CG2D1O     CG2DC2
   17    18	 1 ;      CG2DC2     CG2DC2
   17    39	 1 ;      CG2DC2       HGA4
   18    40	 1 ;      CG2DC2       HGA4
   19    20	 1 ;       OG301      CG321
   20    21	 1 ;       CG321      CG331
   20    41	 1 ;       CG321       HGA2
   20    42	 1 ;       CG321       HGA2
   21    43	 1 ;       CG331       HGA3
   21    44	 1 ;       CG331       HGA3
   21    45	 1 ;       CG331       HGA3
   22    23	 1 ;       CG301      NG3P2
   22    28	 1 ;       CG301      CG312
   22    31	 1 ;       CG301      CG331
   23    25	 1 ;       NG3P2       HGP2
   23    24	 1 ;       NG3P2      CG314
   23    46	 1 ;       NG3P2       HGP2
   24    32	 1 ;       CG314      NG3P3
   24    26	 1 ;       CG314     OG3C61
   24    47	 1 ;       CG314       HGA1
   26    27	 1 ;      OG3C61      CG321
   27    28	 1 ;       CG321      CG312
   27    48	 1 ;       CG321       HGA2
   27    49	 1 ;       CG321       HGA2
   28    30	 1 ;       CG312       FGA2
   28    29	 1 ;       CG312       FGA2
   31    50	 1 ;       CG331       HGA3
   31    51	 1 ;       CG331       HGA3
   31    52	 1 ;       CG331       HGA3
   32    33	 1 ;       NG3P3       HGP2
   32    34	 1 ;       NG3P3       HGP2
   32    53	 1 ;       NG3P3       HGP2

[ pairs ]
;	ai	  aj funct			  c0			c1			  c2			c3
    1     4	 1
    1    35	 1
    1     6	 1
    1    22	 1
    2     5	 1
    2    36	 1
    2    37	 1
    2    23	 1
    2    28	 1
    2    31	 1
    3     6	 1
    3    22	 1
    3     8	 1
    4     7	 1
    4    11	 1
    4     9	 1
    4    37	 1
    5    35	 1
    5    22	 1
    5    10	 1
    5    12	 1
    6    36	 1
    6    11	 1
    6     9	 1
    6    23	 1
    6    28	 1
    6    31	 1
    7    35	 1
    7     8	 1
    7    25	 1
    7    24	 1
    7    46	 1
    7    30	 1
    7    29	 1
    7    27	 1
    7    50	 1
    7    51	 1
    7    52	 1
    8    36	 1
    8    37	 1
    8    13	 1
    8    18	 1
    8    54	 1
    9    15	 1
    9    14	 1
    9    17	 1
    9    40	 1
   10    11	 1
   10    13	 1
   10    18	 1
   10    54	 1
   11    12	 1
   12    16	 1
   12    38	 1
   12    39	 1
   13    17	 1
   13    40	 1
   13    19	 1
   14    18	 1
   14    54	 1
   14    20	 1
   14    39	 1
   15    18	 1
   15    54	 1
   15    16	 1
   15    38	 1
   16    40	 1
   16    21	 1
   16    41	 1
   16    42	 1
   17    54	 1
   17    38	 1
   17    20	 1
   18    19	 1
   19    38	 1
   19    39	 1
   19    43	 1
   19    44	 1
   19    45	 1
   22    37	 1
   22    32	 1
   22    26	 1
   22    47	 1
   22    48	 1
   22    49	 1
   23    30	 1
   23    29	 1
   23    27	 1
   23    50	 1
   23    51	 1
   23    52	 1
   23    33	 1
   23    34	 1
   23    53	 1
   24    28	 1
   24    31	 1
   24    48	 1
   24    49	 1
   25    28	 1
   25    31	 1
   25    32	 1
   25    26	 1
   25    47	 1
   26    46	 1
   26    33	 1
   26    34	 1
   26    53	 1
   26    30	 1
   26    29	 1
   27    31	 1
   27    32	 1
   27    47	 1
   28    46	 1
   28    50	 1
   28    51	 1
   28    52	 1
   29    31	 1
   29    48	 1
   29    49	 1
   30    31	 1
   30    48	 1
   30    49	 1
   31    46	 1
   32    46	 1
   33    47	 1
   34    47	 1
   35    36	 1
   39    40	 1
   40    54	 1
   41    43	 1
   41    44	 1
   41    45	 1
   42    43	 1
   42    44	 1
   42    45	 1
   46    47	 1
   47    53	 1

[ angles ]
;	ai	  aj	ak funct			c0			  c1			c2			  c3
    3     2     1	5 ;     CG2R61     CG2R66       FGR1
    3     2     7	5 ;     CG2R61     CG2R66     CG2R61
    1     2     7	5 ;       FGR1     CG2R66     CG2R61
    4     3     2	5 ;     CG2R61     CG2R61     CG2R66
    4     3    35	5 ;     CG2R61     CG2R61      HGR62
    2     3    35	5 ;     CG2R66     CG2R61      HGR62
    3     4     5	5 ;     CG2R61     CG2R61     CG2R61
    3     4    36	5 ;     CG2R61     CG2R61      HGR61
    5     4    36	5 ;     CG2R61     CG2R61      HGR61
    4     5     8	5 ;     CG2R61     CG2R61      NG2S1
    4     5     6	5 ;     CG2R61     CG2R61     CG2R61
    8     5     6	5 ;      NG2S1     CG2R61     CG2R61
    5     6     7	5 ;     CG2R61     CG2R61     CG2R61
    5     6    37	5 ;     CG2R61     CG2R61      HGR61
    7     6    37	5 ;     CG2R61     CG2R61      HGR61
    2     7     6	5 ;     CG2R66     CG2R61     CG2R61
    2     7    22	5 ;     CG2R66     CG2R61      CG301
    6     7    22	5 ;     CG2R61     CG2R61      CG301
   11     8     5	5 ;       HGP1      NG2S1     CG2R61
   11     8     9	5 ;       HGP1      NG2S1      CG2O1
    5     8     9	5 ;     CG2R61      NG2S1      CG2O1
    8     9    10	5 ;      NG2S1      CG2O1      OG2D1
    8     9    12	5 ;      NG2S1      CG2O1      CG311
   10     9    12	5 ;      OG2D1      CG2O1      CG311
   13    12     9	5 ;      NG311      CG311      CG2O1
   13    12    18	5 ;      NG311      CG311     CG2DC2
   13    12    54	5 ;      NG311      CG311       HGA1
    9    12    18	5 ;      CG2O1      CG311     CG2DC2
    9    12    54	5 ;      CG2O1      CG311       HGA1
   18    12    54	5 ;     CG2DC2      CG311       HGA1
   15    13    14	5 ;     HGPAM1      NG311     CG2D1O
   15    13    12	5 ;     HGPAM1      NG311      CG311
   14    13    12	5 ;     CG2D1O      NG311      CG311
   13    14    16	5 ;      NG311     CG2D1O     CG2D1O
   13    14    38	5 ;      NG311     CG2D1O       HGA4
   16    14    38	5 ;     CG2D1O     CG2D1O       HGA4
   14    16    19	5 ;     CG2D1O     CG2D1O      OG301
   14    16    17	5 ;     CG2D1O     CG2D1O     CG2DC2
   19    16    17	5 ;      OG301     CG2D1O     CG2DC2
   16    17    18	5 ;     CG2D1O     CG2DC2     CG2DC2
   16    17    39	5 ;     CG2D1O     CG2DC2       HGA4
   18    17    39	5 ;     CG2DC2     CG2DC2       HGA4
   12    18    17	5 ;      CG311     CG2DC2     CG2DC2
   12    18    40	5 ;      CG311     CG2DC2       HGA4
   17    18    40	5 ;     CG2DC2     CG2DC2       HGA4
   16    19    20	5 ;     CG2D1O      OG301      CG321
   19    20    21	5 ;      OG301      CG321      CG331
   19    20    41	5 ;      OG301      CG321       HGA2
   19    20    42	5 ;      OG301      CG321       HGA2
   21    20    41	5 ;      CG331      CG321       HGA2
   21    20    42	5 ;      CG331      CG321       HGA2
   41    20    42	5 ;       HGA2      CG321       HGA2
   20    21    43	5 ;      CG321      CG331       HGA3
   20    21    44	5 ;      CG321      CG331       HGA3
   20    21    45	5 ;      CG321      CG331       HGA3
   43    21    44	5 ;       HGA3      CG331       HGA3
   43    21    45	5 ;       HGA3      CG331       HGA3
   44    21    45	5 ;       HGA3      CG331       HGA3
    7    22    23	5 ;     CG2R61      CG301      NG3P2
    7    22    28	5 ;     CG2R61      CG301      CG312
    7    22    31	5 ;     CG2R61      CG301      CG331
   23    22    28	5 ;      NG3P2      CG301      CG312
   23    22    31	5 ;      NG3P2      CG301      CG331
   28    22    31	5 ;      CG312      CG301      CG331
   25    23    22	5 ;       HGP2      NG3P2      CG301
   25    23    24	5 ;       HGP2      NG3P2      CG314
   25    23    46	5 ;       HGP2      NG3P2       HGP2
   22    23    24	5 ;      CG301      NG3P2      CG314
   22    23    46	5 ;      CG301      NG3P2       HGP2
   24    23    46	5 ;      CG314      NG3P2       HGP2
   23    24    32	5 ;      NG3P2      CG314      NG3P3
   23    24    26	5 ;      NG3P2      CG314     OG3C61
   23    24    47	5 ;      NG3P2      CG314       HGA1
   32    24    26	5 ;      NG3P3      CG314     OG3C61
   32    24    47	5 ;      NG3P3      CG314       HGA1
   26    24    47	5 ;     OG3C61      CG314       HGA1
   24    26    27	5 ;      CG314     OG3C61      CG321
   28    27    26	5 ;      CG312      CG321     OG3C61
   28    27    48	5 ;      CG312      CG321       HGA2
   28    27    49	5 ;      CG312      CG321       HGA2
   26    27    48	5 ;     OG3C61      CG321       HGA2
   26    27    49	5 ;     OG3C61      CG321       HGA2
   48    27    49	5 ;       HGA2      CG321       HGA2
   30    28    22	5 ;       FGA2      CG312      CG301
   30    28    29	5 ;       FGA2      CG312       FGA2
   30    28    27	5 ;       FGA2      CG312      CG321
   22    28    29	5 ;      CG301      CG312       FGA2
   22    28    27	5 ;      CG301      CG312      CG321
   29    28    27	5 ;       FGA2      CG312      CG321
   22    31    50	5 ;      CG301      CG331       HGA3
   22    31    51	5 ;      CG301      CG331       HGA3
   22    31    52	5 ;      CG301      CG331       HGA3
   50    31    51	5 ;       HGA3      CG331       HGA3
   50    31    52	5 ;       HGA3      CG331       HGA3
   51    31    52	5 ;       HGA3      CG331       HGA3
   33    32    24	5 ;       HGP2      NG3P3      CG314
   33    32    34	5 ;       HGP2      NG3P3       HGP2
   33    32    53	5 ;       HGP2      NG3P3       HGP2
   24    32    34	5 ;      CG314      NG3P3       HGP2
   24    32    53	5 ;      CG314      NG3P3       HGP2
   34    32    53	5 ;       HGP2      NG3P3       HGP2

[ dihedrals ]
;	ai	  aj	ak	  al funct			  c0			c1			  c2			c3			  c4			c5
    1     2     3     4	 9 ;       FGR1     CG2R66     CG2R61     CG2R61
    1     2     3    35	 9 ;       FGR1     CG2R66     CG2R61      HGR62
    7     2     3     4	 9 ;     CG2R61     CG2R66     CG2R61     CG2R61
    7     2     3    35	 9 ;     CG2R61     CG2R66     CG2R61      HGR62
    3     2     7     6	 9 ;     CG2R61     CG2R66     CG2R61     CG2R61
    3     2     7    22	 9 ;     CG2R61     CG2R66     CG2R61      CG301
    1     2     7     6	 9 ;       FGR1     CG2R66     CG2R61     CG2R61
    1     2     7    22	 9 ;       FGR1     CG2R66     CG2R61      CG301
    2     3     4     5	 9 ;     CG2R66     CG2R61     CG2R61     CG2R61
    2     3     4    36	 9 ;     CG2R66     CG2R61     CG2R61      HGR61
   35     3     4     5	 9 ;      HGR62     CG2R61     CG2R61     CG2R61
   35     3     4    36	 9 ;      HGR62     CG2R61     CG2R61      HGR61
    3     4     5     8	 9 ;     CG2R61     CG2R61     CG2R61      NG2S1
    3     4     5     6	 9 ;     CG2R61     CG2R61     CG2R61     CG2R61
   36     4     5     8	 9 ;      HGR61     CG2R61     CG2R61      NG2S1
   36     4     5     6	 9 ;      HGR61     CG2R61     CG2R61     CG2R61
    4     5     8    11	 9 ;     CG2R61     CG2R61      NG2S1       HGP1
    4     5     8     9	 9 ;     CG2R61     CG2R61      NG2S1      CG2O1
    6     5     8    11	 9 ;     CG2R61     CG2R61      NG2S1       HGP1
    6     5     8     9	 9 ;     CG2R61     CG2R61      NG2S1      CG2O1
    4     5     6     7	 9 ;     CG2R61     CG2R61     CG2R61     CG2R61
    4     5     6    37	 9 ;     CG2R61     CG2R61     CG2R61      HGR61
    8     5     6     7	 9 ;      NG2S1     CG2R61     CG2R61     CG2R61
    8     5     6    37	 9 ;      NG2S1     CG2R61     CG2R61      HGR61
    5     6     7     2	 9 ;     CG2R61     CG2R61     CG2R61     CG2R66
    5     6     7    22	 9 ;     CG2R61     CG2R61     CG2R61      CG301
   37     6     7     2	 9 ;      HGR61     CG2R61     CG2R61     CG2R66
   37     6     7    22	 9 ;      HGR61     CG2R61     CG2R61      CG301
    2     7    22    23	 9 ;     CG2R66     CG2R61      CG301      NG3P2
    2     7    22    28	 9 ;     CG2R66     CG2R61      CG301      CG312
    2     7    22    31	 9 ;     CG2R66     CG2R61      CG301      CG331
    6     7    22    23	 9 ;     CG2R61     CG2R61      CG301      NG3P2
    6     7    22    28	 9 ;     CG2R61     CG2R61      CG301      CG312
    6     7    22    31	 9 ;     CG2R61     CG2R61      CG301      CG331
   11     8     9    10	 9 ;       HGP1      NG2S1      CG2O1      OG2D1
   11     8     9    12	 9 ;       HGP1      NG2S1      CG2O1      CG311
    5     8     9    10	 9 ;     CG2R61      NG2S1      CG2O1      OG2D1
    5     8     9    12	 9 ;     CG2R61      NG2S1      CG2O1      CG311
    8     9    12    13	 9 ;      NG2S1      CG2O1      CG311      NG311
    8     9    12    18	 9 ;      NG2S1      CG2O1      CG311     CG2DC2
    8     9    12    54	 9 ;      NG2S1      CG2O1      CG311       HGA1
   10     9    12    13	 9 ;      OG2D1      CG2O1      CG311      NG311
   10     9    12    18	 9 ;      OG2D1      CG2O1      CG311     CG2DC2
   10     9    12    54	 9 ;      OG2D1      CG2O1      CG311       HGA1
    9    12    13    15	 9 ;      CG2O1      CG311      NG311     HGPAM1
    9    12    13    14	 9 ;      CG2O1      CG311      NG311     CG2D1O
   18    12    13    15	 9 ;     CG2DC2      CG311      NG311     HGPAM1
   18    12    13    14	 9 ;     CG2DC2      CG311      NG311     CG2D1O
   54    12    13    15	 9 ;       HGA1      CG311      NG311     HGPAM1
   54    12    13    14	 9 ;       HGA1      CG311      NG311     CG2D1O
   13    12    18    17	 9 ;      NG311      CG311     CG2DC2     CG2DC2
   13    12    18    40	 9 ;      NG311      CG311     CG2DC2       HGA4
    9    12    18    17	 9 ;      CG2O1      CG311     CG2DC2     CG2DC2
    9    12    18    40	 9 ;      CG2O1      CG311     CG2DC2       HGA4
   54    12    18    17	 9 ;       HGA1      CG311     CG2DC2     CG2DC2
   54    12    18    40	 9 ;       HGA1      CG311     CG2DC2       HGA4
   15    13    14    16	 9 ;     HGPAM1      NG311     CG2D1O     CG2D1O
   15    13    14    38	 9 ;     HGPAM1      NG311     CG2D1O       HGA4
   12    13    14    16	 9 ;      CG311      NG311     CG2D1O     CG2D1O
   12    13    14    38	 9 ;      CG311      NG311     CG2D1O       HGA4
   13    14    16    19	 9 ;      NG311     CG2D1O     CG2D1O      OG301
   13    14    16    17	 9 ;      NG311     CG2D1O     CG2D1O     CG2DC2
   38    14    16    19	 9 ;       HGA4     CG2D1O     CG2D1O      OG301
   38    14    16    17	 9 ;       HGA4     CG2D1O     CG2D1O     CG2DC2
   14    16    19    20	 9 ;     CG2D1O     CG2D1O      OG301      CG321
   17    16    19    20	 9 ;     CG2DC2     CG2D1O      OG301      CG321
   14    16    17    18	 9 ;     CG2D1O     CG2D1O     CG2DC2     CG2DC2
   14    16    17    39	 9 ;     CG2D1O     CG2D1O     CG2DC2       HGA4
   19    16    17    18	 9 ;      OG301     CG2D1O     CG2DC2     CG2DC2
   19    16    17    39	 9 ;      OG301     CG2D1O     CG2DC2       HGA4
   16    17    18    12	 9 ;     CG2D1O     CG2DC2     CG2DC2      CG311
   16    17    18    40	 9 ;     CG2D1O     CG2DC2     CG2DC2       HGA4
   39    17    18    12	 9 ;       HGA4     CG2DC2     CG2DC2      CG311
   39    17    18    40	 9 ;       HGA4     CG2DC2     CG2DC2       HGA4
   16    19    20    21	 9 ;     CG2D1O      OG301      CG321      CG331
   16    19    20    41	 9 ;     CG2D1O      OG301      CG321       HGA2
   16    19    20    42	 9 ;     CG2D1O      OG301      CG321       HGA2
   19    20    21    43	 9 ;      OG301      CG321      CG331       HGA3
   19    20    21    44	 9 ;      OG301      CG321      CG331       HGA3
   19    20    21    45	 9 ;      OG301      CG321      CG331       HGA3
   41    20    21    43	 9 ;       HGA2      CG321      CG331       HGA3
   41    20    21    44	 9 ;       HGA2      CG321      CG331       HGA3
   41    20    21    45	 9 ;       HGA2      CG321      CG331       HGA3
   42    20    21    43	 9 ;       HGA2      CG321      CG331       HGA3
   42    20    21    44	 9 ;       HGA2      CG321      CG331       HGA3
   42    20    21    45	 9 ;       HGA2      CG321      CG331       HGA3
    7    22    23    25	 9 ;     CG2R61      CG301      NG3P2       HGP2
    7    22    23    24	 9 ;     CG2R61      CG301      NG3P2      CG314
    7    22    23    46	 9 ;     CG2R61      CG301      NG3P2       HGP2
   28    22    23    25	 9 ;      CG312      CG301      NG3P2       HGP2
   28    22    23    24	 9 ;      CG312      CG301      NG3P2      CG314
   28    22    23    46	 9 ;      CG312      CG301      NG3P2       HGP2
   31    22    23    25	 9 ;      CG331      CG301      NG3P2       HGP2
   31    22    23    24	 9 ;      CG331      CG301      NG3P2      CG314
   31    22    23    46	 9 ;      CG331      CG301      NG3P2       HGP2
    7    22    28    30	 9 ;     CG2R61      CG301      CG312       FGA2
    7    22    28    29	 9 ;     CG2R61      CG301      CG312       FGA2
    7    22    28    27	 9 ;     CG2R61      CG301      CG312      CG321
   23    22    28    30	 9 ;      NG3P2      CG301      CG312       FGA2
   23    22    28    29	 9 ;      NG3P2      CG301      CG312       FGA2
   23    22    28    27	 9 ;      NG3P2      CG301      CG312      CG321
   31    22    28    30	 9 ;      CG331      CG301      CG312       FGA2
   31    22    28    29	 9 ;      CG331      CG301      CG312       FGA2
   31    22    28    27	 9 ;      CG331      CG301      CG312      CG321
    7    22    31    50	 9 ;     CG2R61      CG301      CG331       HGA3
    7    22    31    51	 9 ;     CG2R61      CG301      CG331       HGA3
    7    22    31    52	 9 ;     CG2R61      CG301      CG331       HGA3
   23    22    31    50	 9 ;      NG3P2      CG301      CG331       HGA3
   23    22    31    51	 9 ;      NG3P2      CG301      CG331       HGA3
   23    22    31    52	 9 ;      NG3P2      CG301      CG331       HGA3
   28    22    31    50	 9 ;      CG312      CG301      CG331       HGA3
   28    22    31    51	 9 ;      CG312      CG301      CG331       HGA3
   28    22    31    52	 9 ;      CG312      CG301      CG331       HGA3
   25    23    24    32	 9 ;       HGP2      NG3P2      CG314      NG3P3
   25    23    24    26	 9 ;       HGP2      NG3P2      CG314     OG3C61
   25    23    24    47	 9 ;       HGP2      NG3P2      CG314       HGA1
   22    23    24    32	 9 ;      CG301      NG3P2      CG314      NG3P3
   22    23    24    26	 9 ;      CG301      NG3P2      CG314     OG3C61
   22    23    24    47	 9 ;      CG301      NG3P2      CG314       HGA1
   46    23    24    32	 9 ;       HGP2      NG3P2      CG314      NG3P3
   46    23    24    26	 9 ;       HGP2      NG3P2      CG314     OG3C61
   46    23    24    47	 9 ;       HGP2      NG3P2      CG314       HGA1
   23    24    32    33	 9 ;      NG3P2      CG314      NG3P3       HGP2
   23    24    32    34	 9 ;      NG3P2      CG314      NG3P3       HGP2
   23    24    32    53	 9 ;      NG3P2      CG314      NG3P3       HGP2
   26    24    32    33	 9 ;     OG3C61      CG314      NG3P3       HGP2
   26    24    32    34	 9 ;     OG3C61      CG314      NG3P3       HGP2
   26    24    32    53	 9 ;     OG3C61      CG314      NG3P3       HGP2
   47    24    32    33	 9 ;       HGA1      CG314      NG3P3       HGP2
   47    24    32    34	 9 ;       HGA1      CG314      NG3P3       HGP2
   47    24    32    53	 9 ;       HGA1      CG314      NG3P3       HGP2
   23    24    26    27	 9 ;      NG3P2      CG314     OG3C61      CG321
   32    24    26    27	 9 ;      NG3P3      CG314     OG3C61      CG321
   47    24    26    27	 9 ;       HGA1      CG314     OG3C61      CG321
   24    26    27    28	 9 ;      CG314     OG3C61      CG321      CG312
   24    26    27    48	 9 ;      CG314     OG3C61      CG321       HGA2
   24    26    27    49	 9 ;      CG314     OG3C61      CG321       HGA2
   26    27    28    30	 9 ;     OG3C61      CG321      CG312       FGA2
   26    27    28    22	 9 ;     OG3C61      CG321      CG312      CG301
   26    27    28    29	 9 ;     OG3C61      CG321      CG312       FGA2
   48    27    28    30	 9 ;       HGA2      CG321      CG312       FGA2
   48    27    28    22	 9 ;       HGA2      CG321      CG312      CG301
   48    27    28    29	 9 ;       HGA2      CG321      CG312       FGA2
   49    27    28    30	 9 ;       HGA2      CG321      CG312       FGA2
   49    27    28    22	 9 ;       HGA2      CG321      CG312      CG301
   49    27    28    29	 9 ;       HGA2      CG321      CG312       FGA2

[ dihedrals ]
;	ai	  aj	ak	  al funct			  c0			c1			  c2			c3
    9    12     8    10	 2
   14    16    13    38	 2

