GROningen MAchine for Chemical Simulation
   42
    1LIG     C1    1   8.362   1.542   8.978
    1LIG     O5    2   8.279   1.770   9.107
    1LIG     C3    3   8.387   1.711   9.309
    1LIG     C4    4   8.469   1.619   9.376
    1LIG     C5    5   8.350   1.831   9.372
    1LIG     C6    6   8.514   1.649   9.506
    1LIG     C7    7   8.394   1.859   9.501
    1LIG     C8    8   8.476   1.768   9.567
    1LIG     C9    9   8.372   1.551   9.112
    1LIG    C10   10   8.407   1.443   9.210
    1LIG    C11   11   8.341   1.685   9.170
    1LIG    C12   12   8.513   1.492   9.309
    1LIG     N1   13   8.276   1.348   8.871
    1LIG     O4   14   8.504   1.385   8.869
    1LIG     C2   15   8.391   1.419   8.901
    1LIG     H3   16   8.198   1.369   8.933
    1LIG    C13   17   8.286   1.212   8.815
    1LIG    C15   18   8.253   1.206   8.663
    1LIG    C16   19   8.168   1.324   8.615
    1LIG    C17   20   8.381   1.201   8.579
    1LIG     O2   21   8.094   1.063   8.841
    1LIG    C14   22   8.186   1.125   8.892
    1LIG     O3   23   8.203   1.130   9.027
    1LIG     H2   24   8.144   1.196   9.069
    1LIG     O1   25   8.517   1.800   9.693
    1LIG     H1   26   8.441   1.832   9.744
    1LIG     H4   27   8.333   1.626   8.926
    1LIG     H5   28   8.290   1.898   9.322
    1LIG     H6   29   8.576   1.582   9.556
    1LIG     H7   30   8.366   1.947   9.547
    1LIG     H8   31   8.445   1.358   9.157
    1LIG     H9   32   8.319   1.416   9.265
    1LIG    H10   33   8.604   1.510   9.256
    1LIG    H11   34   8.527   1.416   9.384
    1LIG     HA   35   8.387   1.178   8.825
    1LIG     HB   36   8.196   1.117   8.650
    1LIG   HG21   37   8.223   1.415   8.626
    1LIG   HG22   38   8.078   1.329   8.672
    1LIG   HG23   39   8.143   1.310   8.512
    1LIG   HG11   40   8.437   1.291   8.593
    1LIG   HG12   41   8.355   1.191   8.476
    1LIG   HG13   42   8.440   1.117   8.609
   0.00000   0.00000   0.00000
