; Created by cgenff_charmm2gmx.py

[ moleculetype ]
; Name			   nrexcl
LIG				 3

[ atoms ]
;	 nr		  type	resnr residue  atom   cgnr	   charge		mass  typeB    chargeB		massB
; residue	 1 LIG rtp LIG q	qsum
     1     CG2R61      1    LIG     C1      1      0.138     12.011   ;
     2     CG2R61      1    LIG     C2      2     -0.064     12.011   ;
     3     CG2R61      1    LIG     C3      3     -0.101     12.011   ;
     4     CG2R61      1    LIG     C4      4     -0.004     12.011   ;
     5     CG2R61      1    LIG     C5      5     -0.101     12.011   ;
     6     CG2R61      1    LIG     C6      6     -0.064     12.011   ;
     7      CG2O1      1    LIG     C7      7      0.302     12.011   ;
     8      OG2D1      1    LIG     O1      8     -0.463     15.999   ;
     9      NG2S1      1    LIG     N1      9     -0.238     14.007   ;
    10      CG311      1    LIG     C8     10     -0.001     12.011   ;
    11      CG321      1    LIG     C9     11      0.012     12.011   ;
    12      OG301      1    LIG     O2     12     -0.393     15.999   ;
    13      CG321      1    LIG    C10     13      0.063     12.011   ;
    14     CG2R61      1    LIG    C11     14     -0.006     12.011   ;
    15     CG2R61      1    LIG    C12     15     -0.094     12.011   ;
    16     CG2R61      1    LIG    C13     16     -0.141     12.011   ;
    17     CG2R61      1    LIG    C14     17     -0.087     12.011   ;
    18     CG2R61      1    LIG    C15     18     -0.110     12.011   ;
    19     CG2R61      1    LIG    C16     19     -0.123     12.011   ;
    20      CG311      1    LIG    C17     20      0.269     12.011   ;
    21      NG2S1      1    LIG     N2     21     -0.375     14.007   ;
    22      CG2O1      1    LIG    C18     22      0.317     12.011   ;
    23      OG2D1      1    LIG     O3     23     -0.463     15.999   ;
    24       HGP1      1    LIG     H1     24      0.262      1.008   ;
    25       HGP1      1    LIG     H2     25      0.319      1.008   ;
    26      CG311      1    LIG    C19     26      0.110     12.011   ;
    27      CG321      1    LIG    C20     27     -0.155     12.011   ;
    28      CG311      1    LIG    C21     28     -0.022     12.011   ;
    29      CG311      1    LIG    C22     29     -0.108     12.011   ;
    30      CG331      1    LIG    C23     30     -0.270     12.011   ;
    31      CG331      1    LIG    C24     31     -0.270     12.011   ;
    32      CG2O1      1    LIG    C25     32      0.506     12.011   ;
    33      OG2D1      1    LIG     O4     33     -0.513     15.999   ;
    34      NG2S1      1    LIG     N3     34     -0.494     14.007   ;
    35       HGP1      1    LIG     H3     35      0.310      1.008   ;
    36      CG321      1    LIG    C26     36     -0.007     12.011   ;
    37      CG311      1    LIG    C27     37     -0.133     12.011   ;
    38      CG331      1    LIG    C28     38     -0.258     12.011   ;
    39      CG331      1    LIG    C29     39     -0.258     12.011   ;
    40      OG311      1    LIG     O5     40     -0.648     15.999   ;
    41       HGP1      1    LIG     H4     41      0.421      1.008   ;
    42      NG301      1    LIG     N4     42     -0.228     14.007   ;
    43      CG331      1    LIG    C30     43     -0.103     12.011   ;
    44      SG3O2      1    LIG      S     44      0.397     32.060   ;
    45      OG2P1      1    LIG     O6     45     -0.388     15.999   ;
    46      OG2P1      1    LIG     O7     46     -0.388     15.999   ;
    47      CG331      1    LIG    C31     47      0.036     12.011   ;
    48     CG2R61      1    LIG    C32     48     -0.145     12.011   ;
    49     CG2R61      1    LIG    C33     49     -0.087     12.011   ;
    50     CG2R61      1    LIG    C34     50     -0.114     12.011   ;
    51     CG2R61      1    LIG    C35     51     -0.116     12.011   ;
    52     CG2R61      1    LIG    C36     52     -0.114     12.011   ;
    53     CG2R61      1    LIG    C37     53     -0.087     12.011   ;
    54      HGR61      1    LIG     HC     54      0.116      1.008   ;
    55      HGR61      1    LIG    HC1     55      0.116      1.008   ;
    56      HGR61      1    LIG    HC2     56      0.116      1.008   ;
    57       HGA1      1    LIG    HC3     57      0.090      1.008   ;
    58       HGA2      1    LIG    HC4     58      0.090      1.008   ;
    59       HGA2      1    LIG    HC5     59      0.090      1.008   ;
    60       HGA2      1    LIG    HC6     60      0.090      1.008   ;
    61       HGA2      1    LIG    HC7     61      0.090      1.008   ;
    62      HGR61      1    LIG    HC8     62      0.116      1.008   ;
    63      HGR61      1    LIG    HC9     63      0.116      1.008   ;
    64      HGR61      1    LIG   HC10     64      0.116      1.008   ;
    65      HGR61      1    LIG   HC11     65      0.116      1.008   ;
    66       HGA1      1    LIG   HC12     66      0.090      1.008   ;
    67       HGA1      1    LIG   HC13     67      0.090      1.008   ;
    68       HGA2      1    LIG   HC14     68      0.090      1.008   ;
    69       HGA2      1    LIG   HC15     69      0.090      1.008   ;
    70       HGA1      1    LIG   HC16     70      0.090      1.008   ;
    71       HGA1      1    LIG   HC17     71      0.090      1.008   ;
    72       HGA3      1    LIG   HC18     72      0.090      1.008   ;
    73       HGA3      1    LIG   HC19     73      0.090      1.008   ;
    74       HGA3      1    LIG   HC20     74      0.090      1.008   ;
    75       HGA3      1    LIG   HC21     75      0.090      1.008   ;
    76       HGA3      1    LIG   HC22     76      0.090      1.008   ;
    77       HGA3      1    LIG   HC23     77      0.090      1.008   ;
    78       HGA2      1    LIG   HC24     78      0.090      1.008   ;
    79       HGA2      1    LIG   HC25     79      0.090      1.008   ;
    80       HGA1      1    LIG   HC26     80      0.090      1.008   ;
    81       HGA3      1    LIG   HC27     81      0.090      1.008   ;
    82       HGA3      1    LIG   HC28     82      0.090      1.008   ;
    83       HGA3      1    LIG   HC29     83      0.090      1.008   ;
    84       HGA3      1    LIG   HC30     84      0.090      1.008   ;
    85       HGA3      1    LIG   HC31     85      0.090      1.008   ;
    86       HGA3      1    LIG   HC32     86      0.090      1.008   ;
    87       HGA3      1    LIG   HC33     87      0.090      1.008   ;
    88       HGA3      1    LIG   HC34     88      0.090      1.008   ;
    89       HGA3      1    LIG   HC35     89      0.090      1.008   ;
    90       HGA3      1    LIG   HC36     90      0.090      1.008   ;
    91       HGA3      1    LIG   HC37     91      0.090      1.008   ;
    92       HGA3      1    LIG   HC38     92      0.090      1.008   ;
    93      HGR61      1    LIG   HC39     93      0.116      1.008   ;
    94      HGR61      1    LIG   HC40     94      0.116      1.008   ;
    95      HGR61      1    LIG   HC41     95      0.116      1.008   ;
    96      HGR61      1    LIG   HC42     96      0.116      1.008   ;
    97      HGR61      1    LIG   HC43     97      0.116      1.008   ;

[ bonds ]
;	ai	  aj funct			  c0			c1			  c2			c3
    1     2	 1 ;      CG2R61     CG2R61
    1     6	 1 ;      CG2R61     CG2R61
    1    42	 1 ;      CG2R61      NG301
    2     3	 1 ;      CG2R61     CG2R61
    2    54	 1 ;      CG2R61      HGR61
    3    22	 1 ;      CG2R61      CG2O1
    3     4	 1 ;      CG2R61     CG2R61
    4     5	 1 ;      CG2R61     CG2R61
    4    55	 1 ;      CG2R61      HGR61
    5     7	 1 ;      CG2R61      CG2O1
    5     6	 1 ;      CG2R61     CG2R61
    6    56	 1 ;      CG2R61      HGR61
    7     9	 1 ;       CG2O1      NG2S1
    7     8	 1 ;       CG2O1      OG2D1
    9    24	 1 ;       NG2S1       HGP1
    9    10	 1 ;       NG2S1      CG311
   10    11	 1 ;       CG311      CG321
   10    26	 1 ;       CG311      CG311
   10    57	 1 ;       CG311       HGA1
   11    12	 1 ;       CG321      OG301
   11    58	 1 ;       CG321       HGA2
   11    59	 1 ;       CG321       HGA2
   12    13	 1 ;       OG301      CG321
   13    14	 1 ;       CG321     CG2R61
   13    60	 1 ;       CG321       HGA2
   13    61	 1 ;       CG321       HGA2
   14    19	 1 ;      CG2R61     CG2R61
   14    15	 1 ;      CG2R61     CG2R61
   15    16	 1 ;      CG2R61     CG2R61
   15    62	 1 ;      CG2R61      HGR61
   16    17	 1 ;      CG2R61     CG2R61
   16    20	 1 ;      CG2R61      CG311
   17    18	 1 ;      CG2R61     CG2R61
   17    63	 1 ;      CG2R61      HGR61
   18    19	 1 ;      CG2R61     CG2R61
   18    64	 1 ;      CG2R61      HGR61
   19    65	 1 ;      CG2R61      HGR61
   20    48	 1 ;       CG311     CG2R61
   20    21	 1 ;       CG311      NG2S1
   20    66	 1 ;       CG311       HGA1
   21    25	 1 ;       NG2S1       HGP1
   21    22	 1 ;       NG2S1      CG2O1
   22    23	 1 ;       CG2O1      OG2D1
   26    40	 1 ;       CG311      OG311
   26    27	 1 ;       CG311      CG321
   26    67	 1 ;       CG311       HGA1
   27    28	 1 ;       CG321      CG311
   27    68	 1 ;       CG321       HGA2
   27    69	 1 ;       CG321       HGA2
   28    29	 1 ;       CG311      CG311
   28    32	 1 ;       CG311      CG2O1
   28    70	 1 ;       CG311       HGA1
   29    30	 1 ;       CG311      CG331
   29    31	 1 ;       CG311      CG331
   29    71	 1 ;       CG311       HGA1
   30    72	 1 ;       CG331       HGA3
   30    73	 1 ;       CG331       HGA3
   30    74	 1 ;       CG331       HGA3
   31    75	 1 ;       CG331       HGA3
   31    76	 1 ;       CG331       HGA3
   31    77	 1 ;       CG331       HGA3
   32    33	 1 ;       CG2O1      OG2D1
   32    34	 1 ;       CG2O1      NG2S1
   34    35	 1 ;       NG2S1       HGP1
   34    36	 1 ;       NG2S1      CG321
   36    37	 1 ;       CG321      CG311
   36    78	 1 ;       CG321       HGA2
   36    79	 1 ;       CG321       HGA2
   37    39	 1 ;       CG311      CG331
   37    38	 1 ;       CG311      CG331
   37    80	 1 ;       CG311       HGA1
   38    81	 1 ;       CG331       HGA3
   38    82	 1 ;       CG331       HGA3
   38    83	 1 ;       CG331       HGA3
   39    84	 1 ;       CG331       HGA3
   39    85	 1 ;       CG331       HGA3
   39    86	 1 ;       CG331       HGA3
   40    41	 1 ;       OG311       HGP1
   42    44	 1 ;       NG301      SG3O2
   42    43	 1 ;       NG301      CG331
   43    87	 1 ;       CG331       HGA3
   43    88	 1 ;       CG331       HGA3
   43    89	 1 ;       CG331       HGA3
   44    45	 1 ;       SG3O2      OG2P1
   44    47	 1 ;       SG3O2      CG331
   44    46	 1 ;       SG3O2      OG2P1
   47    90	 1 ;       CG331       HGA3
   47    91	 1 ;       CG331       HGA3
   47    92	 1 ;       CG331       HGA3
   48    53	 1 ;      CG2R61     CG2R61
   48    49	 1 ;      CG2R61     CG2R61
   49    50	 1 ;      CG2R61     CG2R61
   49    93	 1 ;      CG2R61      HGR61
   50    51	 1 ;      CG2R61     CG2R61
   50    94	 1 ;      CG2R61      HGR61
   51    52	 1 ;      CG2R61     CG2R61
   51    95	 1 ;      CG2R61      HGR61
   52    53	 1 ;      CG2R61     CG2R61
   52    96	 1 ;      CG2R61      HGR61
   53    97	 1 ;      CG2R61      HGR61

[ pairs ]
;	ai	  aj funct			  c0			c1			  c2			c3
    1    22	 1
    1     4	 1
    1     7	 1
    1    45	 1
    1    47	 1
    1    46	 1
    1    87	 1
    1    88	 1
    1    89	 1
    2     5	 1
    2    56	 1
    2    44	 1
    2    43	 1
    2    21	 1
    2    23	 1
    2    55	 1
    3     6	 1
    3    42	 1
    3     7	 1
    3    20	 1
    3    25	 1
    4    54	 1
    4    21	 1
    4    23	 1
    4     9	 1
    4     8	 1
    4    56	 1
    5    42	 1
    5    22	 1
    5    24	 1
    5    10	 1
    6    54	 1
    6    44	 1
    6    43	 1
    6    55	 1
    6     9	 1
    6     8	 1
    7    55	 1
    7    56	 1
    7    11	 1
    7    26	 1
    7    57	 1
    8    24	 1
    8    10	 1
    9    12	 1
    9    58	 1
    9    59	 1
    9    40	 1
    9    27	 1
    9    67	 1
   10    13	 1
   10    41	 1
   10    28	 1
   10    68	 1
   10    69	 1
   11    24	 1
   11    40	 1
   11    27	 1
   11    67	 1
   11    14	 1
   11    60	 1
   11    61	 1
   12    26	 1
   12    57	 1
   12    19	 1
   12    15	 1
   13    58	 1
   13    59	 1
   13    18	 1
   13    65	 1
   13    16	 1
   13    62	 1
   14    17	 1
   14    20	 1
   14    64	 1
   15    60	 1
   15    61	 1
   15    18	 1
   15    65	 1
   15    63	 1
   15    48	 1
   15    21	 1
   15    66	 1
   16    19	 1
   16    64	 1
   16    53	 1
   16    49	 1
   16    25	 1
   16    22	 1
   17    62	 1
   17    48	 1
   17    21	 1
   17    66	 1
   17    65	 1
   18    20	 1
   19    60	 1
   19    61	 1
   19    62	 1
   19    63	 1
   20    62	 1
   20    63	 1
   20    23	 1
   20    52	 1
   20    97	 1
   20    50	 1
   20    93	 1
   21    53	 1
   21    49	 1
   22    54	 1
   22    55	 1
   22    48	 1
   22    66	 1
   23    25	 1
   24    26	 1
   24    57	 1
   25    48	 1
   25    66	 1
   26    58	 1
   26    59	 1
   26    29	 1
   26    32	 1
   26    70	 1
   27    57	 1
   27    41	 1
   27    30	 1
   27    31	 1
   27    71	 1
   27    33	 1
   27    34	 1
   28    40	 1
   28    67	 1
   28    72	 1
   28    73	 1
   28    74	 1
   28    75	 1
   28    76	 1
   28    77	 1
   28    35	 1
   28    36	 1
   29    68	 1
   29    69	 1
   29    33	 1
   29    34	 1
   30    32	 1
   30    70	 1
   30    75	 1
   30    76	 1
   30    77	 1
   31    32	 1
   31    70	 1
   31    72	 1
   31    73	 1
   31    74	 1
   32    68	 1
   32    69	 1
   32    71	 1
   32    37	 1
   32    78	 1
   32    79	 1
   33    70	 1
   33    35	 1
   33    36	 1
   34    70	 1
   34    39	 1
   34    38	 1
   34    80	 1
   35    37	 1
   35    78	 1
   35    79	 1
   36    84	 1
   36    85	 1
   36    86	 1
   36    81	 1
   36    82	 1
   36    83	 1
   38    78	 1
   38    79	 1
   38    84	 1
   38    85	 1
   38    86	 1
   39    78	 1
   39    79	 1
   39    81	 1
   39    82	 1
   39    83	 1
   40    57	 1
   40    68	 1
   40    69	 1
   41    67	 1
   42    54	 1
   42    56	 1
   42    90	 1
   42    91	 1
   42    92	 1
   43    45	 1
   43    47	 1
   43    46	 1
   44    87	 1
   44    88	 1
   44    89	 1
   45    90	 1
   45    91	 1
   45    92	 1
   46    90	 1
   46    91	 1
   46    92	 1
   48    51	 1
   48    94	 1
   48    96	 1
   49    66	 1
   49    52	 1
   49    97	 1
   49    95	 1
   50    53	 1
   50    96	 1
   51    93	 1
   51    97	 1
   52    94	 1
   53    66	 1
   53    93	 1
   53    95	 1
   57    58	 1
   57    59	 1
   57    67	 1
   63    64	 1
   64    65	 1
   67    68	 1
   67    69	 1
   68    70	 1
   69    70	 1
   70    71	 1
   71    72	 1
   71    73	 1
   71    74	 1
   71    75	 1
   71    76	 1
   71    77	 1
   78    80	 1
   79    80	 1
   80    84	 1
   80    85	 1
   80    86	 1
   80    81	 1
   80    82	 1
   80    83	 1
   93    94	 1
   94    95	 1
   95    96	 1
   96    97	 1

[ angles ]
;	ai	  aj	ak funct			c0			  c1			c2			  c3
    2     1     6	5 ;     CG2R61     CG2R61     CG2R61
    2     1    42	5 ;     CG2R61     CG2R61      NG301
    6     1    42	5 ;     CG2R61     CG2R61      NG301
    3     2     1	5 ;     CG2R61     CG2R61     CG2R61
    3     2    54	5 ;     CG2R61     CG2R61      HGR61
    1     2    54	5 ;     CG2R61     CG2R61      HGR61
   22     3     2	5 ;      CG2O1     CG2R61     CG2R61
   22     3     4	5 ;      CG2O1     CG2R61     CG2R61
    2     3     4	5 ;     CG2R61     CG2R61     CG2R61
    3     4     5	5 ;     CG2R61     CG2R61     CG2R61
    3     4    55	5 ;     CG2R61     CG2R61      HGR61
    5     4    55	5 ;     CG2R61     CG2R61      HGR61
    4     5     7	5 ;     CG2R61     CG2R61      CG2O1
    4     5     6	5 ;     CG2R61     CG2R61     CG2R61
    7     5     6	5 ;      CG2O1     CG2R61     CG2R61
    5     6     1	5 ;     CG2R61     CG2R61     CG2R61
    5     6    56	5 ;     CG2R61     CG2R61      HGR61
    1     6    56	5 ;     CG2R61     CG2R61      HGR61
    9     7     5	5 ;      NG2S1      CG2O1     CG2R61
    9     7     8	5 ;      NG2S1      CG2O1      OG2D1
    5     7     8	5 ;     CG2R61      CG2O1      OG2D1
   24     9     7	5 ;       HGP1      NG2S1      CG2O1
   24     9    10	5 ;       HGP1      NG2S1      CG311
    7     9    10	5 ;      CG2O1      NG2S1      CG311
   11    10     9	5 ;      CG321      CG311      NG2S1
   11    10    26	5 ;      CG321      CG311      CG311
   11    10    57	5 ;      CG321      CG311       HGA1
    9    10    26	5 ;      NG2S1      CG311      CG311
    9    10    57	5 ;      NG2S1      CG311       HGA1
   26    10    57	5 ;      CG311      CG311       HGA1
   12    11    10	5 ;      OG301      CG321      CG311
   12    11    58	5 ;      OG301      CG321       HGA2
   12    11    59	5 ;      OG301      CG321       HGA2
   10    11    58	5 ;      CG311      CG321       HGA2
   10    11    59	5 ;      CG311      CG321       HGA2
   58    11    59	5 ;       HGA2      CG321       HGA2
   13    12    11	5 ;      CG321      OG301      CG321
   14    13    12	5 ;     CG2R61      CG321      OG301
   14    13    60	5 ;     CG2R61      CG321       HGA2
   14    13    61	5 ;     CG2R61      CG321       HGA2
   12    13    60	5 ;      OG301      CG321       HGA2
   12    13    61	5 ;      OG301      CG321       HGA2
   60    13    61	5 ;       HGA2      CG321       HGA2
   19    14    15	5 ;     CG2R61     CG2R61     CG2R61
   19    14    13	5 ;     CG2R61     CG2R61      CG321
   15    14    13	5 ;     CG2R61     CG2R61      CG321
   16    15    14	5 ;     CG2R61     CG2R61     CG2R61
   16    15    62	5 ;     CG2R61     CG2R61      HGR61
   14    15    62	5 ;     CG2R61     CG2R61      HGR61
   17    16    20	5 ;     CG2R61     CG2R61      CG311
   17    16    15	5 ;     CG2R61     CG2R61     CG2R61
   20    16    15	5 ;      CG311     CG2R61     CG2R61
   18    17    16	5 ;     CG2R61     CG2R61     CG2R61
   18    17    63	5 ;     CG2R61     CG2R61      HGR61
   16    17    63	5 ;     CG2R61     CG2R61      HGR61
   17    18    19	5 ;     CG2R61     CG2R61     CG2R61
   17    18    64	5 ;     CG2R61     CG2R61      HGR61
   19    18    64	5 ;     CG2R61     CG2R61      HGR61
   18    19    14	5 ;     CG2R61     CG2R61     CG2R61
   18    19    65	5 ;     CG2R61     CG2R61      HGR61
   14    19    65	5 ;     CG2R61     CG2R61      HGR61
   48    20    16	5 ;     CG2R61      CG311     CG2R61
   48    20    21	5 ;     CG2R61      CG311      NG2S1
   48    20    66	5 ;     CG2R61      CG311       HGA1
   16    20    21	5 ;     CG2R61      CG311      NG2S1
   16    20    66	5 ;     CG2R61      CG311       HGA1
   21    20    66	5 ;      NG2S1      CG311       HGA1
   20    21    25	5 ;      CG311      NG2S1       HGP1
   20    21    22	5 ;      CG311      NG2S1      CG2O1
   25    21    22	5 ;       HGP1      NG2S1      CG2O1
   21    22    23	5 ;      NG2S1      CG2O1      OG2D1
   21    22     3	5 ;      NG2S1      CG2O1     CG2R61
   23    22     3	5 ;      OG2D1      CG2O1     CG2R61
   10    26    40	5 ;      CG311      CG311      OG311
   10    26    27	5 ;      CG311      CG311      CG321
   10    26    67	5 ;      CG311      CG311       HGA1
   40    26    27	5 ;      OG311      CG311      CG321
   40    26    67	5 ;      OG311      CG311       HGA1
   27    26    67	5 ;      CG321      CG311       HGA1
   26    27    28	5 ;      CG311      CG321      CG311
   26    27    68	5 ;      CG311      CG321       HGA2
   26    27    69	5 ;      CG311      CG321       HGA2
   28    27    68	5 ;      CG311      CG321       HGA2
   28    27    69	5 ;      CG311      CG321       HGA2
   68    27    69	5 ;       HGA2      CG321       HGA2
   27    28    29	5 ;      CG321      CG311      CG311
   27    28    32	5 ;      CG321      CG311      CG2O1
   27    28    70	5 ;      CG321      CG311       HGA1
   29    28    32	5 ;      CG311      CG311      CG2O1
   29    28    70	5 ;      CG311      CG311       HGA1
   32    28    70	5 ;      CG2O1      CG311       HGA1
   30    29    31	5 ;      CG331      CG311      CG331
   30    29    28	5 ;      CG331      CG311      CG311
   30    29    71	5 ;      CG331      CG311       HGA1
   31    29    28	5 ;      CG331      CG311      CG311
   31    29    71	5 ;      CG331      CG311       HGA1
   28    29    71	5 ;      CG311      CG311       HGA1
   29    30    72	5 ;      CG311      CG331       HGA3
   29    30    73	5 ;      CG311      CG331       HGA3
   29    30    74	5 ;      CG311      CG331       HGA3
   72    30    73	5 ;       HGA3      CG331       HGA3
   72    30    74	5 ;       HGA3      CG331       HGA3
   73    30    74	5 ;       HGA3      CG331       HGA3
   29    31    75	5 ;      CG311      CG331       HGA3
   29    31    76	5 ;      CG311      CG331       HGA3
   29    31    77	5 ;      CG311      CG331       HGA3
   75    31    76	5 ;       HGA3      CG331       HGA3
   75    31    77	5 ;       HGA3      CG331       HGA3
   76    31    77	5 ;       HGA3      CG331       HGA3
   28    32    33	5 ;      CG311      CG2O1      OG2D1
   28    32    34	5 ;      CG311      CG2O1      NG2S1
   33    32    34	5 ;      OG2D1      CG2O1      NG2S1
   32    34    35	5 ;      CG2O1      NG2S1       HGP1
   32    34    36	5 ;      CG2O1      NG2S1      CG321
   35    34    36	5 ;       HGP1      NG2S1      CG321
   34    36    37	5 ;      NG2S1      CG321      CG311
   34    36    78	5 ;      NG2S1      CG321       HGA2
   34    36    79	5 ;      NG2S1      CG321       HGA2
   37    36    78	5 ;      CG311      CG321       HGA2
   37    36    79	5 ;      CG311      CG321       HGA2
   78    36    79	5 ;       HGA2      CG321       HGA2
   36    37    39	5 ;      CG321      CG311      CG331
   36    37    38	5 ;      CG321      CG311      CG331
   36    37    80	5 ;      CG321      CG311       HGA1
   39    37    38	5 ;      CG331      CG311      CG331
   39    37    80	5 ;      CG331      CG311       HGA1
   38    37    80	5 ;      CG331      CG311       HGA1
   37    38    81	5 ;      CG311      CG331       HGA3
   37    38    82	5 ;      CG311      CG331       HGA3
   37    38    83	5 ;      CG311      CG331       HGA3
   81    38    82	5 ;       HGA3      CG331       HGA3
   81    38    83	5 ;       HGA3      CG331       HGA3
   82    38    83	5 ;       HGA3      CG331       HGA3
   37    39    84	5 ;      CG311      CG331       HGA3
   37    39    85	5 ;      CG311      CG331       HGA3
   37    39    86	5 ;      CG311      CG331       HGA3
   84    39    85	5 ;       HGA3      CG331       HGA3
   84    39    86	5 ;       HGA3      CG331       HGA3
   85    39    86	5 ;       HGA3      CG331       HGA3
   41    40    26	5 ;       HGP1      OG311      CG311
   44    42     1	5 ;      SG3O2      NG301     CG2R61
   44    42    43	5 ;      SG3O2      NG301      CG331
    1    42    43	5 ;     CG2R61      NG301      CG331
   42    43    87	5 ;      NG301      CG331       HGA3
   42    43    88	5 ;      NG301      CG331       HGA3
   42    43    89	5 ;      NG301      CG331       HGA3
   87    43    88	5 ;       HGA3      CG331       HGA3
   87    43    89	5 ;       HGA3      CG331       HGA3
   88    43    89	5 ;       HGA3      CG331       HGA3
   45    44    47	5 ;      OG2P1      SG3O2      CG331
   45    44    46	5 ;      OG2P1      SG3O2      OG2P1
   45    44    42	5 ;      OG2P1      SG3O2      NG301
   47    44    46	5 ;      CG331      SG3O2      OG2P1
   47    44    42	5 ;      CG331      SG3O2      NG301
   46    44    42	5 ;      OG2P1      SG3O2      NG301
   44    47    90	5 ;      SG3O2      CG331       HGA3
   44    47    91	5 ;      SG3O2      CG331       HGA3
   44    47    92	5 ;      SG3O2      CG331       HGA3
   90    47    91	5 ;       HGA3      CG331       HGA3
   90    47    92	5 ;       HGA3      CG331       HGA3
   91    47    92	5 ;       HGA3      CG331       HGA3
   53    48    49	5 ;     CG2R61     CG2R61     CG2R61
   53    48    20	5 ;     CG2R61     CG2R61      CG311
   49    48    20	5 ;     CG2R61     CG2R61      CG311
   50    49    48	5 ;     CG2R61     CG2R61     CG2R61
   50    49    93	5 ;     CG2R61     CG2R61      HGR61
   48    49    93	5 ;     CG2R61     CG2R61      HGR61
   51    50    49	5 ;     CG2R61     CG2R61     CG2R61
   51    50    94	5 ;     CG2R61     CG2R61      HGR61
   49    50    94	5 ;     CG2R61     CG2R61      HGR61
   52    51    50	5 ;     CG2R61     CG2R61     CG2R61
   52    51    95	5 ;     CG2R61     CG2R61      HGR61
   50    51    95	5 ;     CG2R61     CG2R61      HGR61
   51    52    53	5 ;     CG2R61     CG2R61     CG2R61
   51    52    96	5 ;     CG2R61     CG2R61      HGR61
   53    52    96	5 ;     CG2R61     CG2R61      HGR61
   52    53    48	5 ;     CG2R61     CG2R61     CG2R61
   52    53    97	5 ;     CG2R61     CG2R61      HGR61
   48    53    97	5 ;     CG2R61     CG2R61      HGR61

[ dihedrals ]
;	ai	  aj	ak	  al funct			  c0			c1			  c2			c3			  c4			c5
    6     1     2     3	 9 ;     CG2R61     CG2R61     CG2R61     CG2R61
    6     1     2    54	 9 ;     CG2R61     CG2R61     CG2R61      HGR61
   42     1     2     3	 9 ;      NG301     CG2R61     CG2R61     CG2R61
   42     1     2    54	 9 ;      NG301     CG2R61     CG2R61      HGR61
    2     1     6     5	 9 ;     CG2R61     CG2R61     CG2R61     CG2R61
    2     1     6    56	 9 ;     CG2R61     CG2R61     CG2R61      HGR61
   42     1     6     5	 9 ;      NG301     CG2R61     CG2R61     CG2R61
   42     1     6    56	 9 ;      NG301     CG2R61     CG2R61      HGR61
    2     1    42    44	 9 ;     CG2R61     CG2R61      NG301      SG3O2
    2     1    42    43	 9 ;     CG2R61     CG2R61      NG301      CG331
    6     1    42    44	 9 ;     CG2R61     CG2R61      NG301      SG3O2
    6     1    42    43	 9 ;     CG2R61     CG2R61      NG301      CG331
    1     2     3    22	 9 ;     CG2R61     CG2R61     CG2R61      CG2O1
    1     2     3     4	 9 ;     CG2R61     CG2R61     CG2R61     CG2R61
   54     2     3    22	 9 ;      HGR61     CG2R61     CG2R61      CG2O1
   54     2     3     4	 9 ;      HGR61     CG2R61     CG2R61     CG2R61
    2     3    22    21	 9 ;     CG2R61     CG2R61      CG2O1      NG2S1
    2     3    22    23	 9 ;     CG2R61     CG2R61      CG2O1      OG2D1
    4     3    22    21	 9 ;     CG2R61     CG2R61      CG2O1      NG2S1
    4     3    22    23	 9 ;     CG2R61     CG2R61      CG2O1      OG2D1
   22     3     4     5	 9 ;      CG2O1     CG2R61     CG2R61     CG2R61
   22     3     4    55	 9 ;      CG2O1     CG2R61     CG2R61      HGR61
    2     3     4     5	 9 ;     CG2R61     CG2R61     CG2R61     CG2R61
    2     3     4    55	 9 ;     CG2R61     CG2R61     CG2R61      HGR61
    3     4     5     7	 9 ;     CG2R61     CG2R61     CG2R61      CG2O1
    3     4     5     6	 9 ;     CG2R61     CG2R61     CG2R61     CG2R61
   55     4     5     7	 9 ;      HGR61     CG2R61     CG2R61      CG2O1
   55     4     5     6	 9 ;      HGR61     CG2R61     CG2R61     CG2R61
    4     5     7     9	 9 ;     CG2R61     CG2R61      CG2O1      NG2S1
    4     5     7     8	 9 ;     CG2R61     CG2R61      CG2O1      OG2D1
    6     5     7     9	 9 ;     CG2R61     CG2R61      CG2O1      NG2S1
    6     5     7     8	 9 ;     CG2R61     CG2R61      CG2O1      OG2D1
    4     5     6     1	 9 ;     CG2R61     CG2R61     CG2R61     CG2R61
    4     5     6    56	 9 ;     CG2R61     CG2R61     CG2R61      HGR61
    7     5     6     1	 9 ;      CG2O1     CG2R61     CG2R61     CG2R61
    7     5     6    56	 9 ;      CG2O1     CG2R61     CG2R61      HGR61
    5     7     9    24	 9 ;     CG2R61      CG2O1      NG2S1       HGP1
    5     7     9    10	 9 ;     CG2R61      CG2O1      NG2S1      CG311
    8     7     9    24	 9 ;      OG2D1      CG2O1      NG2S1       HGP1
    8     7     9    10	 9 ;      OG2D1      CG2O1      NG2S1      CG311
   24     9    10    11	 9 ;       HGP1      NG2S1      CG311      CG321
   24     9    10    26	 9 ;       HGP1      NG2S1      CG311      CG311
   24     9    10    57	 9 ;       HGP1      NG2S1      CG311       HGA1
    7     9    10    11	 9 ;      CG2O1      NG2S1      CG311      CG321
    7     9    10    26	 9 ;      CG2O1      NG2S1      CG311      CG311
    7     9    10    57	 9 ;      CG2O1      NG2S1      CG311       HGA1
    9    10    11    12	 9 ;      NG2S1      CG311      CG321      OG301
    9    10    11    58	 9 ;      NG2S1      CG311      CG321       HGA2
    9    10    11    59	 9 ;      NG2S1      CG311      CG321       HGA2
   26    10    11    12	 9 ;      CG311      CG311      CG321      OG301
   26    10    11    58	 9 ;      CG311      CG311      CG321       HGA2
   26    10    11    59	 9 ;      CG311      CG311      CG321       HGA2
   57    10    11    12	 9 ;       HGA1      CG311      CG321      OG301
   57    10    11    58	 9 ;       HGA1      CG311      CG321       HGA2
   57    10    11    59	 9 ;       HGA1      CG311      CG321       HGA2
   11    10    26    40	 9 ;      CG321      CG311      CG311      OG311
   11    10    26    27	 9 ;      CG321      CG311      CG311      CG321
   11    10    26    67	 9 ;      CG321      CG311      CG311       HGA1
    9    10    26    40	 9 ;      NG2S1      CG311      CG311      OG311
    9    10    26    27	 9 ;      NG2S1      CG311      CG311      CG321
    9    10    26    67	 9 ;      NG2S1      CG311      CG311       HGA1
   57    10    26    40	 9 ;       HGA1      CG311      CG311      OG311
   57    10    26    27	 9 ;       HGA1      CG311      CG311      CG321
   57    10    26    67	 9 ;       HGA1      CG311      CG311       HGA1
   10    11    12    13	 9 ;      CG311      CG321      OG301      CG321
   58    11    12    13	 9 ;       HGA2      CG321      OG301      CG321
   59    11    12    13	 9 ;       HGA2      CG321      OG301      CG321
   11    12    13    14	 9 ;      CG321      OG301      CG321     CG2R61
   11    12    13    60	 9 ;      CG321      OG301      CG321       HGA2
   11    12    13    61	 9 ;      CG321      OG301      CG321       HGA2
   12    13    14    19	 9 ;      OG301      CG321     CG2R61     CG2R61
   12    13    14    15	 9 ;      OG301      CG321     CG2R61     CG2R61
   60    13    14    19	 9 ;       HGA2      CG321     CG2R61     CG2R61
   60    13    14    15	 9 ;       HGA2      CG321     CG2R61     CG2R61
   61    13    14    19	 9 ;       HGA2      CG321     CG2R61     CG2R61
   61    13    14    15	 9 ;       HGA2      CG321     CG2R61     CG2R61
   15    14    19    18	 9 ;     CG2R61     CG2R61     CG2R61     CG2R61
   15    14    19    65	 9 ;     CG2R61     CG2R61     CG2R61      HGR61
   13    14    19    18	 9 ;      CG321     CG2R61     CG2R61     CG2R61
   13    14    19    65	 9 ;      CG321     CG2R61     CG2R61      HGR61
   19    14    15    16	 9 ;     CG2R61     CG2R61     CG2R61     CG2R61
   19    14    15    62	 9 ;     CG2R61     CG2R61     CG2R61      HGR61
   13    14    15    16	 9 ;      CG321     CG2R61     CG2R61     CG2R61
   13    14    15    62	 9 ;      CG321     CG2R61     CG2R61      HGR61
   14    15    16    17	 9 ;     CG2R61     CG2R61     CG2R61     CG2R61
   14    15    16    20	 9 ;     CG2R61     CG2R61     CG2R61      CG311
   62    15    16    17	 9 ;      HGR61     CG2R61     CG2R61     CG2R61
   62    15    16    20	 9 ;      HGR61     CG2R61     CG2R61      CG311
   20    16    17    18	 9 ;      CG311     CG2R61     CG2R61     CG2R61
   20    16    17    63	 9 ;      CG311     CG2R61     CG2R61      HGR61
   15    16    17    18	 9 ;     CG2R61     CG2R61     CG2R61     CG2R61
   15    16    17    63	 9 ;     CG2R61     CG2R61     CG2R61      HGR61
   17    16    20    48	 9 ;     CG2R61     CG2R61      CG311     CG2R61
   17    16    20    21	 9 ;     CG2R61     CG2R61      CG311      NG2S1
   17    16    20    66	 9 ;     CG2R61     CG2R61      CG311       HGA1
   15    16    20    48	 9 ;     CG2R61     CG2R61      CG311     CG2R61
   15    16    20    21	 9 ;     CG2R61     CG2R61      CG311      NG2S1
   15    16    20    66	 9 ;     CG2R61     CG2R61      CG311       HGA1
   16    17    18    19	 9 ;     CG2R61     CG2R61     CG2R61     CG2R61
   16    17    18    64	 9 ;     CG2R61     CG2R61     CG2R61      HGR61
   63    17    18    19	 9 ;      HGR61     CG2R61     CG2R61     CG2R61
   63    17    18    64	 9 ;      HGR61     CG2R61     CG2R61      HGR61
   17    18    19    14	 9 ;     CG2R61     CG2R61     CG2R61     CG2R61
   17    18    19    65	 9 ;     CG2R61     CG2R61     CG2R61      HGR61
   64    18    19    14	 9 ;      HGR61     CG2R61     CG2R61     CG2R61
   64    18    19    65	 9 ;      HGR61     CG2R61     CG2R61      HGR61
   16    20    48    53	 9 ;     CG2R61      CG311     CG2R61     CG2R61
   16    20    48    49	 9 ;     CG2R61      CG311     CG2R61     CG2R61
   21    20    48    53	 9 ;      NG2S1      CG311     CG2R61     CG2R61
   21    20    48    49	 9 ;      NG2S1      CG311     CG2R61     CG2R61
   66    20    48    53	 9 ;       HGA1      CG311     CG2R61     CG2R61
   66    20    48    49	 9 ;       HGA1      CG311     CG2R61     CG2R61
   48    20    21    25	 9 ;     CG2R61      CG311      NG2S1       HGP1
   48    20    21    22	 9 ;     CG2R61      CG311      NG2S1      CG2O1
   16    20    21    25	 9 ;     CG2R61      CG311      NG2S1       HGP1
   16    20    21    22	 9 ;     CG2R61      CG311      NG2S1      CG2O1
   66    20    21    25	 9 ;       HGA1      CG311      NG2S1       HGP1
   66    20    21    22	 9 ;       HGA1      CG311      NG2S1      CG2O1
   20    21    22    23	 9 ;      CG311      NG2S1      CG2O1      OG2D1
   20    21    22     3	 9 ;      CG311      NG2S1      CG2O1     CG2R61
   25    21    22    23	 9 ;       HGP1      NG2S1      CG2O1      OG2D1
   25    21    22     3	 9 ;       HGP1      NG2S1      CG2O1     CG2R61
   10    26    40    41	 9 ;      CG311      CG311      OG311       HGP1
   27    26    40    41	 9 ;      CG321      CG311      OG311       HGP1
   67    26    40    41	 9 ;       HGA1      CG311      OG311       HGP1
   10    26    27    28	 9 ;      CG311      CG311      CG321      CG311
   10    26    27    68	 9 ;      CG311      CG311      CG321       HGA2
   10    26    27    69	 9 ;      CG311      CG311      CG321       HGA2
   40    26    27    28	 9 ;      OG311      CG311      CG321      CG311
   40    26    27    68	 9 ;      OG311      CG311      CG321       HGA2
   40    26    27    69	 9 ;      OG311      CG311      CG321       HGA2
   67    26    27    28	 9 ;       HGA1      CG311      CG321      CG311
   67    26    27    68	 9 ;       HGA1      CG311      CG321       HGA2
   67    26    27    69	 9 ;       HGA1      CG311      CG321       HGA2
   26    27    28    29	 9 ;      CG311      CG321      CG311      CG311
   26    27    28    32	 9 ;      CG311      CG321      CG311      CG2O1
   26    27    28    70	 9 ;      CG311      CG321      CG311       HGA1
   68    27    28    29	 9 ;       HGA2      CG321      CG311      CG311
   68    27    28    32	 9 ;       HGA2      CG321      CG311      CG2O1
   68    27    28    70	 9 ;       HGA2      CG321      CG311       HGA1
   69    27    28    29	 9 ;       HGA2      CG321      CG311      CG311
   69    27    28    32	 9 ;       HGA2      CG321      CG311      CG2O1
   69    27    28    70	 9 ;       HGA2      CG321      CG311       HGA1
   27    28    29    30	 9 ;      CG321      CG311      CG311      CG331
   27    28    29    31	 9 ;      CG321      CG311      CG311      CG331
   27    28    29    71	 9 ;      CG321      CG311      CG311       HGA1
   32    28    29    30	 9 ;      CG2O1      CG311      CG311      CG331
   32    28    29    31	 9 ;      CG2O1      CG311      CG311      CG331
   32    28    29    71	 9 ;      CG2O1      CG311      CG311       HGA1
   70    28    29    30	 9 ;       HGA1      CG311      CG311      CG331
   70    28    29    31	 9 ;       HGA1      CG311      CG311      CG331
   70    28    29    71	 9 ;       HGA1      CG311      CG311       HGA1
   27    28    32    33	 9 ;      CG321      CG311      CG2O1      OG2D1
   27    28    32    34	 9 ;      CG321      CG311      CG2O1      NG2S1
   29    28    32    33	 9 ;      CG311      CG311      CG2O1      OG2D1
   29    28    32    34	 9 ;      CG311      CG311      CG2O1      NG2S1
   70    28    32    33	 9 ;       HGA1      CG311      CG2O1      OG2D1
   70    28    32    34	 9 ;       HGA1      CG311      CG2O1      NG2S1
   31    29    30    72	 9 ;      CG331      CG311      CG331       HGA3
   31    29    30    73	 9 ;      CG331      CG311      CG331       HGA3
   31    29    30    74	 9 ;      CG331      CG311      CG331       HGA3
   28    29    30    72	 9 ;      CG311      CG311      CG331       HGA3
   28    29    30    73	 9 ;      CG311      CG311      CG331       HGA3
   28    29    30    74	 9 ;      CG311      CG311      CG331       HGA3
   71    29    30    72	 9 ;       HGA1      CG311      CG331       HGA3
   71    29    30    73	 9 ;       HGA1      CG311      CG331       HGA3
   71    29    30    74	 9 ;       HGA1      CG311      CG331       HGA3
   30    29    31    75	 9 ;      CG331      CG311      CG331       HGA3
   30    29    31    76	 9 ;      CG331      CG311      CG331       HGA3
   30    29    31    77	 9 ;      CG331      CG311      CG331       HGA3
   28    29    31    75	 9 ;      CG311      CG311      CG331       HGA3
   28    29    31    76	 9 ;      CG311      CG311      CG331       HGA3
   28    29    31    77	 9 ;      CG311      CG311      CG331       HGA3
   71    29    31    75	 9 ;       HGA1      CG311      CG331       HGA3
   71    29    31    76	 9 ;       HGA1      CG311      CG331       HGA3
   71    29    31    77	 9 ;       HGA1      CG311      CG331       HGA3
   28    32    34    35	 9 ;      CG311      CG2O1      NG2S1       HGP1
   28    32    34    36	 9 ;      CG311      CG2O1      NG2S1      CG321
   33    32    34    35	 9 ;      OG2D1      CG2O1      NG2S1       HGP1
   33    32    34    36	 9 ;      OG2D1      CG2O1      NG2S1      CG321
   32    34    36    37	 9 ;      CG2O1      NG2S1      CG321      CG311
   32    34    36    78	 9 ;      CG2O1      NG2S1      CG321       HGA2
   32    34    36    79	 9 ;      CG2O1      NG2S1      CG321       HGA2
   35    34    36    37	 9 ;       HGP1      NG2S1      CG321      CG311
   35    34    36    78	 9 ;       HGP1      NG2S1      CG321       HGA2
   35    34    36    79	 9 ;       HGP1      NG2S1      CG321       HGA2
   34    36    37    39	 9 ;      NG2S1      CG321      CG311      CG331
   34    36    37    38	 9 ;      NG2S1      CG321      CG311      CG331
   34    36    37    80	 9 ;      NG2S1      CG321      CG311       HGA1
   78    36    37    39	 9 ;       HGA2      CG321      CG311      CG331
   78    36    37    38	 9 ;       HGA2      CG321      CG311      CG331
   78    36    37    80	 9 ;       HGA2      CG321      CG311       HGA1
   79    36    37    39	 9 ;       HGA2      CG321      CG311      CG331
   79    36    37    38	 9 ;       HGA2      CG321      CG311      CG331
   79    36    37    80	 9 ;       HGA2      CG321      CG311       HGA1
   36    37    39    84	 9 ;      CG321      CG311      CG331       HGA3
   36    37    39    85	 9 ;      CG321      CG311      CG331       HGA3
   36    37    39    86	 9 ;      CG321      CG311      CG331       HGA3
   38    37    39    84	 9 ;      CG331      CG311      CG331       HGA3
   38    37    39    85	 9 ;      CG331      CG311      CG331       HGA3
   38    37    39    86	 9 ;      CG331      CG311      CG331       HGA3
   80    37    39    84	 9 ;       HGA1      CG311      CG331       HGA3
   80    37    39    85	 9 ;       HGA1      CG311      CG331       HGA3
   80    37    39    86	 9 ;       HGA1      CG311      CG331       HGA3
   36    37    38    81	 9 ;      CG321      CG311      CG331       HGA3
   36    37    38    82	 9 ;      CG321      CG311      CG331       HGA3
   36    37    38    83	 9 ;      CG321      CG311      CG331       HGA3
   39    37    38    81	 9 ;      CG331      CG311      CG331       HGA3
   39    37    38    82	 9 ;      CG331      CG311      CG331       HGA3
   39    37    38    83	 9 ;      CG331      CG311      CG331       HGA3
   80    37    38    81	 9 ;       HGA1      CG311      CG331       HGA3
   80    37    38    82	 9 ;       HGA1      CG311      CG331       HGA3
   80    37    38    83	 9 ;       HGA1      CG311      CG331       HGA3
    1    42    44    45	 9 ;     CG2R61      NG301      SG3O2      OG2P1
    1    42    44    47	 9 ;     CG2R61      NG301      SG3O2      CG331
    1    42    44    46	 9 ;     CG2R61      NG301      SG3O2      OG2P1
   43    42    44    45	 9 ;      CG331      NG301      SG3O2      OG2P1
   43    42    44    47	 9 ;      CG331      NG301      SG3O2      CG331
   43    42    44    46	 9 ;      CG331      NG301      SG3O2      OG2P1
   44    42    43    87	 9 ;      SG3O2      NG301      CG331       HGA3
   44    42    43    88	 9 ;      SG3O2      NG301      CG331       HGA3
   44    42    43    89	 9 ;      SG3O2      NG301      CG331       HGA3
    1    42    43    87	 9 ;     CG2R61      NG301      CG331       HGA3
    1    42    43    88	 9 ;     CG2R61      NG301      CG331       HGA3
    1    42    43    89	 9 ;     CG2R61      NG301      CG331       HGA3
   45    44    47    90	 9 ;      OG2P1      SG3O2      CG331       HGA3
   45    44    47    91	 9 ;      OG2P1      SG3O2      CG331       HGA3
   45    44    47    92	 9 ;      OG2P1      SG3O2      CG331       HGA3
   46    44    47    90	 9 ;      OG2P1      SG3O2      CG331       HGA3
   46    44    47    91	 9 ;      OG2P1      SG3O2      CG331       HGA3
   46    44    47    92	 9 ;      OG2P1      SG3O2      CG331       HGA3
   42    44    47    90	 9 ;      NG301      SG3O2      CG331       HGA3
   42    44    47    91	 9 ;      NG301      SG3O2      CG331       HGA3
   42    44    47    92	 9 ;      NG301      SG3O2      CG331       HGA3
   49    48    53    52	 9 ;     CG2R61     CG2R61     CG2R61     CG2R61
   49    48    53    97	 9 ;     CG2R61     CG2R61     CG2R61      HGR61
   20    48    53    52	 9 ;      CG311     CG2R61     CG2R61     CG2R61
   20    48    53    97	 9 ;      CG311     CG2R61     CG2R61      HGR61
   53    48    49    50	 9 ;     CG2R61     CG2R61     CG2R61     CG2R61
   53    48    49    93	 9 ;     CG2R61     CG2R61     CG2R61      HGR61
   20    48    49    50	 9 ;      CG311     CG2R61     CG2R61     CG2R61
   20    48    49    93	 9 ;      CG311     CG2R61     CG2R61      HGR61
   48    49    50    51	 9 ;     CG2R61     CG2R61     CG2R61     CG2R61
   48    49    50    94	 9 ;     CG2R61     CG2R61     CG2R61      HGR61
   93    49    50    51	 9 ;      HGR61     CG2R61     CG2R61     CG2R61
   93    49    50    94	 9 ;      HGR61     CG2R61     CG2R61      HGR61
   49    50    51    52	 9 ;     CG2R61     CG2R61     CG2R61     CG2R61
   49    50    51    95	 9 ;     CG2R61     CG2R61     CG2R61      HGR61
   94    50    51    52	 9 ;      HGR61     CG2R61     CG2R61     CG2R61
   94    50    51    95	 9 ;      HGR61     CG2R61     CG2R61      HGR61
   50    51    52    53	 9 ;     CG2R61     CG2R61     CG2R61     CG2R61
   50    51    52    96	 9 ;     CG2R61     CG2R61     CG2R61      HGR61
   95    51    52    53	 9 ;      HGR61     CG2R61     CG2R61     CG2R61
   95    51    52    96	 9 ;      HGR61     CG2R61     CG2R61      HGR61
   51    52    53    48	 9 ;     CG2R61     CG2R61     CG2R61     CG2R61
   51    52    53    97	 9 ;     CG2R61     CG2R61     CG2R61      HGR61
   96    52    53    48	 9 ;      HGR61     CG2R61     CG2R61     CG2R61
   96    52    53    97	 9 ;      HGR61     CG2R61     CG2R61      HGR61

[ dihedrals ]
;	ai	  aj	ak	  al funct			  c0			c1			  c2			c3
    7     5     9     8	 2
   22     3    21    23	 2
   32    28    34    33	 2

