Glycine aRginine prOline Methionine Alanine Cystine Serine
   97
    1LIG     C1    1  -1.197   0.335  -1.457
    1LIG     C2    2  -1.131   0.458  -1.438
    1LIG     C3    3  -1.191   0.574  -1.484
    1LIG     C4    4  -1.321   0.570  -1.533
    1LIG     C5    5  -1.382   0.450  -1.565
    1LIG     C6    6  -1.318   0.331  -1.527
    1LIG     C7    7  -1.495   0.446  -1.661
    1LIG     O1    8  -1.520   0.341  -1.719
    1LIG     N1    9  -1.564   0.558  -1.702
    1LIG     C8   10  -1.606   0.684  -1.633
    1LIG     C9   11  -1.584   0.815  -1.717
    1LIG     O2   12  -1.628   0.815  -1.852
    1LIG    C10   13  -1.574   0.723  -1.949
    1LIG    C11   14  -1.424   0.706  -1.964
    1LIG    C12   15  -1.339   0.709  -1.854
    1LIG    C13   16  -1.202   0.729  -1.863
    1LIG    C14   17  -1.143   0.708  -1.988
    1LIG    C15   18  -1.225   0.683  -2.099
    1LIG    C16   19  -1.365   0.687  -2.088
    1LIG    C17   20  -1.137   0.801  -1.743
    1LIG     N2   21  -1.073   0.707  -1.649
    1LIG    C18   22  -1.124   0.703  -1.518
    1LIG     O3   23  -1.145   0.801  -1.448
    1LIG     H1   24  -1.629   0.528  -1.773
    1LIG     H2   25  -1.062   0.616  -1.691
    1LIG    C19   26  -1.755   0.672  -1.597
    1LIG    C20   27  -1.769   0.603  -1.462
    1LIG    C21   28  -1.861   0.482  -1.461
    1LIG    C22   29  -1.799   0.348  -1.411
    1LIG    C23   30  -1.788   0.238  -1.518
    1LIG    C24   31  -1.661   0.366  -1.346
    1LIG    C25   32  -1.984   0.520  -1.377
    1LIG     O4   33  -2.048   0.623  -1.395
    1LIG     N3   34  -2.013   0.430  -1.277
    1LIG     H3   35  -1.959   0.345  -1.271
    1LIG    C26   36  -2.127   0.446  -1.189
    1LIG    C27   37  -2.159   0.321  -1.105
    1LIG    C28   38  -2.310   0.301  -1.085
    1LIG    C29   39  -2.100   0.198  -1.174
    1LIG     O5   40  -1.818   0.799  -1.589
    1LIG     H4   41  -1.821   0.837  -1.678
    1LIG     N4   42  -1.133   0.213  -1.418
    1LIG    C30   43  -1.150   0.165  -1.281
    1LIG      S   44  -1.068   0.111  -1.536
    1LIG     O6   45  -1.007   0.192  -1.640
    1LIG     O7   46  -1.165   0.009  -1.568
    1LIG    C31   47  -0.934   0.031  -1.447
    1LIG    C32   48  -1.064   0.924  -1.796
    1LIG    C33   49  -0.948   0.963  -1.726
    1LIG    C34   50  -0.888   1.088  -1.744
    1LIG    C35   51  -0.942   1.174  -1.838
    1LIG    C36   52  -1.054   1.135  -1.913
    1LIG    C37   53  -1.115   1.010  -1.893
    1LIG     HC   54  -1.035   0.461  -1.388
    1LIG    HC1   55  -1.375   0.662  -1.547
    1LIG    HC2   56  -1.363   0.235  -1.552
    1LIG    HC3   57  -1.549   0.693  -1.541
    1LIG    HC4   58  -1.636   0.895  -1.665
    1LIG    HC5   59  -1.477   0.838  -1.715
    1LIG    HC6   60  -1.612   0.755  -2.046
    1LIG    HC7   61  -1.617   0.625  -1.929
    1LIG    HC8   62  -1.382   0.696  -1.756
    1LIG    HC9   63  -1.036   0.710  -1.999
    1LIG   HC10   64  -1.179   0.661  -2.195
    1LIG   HC11   65  -1.426   0.674  -2.176
    1LIG   HC12   66  -1.221   0.841  -1.687
    1LIG   HC13   67  -1.805   0.612  -1.673
    1LIG   HC14   68  -1.808   0.676  -1.390
    1LIG   HC15   69  -1.670   0.572  -1.428
    1LIG   HC16   70  -1.895   0.466  -1.564
    1LIG   HC17   71  -1.865   0.310  -1.334
    1LIG   HC18   72  -1.886   0.224  -1.565
    1LIG   HC19   73  -1.757   0.145  -1.471
    1LIG   HC20   74  -1.715   0.268  -1.593
    1LIG   HC21   75  -1.632   0.273  -1.296
    1LIG   HC22   76  -1.587   0.390  -1.423
    1LIG   HC23   77  -1.665   0.447  -1.273
    1LIG   HC24   78  -2.107   0.529  -1.121
    1LIG   HC25   79  -2.214   0.471  -1.250
    1LIG   HC26   80  -2.113   0.332  -1.007
    1LIG   HC27   81  -2.352   0.389  -1.037
    1LIG   HC28   82  -2.326   0.213  -1.023
    1LIG   HC29   83  -2.357   0.286  -1.182
    1LIG   HC30   84  -2.153   0.109  -1.141
    1LIG   HC31   85  -1.995   0.188  -1.147
    1LIG   HC32   86  -2.109   0.208  -1.282
    1LIG   HC33   87  -1.230   0.221  -1.232
    1LIG   HC34   88  -1.175   0.059  -1.282
    1LIG   HC35   89  -1.057   0.180  -1.226
    1LIG   HC36   90  -0.865  -0.013  -1.518
    1LIG   HC37   91  -0.975  -0.047  -1.383
    1LIG   HC38   92  -0.882   0.105  -1.386
    1LIG   HC39   93  -0.904   0.894  -1.655
    1LIG   HC40   94  -0.802   1.116  -1.686
    1LIG   HC41   95  -0.898   1.272  -1.853
    1LIG   HC42   96  -1.093   1.202  -1.988
    1LIG   HC43   97  -1.201   0.982  -1.951
   0.00000   0.00000   0.00000
