GRoups of Organic Molecules in ACtion for Science
   67
    1LIG     C1    1  -1.421   0.374  -1.764
    1LIG     N1    2  -1.488   0.426  -1.636
    1LIG     H1    3  -1.566   0.487  -1.662
    1LIG     H2    4  -1.418   0.489  -1.594
    1LIG     C2    5  -1.530   0.336  -1.519
    1LIG     C3    6  -1.613   0.425  -1.421
    1LIG     C4    7  -1.748   0.473  -1.475
    1LIG     C5    8  -1.833   0.362  -1.537
    1LIG     C6    9  -1.753   0.276  -1.632
    1LIG     C7   10  -1.630   0.224  -1.559
    1LIG     C8   11  -1.408   0.279  -1.446
    1LIG     C9   12  -1.371   0.147  -1.429
    1LIG    C10   13  -1.260   0.130  -1.341
    1LIG    C11   14  -1.213   0.252  -1.297
    1LIG      S   15  -1.294   0.383  -1.370
    1LIG    C12   16  -1.202  -0.004  -1.301
    1LIG    C13   17  -1.079   0.010  -1.211
    1LIG    C14   18  -1.309  -0.091  -1.234
    1LIG    C15   19  -1.278   0.428  -1.784
    1LIG    C16   20  -1.247   0.572  -1.730
    1LIG     N2   21  -1.101   0.586  -1.713
    1LIG    C17   22  -1.043   0.655  -1.609
    1LIG     O1   23  -1.107   0.709  -1.521
    1LIG    C18   24  -0.892   0.665  -1.620
    1LIG     H3   25  -1.041   0.548  -1.786
    1LIG    C19   26  -1.308   0.685  -1.814
    1LIG    C20   27  -1.400   0.784  -1.743
    1LIG    C21   28  -1.419   0.910  -1.800
    1LIG    C22   29  -1.516   0.997  -1.751
    1LIG     F1   30  -1.535   1.115  -1.811
    1LIG    C23   31  -1.596   0.961  -1.644
    1LIG    C24   32  -1.575   0.838  -1.584
    1LIG     F2   33  -1.651   0.801  -1.480
    1LIG    C25   34  -1.478   0.749  -1.632
    1LIG     O2   35  -1.189   0.345  -1.710
    1LIG     H4   36  -1.115   0.402  -1.681
    1LIG    HC2   37  -1.416   0.266  -1.759
    1LIG    HC3   38  -1.482   0.403  -1.849
    1LIG    HC4   39  -1.632   0.367  -1.330
    1LIG    HC5   40  -1.554   0.512  -1.394
    1LIG    HC6   41  -1.730   0.549  -1.551
    1LIG    HC7   42  -1.805   0.519  -1.394
    1LIG    HC8   43  -1.872   0.299  -1.457
    1LIG    HC9   44  -1.917   0.407  -1.591
    1LIG   HC10   45  -1.722   0.335  -1.718
    1LIG   HC11   46  -1.814   0.192  -1.666
    1LIG   HC12   47  -1.578   0.153  -1.624
    1LIG   HC13   48  -1.662   0.172  -1.469
    1LIG     HC   49  -1.421   0.065  -1.478
    1LIG    HC1   50  -1.133   0.263  -1.225
    1LIG   HC14   51  -1.171  -0.055  -1.392
    1LIG   HC15   52  -1.253   0.424  -1.890
    1LIG   HC16   53  -1.291   0.578  -1.631
    1LIG   HC17   54  -1.226   0.742  -1.856
    1LIG   HC18   55  -1.364   0.640  -1.896
    1LIG   HC19   56  -1.357   0.941  -1.884
    1LIG   HC20   57  -1.673   1.028  -1.607
    1LIG   HC21   58  -1.464   0.654  -1.583
    1LIG   HC22   59  -1.040  -0.089  -1.187
    1LIG   HC23   60  -1.108   0.061  -1.119
    1LIG   HC24   61  -1.003   0.068  -1.262
    1LIG   HC25   62  -0.853   0.721  -1.535
    1LIG   HC26   63  -0.849   0.566  -1.621
    1LIG   HC27   64  -0.866   0.717  -1.712
    1LIG   HC28   65  -1.395  -0.100  -1.300
    1LIG   HC29   66  -1.340  -0.045  -1.140
    1LIG   HC30   67  -1.268  -0.190  -1.214
   0.00000   0.00000   0.00000
