; Created by cgenff_charmm2gmx.py

[ moleculetype ]
; Name			   nrexcl
LIG				 3

[ atoms ]
;	 nr		  type	resnr residue  atom   cgnr	   charge		mass  typeB    chargeB		massB
; residue	 1 LIG rtp LIG q	qsum
     1      CG324      1    LIG     C1      1      0.208     12.011   ;
     2      NG3P2      1    LIG     N1      2     -0.446     14.007   ;
     3       HGP2      1    LIG     H1      3      0.341      1.008   ;
     4       HGP2      1    LIG     H2      4      0.341      1.008   ;
     5      CG301      1    LIG     C2      5      0.386     12.011   ;
     6      CG321      1    LIG     C3      6     -0.147     12.011   ;
     7      CG321      1    LIG     C4      7     -0.194     12.011   ;
     8      CG321      1    LIG     C5      8     -0.176     12.011   ;
     9      CG321      1    LIG     C6      9     -0.194     12.011   ;
    10      CG321      1    LIG     C7     10     -0.147     12.011   ;
    11     CG2R51      1    LIG     C8     11      0.159     12.011   ;
    12     CG2R51      1    LIG     C9     12     -0.324     12.011   ;
    13     CG2R51      1    LIG    C10     13      0.210     12.011   ;
    14     CG2R51      1    LIG    C11     14     -0.236     12.011   ;
    15     SG2R50      1    LIG      S     15     -0.165     32.060   ;
    16      CG311      1    LIG    C12     16     -0.134     12.011   ;
    17      CG331      1    LIG    C13     17     -0.257     12.011   ;
    18      CG331      1    LIG    C14     18     -0.257     12.011   ;
    19      CG311      1    LIG    C15     19      0.089     12.011   ;
    20      CG311      1    LIG    C16     20     -0.007     12.011   ;
    21      NG2S1      1    LIG     N2     21     -0.339     14.007   ;
    22      CG2O1      1    LIG    C17     22      0.488     12.011   ;
    23      OG2D1      1    LIG     O1     23     -0.509     15.999   ;
    24      CG331      1    LIG    C18     24     -0.270     12.011   ;
    25       HGP1      1    LIG     H3     25      0.261      1.008   ;
    26      CG321      1    LIG    C19     26     -0.153     12.011   ;
    27     CG2R61      1    LIG    C20     27      0.057     12.011   ;
    28     CG2R61      1    LIG    C21     28     -0.218     12.011   ;
    29     CG2R66      1    LIG    C22     29      0.261     12.011   ;
    30       FGR1      1    LIG     F1     30     -0.210     18.998   ;
    31     CG2R61      1    LIG    C23     31     -0.240     12.011   ;
    32     CG2R66      1    LIG    C24     32      0.261     12.011   ;
    33       FGR1      1    LIG     F2     33     -0.210     18.998   ;
    34     CG2R61      1    LIG    C25     34     -0.218     12.011   ;
    35      OG311      1    LIG     O2     35     -0.625     15.999   ;
    36       HGP1      1    LIG     H4     36      0.415      1.008   ;
    37       HGA2      1    LIG    HC2     37      0.090      1.008   ;
    38       HGA2      1    LIG    HC3     38      0.090      1.008   ;
    39       HGA2      1    LIG    HC4     39      0.090      1.008   ;
    40       HGA2      1    LIG    HC5     40      0.090      1.008   ;
    41       HGA2      1    LIG    HC6     41      0.090      1.008   ;
    42       HGA2      1    LIG    HC7     42      0.090      1.008   ;
    43       HGA2      1    LIG    HC8     43      0.090      1.008   ;
    44       HGA2      1    LIG    HC9     44      0.090      1.008   ;
    45       HGA2      1    LIG   HC10     45      0.090      1.008   ;
    46       HGA2      1    LIG   HC11     46      0.090      1.008   ;
    47       HGA2      1    LIG   HC12     47      0.090      1.008   ;
    48       HGA2      1    LIG   HC13     48      0.090      1.008   ;
    49      HGR51      1    LIG     HC     49      0.165      1.008   ;
    50      HGR52      1    LIG    HC1     50      0.160      1.008   ;
    51       HGA1      1    LIG   HC14     51      0.090      1.008   ;
    52       HGA1      1    LIG   HC15     52      0.090      1.008   ;
    53       HGA1      1    LIG   HC16     53      0.090      1.008   ;
    54       HGA2      1    LIG   HC17     54      0.090      1.008   ;
    55       HGA2      1    LIG   HC18     55      0.090      1.008   ;
    56      HGR62      1    LIG   HC19     56      0.174      1.008   ;
    57      HGR62      1    LIG   HC20     57      0.186      1.008   ;
    58      HGR62      1    LIG   HC21     58      0.174      1.008   ;
    59       HGA3      1    LIG   HC22     59      0.090      1.008   ;
    60       HGA3      1    LIG   HC23     60      0.090      1.008   ;
    61       HGA3      1    LIG   HC24     61      0.090      1.008   ;
    62       HGA3      1    LIG   HC25     62      0.090      1.008   ;
    63       HGA3      1    LIG   HC26     63      0.090      1.008   ;
    64       HGA3      1    LIG   HC27     64      0.090      1.008   ;
    65       HGA3      1    LIG   HC28     65      0.090      1.008   ;
    66       HGA3      1    LIG   HC29     66      0.090      1.008   ;
    67       HGA3      1    LIG   HC30     67      0.090      1.008   ;

[ bonds ]
;	ai	  aj funct			  c0			c1			  c2			c3
    1    19	 1 ;       CG324      CG311
    1     2	 1 ;       CG324      NG3P2
    1    37	 1 ;       CG324       HGA2
    1    38	 1 ;       CG324       HGA2
    2     4	 1 ;       NG3P2       HGP2
    2     3	 1 ;       NG3P2       HGP2
    2     5	 1 ;       NG3P2      CG301
    5    11	 1 ;       CG301     CG2R51
    5    10	 1 ;       CG301      CG321
    5     6	 1 ;       CG301      CG321
    6     7	 1 ;       CG321      CG321
    6    39	 1 ;       CG321       HGA2
    6    40	 1 ;       CG321       HGA2
    7     8	 1 ;       CG321      CG321
    7    41	 1 ;       CG321       HGA2
    7    42	 1 ;       CG321       HGA2
    8     9	 1 ;       CG321      CG321
    8    43	 1 ;       CG321       HGA2
    8    44	 1 ;       CG321       HGA2
    9    10	 1 ;       CG321      CG321
    9    45	 1 ;       CG321       HGA2
    9    46	 1 ;       CG321       HGA2
   10    47	 1 ;       CG321       HGA2
   10    48	 1 ;       CG321       HGA2
   11    12	 1 ;      CG2R51     CG2R51
   11    15	 1 ;      CG2R51     SG2R50
   12    13	 1 ;      CG2R51     CG2R51
   12    49	 1 ;      CG2R51      HGR51
   13    16	 1 ;      CG2R51      CG311
   13    14	 1 ;      CG2R51     CG2R51
   14    15	 1 ;      CG2R51     SG2R50
   14    50	 1 ;      CG2R51      HGR52
   16    17	 1 ;       CG311      CG331
   16    18	 1 ;       CG311      CG331
   16    51	 1 ;       CG311       HGA1
   17    59	 1 ;       CG331       HGA3
   17    60	 1 ;       CG331       HGA3
   17    61	 1 ;       CG331       HGA3
   18    65	 1 ;       CG331       HGA3
   18    66	 1 ;       CG331       HGA3
   18    67	 1 ;       CG331       HGA3
   19    35	 1 ;       CG311      OG311
   19    20	 1 ;       CG311      CG311
   19    52	 1 ;       CG311       HGA1
   20    21	 1 ;       CG311      NG2S1
   20    26	 1 ;       CG311      CG321
   20    53	 1 ;       CG311       HGA1
   21    25	 1 ;       NG2S1       HGP1
   21    22	 1 ;       NG2S1      CG2O1
   22    24	 1 ;       CG2O1      CG331
   22    23	 1 ;       CG2O1      OG2D1
   24    62	 1 ;       CG331       HGA3
   24    63	 1 ;       CG331       HGA3
   24    64	 1 ;       CG331       HGA3
   26    27	 1 ;       CG321     CG2R61
   26    54	 1 ;       CG321       HGA2
   26    55	 1 ;       CG321       HGA2
   27    28	 1 ;      CG2R61     CG2R61
   27    34	 1 ;      CG2R61     CG2R61
   28    29	 1 ;      CG2R61     CG2R66
   28    56	 1 ;      CG2R61      HGR62
   29    30	 1 ;      CG2R66       FGR1
   29    31	 1 ;      CG2R66     CG2R61
   31    32	 1 ;      CG2R61     CG2R66
   31    57	 1 ;      CG2R61      HGR62
   32    34	 1 ;      CG2R66     CG2R61
   32    33	 1 ;      CG2R66       FGR1
   34    58	 1 ;      CG2R61      HGR62
   35    36	 1 ;       OG311       HGP1

[ pairs ]
;	ai	  aj funct			  c0			c1			  c2			c3
    1    11	 1
    1    10	 1
    1     6	 1
    1    36	 1
    1    21	 1
    1    26	 1
    1    53	 1
    2    35	 1
    2    20	 1
    2    52	 1
    2    12	 1
    2    15	 1
    2     9	 1
    2    47	 1
    2    48	 1
    2     7	 1
    2    39	 1
    2    40	 1
    3    19	 1
    3    37	 1
    3    38	 1
    3    11	 1
    3    10	 1
    3     6	 1
    4    19	 1
    4    37	 1
    4    38	 1
    4    11	 1
    4    10	 1
    4     6	 1
    5    19	 1
    5    37	 1
    5    38	 1
    5     8	 1
    5    41	 1
    5    42	 1
    5    45	 1
    5    46	 1
    5    13	 1
    5    49	 1
    5    14	 1
    6    12	 1
    6    15	 1
    6     9	 1
    6    47	 1
    6    48	 1
    6    43	 1
    6    44	 1
    7    11	 1
    7    10	 1
    7    45	 1
    7    46	 1
    8    39	 1
    8    40	 1
    8    47	 1
    8    48	 1
    9    11	 1
    9    41	 1
    9    42	 1
   10    12	 1
   10    15	 1
   10    39	 1
   10    40	 1
   10    43	 1
   10    44	 1
   11    47	 1
   11    48	 1
   11    39	 1
   11    40	 1
   11    16	 1
   11    50	 1
   12    17	 1
   12    18	 1
   12    51	 1
   12    50	 1
   13    59	 1
   13    60	 1
   13    61	 1
   13    65	 1
   13    66	 1
   13    67	 1
   14    49	 1
   14    17	 1
   14    18	 1
   14    51	 1
   15    49	 1
   15    16	 1
   16    49	 1
   16    50	 1
   17    65	 1
   17    66	 1
   17    67	 1
   18    59	 1
   18    60	 1
   18    61	 1
   19    25	 1
   19    22	 1
   19    27	 1
   19    54	 1
   19    55	 1
   20    37	 1
   20    38	 1
   20    36	 1
   20    24	 1
   20    23	 1
   20    28	 1
   20    34	 1
   21    35	 1
   21    52	 1
   21    27	 1
   21    54	 1
   21    55	 1
   21    62	 1
   21    63	 1
   21    64	 1
   22    26	 1
   22    53	 1
   23    25	 1
   23    62	 1
   23    63	 1
   23    64	 1
   24    25	 1
   25    26	 1
   25    53	 1
   26    35	 1
   26    52	 1
   26    29	 1
   26    56	 1
   26    32	 1
   26    58	 1
   27    53	 1
   27    30	 1
   27    31	 1
   27    33	 1
   28    54	 1
   28    55	 1
   28    32	 1
   28    58	 1
   28    57	 1
   29    34	 1
   29    33	 1
   30    56	 1
   30    32	 1
   30    57	 1
   31    56	 1
   31    58	 1
   33    57	 1
   33    58	 1
   34    54	 1
   34    55	 1
   34    56	 1
   34    57	 1
   35    37	 1
   35    38	 1
   35    53	 1
   36    52	 1
   37    52	 1
   38    52	 1
   39    41	 1
   39    42	 1
   40    41	 1
   40    42	 1
   41    43	 1
   41    44	 1
   42    43	 1
   42    44	 1
   43    45	 1
   43    46	 1
   44    45	 1
   44    46	 1
   45    47	 1
   45    48	 1
   46    47	 1
   46    48	 1
   51    59	 1
   51    60	 1
   51    61	 1
   51    65	 1
   51    66	 1
   51    67	 1
   52    53	 1
   53    54	 1
   53    55	 1

[ angles ]
;	ai	  aj	ak funct			c0			  c1			c2			  c3
   19     1     2	5 ;      CG311      CG324      NG3P2
   19     1    37	5 ;      CG311      CG324       HGA2
   19     1    38	5 ;      CG311      CG324       HGA2
    2     1    37	5 ;      NG3P2      CG324       HGA2
    2     1    38	5 ;      NG3P2      CG324       HGA2
   37     1    38	5 ;       HGA2      CG324       HGA2
    1     2     4	5 ;      CG324      NG3P2       HGP2
    1     2     3	5 ;      CG324      NG3P2       HGP2
    1     2     5	5 ;      CG324      NG3P2      CG301
    4     2     3	5 ;       HGP2      NG3P2       HGP2
    4     2     5	5 ;       HGP2      NG3P2      CG301
    3     2     5	5 ;       HGP2      NG3P2      CG301
    2     5    11	5 ;      NG3P2      CG301     CG2R51
    2     5    10	5 ;      NG3P2      CG301      CG321
    2     5     6	5 ;      NG3P2      CG301      CG321
   11     5    10	5 ;     CG2R51      CG301      CG321
   11     5     6	5 ;     CG2R51      CG301      CG321
   10     5     6	5 ;      CG321      CG301      CG321
    5     6     7	5 ;      CG301      CG321      CG321
    5     6    39	5 ;      CG301      CG321       HGA2
    5     6    40	5 ;      CG301      CG321       HGA2
    7     6    39	5 ;      CG321      CG321       HGA2
    7     6    40	5 ;      CG321      CG321       HGA2
   39     6    40	5 ;       HGA2      CG321       HGA2
    6     7     8	5 ;      CG321      CG321      CG321
    6     7    41	5 ;      CG321      CG321       HGA2
    6     7    42	5 ;      CG321      CG321       HGA2
    8     7    41	5 ;      CG321      CG321       HGA2
    8     7    42	5 ;      CG321      CG321       HGA2
   41     7    42	5 ;       HGA2      CG321       HGA2
    9     8     7	5 ;      CG321      CG321      CG321
    9     8    43	5 ;      CG321      CG321       HGA2
    9     8    44	5 ;      CG321      CG321       HGA2
    7     8    43	5 ;      CG321      CG321       HGA2
    7     8    44	5 ;      CG321      CG321       HGA2
   43     8    44	5 ;       HGA2      CG321       HGA2
   10     9     8	5 ;      CG321      CG321      CG321
   10     9    45	5 ;      CG321      CG321       HGA2
   10     9    46	5 ;      CG321      CG321       HGA2
    8     9    45	5 ;      CG321      CG321       HGA2
    8     9    46	5 ;      CG321      CG321       HGA2
   45     9    46	5 ;       HGA2      CG321       HGA2
    5    10     9	5 ;      CG301      CG321      CG321
    5    10    47	5 ;      CG301      CG321       HGA2
    5    10    48	5 ;      CG301      CG321       HGA2
    9    10    47	5 ;      CG321      CG321       HGA2
    9    10    48	5 ;      CG321      CG321       HGA2
   47    10    48	5 ;       HGA2      CG321       HGA2
   12    11    15	5 ;     CG2R51     CG2R51     SG2R50
   12    11     5	5 ;     CG2R51     CG2R51      CG301
   15    11     5	5 ;     SG2R50     CG2R51      CG301
   13    12    11	5 ;     CG2R51     CG2R51     CG2R51
   13    12    49	5 ;     CG2R51     CG2R51      HGR51
   11    12    49	5 ;     CG2R51     CG2R51      HGR51
   16    13    14	5 ;      CG311     CG2R51     CG2R51
   16    13    12	5 ;      CG311     CG2R51     CG2R51
   14    13    12	5 ;     CG2R51     CG2R51     CG2R51
   13    14    15	5 ;     CG2R51     CG2R51     SG2R50
   13    14    50	5 ;     CG2R51     CG2R51      HGR52
   15    14    50	5 ;     SG2R50     CG2R51      HGR52
   14    15    11	5 ;     CG2R51     SG2R50     CG2R51
   17    16    13	5 ;      CG331      CG311     CG2R51
   17    16    18	5 ;      CG331      CG311      CG331
   17    16    51	5 ;      CG331      CG311       HGA1
   13    16    18	5 ;     CG2R51      CG311      CG331
   13    16    51	5 ;     CG2R51      CG311       HGA1
   18    16    51	5 ;      CG331      CG311       HGA1
   16    17    59	5 ;      CG311      CG331       HGA3
   16    17    60	5 ;      CG311      CG331       HGA3
   16    17    61	5 ;      CG311      CG331       HGA3
   59    17    60	5 ;       HGA3      CG331       HGA3
   59    17    61	5 ;       HGA3      CG331       HGA3
   60    17    61	5 ;       HGA3      CG331       HGA3
   16    18    65	5 ;      CG311      CG331       HGA3
   16    18    66	5 ;      CG311      CG331       HGA3
   16    18    67	5 ;      CG311      CG331       HGA3
   65    18    66	5 ;       HGA3      CG331       HGA3
   65    18    67	5 ;       HGA3      CG331       HGA3
   66    18    67	5 ;       HGA3      CG331       HGA3
   35    19    20	5 ;      OG311      CG311      CG311
   35    19     1	5 ;      OG311      CG311      CG324
   35    19    52	5 ;      OG311      CG311       HGA1
   20    19     1	5 ;      CG311      CG311      CG324
   20    19    52	5 ;      CG311      CG311       HGA1
    1    19    52	5 ;      CG324      CG311       HGA1
   21    20    19	5 ;      NG2S1      CG311      CG311
   21    20    26	5 ;      NG2S1      CG311      CG321
   21    20    53	5 ;      NG2S1      CG311       HGA1
   19    20    26	5 ;      CG311      CG311      CG321
   19    20    53	5 ;      CG311      CG311       HGA1
   26    20    53	5 ;      CG321      CG311       HGA1
   25    21    22	5 ;       HGP1      NG2S1      CG2O1
   25    21    20	5 ;       HGP1      NG2S1      CG311
   22    21    20	5 ;      CG2O1      NG2S1      CG311
   24    22    21	5 ;      CG331      CG2O1      NG2S1
   24    22    23	5 ;      CG331      CG2O1      OG2D1
   21    22    23	5 ;      NG2S1      CG2O1      OG2D1
   22    24    62	5 ;      CG2O1      CG331       HGA3
   22    24    63	5 ;      CG2O1      CG331       HGA3
   22    24    64	5 ;      CG2O1      CG331       HGA3
   62    24    63	5 ;       HGA3      CG331       HGA3
   62    24    64	5 ;       HGA3      CG331       HGA3
   63    24    64	5 ;       HGA3      CG331       HGA3
   20    26    27	5 ;      CG311      CG321     CG2R61
   20    26    54	5 ;      CG311      CG321       HGA2
   20    26    55	5 ;      CG311      CG321       HGA2
   27    26    54	5 ;     CG2R61      CG321       HGA2
   27    26    55	5 ;     CG2R61      CG321       HGA2
   54    26    55	5 ;       HGA2      CG321       HGA2
   26    27    28	5 ;      CG321     CG2R61     CG2R61
   26    27    34	5 ;      CG321     CG2R61     CG2R61
   28    27    34	5 ;     CG2R61     CG2R61     CG2R61
   27    28    29	5 ;     CG2R61     CG2R61     CG2R66
   27    28    56	5 ;     CG2R61     CG2R61      HGR62
   29    28    56	5 ;     CG2R66     CG2R61      HGR62
   28    29    30	5 ;     CG2R61     CG2R66       FGR1
   28    29    31	5 ;     CG2R61     CG2R66     CG2R61
   30    29    31	5 ;       FGR1     CG2R66     CG2R61
   29    31    32	5 ;     CG2R66     CG2R61     CG2R66
   29    31    57	5 ;     CG2R66     CG2R61      HGR62
   32    31    57	5 ;     CG2R66     CG2R61      HGR62
   34    32    31	5 ;     CG2R61     CG2R66     CG2R61
   34    32    33	5 ;     CG2R61     CG2R66       FGR1
   31    32    33	5 ;     CG2R61     CG2R66       FGR1
   27    34    32	5 ;     CG2R61     CG2R61     CG2R66
   27    34    58	5 ;     CG2R61     CG2R61      HGR62
   32    34    58	5 ;     CG2R66     CG2R61      HGR62
   36    35    19	5 ;       HGP1      OG311      CG311

[ dihedrals ]
;	ai	  aj	ak	  al funct			  c0			c1			  c2			c3			  c4			c5
    2     1    19    35	 9 ;      NG3P2      CG324      CG311      OG311
    2     1    19    20	 9 ;      NG3P2      CG324      CG311      CG311
    2     1    19    52	 9 ;      NG3P2      CG324      CG311       HGA1
   37     1    19    35	 9 ;       HGA2      CG324      CG311      OG311
   37     1    19    20	 9 ;       HGA2      CG324      CG311      CG311
   37     1    19    52	 9 ;       HGA2      CG324      CG311       HGA1
   38     1    19    35	 9 ;       HGA2      CG324      CG311      OG311
   38     1    19    20	 9 ;       HGA2      CG324      CG311      CG311
   38     1    19    52	 9 ;       HGA2      CG324      CG311       HGA1
   19     1     2     4	 9 ;      CG311      CG324      NG3P2       HGP2
   19     1     2     3	 9 ;      CG311      CG324      NG3P2       HGP2
   19     1     2     5	 9 ;      CG311      CG324      NG3P2      CG301
   37     1     2     4	 9 ;       HGA2      CG324      NG3P2       HGP2
   37     1     2     3	 9 ;       HGA2      CG324      NG3P2       HGP2
   37     1     2     5	 9 ;       HGA2      CG324      NG3P2      CG301
   38     1     2     4	 9 ;       HGA2      CG324      NG3P2       HGP2
   38     1     2     3	 9 ;       HGA2      CG324      NG3P2       HGP2
   38     1     2     5	 9 ;       HGA2      CG324      NG3P2      CG301
    1     2     5    11	 9 ;      CG324      NG3P2      CG301     CG2R51
    1     2     5    10	 9 ;      CG324      NG3P2      CG301      CG321
    1     2     5     6	 9 ;      CG324      NG3P2      CG301      CG321
    4     2     5    11	 9 ;       HGP2      NG3P2      CG301     CG2R51
    4     2     5    10	 9 ;       HGP2      NG3P2      CG301      CG321
    4     2     5     6	 9 ;       HGP2      NG3P2      CG301      CG321
    3     2     5    11	 9 ;       HGP2      NG3P2      CG301     CG2R51
    3     2     5    10	 9 ;       HGP2      NG3P2      CG301      CG321
    3     2     5     6	 9 ;       HGP2      NG3P2      CG301      CG321
    2     5    11    12	 9 ;      NG3P2      CG301     CG2R51     CG2R51
    2     5    11    15	 9 ;      NG3P2      CG301     CG2R51     SG2R50
   10     5    11    12	 9 ;      CG321      CG301     CG2R51     CG2R51
   10     5    11    15	 9 ;      CG321      CG301     CG2R51     SG2R50
    6     5    11    12	 9 ;      CG321      CG301     CG2R51     CG2R51
    6     5    11    15	 9 ;      CG321      CG301     CG2R51     SG2R50
    2     5    10     9	 9 ;      NG3P2      CG301      CG321      CG321
    2     5    10    47	 9 ;      NG3P2      CG301      CG321       HGA2
    2     5    10    48	 9 ;      NG3P2      CG301      CG321       HGA2
   11     5    10     9	 9 ;     CG2R51      CG301      CG321      CG321
   11     5    10    47	 9 ;     CG2R51      CG301      CG321       HGA2
   11     5    10    48	 9 ;     CG2R51      CG301      CG321       HGA2
    6     5    10     9	 9 ;      CG321      CG301      CG321      CG321
    6     5    10    47	 9 ;      CG321      CG301      CG321       HGA2
    6     5    10    48	 9 ;      CG321      CG301      CG321       HGA2
    2     5     6     7	 9 ;      NG3P2      CG301      CG321      CG321
    2     5     6    39	 9 ;      NG3P2      CG301      CG321       HGA2
    2     5     6    40	 9 ;      NG3P2      CG301      CG321       HGA2
   11     5     6     7	 9 ;     CG2R51      CG301      CG321      CG321
   11     5     6    39	 9 ;     CG2R51      CG301      CG321       HGA2
   11     5     6    40	 9 ;     CG2R51      CG301      CG321       HGA2
   10     5     6     7	 9 ;      CG321      CG301      CG321      CG321
   10     5     6    39	 9 ;      CG321      CG301      CG321       HGA2
   10     5     6    40	 9 ;      CG321      CG301      CG321       HGA2
    5     6     7     8	 9 ;      CG301      CG321      CG321      CG321
    5     6     7    41	 9 ;      CG301      CG321      CG321       HGA2
    5     6     7    42	 9 ;      CG301      CG321      CG321       HGA2
   39     6     7     8	 9 ;       HGA2      CG321      CG321      CG321
   39     6     7    41	 9 ;       HGA2      CG321      CG321       HGA2
   39     6     7    42	 9 ;       HGA2      CG321      CG321       HGA2
   40     6     7     8	 9 ;       HGA2      CG321      CG321      CG321
   40     6     7    41	 9 ;       HGA2      CG321      CG321       HGA2
   40     6     7    42	 9 ;       HGA2      CG321      CG321       HGA2
    6     7     8     9	 9 ;      CG321      CG321      CG321      CG321
    6     7     8    43	 9 ;      CG321      CG321      CG321       HGA2
    6     7     8    44	 9 ;      CG321      CG321      CG321       HGA2
   41     7     8     9	 9 ;       HGA2      CG321      CG321      CG321
   41     7     8    43	 9 ;       HGA2      CG321      CG321       HGA2
   41     7     8    44	 9 ;       HGA2      CG321      CG321       HGA2
   42     7     8     9	 9 ;       HGA2      CG321      CG321      CG321
   42     7     8    43	 9 ;       HGA2      CG321      CG321       HGA2
   42     7     8    44	 9 ;       HGA2      CG321      CG321       HGA2
    7     8     9    10	 9 ;      CG321      CG321      CG321      CG321
    7     8     9    45	 9 ;      CG321      CG321      CG321       HGA2
    7     8     9    46	 9 ;      CG321      CG321      CG321       HGA2
   43     8     9    10	 9 ;       HGA2      CG321      CG321      CG321
   43     8     9    45	 9 ;       HGA2      CG321      CG321       HGA2
   43     8     9    46	 9 ;       HGA2      CG321      CG321       HGA2
   44     8     9    10	 9 ;       HGA2      CG321      CG321      CG321
   44     8     9    45	 9 ;       HGA2      CG321      CG321       HGA2
   44     8     9    46	 9 ;       HGA2      CG321      CG321       HGA2
    8     9    10     5	 9 ;      CG321      CG321      CG321      CG301
    8     9    10    47	 9 ;      CG321      CG321      CG321       HGA2
    8     9    10    48	 9 ;      CG321      CG321      CG321       HGA2
   45     9    10     5	 9 ;       HGA2      CG321      CG321      CG301
   45     9    10    47	 9 ;       HGA2      CG321      CG321       HGA2
   45     9    10    48	 9 ;       HGA2      CG321      CG321       HGA2
   46     9    10     5	 9 ;       HGA2      CG321      CG321      CG301
   46     9    10    47	 9 ;       HGA2      CG321      CG321       HGA2
   46     9    10    48	 9 ;       HGA2      CG321      CG321       HGA2
   15    11    12    13	 9 ;     SG2R50     CG2R51     CG2R51     CG2R51
   15    11    12    49	 9 ;     SG2R50     CG2R51     CG2R51      HGR51
    5    11    12    13	 9 ;      CG301     CG2R51     CG2R51     CG2R51
    5    11    12    49	 9 ;      CG301     CG2R51     CG2R51      HGR51
   12    11    15    14	 9 ;     CG2R51     CG2R51     SG2R50     CG2R51
    5    11    15    14	 9 ;      CG301     CG2R51     SG2R50     CG2R51
   11    12    13    16	 9 ;     CG2R51     CG2R51     CG2R51      CG311
   11    12    13    14	 9 ;     CG2R51     CG2R51     CG2R51     CG2R51
   49    12    13    16	 9 ;      HGR51     CG2R51     CG2R51      CG311
   49    12    13    14	 9 ;      HGR51     CG2R51     CG2R51     CG2R51
   14    13    16    17	 9 ;     CG2R51     CG2R51      CG311      CG331
   14    13    16    18	 9 ;     CG2R51     CG2R51      CG311      CG331
   14    13    16    51	 9 ;     CG2R51     CG2R51      CG311       HGA1
   12    13    16    17	 9 ;     CG2R51     CG2R51      CG311      CG331
   12    13    16    18	 9 ;     CG2R51     CG2R51      CG311      CG331
   12    13    16    51	 9 ;     CG2R51     CG2R51      CG311       HGA1
   16    13    14    15	 9 ;      CG311     CG2R51     CG2R51     SG2R50
   16    13    14    50	 9 ;      CG311     CG2R51     CG2R51      HGR52
   12    13    14    15	 9 ;     CG2R51     CG2R51     CG2R51     SG2R50
   12    13    14    50	 9 ;     CG2R51     CG2R51     CG2R51      HGR52
   13    14    15    11	 9 ;     CG2R51     CG2R51     SG2R50     CG2R51
   50    14    15    11	 9 ;      HGR52     CG2R51     SG2R50     CG2R51
   13    16    17    59	 9 ;     CG2R51      CG311      CG331       HGA3
   13    16    17    60	 9 ;     CG2R51      CG311      CG331       HGA3
   13    16    17    61	 9 ;     CG2R51      CG311      CG331       HGA3
   18    16    17    59	 9 ;      CG331      CG311      CG331       HGA3
   18    16    17    60	 9 ;      CG331      CG311      CG331       HGA3
   18    16    17    61	 9 ;      CG331      CG311      CG331       HGA3
   51    16    17    59	 9 ;       HGA1      CG311      CG331       HGA3
   51    16    17    60	 9 ;       HGA1      CG311      CG331       HGA3
   51    16    17    61	 9 ;       HGA1      CG311      CG331       HGA3
   17    16    18    65	 9 ;      CG331      CG311      CG331       HGA3
   17    16    18    66	 9 ;      CG331      CG311      CG331       HGA3
   17    16    18    67	 9 ;      CG331      CG311      CG331       HGA3
   13    16    18    65	 9 ;     CG2R51      CG311      CG331       HGA3
   13    16    18    66	 9 ;     CG2R51      CG311      CG331       HGA3
   13    16    18    67	 9 ;     CG2R51      CG311      CG331       HGA3
   51    16    18    65	 9 ;       HGA1      CG311      CG331       HGA3
   51    16    18    66	 9 ;       HGA1      CG311      CG331       HGA3
   51    16    18    67	 9 ;       HGA1      CG311      CG331       HGA3
   20    19    35    36	 9 ;      CG311      CG311      OG311       HGP1
    1    19    35    36	 9 ;      CG324      CG311      OG311       HGP1
   52    19    35    36	 9 ;       HGA1      CG311      OG311       HGP1
   35    19    20    21	 9 ;      OG311      CG311      CG311      NG2S1
   35    19    20    26	 9 ;      OG311      CG311      CG311      CG321
   35    19    20    53	 9 ;      OG311      CG311      CG311       HGA1
    1    19    20    21	 9 ;      CG324      CG311      CG311      NG2S1
    1    19    20    26	 9 ;      CG324      CG311      CG311      CG321
    1    19    20    53	 9 ;      CG324      CG311      CG311       HGA1
   52    19    20    21	 9 ;       HGA1      CG311      CG311      NG2S1
   52    19    20    26	 9 ;       HGA1      CG311      CG311      CG321
   52    19    20    53	 9 ;       HGA1      CG311      CG311       HGA1
   19    20    21    25	 9 ;      CG311      CG311      NG2S1       HGP1
   19    20    21    22	 9 ;      CG311      CG311      NG2S1      CG2O1
   26    20    21    25	 9 ;      CG321      CG311      NG2S1       HGP1
   26    20    21    22	 9 ;      CG321      CG311      NG2S1      CG2O1
   53    20    21    25	 9 ;       HGA1      CG311      NG2S1       HGP1
   53    20    21    22	 9 ;       HGA1      CG311      NG2S1      CG2O1
   21    20    26    27	 9 ;      NG2S1      CG311      CG321     CG2R61
   21    20    26    54	 9 ;      NG2S1      CG311      CG321       HGA2
   21    20    26    55	 9 ;      NG2S1      CG311      CG321       HGA2
   19    20    26    27	 9 ;      CG311      CG311      CG321     CG2R61
   19    20    26    54	 9 ;      CG311      CG311      CG321       HGA2
   19    20    26    55	 9 ;      CG311      CG311      CG321       HGA2
   53    20    26    27	 9 ;       HGA1      CG311      CG321     CG2R61
   53    20    26    54	 9 ;       HGA1      CG311      CG321       HGA2
   53    20    26    55	 9 ;       HGA1      CG311      CG321       HGA2
   25    21    22    24	 9 ;       HGP1      NG2S1      CG2O1      CG331
   25    21    22    23	 9 ;       HGP1      NG2S1      CG2O1      OG2D1
   20    21    22    24	 9 ;      CG311      NG2S1      CG2O1      CG331
   20    21    22    23	 9 ;      CG311      NG2S1      CG2O1      OG2D1
   21    22    24    62	 9 ;      NG2S1      CG2O1      CG331       HGA3
   21    22    24    63	 9 ;      NG2S1      CG2O1      CG331       HGA3
   21    22    24    64	 9 ;      NG2S1      CG2O1      CG331       HGA3
   23    22    24    62	 9 ;      OG2D1      CG2O1      CG331       HGA3
   23    22    24    63	 9 ;      OG2D1      CG2O1      CG331       HGA3
   23    22    24    64	 9 ;      OG2D1      CG2O1      CG331       HGA3
   20    26    27    28	 9 ;      CG311      CG321     CG2R61     CG2R61
   20    26    27    34	 9 ;      CG311      CG321     CG2R61     CG2R61
   54    26    27    28	 9 ;       HGA2      CG321     CG2R61     CG2R61
   54    26    27    34	 9 ;       HGA2      CG321     CG2R61     CG2R61
   55    26    27    28	 9 ;       HGA2      CG321     CG2R61     CG2R61
   55    26    27    34	 9 ;       HGA2      CG321     CG2R61     CG2R61
   26    27    28    29	 9 ;      CG321     CG2R61     CG2R61     CG2R66
   26    27    28    56	 9 ;      CG321     CG2R61     CG2R61      HGR62
   34    27    28    29	 9 ;     CG2R61     CG2R61     CG2R61     CG2R66
   34    27    28    56	 9 ;     CG2R61     CG2R61     CG2R61      HGR62
   26    27    34    32	 9 ;      CG321     CG2R61     CG2R61     CG2R66
   26    27    34    58	 9 ;      CG321     CG2R61     CG2R61      HGR62
   28    27    34    32	 9 ;     CG2R61     CG2R61     CG2R61     CG2R66
   28    27    34    58	 9 ;     CG2R61     CG2R61     CG2R61      HGR62
   27    28    29    30	 9 ;     CG2R61     CG2R61     CG2R66       FGR1
   27    28    29    31	 9 ;     CG2R61     CG2R61     CG2R66     CG2R61
   56    28    29    30	 9 ;      HGR62     CG2R61     CG2R66       FGR1
   56    28    29    31	 9 ;      HGR62     CG2R61     CG2R66     CG2R61
   28    29    31    32	 9 ;     CG2R61     CG2R66     CG2R61     CG2R66
   28    29    31    57	 9 ;     CG2R61     CG2R66     CG2R61      HGR62
   30    29    31    32	 9 ;       FGR1     CG2R66     CG2R61     CG2R66
   30    29    31    57	 9 ;       FGR1     CG2R66     CG2R61      HGR62
   29    31    32    34	 9 ;     CG2R66     CG2R61     CG2R66     CG2R61
   29    31    32    33	 9 ;     CG2R66     CG2R61     CG2R66       FGR1
   57    31    32    34	 9 ;      HGR62     CG2R61     CG2R66     CG2R61
   57    31    32    33	 9 ;      HGR62     CG2R61     CG2R66       FGR1
   31    32    34    27	 9 ;     CG2R61     CG2R66     CG2R61     CG2R61
   31    32    34    58	 9 ;     CG2R61     CG2R66     CG2R61      HGR62
   33    32    34    27	 9 ;       FGR1     CG2R66     CG2R61     CG2R61
   33    32    34    58	 9 ;       FGR1     CG2R66     CG2R61      HGR62

[ dihedrals ]
;	ai	  aj	ak	  al funct			  c0			c1			  c2			c3
   22    24    21    23	 2

