GRoups of Organic Molecules in ACtion for Science
   45
    1LIG     C1    1  -1.317   0.503  -1.788
    1LIG     O5    2  -1.305   0.249  -1.893
    1LIG     C3    3  -1.143   0.176  -1.737
    1LIG     C4    4  -1.067   0.207  -1.623
    1LIG     C5    5  -1.143   0.046  -1.789
    1LIG     C6    6  -0.992   0.106  -1.561
    1LIG     C7    7  -1.066  -0.053  -1.728
    1LIG     C8    8  -0.992  -0.023  -1.615
    1LIG     C9    9  -1.217   0.420  -1.753
    1LIG    C10   10  -1.094   0.451  -1.672
    1LIG    C11   11  -1.229   0.279  -1.803
    1LIG    C12   12  -1.071   0.345  -1.564
    1LIG     N1   13  -1.438   0.672  -1.673
    1LIG     O4   14  -1.251   0.732  -1.789
    1LIG     C2   15  -1.329   0.646  -1.752
    1LIG     H2   16  -1.511   0.602  -1.667
    1LIG    C13   17  -1.477   0.810  -1.641
    1LIG    C15   18  -1.528   0.820  -1.495
    1LIG    C16   19  -1.629   0.934  -1.480
    1LIG    C17   20  -1.592   0.689  -1.447
    1LIG     O2   21  -1.602   0.959  -1.790
    1LIG    C14   22  -1.588   0.847  -1.740
    1LIG     O3   23  -1.666   0.739  -1.768
    1LIG    C18   24  -1.806   0.767  -1.769
    1LIG     O1   25  -0.920  -0.123  -1.558
    1LIG     H1   26  -0.832  -0.126  -1.598
    1LIG     H3   27  -1.393   0.462  -1.845
    1LIG     H4   28  -1.199   0.024  -1.873
    1LIG     H5   29  -0.937   0.127  -1.477
    1LIG     H6   30  -1.065  -0.149  -1.767
    1LIG     H7   31  -1.105   0.546  -1.625
    1LIG     H8   32  -1.009   0.451  -1.738
    1LIG     H9   33  -1.150   0.351  -1.493
    1LIG    H10   34  -0.976   0.364  -1.518
    1LIG    H11   35  -1.394   0.877  -1.649
    1LIG    H12   36  -1.442   0.841  -1.435
    1LIG    H13   37  -1.715   0.913  -1.540
    1LIG    H14   38  -1.585   1.026  -1.511
    1LIG    H15   39  -1.659   0.942  -1.377
    1LIG    H16   40  -1.678   0.668  -1.507
    1LIG    H17   41  -1.621   0.699  -1.345
    1LIG    H18   42  -1.521   0.610  -1.457
    1LIG    H19   43  -1.861   0.678  -1.791
    1LIG    H20   44  -1.828   0.842  -1.843
    1LIG    H21   45  -1.836   0.803  -1.672
   0.00000   0.00000   0.00000
