Green Red Orange Magenta Azure Cyan Skyblue
   54
    1LIG     C1    1  -1.317   0.559  -1.552
    1LIG     C2    2  -1.431   0.575  -1.632
    1LIG     C3    3  -1.483   0.701  -1.674
    1LIG     C4    4  -1.397   0.809  -1.664
    1LIG     O1    5  -1.414   0.927  -1.731
    1LIG     C5    6  -1.545   0.948  -1.789
    1LIG     C6    7  -1.599   0.814  -1.854
    1LIG     C7    8  -1.620   0.715  -1.739
    1LIG     N1    9  -1.735   0.780  -1.667
    1LIG     HN   10  -1.742   0.878  -1.640
    1LIG     C8   11  -1.823   0.688  -1.646
    1LIG     N2   12  -1.777   0.563  -1.654
    1LIG     C9   13  -1.684   0.576  -1.757
    1LIG     O2   14  -1.664   0.494  -1.845
    1LIG    C10   15  -1.533   1.054  -1.900
    1LIG    C11   16  -1.628   1.015  -1.676
    1LIG    C12   17  -1.279   0.798  -1.590
    1LIG    C13   18  -1.242   0.676  -1.530
    1LIG     N3   19  -1.950   0.709  -1.609
    1LIG     H1   20  -2.007   0.758  -1.678
    1LIG     H2   21  -1.999   0.628  -1.569
    1LIG    C14   22  -1.726   0.529  -1.520
    1LIG    C15   23  -1.728   0.381  -1.480
    1LIG     F1   24  -1.802   0.360  -1.368
    1LIG     F2   25  -1.783   0.306  -1.579
    1LIG     F3   26  -1.604   0.332  -1.458
    1LIG    C16   27  -1.287   0.429  -1.485
    1LIG    C17   28  -1.291   0.308  -1.558
    1LIG    C18   29  -1.286   0.182  -1.495
    1LIG     CL   30  -1.303   0.040  -1.590
    1LIG    C19   31  -1.270   0.174  -1.358
    1LIG    C20   32  -1.256   0.292  -1.285
    1LIG    C21   33  -1.264   0.417  -1.347
    1LIG     HC   34  -1.483   0.486  -1.665
    1LIG    HC2   35  -1.525   0.775  -1.924
    1LIG    HC3   36  -1.693   0.833  -1.905
    1LIG    HN2   37  -1.778   0.801  -1.756
    1LIG    HC1   38  -1.851   0.688  -1.751
    1LIG    HC4   39  -1.476   1.014  -1.983
    1LIG    HC5   40  -1.483   1.143  -1.860
    1LIG    HC6   41  -1.633   1.082  -1.934
    1LIG    HC7   42  -1.590   1.116  -1.659
    1LIG    HC8   43  -1.732   1.019  -1.706
    1LIG    HC9   44  -1.618   0.956  -1.585
    1LIG   HC10   45  -1.214   0.884  -1.579
    1LIG   HC11   46  -1.156   0.672  -1.466
    1LIG    HN1   47  -1.944   0.774  -1.532
    1LIG   HC12   48  -1.623   0.563  -1.515
    1LIG   HC13   49  -1.784   0.585  -1.447
    1LIG   HC14   50  -1.298   0.312  -1.665
    1LIG   HC15   51  -1.269   0.078  -1.309
    1LIG   HC16   52  -1.240   0.286  -1.178
    1LIG   HC17   53  -1.252   0.506  -1.288
    1LIG    LP1   54  -1.321  -0.096  -1.680
   0.00000   0.00000   0.00000
