; Created by cgenff_charmm2gmx.py

[ moleculetype ]
; Name			   nrexcl
LIG				 3

[ atoms ]
;	 nr		  type	resnr residue  atom   cgnr	   charge		mass  typeB    chargeB		massB
; residue	 1 LIG rtp LIG q	qsum
     1     CG2R67      1    LIG     C1      1      0.011     12.011   ;
     2     CG2R61      1    LIG     C2      2     -0.128     12.011   ;
     3     CG2R61      1    LIG     C3      3     -0.256     12.011   ;
     4     CG2R61      1    LIG     C4      4      0.130     12.011   ;
     5     OG3R60      1    LIG     O1      5     -0.368     15.999   ;
     6      CG301      1    LIG     C5      6      0.259     12.011   ;
     7      CG321      1    LIG     C6      7     -0.251     12.011   ;
     8     CG3C50      1    LIG     C7      8      1.516     12.011   ;
     9      NG3P2      1    LIG     N1      9     -0.588     14.007   ;
    10       HGP2      1    LIG     HN     10      0.336      1.008   ;
    11     CG3C53      1    LIG     C8     11      0.834     12.011   ;
    12     NG2R53      1    LIG     N2     12     -0.223     14.007   ;
    13     CG2R53      1    LIG     C9     13     -0.376     12.011   ;
    14      OG2D1      1    LIG     O2     14     -0.317     15.999   ;
    15      CG331      1    LIG    C10     15     -0.287     12.011   ;
    16      CG331      1    LIG    C11     16     -0.287     12.011   ;
    17     CG2R61      1    LIG    C12     17     -0.112     12.011   ;
    18     CG2R61      1    LIG    C13     18     -0.115     12.011   ;
    19      NG3P3      1    LIG     N3     19     -0.267     14.007   ;
    20       HGP2      1    LIG     H1     20      0.301      1.008   ;
    21       HGP2      1    LIG     H2     21      0.301      1.008   ;
    22      CG321      1    LIG    C14     22      0.020     12.011   ;
    23      CG302      1    LIG    C15     23      0.326     12.011   ;
    24       FGA3      1    LIG     F1     24     -0.140     18.998   ;
    25       FGA3      1    LIG     F2     25     -0.140     18.998   ;
    26       FGA3      1    LIG     F3     26     -0.140     18.998   ;
    27     CG2R67      1    LIG    C16     27      0.017     12.011   ;
    28     CG2R61      1    LIG    C17     28     -0.105     12.011   ;
    29     CG2R61      1    LIG    C18     29      0.042     12.011   ;
    30      CLGR1      1    LIG     CL     30     -0.200     35.453   ;
    31     CG2R61      1    LIG    C19     31     -0.095     12.011   ;
    32     CG2R61      1    LIG    C20     32     -0.119     12.011   ;
    33     CG2R61      1    LIG    C21     33     -0.116     12.011   ;
    34      HGR61      1    LIG     HC     34      0.116      1.008   ;
    35       HGA2      1    LIG    HC2     35      0.090      1.008   ;
    36       HGA2      1    LIG    HC3     36      0.090      1.008   ;
    37       HGP2      1    LIG    HN2     37      0.336      1.008   ;
    38       HGA1      1    LIG    HC1     38      0.073      1.008   ;
    39       HGA3      1    LIG    HC4     39      0.090      1.008   ;
    40       HGA3      1    LIG    HC5     40      0.090      1.008   ;
    41       HGA3      1    LIG    HC6     41      0.090      1.008   ;
    42       HGA3      1    LIG    HC7     42      0.090      1.008   ;
    43       HGA3      1    LIG    HC8     43      0.090      1.008   ;
    44       HGA3      1    LIG    HC9     44      0.090      1.008   ;
    45      HGR61      1    LIG   HC10     45      0.116      1.008   ;
    46      HGR61      1    LIG   HC11     46      0.116      1.008   ;
    47       HGP2      1    LIG    HN1     47      0.301      1.008   ;
    48       HGA2      1    LIG   HC12     48      0.090      1.008   ;
    49       HGA2      1    LIG   HC13     49      0.090      1.008   ;
    50      HGR62      1    LIG   HC14     50      0.147      1.008   ;
    51      HGR62      1    LIG   HC15     51      0.150      1.008   ;
    52      HGR61      1    LIG   HC16     52      0.116      1.008   ;
    53      HGR61      1    LIG   HC17     53      0.116      1.008   ;
    54        LPH      1    LIG    LP1     54      0.050      0.000   ;

[ bonds ]
;	ai	  aj funct			  c0			c1			  c2			c3
    1    18	 1 ;      CG2R67     CG2R61
    1    27	 1 ;      CG2R67     CG2R67
    1     2	 1 ;      CG2R67     CG2R61
    2     3	 1 ;      CG2R61     CG2R61
    2    34	 1 ;      CG2R61      HGR61
    3     4	 1 ;      CG2R61     CG2R61
    3     8	 1 ;      CG2R61     CG3C50
    4    17	 1 ;      CG2R61     CG2R61
    4     5	 1 ;      CG2R61     OG3R60
    5     6	 1 ;      OG3R60      CG301
    6    15	 1 ;       CG301      CG331
    6     7	 1 ;       CG301      CG321
    6    16	 1 ;       CG301      CG331
    7     8	 1 ;       CG321     CG3C50
    7    35	 1 ;       CG321       HGA2
    7    36	 1 ;       CG321       HGA2
    8    13	 1 ;      CG3C50     CG2R53
    8     9	 1 ;      CG3C50      NG3P2
    9    10	 1 ;       NG3P2       HGP2
    9    11	 1 ;       NG3P2     CG3C53
    9    37	 1 ;       NG3P2       HGP2
   11    12	 1 ;      CG3C53     NG2R53
   11    19	 1 ;      CG3C53      NG3P3
   11    38	 1 ;      CG3C53       HGA1
   12    13	 1 ;      NG2R53     CG2R53
   12    22	 1 ;      NG2R53      CG321
   13    14	 1 ;      CG2R53      OG2D1
   15    39	 1 ;       CG331       HGA3
   15    40	 1 ;       CG331       HGA3
   15    41	 1 ;       CG331       HGA3
   16    42	 1 ;       CG331       HGA3
   16    43	 1 ;       CG331       HGA3
   16    44	 1 ;       CG331       HGA3
   17    18	 1 ;      CG2R61     CG2R61
   17    45	 1 ;      CG2R61      HGR61
   18    46	 1 ;      CG2R61      HGR61
   19    20	 1 ;       NG3P3       HGP2
   19    21	 1 ;       NG3P3       HGP2
   19    47	 1 ;       NG3P3       HGP2
   22    23	 1 ;       CG321      CG302
   22    48	 1 ;       CG321       HGA2
   22    49	 1 ;       CG321       HGA2
   23    26	 1 ;       CG302       FGA3
   23    25	 1 ;       CG302       FGA3
   23    24	 1 ;       CG302       FGA3
   27    28	 1 ;      CG2R67     CG2R61
   27    33	 1 ;      CG2R67     CG2R61
   28    29	 1 ;      CG2R61     CG2R61
   28    50	 1 ;      CG2R61      HGR62
   29    30	 1 ;      CG2R61      CLGR1
   29    31	 1 ;      CG2R61     CG2R61
   31    32	 1 ;      CG2R61     CG2R61
   31    51	 1 ;      CG2R61      HGR62
   32    33	 1 ;      CG2R61     CG2R61
   32    52	 1 ;      CG2R61      HGR61
   33    53	 1 ;      CG2R61      HGR61

[ pairs ]
;	ai	  aj funct			  c0			c1			  c2			c3
    1     4	 1
    1     8	 1
    1    45	 1
    1    29	 1
    1    50	 1
    1    32	 1
    1    53	 1
    2    17	 1
    2    46	 1
    2    28	 1
    2    33	 1
    2     5	 1
    2     7	 1
    2    13	 1
    2     9	 1
    3    18	 1
    3    27	 1
    3    45	 1
    3     6	 1
    3    35	 1
    3    36	 1
    3    14	 1
    3    12	 1
    3    10	 1
    3    11	 1
    3    37	 1
    4    34	 1
    4     7	 1
    4    13	 1
    4     9	 1
    4    15	 1
    4    16	 1
    4    46	 1
    5     8	 1
    5    18	 1
    5    45	 1
    5    39	 1
    5    40	 1
    5    41	 1
    5    35	 1
    5    36	 1
    5    42	 1
    5    43	 1
    5    44	 1
    6    17	 1
    6    13	 1
    6     9	 1
    7    39	 1
    7    40	 1
    7    41	 1
    7    42	 1
    7    43	 1
    7    44	 1
    7    14	 1
    7    12	 1
    7    10	 1
    7    11	 1
    7    37	 1
    8    34	 1
    8    17	 1
    8    15	 1
    8    16	 1
    8    19	 1
    8    38	 1
    8    22	 1
    9    35	 1
    9    36	 1
    9    14	 1
    9    22	 1
    9    20	 1
    9    21	 1
    9    47	 1
   10    13	 1
   10    12	 1
   10    19	 1
   10    38	 1
   11    14	 1
   11    23	 1
   11    48	 1
   11    49	 1
   12    37	 1
   12    20	 1
   12    21	 1
   12    47	 1
   12    26	 1
   12    25	 1
   12    24	 1
   13    35	 1
   13    36	 1
   13    37	 1
   13    19	 1
   13    38	 1
   13    23	 1
   13    48	 1
   13    49	 1
   14    22	 1
   15    35	 1
   15    36	 1
   15    42	 1
   15    43	 1
   15    44	 1
   16    39	 1
   16    40	 1
   16    41	 1
   16    35	 1
   16    36	 1
   17    27	 1
   18    28	 1
   18    33	 1
   18    34	 1
   19    37	 1
   19    22	 1
   20    38	 1
   21    38	 1
   22    38	 1
   24    48	 1
   24    49	 1
   25    48	 1
   25    49	 1
   26    48	 1
   26    49	 1
   27    46	 1
   27    34	 1
   27    30	 1
   54    27	 1
   27    31	 1
   27    52	 1
   28    32	 1
   28    53	 1
   28    51	 1
   29    33	 1
   29    52	 1
   30    50	 1
   54    50	 1
   30    32	 1
   54    32	 1
   30    51	 1
   54    51	 1
   31    50	 1
   31    53	 1
   33    50	 1
   33    51	 1
   37    38	 1
   38    47	 1
   45    46	 1
   51    52	 1
   52    53	 1

[ angles ]
;	ai	  aj	ak funct			c0			  c1			c2			  c3
   18     1    27	5 ;     CG2R61     CG2R67     CG2R67
   18     1     2	5 ;     CG2R61     CG2R67     CG2R61
   27     1     2	5 ;     CG2R67     CG2R67     CG2R61
    1     2     3	5 ;     CG2R67     CG2R61     CG2R61
    1     2    34	5 ;     CG2R67     CG2R61      HGR61
    3     2    34	5 ;     CG2R61     CG2R61      HGR61
    4     3     2	5 ;     CG2R61     CG2R61     CG2R61
    4     3     8	5 ;     CG2R61     CG2R61     CG3C50
    2     3     8	5 ;     CG2R61     CG2R61     CG3C50
   17     4     5	5 ;     CG2R61     CG2R61     OG3R60
   17     4     3	5 ;     CG2R61     CG2R61     CG2R61
    5     4     3	5 ;     OG3R60     CG2R61     CG2R61
    4     5     6	5 ;     CG2R61     OG3R60      CG301
   15     6     5	5 ;      CG331      CG301     OG3R60
   15     6     7	5 ;      CG331      CG301      CG321
   15     6    16	5 ;      CG331      CG301      CG331
    5     6     7	5 ;     OG3R60      CG301      CG321
    5     6    16	5 ;     OG3R60      CG301      CG331
    7     6    16	5 ;      CG321      CG301      CG331
    6     7     8	5 ;      CG301      CG321     CG3C50
    6     7    35	5 ;      CG301      CG321       HGA2
    6     7    36	5 ;      CG301      CG321       HGA2
    8     7    35	5 ;     CG3C50      CG321       HGA2
    8     7    36	5 ;     CG3C50      CG321       HGA2
   35     7    36	5 ;       HGA2      CG321       HGA2
    7     8     3	5 ;      CG321     CG3C50     CG2R61
    7     8    13	5 ;      CG321     CG3C50     CG2R53
    7     8     9	5 ;      CG321     CG3C50      NG3P2
    3     8    13	5 ;     CG2R61     CG3C50     CG2R53
    3     8     9	5 ;     CG2R61     CG3C50      NG3P2
   13     8     9	5 ;     CG2R53     CG3C50      NG3P2
    8     9    10	5 ;     CG3C50      NG3P2       HGP2
    8     9    11	5 ;     CG3C50      NG3P2     CG3C53
    8     9    37	5 ;     CG3C50      NG3P2       HGP2
   10     9    11	5 ;       HGP2      NG3P2     CG3C53
   10     9    37	5 ;       HGP2      NG3P2       HGP2
   11     9    37	5 ;     CG3C53      NG3P2       HGP2
    9    11    12	5 ;      NG3P2     CG3C53     NG2R53
    9    11    19	5 ;      NG3P2     CG3C53      NG3P3
    9    11    38	5 ;      NG3P2     CG3C53       HGA1
   12    11    19	5 ;     NG2R53     CG3C53      NG3P3
   12    11    38	5 ;     NG2R53     CG3C53       HGA1
   19    11    38	5 ;      NG3P3     CG3C53       HGA1
   13    12    11	5 ;     CG2R53     NG2R53     CG3C53
   13    12    22	5 ;     CG2R53     NG2R53      CG321
   11    12    22	5 ;     CG3C53     NG2R53      CG321
    8    13    14	5 ;     CG3C50     CG2R53      OG2D1
    8    13    12	5 ;     CG3C50     CG2R53     NG2R53
   14    13    12	5 ;      OG2D1     CG2R53     NG2R53
    6    15    39	5 ;      CG301      CG331       HGA3
    6    15    40	5 ;      CG301      CG331       HGA3
    6    15    41	5 ;      CG301      CG331       HGA3
   39    15    40	5 ;       HGA3      CG331       HGA3
   39    15    41	5 ;       HGA3      CG331       HGA3
   40    15    41	5 ;       HGA3      CG331       HGA3
    6    16    42	5 ;      CG301      CG331       HGA3
    6    16    43	5 ;      CG301      CG331       HGA3
    6    16    44	5 ;      CG301      CG331       HGA3
   42    16    43	5 ;       HGA3      CG331       HGA3
   42    16    44	5 ;       HGA3      CG331       HGA3
   43    16    44	5 ;       HGA3      CG331       HGA3
   18    17     4	5 ;     CG2R61     CG2R61     CG2R61
   18    17    45	5 ;     CG2R61     CG2R61      HGR61
    4    17    45	5 ;     CG2R61     CG2R61      HGR61
   17    18     1	5 ;     CG2R61     CG2R61     CG2R67
   17    18    46	5 ;     CG2R61     CG2R61      HGR61
    1    18    46	5 ;     CG2R67     CG2R61      HGR61
   11    19    20	5 ;     CG3C53      NG3P3       HGP2
   11    19    21	5 ;     CG3C53      NG3P3       HGP2
   11    19    47	5 ;     CG3C53      NG3P3       HGP2
   20    19    21	5 ;       HGP2      NG3P3       HGP2
   20    19    47	5 ;       HGP2      NG3P3       HGP2
   21    19    47	5 ;       HGP2      NG3P3       HGP2
   12    22    23	5 ;     NG2R53      CG321      CG302
   12    22    48	5 ;     NG2R53      CG321       HGA2
   12    22    49	5 ;     NG2R53      CG321       HGA2
   23    22    48	5 ;      CG302      CG321       HGA2
   23    22    49	5 ;      CG302      CG321       HGA2
   48    22    49	5 ;       HGA2      CG321       HGA2
   26    23    22	5 ;       FGA3      CG302      CG321
   26    23    25	5 ;       FGA3      CG302       FGA3
   26    23    24	5 ;       FGA3      CG302       FGA3
   22    23    25	5 ;      CG321      CG302       FGA3
   22    23    24	5 ;      CG321      CG302       FGA3
   25    23    24	5 ;       FGA3      CG302       FGA3
    1    27    28	5 ;     CG2R67     CG2R67     CG2R61
    1    27    33	5 ;     CG2R67     CG2R67     CG2R61
   28    27    33	5 ;     CG2R61     CG2R67     CG2R61
   27    28    29	5 ;     CG2R67     CG2R61     CG2R61
   27    28    50	5 ;     CG2R67     CG2R61      HGR62
   29    28    50	5 ;     CG2R61     CG2R61      HGR62
   28    29    30	5 ;     CG2R61     CG2R61      CLGR1
   28    29    31	5 ;     CG2R61     CG2R61     CG2R61
   30    29    31	5 ;      CLGR1     CG2R61     CG2R61
   29    31    32	5 ;     CG2R61     CG2R61     CG2R61
   29    31    51	5 ;     CG2R61     CG2R61      HGR62
   32    31    51	5 ;     CG2R61     CG2R61      HGR62
   33    32    31	5 ;     CG2R61     CG2R61     CG2R61
   33    32    52	5 ;     CG2R61     CG2R61      HGR61
   31    32    52	5 ;     CG2R61     CG2R61      HGR61
   27    33    32	5 ;     CG2R67     CG2R61     CG2R61
   27    33    53	5 ;     CG2R67     CG2R61      HGR61
   32    33    53	5 ;     CG2R61     CG2R61      HGR61

[ dihedrals ]
;	ai	  aj	ak	  al funct			  c0			c1			  c2			c3			  c4			c5
   27     1    18    17	 9 ;     CG2R67     CG2R67     CG2R61     CG2R61
   27     1    18    46	 9 ;     CG2R67     CG2R67     CG2R61      HGR61
    2     1    18    17	 9 ;     CG2R61     CG2R67     CG2R61     CG2R61
    2     1    18    46	 9 ;     CG2R61     CG2R67     CG2R61      HGR61
   18     1    27    28	 9 ;     CG2R61     CG2R67     CG2R67     CG2R61
   18     1    27    33	 9 ;     CG2R61     CG2R67     CG2R67     CG2R61
    2     1    27    28	 9 ;     CG2R61     CG2R67     CG2R67     CG2R61
    2     1    27    33	 9 ;     CG2R61     CG2R67     CG2R67     CG2R61
   18     1     2     3	 9 ;     CG2R61     CG2R67     CG2R61     CG2R61
   18     1     2    34	 9 ;     CG2R61     CG2R67     CG2R61      HGR61
   27     1     2     3	 9 ;     CG2R67     CG2R67     CG2R61     CG2R61
   27     1     2    34	 9 ;     CG2R67     CG2R67     CG2R61      HGR61
    1     2     3     4	 9 ;     CG2R67     CG2R61     CG2R61     CG2R61
    1     2     3     8	 9 ;     CG2R67     CG2R61     CG2R61     CG3C50
   34     2     3     4	 9 ;      HGR61     CG2R61     CG2R61     CG2R61
   34     2     3     8	 9 ;      HGR61     CG2R61     CG2R61     CG3C50
    2     3     4    17	 9 ;     CG2R61     CG2R61     CG2R61     CG2R61
    2     3     4     5	 9 ;     CG2R61     CG2R61     CG2R61     OG3R60
    8     3     4    17	 9 ;     CG3C50     CG2R61     CG2R61     CG2R61
    8     3     4     5	 9 ;     CG3C50     CG2R61     CG2R61     OG3R60
    4     3     8     7	 9 ;     CG2R61     CG2R61     CG3C50      CG321
    4     3     8    13	 9 ;     CG2R61     CG2R61     CG3C50     CG2R53
    4     3     8     9	 9 ;     CG2R61     CG2R61     CG3C50      NG3P2
    2     3     8     7	 9 ;     CG2R61     CG2R61     CG3C50      CG321
    2     3     8    13	 9 ;     CG2R61     CG2R61     CG3C50     CG2R53
    2     3     8     9	 9 ;     CG2R61     CG2R61     CG3C50      NG3P2
    5     4    17    18	 9 ;     OG3R60     CG2R61     CG2R61     CG2R61
    5     4    17    45	 9 ;     OG3R60     CG2R61     CG2R61      HGR61
    3     4    17    18	 9 ;     CG2R61     CG2R61     CG2R61     CG2R61
    3     4    17    45	 9 ;     CG2R61     CG2R61     CG2R61      HGR61
   17     4     5     6	 9 ;     CG2R61     CG2R61     OG3R60      CG301
    3     4     5     6	 9 ;     CG2R61     CG2R61     OG3R60      CG301
    4     5     6    15	 9 ;     CG2R61     OG3R60      CG301      CG331
    4     5     6     7	 9 ;     CG2R61     OG3R60      CG301      CG321
    4     5     6    16	 9 ;     CG2R61     OG3R60      CG301      CG331
    5     6    15    39	 9 ;     OG3R60      CG301      CG331       HGA3
    5     6    15    40	 9 ;     OG3R60      CG301      CG331       HGA3
    5     6    15    41	 9 ;     OG3R60      CG301      CG331       HGA3
    7     6    15    39	 9 ;      CG321      CG301      CG331       HGA3
    7     6    15    40	 9 ;      CG321      CG301      CG331       HGA3
    7     6    15    41	 9 ;      CG321      CG301      CG331       HGA3
   16     6    15    39	 9 ;      CG331      CG301      CG331       HGA3
   16     6    15    40	 9 ;      CG331      CG301      CG331       HGA3
   16     6    15    41	 9 ;      CG331      CG301      CG331       HGA3
   15     6     7     8	 9 ;      CG331      CG301      CG321     CG3C50
   15     6     7    35	 9 ;      CG331      CG301      CG321       HGA2
   15     6     7    36	 9 ;      CG331      CG301      CG321       HGA2
    5     6     7     8	 9 ;     OG3R60      CG301      CG321     CG3C50
    5     6     7    35	 9 ;     OG3R60      CG301      CG321       HGA2
    5     6     7    36	 9 ;     OG3R60      CG301      CG321       HGA2
   16     6     7     8	 9 ;      CG331      CG301      CG321     CG3C50
   16     6     7    35	 9 ;      CG331      CG301      CG321       HGA2
   16     6     7    36	 9 ;      CG331      CG301      CG321       HGA2
   15     6    16    42	 9 ;      CG331      CG301      CG331       HGA3
   15     6    16    43	 9 ;      CG331      CG301      CG331       HGA3
   15     6    16    44	 9 ;      CG331      CG301      CG331       HGA3
    5     6    16    42	 9 ;     OG3R60      CG301      CG331       HGA3
    5     6    16    43	 9 ;     OG3R60      CG301      CG331       HGA3
    5     6    16    44	 9 ;     OG3R60      CG301      CG331       HGA3
    7     6    16    42	 9 ;      CG321      CG301      CG331       HGA3
    7     6    16    43	 9 ;      CG321      CG301      CG331       HGA3
    7     6    16    44	 9 ;      CG321      CG301      CG331       HGA3
    6     7     8     3	 9 ;      CG301      CG321     CG3C50     CG2R61
    6     7     8    13	 9 ;      CG301      CG321     CG3C50     CG2R53
    6     7     8     9	 9 ;      CG301      CG321     CG3C50      NG3P2
   35     7     8     3	 9 ;       HGA2      CG321     CG3C50     CG2R61
   35     7     8    13	 9 ;       HGA2      CG321     CG3C50     CG2R53
   35     7     8     9	 9 ;       HGA2      CG321     CG3C50      NG3P2
   36     7     8     3	 9 ;       HGA2      CG321     CG3C50     CG2R61
   36     7     8    13	 9 ;       HGA2      CG321     CG3C50     CG2R53
   36     7     8     9	 9 ;       HGA2      CG321     CG3C50      NG3P2
    7     8    13    14	 9 ;      CG321     CG3C50     CG2R53      OG2D1
    7     8    13    12	 9 ;      CG321     CG3C50     CG2R53     NG2R53
    3     8    13    14	 9 ;     CG2R61     CG3C50     CG2R53      OG2D1
    3     8    13    12	 9 ;     CG2R61     CG3C50     CG2R53     NG2R53
    9     8    13    14	 9 ;      NG3P2     CG3C50     CG2R53      OG2D1
    9     8    13    12	 9 ;      NG3P2     CG3C50     CG2R53     NG2R53
    7     8     9    10	 9 ;      CG321     CG3C50      NG3P2       HGP2
    7     8     9    11	 9 ;      CG321     CG3C50      NG3P2     CG3C53
    7     8     9    37	 9 ;      CG321     CG3C50      NG3P2       HGP2
    3     8     9    10	 9 ;     CG2R61     CG3C50      NG3P2       HGP2
    3     8     9    11	 9 ;     CG2R61     CG3C50      NG3P2     CG3C53
    3     8     9    37	 9 ;     CG2R61     CG3C50      NG3P2       HGP2
   13     8     9    10	 9 ;     CG2R53     CG3C50      NG3P2       HGP2
   13     8     9    11	 9 ;     CG2R53     CG3C50      NG3P2     CG3C53
   13     8     9    37	 9 ;     CG2R53     CG3C50      NG3P2       HGP2
    8     9    11    12	 9 ;     CG3C50      NG3P2     CG3C53     NG2R53
    8     9    11    19	 9 ;     CG3C50      NG3P2     CG3C53      NG3P3
    8     9    11    38	 9 ;     CG3C50      NG3P2     CG3C53       HGA1
   10     9    11    12	 9 ;       HGP2      NG3P2     CG3C53     NG2R53
   10     9    11    19	 9 ;       HGP2      NG3P2     CG3C53      NG3P3
   10     9    11    38	 9 ;       HGP2      NG3P2     CG3C53       HGA1
   37     9    11    12	 9 ;       HGP2      NG3P2     CG3C53     NG2R53
   37     9    11    19	 9 ;       HGP2      NG3P2     CG3C53      NG3P3
   37     9    11    38	 9 ;       HGP2      NG3P2     CG3C53       HGA1
    9    11    12    13	 9 ;      NG3P2     CG3C53     NG2R53     CG2R53
    9    11    12    22	 9 ;      NG3P2     CG3C53     NG2R53      CG321
   19    11    12    13	 9 ;      NG3P3     CG3C53     NG2R53     CG2R53
   19    11    12    22	 9 ;      NG3P3     CG3C53     NG2R53      CG321
   38    11    12    13	 9 ;       HGA1     CG3C53     NG2R53     CG2R53
   38    11    12    22	 9 ;       HGA1     CG3C53     NG2R53      CG321
    9    11    19    20	 9 ;      NG3P2     CG3C53      NG3P3       HGP2
    9    11    19    21	 9 ;      NG3P2     CG3C53      NG3P3       HGP2
    9    11    19    47	 9 ;      NG3P2     CG3C53      NG3P3       HGP2
   12    11    19    20	 9 ;     NG2R53     CG3C53      NG3P3       HGP2
   12    11    19    21	 9 ;     NG2R53     CG3C53      NG3P3       HGP2
   12    11    19    47	 9 ;     NG2R53     CG3C53      NG3P3       HGP2
   38    11    19    20	 9 ;       HGA1     CG3C53      NG3P3       HGP2
   38    11    19    21	 9 ;       HGA1     CG3C53      NG3P3       HGP2
   38    11    19    47	 9 ;       HGA1     CG3C53      NG3P3       HGP2
   11    12    13     8	 9 ;     CG3C53     NG2R53     CG2R53     CG3C50
   11    12    13    14	 9 ;     CG3C53     NG2R53     CG2R53      OG2D1
   22    12    13     8	 9 ;      CG321     NG2R53     CG2R53     CG3C50
   22    12    13    14	 9 ;      CG321     NG2R53     CG2R53      OG2D1
   13    12    22    23	 9 ;     CG2R53     NG2R53      CG321      CG302
   13    12    22    48	 9 ;     CG2R53     NG2R53      CG321       HGA2
   13    12    22    49	 9 ;     CG2R53     NG2R53      CG321       HGA2
   11    12    22    23	 9 ;     CG3C53     NG2R53      CG321      CG302
   11    12    22    48	 9 ;     CG3C53     NG2R53      CG321       HGA2
   11    12    22    49	 9 ;     CG3C53     NG2R53      CG321       HGA2
    4    17    18     1	 9 ;     CG2R61     CG2R61     CG2R61     CG2R67
    4    17    18    46	 9 ;     CG2R61     CG2R61     CG2R61      HGR61
   45    17    18     1	 9 ;      HGR61     CG2R61     CG2R61     CG2R67
   45    17    18    46	 9 ;      HGR61     CG2R61     CG2R61      HGR61
   12    22    23    26	 9 ;     NG2R53      CG321      CG302       FGA3
   12    22    23    25	 9 ;     NG2R53      CG321      CG302       FGA3
   12    22    23    24	 9 ;     NG2R53      CG321      CG302       FGA3
   48    22    23    26	 9 ;       HGA2      CG321      CG302       FGA3
   48    22    23    25	 9 ;       HGA2      CG321      CG302       FGA3
   48    22    23    24	 9 ;       HGA2      CG321      CG302       FGA3
   49    22    23    26	 9 ;       HGA2      CG321      CG302       FGA3
   49    22    23    25	 9 ;       HGA2      CG321      CG302       FGA3
   49    22    23    24	 9 ;       HGA2      CG321      CG302       FGA3
    1    27    28    29	 9 ;     CG2R67     CG2R67     CG2R61     CG2R61
    1    27    28    50	 9 ;     CG2R67     CG2R67     CG2R61      HGR62
   33    27    28    29	 9 ;     CG2R61     CG2R67     CG2R61     CG2R61
   33    27    28    50	 9 ;     CG2R61     CG2R67     CG2R61      HGR62
    1    27    33    32	 9 ;     CG2R67     CG2R67     CG2R61     CG2R61
    1    27    33    53	 9 ;     CG2R67     CG2R67     CG2R61      HGR61
   28    27    33    32	 9 ;     CG2R61     CG2R67     CG2R61     CG2R61
   28    27    33    53	 9 ;     CG2R61     CG2R67     CG2R61      HGR61
   27    28    29    30	 9 ;     CG2R67     CG2R61     CG2R61      CLGR1
   27    28    29    31	 9 ;     CG2R67     CG2R61     CG2R61     CG2R61
   50    28    29    30	 9 ;      HGR62     CG2R61     CG2R61      CLGR1
   50    28    29    31	 9 ;      HGR62     CG2R61     CG2R61     CG2R61
   28    29    31    32	 9 ;     CG2R61     CG2R61     CG2R61     CG2R61
   28    29    31    51	 9 ;     CG2R61     CG2R61     CG2R61      HGR62
   30    29    31    32	 9 ;      CLGR1     CG2R61     CG2R61     CG2R61
   30    29    31    51	 9 ;      CLGR1     CG2R61     CG2R61      HGR62
   29    31    32    33	 9 ;     CG2R61     CG2R61     CG2R61     CG2R61
   29    31    32    52	 9 ;     CG2R61     CG2R61     CG2R61      HGR61
   51    31    32    33	 9 ;      HGR62     CG2R61     CG2R61     CG2R61
   51    31    32    52	 9 ;      HGR62     CG2R61     CG2R61      HGR61
   31    32    33    27	 9 ;     CG2R61     CG2R61     CG2R61     CG2R67
   31    32    33    53	 9 ;     CG2R61     CG2R61     CG2R61      HGR61
   52    32    33    27	 9 ;      HGR61     CG2R61     CG2R61     CG2R67
   52    32    33    53	 9 ;      HGR61     CG2R61     CG2R61      HGR61

[ dihedrals ]
;	ai	  aj	ak	  al funct			  c0			c1			  c2			c3
   13     8    12    14	 2

[ virtual_sites2 ]
; Site   from				funct a
   54    30    29     2   -0.164

[ exclusions ]
;	ai	  aj
   30    54
   54    29
   54    28
   54    31
   54    27
   54    50
   54    32
   54    51

