Green Red Orange Magenta Azure Cyan Skyblue
   74
    1LIG     C1    1  -1.563   0.488  -1.289
    1LIG     C2    2  -1.512   0.398  -1.384
    1LIG     C3    3  -1.477   0.441  -1.514
    1LIG     C4    4  -1.501   0.574  -1.551
    1LIG     C5    5  -1.555   0.664  -1.459
    1LIG     C6    6  -1.579   0.622  -1.328
    1LIG     C7    7  -1.604   0.442  -1.155
    1LIG     S1    8  -1.737   0.334  -1.134
    1LIG     C8    9  -1.697   0.322  -0.968
    1LIG     N1   10  -1.603   0.407  -0.932
    1LIG     N2   11  -1.547   0.473  -1.040
    1LIG    HN1   12  -1.574   0.422  -0.836
    1LIG    HN2   13  -1.469   0.539  -1.032
    1LIG     C9   14  -1.782   0.240  -0.872
    1LIG    C10   15  -1.780   0.301  -0.731
    1LIG     N3   16  -1.927   0.249  -0.917
    1LIG     H1   17  -1.935   0.289  -1.012
    1LIG     H2   18  -1.975   0.158  -0.916
    1LIG     H3   19  -1.979   0.312  -0.854
    1LIG    C11   20  -1.746   0.088  -0.868
    1LIG    C12   21  -1.625   0.047  -0.786
    1LIG    C13   22  -1.516   0.134  -0.770
    1LIG    C14   23  -1.407   0.097  -0.691
    1LIG    C15   24  -1.404  -0.027  -0.628
    1LIG    C16   25  -1.511  -0.114  -0.643
    1LIG    C17   26  -1.622  -0.077  -0.720
    1LIG    C18   27  -1.415   0.340  -1.605
    1LIG     O1   28  -1.470   0.231  -1.620
    1LIG     N4   29  -1.299   0.375  -1.671
    1LIG     H4   30  -1.266   0.470  -1.667
    1LIG    C19   31  -1.240   0.291  -1.775
    1LIG    C20   32  -1.345   0.245  -1.878
    1LIG    C21   33  -1.166   0.178  -1.706
    1LIG    C22   34  -1.176   0.048  -1.759
    1LIG    C23   35  -1.099  -0.057  -1.709
    1LIG    C24   36  -1.010  -0.033  -1.605
    1LIG      F   37  -0.933  -0.132  -1.559
    1LIG    C25   38  -0.999   0.094  -1.549
    1LIG    C26   39  -1.076   0.199  -1.599
    1LIG     N5   40  -1.590   0.798  -1.502
    1LIG    C27   41  -1.517   0.843  -1.625
    1LIG     S2   42  -1.757   0.837  -1.512
    1LIG     O2   43  -1.823   0.725  -1.575
    1LIG     O3   44  -1.796   0.883  -1.380
    1LIG    C28   45  -1.763   0.976  -1.623
    1LIG     H5   46  -1.500   0.299  -1.358
    1LIG     H6   47  -1.479   0.606  -1.647
    1LIG     H7   48  -1.609   0.692  -1.258
    1LIG     H8   49  -1.552   0.507  -1.223
    1LIG     H9   50  -1.659   0.229  -0.933
    1LIG    H10   51  -1.805   0.405  -0.737
    1LIG    H11   52  -1.683   0.291  -0.688
    1LIG    H12   53  -1.852   0.251  -0.669
    1LIG    H13   54  -1.729   0.057  -0.969
    1LIG    H14   55  -1.829   0.042  -0.819
    1LIG    H15   56  -1.517   0.226  -0.817
    1LIG    H16   57  -1.328   0.163  -0.679
    1LIG    H17   58  -1.323  -0.054  -0.571
    1LIG    H18   59  -1.509  -0.206  -0.597
    1LIG    H19   60  -1.702  -0.142  -0.729
    1LIG    H20   61  -1.170   0.346  -1.835
    1LIG    H21   62  -1.421   0.188  -1.829
    1LIG    H22   63  -1.297   0.184  -1.952
    1LIG    H23   64  -1.389   0.331  -1.924
    1LIG    H24   65  -1.243   0.030  -1.836
    1LIG    H25   66  -1.107  -0.152  -1.749
    1LIG    H26   67  -0.934   0.110  -1.470
    1LIG    H27   68  -1.068   0.293  -1.558
    1LIG    H28   69  -1.548   0.942  -1.651
    1LIG    H29   70  -1.539   0.776  -1.706
    1LIG    H30   71  -1.412   0.842  -1.606
    1LIG    H31   72  -1.734   0.945  -1.721
    1LIG    H32   73  -1.696   1.052  -1.589
    1LIG    H33   74  -1.863   1.015  -1.626
   0.00000   0.00000   0.00000
