; Created by cgenff_charmm2gmx.py

[ moleculetype ]
; Name			   nrexcl
LIG				 3

[ atoms ]
;	 nr		  type	resnr residue  atom   cgnr	   charge		mass  typeB    chargeB		massB
; residue	 1 LIG rtp LIG q	qsum
     1     CG2R61      1    LIG     C1      1      0.104     12.011   ;
     2     CG2R61      1    LIG     C2      2     -0.115     12.011   ;
     3     CG2R61      1    LIG     C3      3     -0.099     12.011   ;
     4     CG2R61      1    LIG     C4      4     -0.064     12.011   ;
     5     CG2R61      1    LIG     C5      5      0.140     12.011   ;
     6     CG2R61      1    LIG     C6      6     -0.175     12.011   ;
     7     CG3C51      1    LIG     C7      7      0.253     12.011   ;
     8      SG311      1    LIG     S1      8     -0.309     32.060   ;
     9     CG3C51      1    LIG     C8      9      0.254     12.011   ;
    10     NG3C51      1    LIG     N1     10     -0.525     14.007   ;
    11     NG3C51      1    LIG     N2     11     -0.427     14.007   ;
    12       HGP1      1    LIG    HN1     12      0.299      1.008   ;
    13       HGP1      1    LIG    HN2     13      0.272      1.008   ;
    14      CG301      1    LIG     C9     14      0.582     12.011   ;
    15      CG331      1    LIG    C10     15     -0.210     12.011   ;
    16      NG3P3      1    LIG     N3     16     -0.627     14.007   ;
    17       HGP2      1    LIG     H1     17      0.348      1.008   ;
    18       HGP2      1    LIG     H2     18      0.348      1.008   ;
    19       HGP2      1    LIG     H3     19      0.348      1.008   ;
    20      CG321      1    LIG    C11     20     -0.151     12.011   ;
    21     CG2R61      1    LIG    C12     21     -0.057     12.011   ;
    22     CG2R61      1    LIG    C13     22     -0.123     12.011   ;
    23     CG2R61      1    LIG    C14     23     -0.112     12.011   ;
    24     CG2R61      1    LIG    C15     24     -0.116     12.011   ;
    25     CG2R61      1    LIG    C16     25     -0.112     12.011   ;
    26     CG2R61      1    LIG    C17     26     -0.123     12.011   ;
    27      CG2O1      1    LIG    C18     27      0.320     12.011   ;
    28      OG2D1      1    LIG     O1     28     -0.463     15.999   ;
    29      NG2S1      1    LIG     N4     29     -0.366     14.007   ;
    30       HGP1      1    LIG     H4     30      0.314      1.008   ;
    31      CG311      1    LIG    C19     31      0.138     12.011   ;
    32      CG331      1    LIG    C20     32     -0.265     12.011   ;
    33     CG2R61      1    LIG    C21     33     -0.081     12.011   ;
    34     CG2R61      1    LIG    C22     34     -0.121     12.011   ;
    35     CG2R61      1    LIG    C23     35     -0.105     12.011   ;
    36     CG2R66      1    LIG    C24     36      0.107     12.011   ;
    37       FGR1      1    LIG      F     37     -0.211     18.998   ;
    38     CG2R61      1    LIG    C25     38     -0.105     12.011   ;
    39     CG2R61      1    LIG    C26     39     -0.121     12.011   ;
    40      NG301      1    LIG     N5     40     -0.228     14.007   ;
    41      CG331      1    LIG    C27     41     -0.103     12.011   ;
    42      SG3O2      1    LIG     S2     42      0.397     32.060   ;
    43      OG2P1      1    LIG     O2     43     -0.388     15.999   ;
    44      OG2P1      1    LIG     O3     44     -0.388     15.999   ;
    45      CG331      1    LIG    C28     45      0.036     12.011   ;
    46      HGR61      1    LIG     H5     46      0.116      1.008   ;
    47      HGR61      1    LIG     H6     47      0.116      1.008   ;
    48      HGR61      1    LIG     H7     48      0.116      1.008   ;
    49       HGA1      1    LIG     H8     49      0.077      1.008   ;
    50       HGA1      1    LIG     H9     50      0.085      1.008   ;
    51       HGA3      1    LIG    H10     51      0.090      1.008   ;
    52       HGA3      1    LIG    H11     52      0.090      1.008   ;
    53       HGA3      1    LIG    H12     53      0.090      1.008   ;
    54       HGA2      1    LIG    H13     54      0.090      1.008   ;
    55       HGA2      1    LIG    H14     55      0.090      1.008   ;
    56      HGR61      1    LIG    H15     56      0.116      1.008   ;
    57      HGR61      1    LIG    H16     57      0.116      1.008   ;
    58      HGR61      1    LIG    H17     58      0.116      1.008   ;
    59      HGR61      1    LIG    H18     59      0.116      1.008   ;
    60      HGR61      1    LIG    H19     60      0.116      1.008   ;
    61       HGA1      1    LIG    H20     61      0.090      1.008   ;
    62       HGA3      1    LIG    H21     62      0.090      1.008   ;
    63       HGA3      1    LIG    H22     63      0.090      1.008   ;
    64       HGA3      1    LIG    H23     64      0.090      1.008   ;
    65      HGR61      1    LIG    H24     65      0.116      1.008   ;
    66      HGR62      1    LIG    H25     66      0.179      1.008   ;
    67      HGR62      1    LIG    H26     67      0.179      1.008   ;
    68      HGR61      1    LIG    H27     68      0.116      1.008   ;
    69       HGA3      1    LIG    H28     69      0.090      1.008   ;
    70       HGA3      1    LIG    H29     70      0.090      1.008   ;
    71       HGA3      1    LIG    H30     71      0.090      1.008   ;
    72       HGA3      1    LIG    H31     72      0.090      1.008   ;
    73       HGA3      1    LIG    H32     73      0.090      1.008   ;
    74       HGA3      1    LIG    H33     74      0.090      1.008   ;

[ bonds ]
;	ai	  aj funct			  c0			c1			  c2			c3
    1     2	 1 ;      CG2R61     CG2R61
    1     6	 1 ;      CG2R61     CG2R61
    1     7	 1 ;      CG2R61     CG3C51
    2     3	 1 ;      CG2R61     CG2R61
    2    46	 1 ;      CG2R61      HGR61
    3    27	 1 ;      CG2R61      CG2O1
    3     4	 1 ;      CG2R61     CG2R61
    4     5	 1 ;      CG2R61     CG2R61
    4    47	 1 ;      CG2R61      HGR61
    5    40	 1 ;      CG2R61      NG301
    5     6	 1 ;      CG2R61     CG2R61
    6    48	 1 ;      CG2R61      HGR61
    7     8	 1 ;      CG3C51      SG311
    7    11	 1 ;      CG3C51     NG3C51
    7    49	 1 ;      CG3C51       HGA1
    8     9	 1 ;       SG311     CG3C51
    9    10	 1 ;      CG3C51     NG3C51
    9    14	 1 ;      CG3C51      CG301
    9    50	 1 ;      CG3C51       HGA1
   10    11	 1 ;      NG3C51     NG3C51
   10    12	 1 ;      NG3C51       HGP1
   11    13	 1 ;      NG3C51       HGP1
   14    16	 1 ;       CG301      NG3P3
   14    20	 1 ;       CG301      CG321
   14    15	 1 ;       CG301      CG331
   15    51	 1 ;       CG331       HGA3
   15    52	 1 ;       CG331       HGA3
   15    53	 1 ;       CG331       HGA3
   16    17	 1 ;       NG3P3       HGP2
   16    18	 1 ;       NG3P3       HGP2
   16    19	 1 ;       NG3P3       HGP2
   20    21	 1 ;       CG321     CG2R61
   20    54	 1 ;       CG321       HGA2
   20    55	 1 ;       CG321       HGA2
   21    22	 1 ;      CG2R61     CG2R61
   21    26	 1 ;      CG2R61     CG2R61
   22    23	 1 ;      CG2R61     CG2R61
   22    56	 1 ;      CG2R61      HGR61
   23    24	 1 ;      CG2R61     CG2R61
   23    57	 1 ;      CG2R61      HGR61
   24    25	 1 ;      CG2R61     CG2R61
   24    58	 1 ;      CG2R61      HGR61
   25    26	 1 ;      CG2R61     CG2R61
   25    59	 1 ;      CG2R61      HGR61
   26    60	 1 ;      CG2R61      HGR61
   27    29	 1 ;       CG2O1      NG2S1
   27    28	 1 ;       CG2O1      OG2D1
   29    31	 1 ;       NG2S1      CG311
   29    30	 1 ;       NG2S1       HGP1
   31    32	 1 ;       CG311      CG331
   31    33	 1 ;       CG311     CG2R61
   31    61	 1 ;       CG311       HGA1
   32    62	 1 ;       CG331       HGA3
   32    63	 1 ;       CG331       HGA3
   32    64	 1 ;       CG331       HGA3
   33    34	 1 ;      CG2R61     CG2R61
   33    39	 1 ;      CG2R61     CG2R61
   34    35	 1 ;      CG2R61     CG2R61
   34    65	 1 ;      CG2R61      HGR61
   35    36	 1 ;      CG2R61     CG2R66
   35    66	 1 ;      CG2R61      HGR62
   36    37	 1 ;      CG2R66       FGR1
   36    38	 1 ;      CG2R66     CG2R61
   38    39	 1 ;      CG2R61     CG2R61
   38    67	 1 ;      CG2R61      HGR62
   39    68	 1 ;      CG2R61      HGR61
   40    41	 1 ;       NG301      CG331
   40    42	 1 ;       NG301      SG3O2
   41    69	 1 ;       CG331       HGA3
   41    70	 1 ;       CG331       HGA3
   41    71	 1 ;       CG331       HGA3
   42    45	 1 ;       SG3O2      CG331
   42    43	 1 ;       SG3O2      OG2P1
   42    44	 1 ;       SG3O2      OG2P1
   45    72	 1 ;       CG331       HGA3
   45    73	 1 ;       CG331       HGA3
   45    74	 1 ;       CG331       HGA3

[ pairs ]
;	ai	  aj funct			  c0			c1			  c2			c3
    1    27	 1
    1     4	 1
    1    40	 1
    1     9	 1
    1    13	 1
    1    10	 1
    2     5	 1
    2    48	 1
    2     8	 1
    2    11	 1
    2    49	 1
    2    29	 1
    2    28	 1
    2    47	 1
    3     6	 1
    3     7	 1
    3    40	 1
    3    31	 1
    3    30	 1
    4    46	 1
    4    29	 1
    4    28	 1
    4    41	 1
    4    42	 1
    4    48	 1
    5     7	 1
    5    27	 1
    5    69	 1
    5    70	 1
    5    71	 1
    5    45	 1
    5    43	 1
    5    44	 1
    6    46	 1
    6     8	 1
    6    11	 1
    6    49	 1
    6    47	 1
    6    41	 1
    6    42	 1
    7    46	 1
    7    48	 1
    7    14	 1
    7    50	 1
    7    12	 1
    8    13	 1
    8    12	 1
    8    16	 1
    8    20	 1
    8    15	 1
    9    49	 1
    9    13	 1
    9    17	 1
    9    18	 1
    9    19	 1
    9    21	 1
    9    54	 1
    9    55	 1
    9    51	 1
    9    52	 1
    9    53	 1
   10    49	 1
   10    16	 1
   10    20	 1
   10    15	 1
   11    14	 1
   11    50	 1
   12    14	 1
   12    50	 1
   12    13	 1
   13    49	 1
   14    22	 1
   14    26	 1
   15    50	 1
   15    17	 1
   15    18	 1
   15    19	 1
   15    21	 1
   15    54	 1
   15    55	 1
   16    50	 1
   16    21	 1
   16    54	 1
   16    55	 1
   16    51	 1
   16    52	 1
   16    53	 1
   17    20	 1
   18    20	 1
   19    20	 1
   20    50	 1
   20    51	 1
   20    52	 1
   20    53	 1
   20    23	 1
   20    56	 1
   20    25	 1
   20    60	 1
   21    24	 1
   21    57	 1
   21    59	 1
   22    54	 1
   22    55	 1
   22    25	 1
   22    60	 1
   22    58	 1
   23    26	 1
   23    59	 1
   24    56	 1
   24    60	 1
   25    57	 1
   26    54	 1
   26    55	 1
   26    56	 1
   26    58	 1
   27    46	 1
   27    47	 1
   27    32	 1
   27    33	 1
   27    61	 1
   28    31	 1
   28    30	 1
   29    62	 1
   29    63	 1
   29    64	 1
   29    34	 1
   29    39	 1
   30    32	 1
   30    33	 1
   30    61	 1
   31    35	 1
   31    65	 1
   31    38	 1
   31    68	 1
   32    34	 1
   32    39	 1
   33    62	 1
   33    63	 1
   33    64	 1
   33    36	 1
   33    66	 1
   33    67	 1
   34    61	 1
   34    38	 1
   34    68	 1
   34    37	 1
   35    39	 1
   35    67	 1
   36    65	 1
   36    68	 1
   37    66	 1
   37    39	 1
   37    67	 1
   38    66	 1
   39    61	 1
   39    65	 1
   40    47	 1
   40    48	 1
   40    72	 1
   40    73	 1
   40    74	 1
   41    45	 1
   41    43	 1
   41    44	 1
   42    69	 1
   42    70	 1
   42    71	 1
   43    72	 1
   43    73	 1
   43    74	 1
   44    72	 1
   44    73	 1
   44    74	 1
   56    57	 1
   57    58	 1
   58    59	 1
   59    60	 1
   61    62	 1
   61    63	 1
   61    64	 1
   65    66	 1
   67    68	 1

[ angles ]
;	ai	  aj	ak funct			c0			  c1			c2			  c3
    2     1     6	5 ;     CG2R61     CG2R61     CG2R61
    2     1     7	5 ;     CG2R61     CG2R61     CG3C51
    6     1     7	5 ;     CG2R61     CG2R61     CG3C51
    3     2     1	5 ;     CG2R61     CG2R61     CG2R61
    3     2    46	5 ;     CG2R61     CG2R61      HGR61
    1     2    46	5 ;     CG2R61     CG2R61      HGR61
   27     3     4	5 ;      CG2O1     CG2R61     CG2R61
   27     3     2	5 ;      CG2O1     CG2R61     CG2R61
    4     3     2	5 ;     CG2R61     CG2R61     CG2R61
    3     4     5	5 ;     CG2R61     CG2R61     CG2R61
    3     4    47	5 ;     CG2R61     CG2R61      HGR61
    5     4    47	5 ;     CG2R61     CG2R61      HGR61
    4     5    40	5 ;     CG2R61     CG2R61      NG301
    4     5     6	5 ;     CG2R61     CG2R61     CG2R61
   40     5     6	5 ;      NG301     CG2R61     CG2R61
    5     6     1	5 ;     CG2R61     CG2R61     CG2R61
    5     6    48	5 ;     CG2R61     CG2R61      HGR61
    1     6    48	5 ;     CG2R61     CG2R61      HGR61
    1     7     8	5 ;     CG2R61     CG3C51      SG311
    1     7    11	5 ;     CG2R61     CG3C51     NG3C51
    1     7    49	5 ;     CG2R61     CG3C51       HGA1
    8     7    11	5 ;      SG311     CG3C51     NG3C51
    8     7    49	5 ;      SG311     CG3C51       HGA1
   11     7    49	5 ;     NG3C51     CG3C51       HGA1
    7     8     9	5 ;     CG3C51      SG311     CG3C51
    8     9    10	5 ;      SG311     CG3C51     NG3C51
    8     9    14	5 ;      SG311     CG3C51      CG301
    8     9    50	5 ;      SG311     CG3C51       HGA1
   10     9    14	5 ;     NG3C51     CG3C51      CG301
   10     9    50	5 ;     NG3C51     CG3C51       HGA1
   14     9    50	5 ;      CG301     CG3C51       HGA1
   11    10     9	5 ;     NG3C51     NG3C51     CG3C51
   11    10    12	5 ;     NG3C51     NG3C51       HGP1
    9    10    12	5 ;     CG3C51     NG3C51       HGP1
    7    11    13	5 ;     CG3C51     NG3C51       HGP1
    7    11    10	5 ;     CG3C51     NG3C51     NG3C51
   13    11    10	5 ;       HGP1     NG3C51     NG3C51
    9    14    16	5 ;     CG3C51      CG301      NG3P3
    9    14    20	5 ;     CG3C51      CG301      CG321
    9    14    15	5 ;     CG3C51      CG301      CG331
   16    14    20	5 ;      NG3P3      CG301      CG321
   16    14    15	5 ;      NG3P3      CG301      CG331
   20    14    15	5 ;      CG321      CG301      CG331
   14    15    51	5 ;      CG301      CG331       HGA3
   14    15    52	5 ;      CG301      CG331       HGA3
   14    15    53	5 ;      CG301      CG331       HGA3
   51    15    52	5 ;       HGA3      CG331       HGA3
   51    15    53	5 ;       HGA3      CG331       HGA3
   52    15    53	5 ;       HGA3      CG331       HGA3
   17    16    18	5 ;       HGP2      NG3P3       HGP2
   17    16    14	5 ;       HGP2      NG3P3      CG301
   17    16    19	5 ;       HGP2      NG3P3       HGP2
   18    16    14	5 ;       HGP2      NG3P3      CG301
   18    16    19	5 ;       HGP2      NG3P3       HGP2
   14    16    19	5 ;      CG301      NG3P3       HGP2
   14    20    21	5 ;      CG301      CG321     CG2R61
   14    20    54	5 ;      CG301      CG321       HGA2
   14    20    55	5 ;      CG301      CG321       HGA2
   21    20    54	5 ;     CG2R61      CG321       HGA2
   21    20    55	5 ;     CG2R61      CG321       HGA2
   54    20    55	5 ;       HGA2      CG321       HGA2
   20    21    22	5 ;      CG321     CG2R61     CG2R61
   20    21    26	5 ;      CG321     CG2R61     CG2R61
   22    21    26	5 ;     CG2R61     CG2R61     CG2R61
   21    22    23	5 ;     CG2R61     CG2R61     CG2R61
   21    22    56	5 ;     CG2R61     CG2R61      HGR61
   23    22    56	5 ;     CG2R61     CG2R61      HGR61
   22    23    24	5 ;     CG2R61     CG2R61     CG2R61
   22    23    57	5 ;     CG2R61     CG2R61      HGR61
   24    23    57	5 ;     CG2R61     CG2R61      HGR61
   23    24    25	5 ;     CG2R61     CG2R61     CG2R61
   23    24    58	5 ;     CG2R61     CG2R61      HGR61
   25    24    58	5 ;     CG2R61     CG2R61      HGR61
   26    25    24	5 ;     CG2R61     CG2R61     CG2R61
   26    25    59	5 ;     CG2R61     CG2R61      HGR61
   24    25    59	5 ;     CG2R61     CG2R61      HGR61
   21    26    25	5 ;     CG2R61     CG2R61     CG2R61
   21    26    60	5 ;     CG2R61     CG2R61      HGR61
   25    26    60	5 ;     CG2R61     CG2R61      HGR61
   29    27    28	5 ;      NG2S1      CG2O1      OG2D1
   29    27     3	5 ;      NG2S1      CG2O1     CG2R61
   28    27     3	5 ;      OG2D1      CG2O1     CG2R61
   31    29    30	5 ;      CG311      NG2S1       HGP1
   31    29    27	5 ;      CG311      NG2S1      CG2O1
   30    29    27	5 ;       HGP1      NG2S1      CG2O1
   32    31    33	5 ;      CG331      CG311     CG2R61
   32    31    29	5 ;      CG331      CG311      NG2S1
   32    31    61	5 ;      CG331      CG311       HGA1
   33    31    29	5 ;     CG2R61      CG311      NG2S1
   33    31    61	5 ;     CG2R61      CG311       HGA1
   29    31    61	5 ;      NG2S1      CG311       HGA1
   31    32    62	5 ;      CG311      CG331       HGA3
   31    32    63	5 ;      CG311      CG331       HGA3
   31    32    64	5 ;      CG311      CG331       HGA3
   62    32    63	5 ;       HGA3      CG331       HGA3
   62    32    64	5 ;       HGA3      CG331       HGA3
   63    32    64	5 ;       HGA3      CG331       HGA3
   31    33    34	5 ;      CG311     CG2R61     CG2R61
   31    33    39	5 ;      CG311     CG2R61     CG2R61
   34    33    39	5 ;     CG2R61     CG2R61     CG2R61
   35    34    33	5 ;     CG2R61     CG2R61     CG2R61
   35    34    65	5 ;     CG2R61     CG2R61      HGR61
   33    34    65	5 ;     CG2R61     CG2R61      HGR61
   34    35    36	5 ;     CG2R61     CG2R61     CG2R66
   34    35    66	5 ;     CG2R61     CG2R61      HGR62
   36    35    66	5 ;     CG2R66     CG2R61      HGR62
   35    36    37	5 ;     CG2R61     CG2R66       FGR1
   35    36    38	5 ;     CG2R61     CG2R66     CG2R61
   37    36    38	5 ;       FGR1     CG2R66     CG2R61
   36    38    39	5 ;     CG2R66     CG2R61     CG2R61
   36    38    67	5 ;     CG2R66     CG2R61      HGR62
   39    38    67	5 ;     CG2R61     CG2R61      HGR62
   33    39    38	5 ;     CG2R61     CG2R61     CG2R61
   33    39    68	5 ;     CG2R61     CG2R61      HGR61
   38    39    68	5 ;     CG2R61     CG2R61      HGR61
   41    40    42	5 ;      CG331      NG301      SG3O2
   41    40     5	5 ;      CG331      NG301     CG2R61
   42    40     5	5 ;      SG3O2      NG301     CG2R61
   40    41    69	5 ;      NG301      CG331       HGA3
   40    41    70	5 ;      NG301      CG331       HGA3
   40    41    71	5 ;      NG301      CG331       HGA3
   69    41    70	5 ;       HGA3      CG331       HGA3
   69    41    71	5 ;       HGA3      CG331       HGA3
   70    41    71	5 ;       HGA3      CG331       HGA3
   45    42    43	5 ;      CG331      SG3O2      OG2P1
   45    42    40	5 ;      CG331      SG3O2      NG301
   45    42    44	5 ;      CG331      SG3O2      OG2P1
   43    42    40	5 ;      OG2P1      SG3O2      NG301
   43    42    44	5 ;      OG2P1      SG3O2      OG2P1
   40    42    44	5 ;      NG301      SG3O2      OG2P1
   42    45    72	5 ;      SG3O2      CG331       HGA3
   42    45    73	5 ;      SG3O2      CG331       HGA3
   42    45    74	5 ;      SG3O2      CG331       HGA3
   72    45    73	5 ;       HGA3      CG331       HGA3
   72    45    74	5 ;       HGA3      CG331       HGA3
   73    45    74	5 ;       HGA3      CG331       HGA3

[ dihedrals ]
;	ai	  aj	ak	  al funct			  c0			c1			  c2			c3			  c4			c5
    6     1     2     3	 9 ;     CG2R61     CG2R61     CG2R61     CG2R61
    6     1     2    46	 9 ;     CG2R61     CG2R61     CG2R61      HGR61
    7     1     2     3	 9 ;     CG3C51     CG2R61     CG2R61     CG2R61
    7     1     2    46	 9 ;     CG3C51     CG2R61     CG2R61      HGR61
    2     1     6     5	 9 ;     CG2R61     CG2R61     CG2R61     CG2R61
    2     1     6    48	 9 ;     CG2R61     CG2R61     CG2R61      HGR61
    7     1     6     5	 9 ;     CG3C51     CG2R61     CG2R61     CG2R61
    7     1     6    48	 9 ;     CG3C51     CG2R61     CG2R61      HGR61
    2     1     7     8	 9 ;     CG2R61     CG2R61     CG3C51      SG311
    2     1     7    11	 9 ;     CG2R61     CG2R61     CG3C51     NG3C51
    2     1     7    49	 9 ;     CG2R61     CG2R61     CG3C51       HGA1
    6     1     7     8	 9 ;     CG2R61     CG2R61     CG3C51      SG311
    6     1     7    11	 9 ;     CG2R61     CG2R61     CG3C51     NG3C51
    6     1     7    49	 9 ;     CG2R61     CG2R61     CG3C51       HGA1
    1     2     3    27	 9 ;     CG2R61     CG2R61     CG2R61      CG2O1
    1     2     3     4	 9 ;     CG2R61     CG2R61     CG2R61     CG2R61
   46     2     3    27	 9 ;      HGR61     CG2R61     CG2R61      CG2O1
   46     2     3     4	 9 ;      HGR61     CG2R61     CG2R61     CG2R61
    4     3    27    29	 9 ;     CG2R61     CG2R61      CG2O1      NG2S1
    4     3    27    28	 9 ;     CG2R61     CG2R61      CG2O1      OG2D1
    2     3    27    29	 9 ;     CG2R61     CG2R61      CG2O1      NG2S1
    2     3    27    28	 9 ;     CG2R61     CG2R61      CG2O1      OG2D1
   27     3     4     5	 9 ;      CG2O1     CG2R61     CG2R61     CG2R61
   27     3     4    47	 9 ;      CG2O1     CG2R61     CG2R61      HGR61
    2     3     4     5	 9 ;     CG2R61     CG2R61     CG2R61     CG2R61
    2     3     4    47	 9 ;     CG2R61     CG2R61     CG2R61      HGR61
    3     4     5    40	 9 ;     CG2R61     CG2R61     CG2R61      NG301
    3     4     5     6	 9 ;     CG2R61     CG2R61     CG2R61     CG2R61
   47     4     5    40	 9 ;      HGR61     CG2R61     CG2R61      NG301
   47     4     5     6	 9 ;      HGR61     CG2R61     CG2R61     CG2R61
    4     5    40    41	 9 ;     CG2R61     CG2R61      NG301      CG331
    4     5    40    42	 9 ;     CG2R61     CG2R61      NG301      SG3O2
    6     5    40    41	 9 ;     CG2R61     CG2R61      NG301      CG331
    6     5    40    42	 9 ;     CG2R61     CG2R61      NG301      SG3O2
    4     5     6     1	 9 ;     CG2R61     CG2R61     CG2R61     CG2R61
    4     5     6    48	 9 ;     CG2R61     CG2R61     CG2R61      HGR61
   40     5     6     1	 9 ;      NG301     CG2R61     CG2R61     CG2R61
   40     5     6    48	 9 ;      NG301     CG2R61     CG2R61      HGR61
    1     7     8     9	 9 ;     CG2R61     CG3C51      SG311     CG3C51
   11     7     8     9	 9 ;     NG3C51     CG3C51      SG311     CG3C51
   49     7     8     9	 9 ;       HGA1     CG3C51      SG311     CG3C51
    1     7    11    13	 9 ;     CG2R61     CG3C51     NG3C51       HGP1
    1     7    11    10	 9 ;     CG2R61     CG3C51     NG3C51     NG3C51
    8     7    11    13	 9 ;      SG311     CG3C51     NG3C51       HGP1
    8     7    11    10	 9 ;      SG311     CG3C51     NG3C51     NG3C51
   49     7    11    13	 9 ;       HGA1     CG3C51     NG3C51       HGP1
   49     7    11    10	 9 ;       HGA1     CG3C51     NG3C51     NG3C51
    7     8     9    10	 9 ;     CG3C51      SG311     CG3C51     NG3C51
    7     8     9    14	 9 ;     CG3C51      SG311     CG3C51      CG301
    7     8     9    50	 9 ;     CG3C51      SG311     CG3C51       HGA1
    8     9    10    11	 9 ;      SG311     CG3C51     NG3C51     NG3C51
    8     9    10    12	 9 ;      SG311     CG3C51     NG3C51       HGP1
   14     9    10    11	 9 ;      CG301     CG3C51     NG3C51     NG3C51
   14     9    10    12	 9 ;      CG301     CG3C51     NG3C51       HGP1
   50     9    10    11	 9 ;       HGA1     CG3C51     NG3C51     NG3C51
   50     9    10    12	 9 ;       HGA1     CG3C51     NG3C51       HGP1
    8     9    14    16	 9 ;      SG311     CG3C51      CG301      NG3P3
    8     9    14    20	 9 ;      SG311     CG3C51      CG301      CG321
    8     9    14    15	 9 ;      SG311     CG3C51      CG301      CG331
   10     9    14    16	 9 ;     NG3C51     CG3C51      CG301      NG3P3
   10     9    14    20	 9 ;     NG3C51     CG3C51      CG301      CG321
   10     9    14    15	 9 ;     NG3C51     CG3C51      CG301      CG331
   50     9    14    16	 9 ;       HGA1     CG3C51      CG301      NG3P3
   50     9    14    20	 9 ;       HGA1     CG3C51      CG301      CG321
   50     9    14    15	 9 ;       HGA1     CG3C51      CG301      CG331
    9    10    11     7	 9 ;     CG3C51     NG3C51     NG3C51     CG3C51
    9    10    11    13	 9 ;     CG3C51     NG3C51     NG3C51       HGP1
   12    10    11     7	 9 ;       HGP1     NG3C51     NG3C51     CG3C51
   12    10    11    13	 9 ;       HGP1     NG3C51     NG3C51       HGP1
    9    14    16    17	 9 ;     CG3C51      CG301      NG3P3       HGP2
    9    14    16    18	 9 ;     CG3C51      CG301      NG3P3       HGP2
    9    14    16    19	 9 ;     CG3C51      CG301      NG3P3       HGP2
   20    14    16    17	 9 ;      CG321      CG301      NG3P3       HGP2
   20    14    16    18	 9 ;      CG321      CG301      NG3P3       HGP2
   20    14    16    19	 9 ;      CG321      CG301      NG3P3       HGP2
   15    14    16    17	 9 ;      CG331      CG301      NG3P3       HGP2
   15    14    16    18	 9 ;      CG331      CG301      NG3P3       HGP2
   15    14    16    19	 9 ;      CG331      CG301      NG3P3       HGP2
    9    14    20    21	 9 ;     CG3C51      CG301      CG321     CG2R61
    9    14    20    54	 9 ;     CG3C51      CG301      CG321       HGA2
    9    14    20    55	 9 ;     CG3C51      CG301      CG321       HGA2
   16    14    20    21	 9 ;      NG3P3      CG301      CG321     CG2R61
   16    14    20    54	 9 ;      NG3P3      CG301      CG321       HGA2
   16    14    20    55	 9 ;      NG3P3      CG301      CG321       HGA2
   15    14    20    21	 9 ;      CG331      CG301      CG321     CG2R61
   15    14    20    54	 9 ;      CG331      CG301      CG321       HGA2
   15    14    20    55	 9 ;      CG331      CG301      CG321       HGA2
    9    14    15    51	 9 ;     CG3C51      CG301      CG331       HGA3
    9    14    15    52	 9 ;     CG3C51      CG301      CG331       HGA3
    9    14    15    53	 9 ;     CG3C51      CG301      CG331       HGA3
   16    14    15    51	 9 ;      NG3P3      CG301      CG331       HGA3
   16    14    15    52	 9 ;      NG3P3      CG301      CG331       HGA3
   16    14    15    53	 9 ;      NG3P3      CG301      CG331       HGA3
   20    14    15    51	 9 ;      CG321      CG301      CG331       HGA3
   20    14    15    52	 9 ;      CG321      CG301      CG331       HGA3
   20    14    15    53	 9 ;      CG321      CG301      CG331       HGA3
   14    20    21    22	 9 ;      CG301      CG321     CG2R61     CG2R61
   14    20    21    26	 9 ;      CG301      CG321     CG2R61     CG2R61
   54    20    21    22	 9 ;       HGA2      CG321     CG2R61     CG2R61
   54    20    21    26	 9 ;       HGA2      CG321     CG2R61     CG2R61
   55    20    21    22	 9 ;       HGA2      CG321     CG2R61     CG2R61
   55    20    21    26	 9 ;       HGA2      CG321     CG2R61     CG2R61
   20    21    22    23	 9 ;      CG321     CG2R61     CG2R61     CG2R61
   20    21    22    56	 9 ;      CG321     CG2R61     CG2R61      HGR61
   26    21    22    23	 9 ;     CG2R61     CG2R61     CG2R61     CG2R61
   26    21    22    56	 9 ;     CG2R61     CG2R61     CG2R61      HGR61
   20    21    26    25	 9 ;      CG321     CG2R61     CG2R61     CG2R61
   20    21    26    60	 9 ;      CG321     CG2R61     CG2R61      HGR61
   22    21    26    25	 9 ;     CG2R61     CG2R61     CG2R61     CG2R61
   22    21    26    60	 9 ;     CG2R61     CG2R61     CG2R61      HGR61
   21    22    23    24	 9 ;     CG2R61     CG2R61     CG2R61     CG2R61
   21    22    23    57	 9 ;     CG2R61     CG2R61     CG2R61      HGR61
   56    22    23    24	 9 ;      HGR61     CG2R61     CG2R61     CG2R61
   56    22    23    57	 9 ;      HGR61     CG2R61     CG2R61      HGR61
   22    23    24    25	 9 ;     CG2R61     CG2R61     CG2R61     CG2R61
   22    23    24    58	 9 ;     CG2R61     CG2R61     CG2R61      HGR61
   57    23    24    25	 9 ;      HGR61     CG2R61     CG2R61     CG2R61
   57    23    24    58	 9 ;      HGR61     CG2R61     CG2R61      HGR61
   23    24    25    26	 9 ;     CG2R61     CG2R61     CG2R61     CG2R61
   23    24    25    59	 9 ;     CG2R61     CG2R61     CG2R61      HGR61
   58    24    25    26	 9 ;      HGR61     CG2R61     CG2R61     CG2R61
   58    24    25    59	 9 ;      HGR61     CG2R61     CG2R61      HGR61
   24    25    26    21	 9 ;     CG2R61     CG2R61     CG2R61     CG2R61
   24    25    26    60	 9 ;     CG2R61     CG2R61     CG2R61      HGR61
   59    25    26    21	 9 ;      HGR61     CG2R61     CG2R61     CG2R61
   59    25    26    60	 9 ;      HGR61     CG2R61     CG2R61      HGR61
   28    27    29    31	 9 ;      OG2D1      CG2O1      NG2S1      CG311
   28    27    29    30	 9 ;      OG2D1      CG2O1      NG2S1       HGP1
    3    27    29    31	 9 ;     CG2R61      CG2O1      NG2S1      CG311
    3    27    29    30	 9 ;     CG2R61      CG2O1      NG2S1       HGP1
   30    29    31    32	 9 ;       HGP1      NG2S1      CG311      CG331
   30    29    31    33	 9 ;       HGP1      NG2S1      CG311     CG2R61
   30    29    31    61	 9 ;       HGP1      NG2S1      CG311       HGA1
   27    29    31    32	 9 ;      CG2O1      NG2S1      CG311      CG331
   27    29    31    33	 9 ;      CG2O1      NG2S1      CG311     CG2R61
   27    29    31    61	 9 ;      CG2O1      NG2S1      CG311       HGA1
   33    31    32    62	 9 ;     CG2R61      CG311      CG331       HGA3
   33    31    32    63	 9 ;     CG2R61      CG311      CG331       HGA3
   33    31    32    64	 9 ;     CG2R61      CG311      CG331       HGA3
   29    31    32    62	 9 ;      NG2S1      CG311      CG331       HGA3
   29    31    32    63	 9 ;      NG2S1      CG311      CG331       HGA3
   29    31    32    64	 9 ;      NG2S1      CG311      CG331       HGA3
   61    31    32    62	 9 ;       HGA1      CG311      CG331       HGA3
   61    31    32    63	 9 ;       HGA1      CG311      CG331       HGA3
   61    31    32    64	 9 ;       HGA1      CG311      CG331       HGA3
   32    31    33    34	 9 ;      CG331      CG311     CG2R61     CG2R61
   32    31    33    39	 9 ;      CG331      CG311     CG2R61     CG2R61
   29    31    33    34	 9 ;      NG2S1      CG311     CG2R61     CG2R61
   29    31    33    39	 9 ;      NG2S1      CG311     CG2R61     CG2R61
   61    31    33    34	 9 ;       HGA1      CG311     CG2R61     CG2R61
   61    31    33    39	 9 ;       HGA1      CG311     CG2R61     CG2R61
   31    33    34    35	 9 ;      CG311     CG2R61     CG2R61     CG2R61
   31    33    34    65	 9 ;      CG311     CG2R61     CG2R61      HGR61
   39    33    34    35	 9 ;     CG2R61     CG2R61     CG2R61     CG2R61
   39    33    34    65	 9 ;     CG2R61     CG2R61     CG2R61      HGR61
   31    33    39    38	 9 ;      CG311     CG2R61     CG2R61     CG2R61
   31    33    39    68	 9 ;      CG311     CG2R61     CG2R61      HGR61
   34    33    39    38	 9 ;     CG2R61     CG2R61     CG2R61     CG2R61
   34    33    39    68	 9 ;     CG2R61     CG2R61     CG2R61      HGR61
   33    34    35    36	 9 ;     CG2R61     CG2R61     CG2R61     CG2R66
   33    34    35    66	 9 ;     CG2R61     CG2R61     CG2R61      HGR62
   65    34    35    36	 9 ;      HGR61     CG2R61     CG2R61     CG2R66
   65    34    35    66	 9 ;      HGR61     CG2R61     CG2R61      HGR62
   34    35    36    37	 9 ;     CG2R61     CG2R61     CG2R66       FGR1
   34    35    36    38	 9 ;     CG2R61     CG2R61     CG2R66     CG2R61
   66    35    36    37	 9 ;      HGR62     CG2R61     CG2R66       FGR1
   66    35    36    38	 9 ;      HGR62     CG2R61     CG2R66     CG2R61
   35    36    38    39	 9 ;     CG2R61     CG2R66     CG2R61     CG2R61
   35    36    38    67	 9 ;     CG2R61     CG2R66     CG2R61      HGR62
   37    36    38    39	 9 ;       FGR1     CG2R66     CG2R61     CG2R61
   37    36    38    67	 9 ;       FGR1     CG2R66     CG2R61      HGR62
   36    38    39    33	 9 ;     CG2R66     CG2R61     CG2R61     CG2R61
   36    38    39    68	 9 ;     CG2R66     CG2R61     CG2R61      HGR61
   67    38    39    33	 9 ;      HGR62     CG2R61     CG2R61     CG2R61
   67    38    39    68	 9 ;      HGR62     CG2R61     CG2R61      HGR61
   42    40    41    69	 9 ;      SG3O2      NG301      CG331       HGA3
   42    40    41    70	 9 ;      SG3O2      NG301      CG331       HGA3
   42    40    41    71	 9 ;      SG3O2      NG301      CG331       HGA3
    5    40    41    69	 9 ;     CG2R61      NG301      CG331       HGA3
    5    40    41    70	 9 ;     CG2R61      NG301      CG331       HGA3
    5    40    41    71	 9 ;     CG2R61      NG301      CG331       HGA3
   41    40    42    45	 9 ;      CG331      NG301      SG3O2      CG331
   41    40    42    43	 9 ;      CG331      NG301      SG3O2      OG2P1
   41    40    42    44	 9 ;      CG331      NG301      SG3O2      OG2P1
    5    40    42    45	 9 ;     CG2R61      NG301      SG3O2      CG331
    5    40    42    43	 9 ;     CG2R61      NG301      SG3O2      OG2P1
    5    40    42    44	 9 ;     CG2R61      NG301      SG3O2      OG2P1
   43    42    45    72	 9 ;      OG2P1      SG3O2      CG331       HGA3
   43    42    45    73	 9 ;      OG2P1      SG3O2      CG331       HGA3
   43    42    45    74	 9 ;      OG2P1      SG3O2      CG331       HGA3
   40    42    45    72	 9 ;      NG301      SG3O2      CG331       HGA3
   40    42    45    73	 9 ;      NG301      SG3O2      CG331       HGA3
   40    42    45    74	 9 ;      NG301      SG3O2      CG331       HGA3
   44    42    45    72	 9 ;      OG2P1      SG3O2      CG331       HGA3
   44    42    45    73	 9 ;      OG2P1      SG3O2      CG331       HGA3
   44    42    45    74	 9 ;      OG2P1      SG3O2      CG331       HGA3

[ dihedrals ]
;	ai	  aj	ak	  al funct			  c0			c1			  c2			c3
   27     3    29    28	 2

