Grunge ROck MAChoS
   50
    1LIG     C1    1  -1.369   0.370  -1.678
    1LIG     N1    2  -1.331   0.358  -1.823
    1LIG     C2    3  -1.316   0.483  -1.879
    1LIG     N2    4  -1.316   0.580  -1.787
    1LIG     C3    5  -1.324   0.520  -1.659
    1LIG     N3    6  -1.310   0.581  -1.548
    1LIG     HN    7  -1.306   0.530  -1.460
    1LIG     C4    8  -1.300   0.726  -1.549
    1LIG     C5    9  -1.385   0.779  -1.663
    1LIG     C6   10  -1.325   0.726  -1.795
    1LIG     N4   11  -1.305   0.503  -2.010
    1LIG     H1   12  -1.329   0.273  -1.877
    1LIG     H2   13  -1.308   0.427  -2.077
    1LIG     H3   14  -1.294   0.597  -2.047
    1LIG     C7   15  -1.523   0.364  -1.670
    1LIG     C8   16  -1.599   0.470  -1.618
    1LIG     C9   17  -1.738   0.456  -1.605
    1LIG     BR   18  -1.839   0.598  -1.531
    1LIG    C10   19  -1.802   0.339  -1.644
    1LIG    C11   20  -1.729   0.236  -1.701
    1LIG    C12   21  -1.591   0.249  -1.716
    1LIG    C13   22  -1.303   0.274  -1.581
    1LIG    C14   23  -1.347   0.254  -1.449
    1LIG    C15   24  -1.272   0.173  -1.362
    1LIG    C16   25  -1.156   0.106  -1.405
    1LIG    C17   26  -1.110   0.130  -1.533
    1LIG    C18   27  -1.180   0.214  -1.617
    1LIG      O   28  -1.077   0.022  -1.334
    1LIG    C19   29  -1.086  -0.117  -1.357
    1LIG     F1   30  -1.191  -0.152  -1.434
    1LIG     F2   31  -0.973  -0.157  -1.419
    1LIG     F3   32  -1.095  -0.181  -1.238
    1LIG     HC   33  -1.219   0.492  -1.661
    1LIG    HN2   34  -1.210   0.574  -1.556
    1LIG    HC2   35  -1.337   0.766  -1.454
    1LIG    HC3   36  -1.196   0.755  -1.563
    1LIG    HC4   37  -1.382   0.888  -1.663
    1LIG    HC5   38  -1.487   0.744  -1.653
    1LIG    HC6   39  -1.389   0.754  -1.878
    1LIG    HC7   40  -1.225   0.768  -1.809
    1LIG    HC1   41  -1.551   0.562  -1.589
    1LIG    HC8   42  -1.909   0.328  -1.631
    1LIG    HC9   43  -1.778   0.146  -1.733
    1LIG   HC10   44  -1.535   0.170  -1.763
    1LIG   HC11   45  -1.438   0.301  -1.415
    1LIG   HC12   46  -1.304   0.161  -1.259
    1LIG   HC13   47  -1.020   0.082  -1.567
    1LIG   HC14   48  -1.139   0.236  -1.714
    1LIG    H21   49  -1.208   0.474  -1.870
    1LIG    LP1   50  -1.940   0.740  -1.458
   0.00000   0.00000   0.00000
