; Created by cgenff_charmm2gmx.py

[ moleculetype ]
; Name			   nrexcl
LIG				 3

[ atoms ]
;	 nr		  type	resnr residue  atom   cgnr	   charge		mass  typeB    chargeB		massB
; residue	 1 LIG rtp LIG q	qsum
     1     CG3C50      1    LIG     C1      1      1.031     12.011   ;
     2     NG3C51      1    LIG     N1      2     -0.954     14.007   ;
     3     CG3C51      1    LIG     C2      3      0.292     12.011   ;
     4     NG3C51      1    LIG     N2      4     -0.733     14.007   ;
     5     CG3RC1      1    LIG     C3      5      0.432     12.011   ;
     6      NG3P2      1    LIG     N3      6     -0.582     14.007   ;
     7       HGP2      1    LIG     HN      7      0.335      1.008   ;
     8      CG324      1    LIG     C4      8      0.182     12.011   ;
     9      CG321      1    LIG     C5      9     -0.183     12.011   ;
    10      CG321      1    LIG     C6     10      0.283     12.011   ;
    11      NG321      1    LIG     N4     11     -0.868     14.007   ;
    12       HGP1      1    LIG     H1     12      0.206      1.008   ;
    13     HGPAM2      1    LIG     H2     13      0.349      1.008   ;
    14     HGPAM2      1    LIG     H3     14      0.349      1.008   ;
    15     CG2R61      1    LIG     C7     15     -0.069     12.011   ;
    16     CG2R61      1    LIG     C8     16     -0.065     12.011   ;
    17     CG2R61      1    LIG     C9     17     -0.016     12.011   ;
    18      BRGR1      1    LIG     BR     18     -0.181     79.904   ;
    19     CG2R61      1    LIG    C10     19     -0.073     12.011   ;
    20     CG2R61      1    LIG    C11     20     -0.105     12.011   ;
    21     CG2R61      1    LIG    C12     21     -0.173     12.011   ;
    22     CG2R61      1    LIG    C13     22     -0.004     12.011   ;
    23     CG2R61      1    LIG    C14     23     -0.178     12.011   ;
    24     CG2R61      1    LIG    C15     24     -0.108     12.011   ;
    25     CG2R61      1    LIG    C16     25      0.217     12.011   ;
    26     CG2R61      1    LIG    C17     26     -0.108     12.011   ;
    27     CG2R61      1    LIG    C18     27     -0.178     12.011   ;
    28      OG301      1    LIG      O     28     -0.303     15.999   ;
    29      CG302      1    LIG    C19     29      0.464     12.011   ;
    30       FGA3      1    LIG     F1     30     -0.126     18.998   ;
    31       FGA3      1    LIG     F2     31     -0.126     18.998   ;
    32       FGA3      1    LIG     F3     32     -0.126     18.998   ;
    33       HGA1      1    LIG     HC     33      0.090      1.008   ;
    34       HGP2      1    LIG    HN2     34      0.335      1.008   ;
    35       HGA2      1    LIG    HC2     35      0.090      1.008   ;
    36       HGA2      1    LIG    HC3     36      0.090      1.008   ;
    37       HGA2      1    LIG    HC4     37      0.090      1.008   ;
    38       HGA2      1    LIG    HC5     38      0.090      1.008   ;
    39       HGA2      1    LIG    HC6     39      0.090      1.008   ;
    40       HGA2      1    LIG    HC7     40      0.090      1.008   ;
    41      HGR62      1    LIG    HC1     41      0.123      1.008   ;
    42      HGR62      1    LIG    HC8     42      0.148      1.008   ;
    43      HGR61      1    LIG    HC9     43      0.116      1.008   ;
    44      HGR61      1    LIG   HC10     44      0.116      1.008   ;
    45      HGR61      1    LIG   HC11     45      0.116      1.008   ;
    46      HGR61      1    LIG   HC12     46      0.116      1.008   ;
    47      HGR61      1    LIG   HC13     47      0.116      1.008   ;
    48      HGR61      1    LIG   HC14     48      0.116      1.008   ;
    49       HGA1      1    LIG    H21     49      0.137      1.008   ;
    50        LPH      1    LIG    LP1     50      0.050      0.000   ;

[ bonds ]
;	ai	  aj funct			  c0			c1			  c2			c3
    1     2	 1 ;      CG3C50     NG3C51
    1     5	 1 ;      CG3C50     CG3RC1
    1    22	 1 ;      CG3C50     CG2R61
    1    15	 1 ;      CG3C50     CG2R61
    2     3	 1 ;      NG3C51     CG3C51
    2    12	 1 ;      NG3C51       HGP1
    3    11	 1 ;      CG3C51      NG321
    3     4	 1 ;      CG3C51     NG3C51
    3    49	 1 ;      CG3C51       HGA1
    4    10	 1 ;      NG3C51      CG321
    4     5	 1 ;      NG3C51     CG3RC1
    5     6	 1 ;      CG3RC1      NG3P2
    5    33	 1 ;      CG3RC1       HGA1
    6     8	 1 ;       NG3P2      CG324
    6     7	 1 ;       NG3P2       HGP2
    6    34	 1 ;       NG3P2       HGP2
    8     9	 1 ;       CG324      CG321
    8    35	 1 ;       CG324       HGA2
    8    36	 1 ;       CG324       HGA2
    9    10	 1 ;       CG321      CG321
    9    37	 1 ;       CG321       HGA2
    9    38	 1 ;       CG321       HGA2
   10    39	 1 ;       CG321       HGA2
   10    40	 1 ;       CG321       HGA2
   11    14	 1 ;       NG321     HGPAM2
   11    13	 1 ;       NG321     HGPAM2
   15    21	 1 ;      CG2R61     CG2R61
   15    16	 1 ;      CG2R61     CG2R61
   16    17	 1 ;      CG2R61     CG2R61
   16    41	 1 ;      CG2R61      HGR62
   17    19	 1 ;      CG2R61     CG2R61
   17    18	 1 ;      CG2R61      BRGR1
   19    20	 1 ;      CG2R61     CG2R61
   19    42	 1 ;      CG2R61      HGR62
   20    21	 1 ;      CG2R61     CG2R61
   20    43	 1 ;      CG2R61      HGR61
   21    44	 1 ;      CG2R61      HGR61
   22    27	 1 ;      CG2R61     CG2R61
   22    23	 1 ;      CG2R61     CG2R61
   23    24	 1 ;      CG2R61     CG2R61
   23    45	 1 ;      CG2R61      HGR61
   24    25	 1 ;      CG2R61     CG2R61
   24    46	 1 ;      CG2R61      HGR61
   25    26	 1 ;      CG2R61     CG2R61
   25    28	 1 ;      CG2R61      OG301
   26    27	 1 ;      CG2R61     CG2R61
   26    47	 1 ;      CG2R61      HGR61
   27    48	 1 ;      CG2R61      HGR61
   28    29	 1 ;       OG301      CG302
   29    31	 1 ;       CG302       FGA3
   29    30	 1 ;       CG302       FGA3
   29    32	 1 ;       CG302       FGA3

[ pairs ]
;	ai	  aj funct			  c0			c1			  c2			c3
    1    11	 1
    1    49	 1
    1    10	 1
    1     8	 1
    1     7	 1
    1    34	 1
    1    20	 1
    1    44	 1
    1    17	 1
    1    41	 1
    1    26	 1
    1    48	 1
    1    24	 1
    1    45	 1
    2     6	 1
    2    33	 1
    2    27	 1
    2    23	 1
    2    21	 1
    2    16	 1
    2    14	 1
    2    13	 1
    2    10	 1
    3    22	 1
    3    15	 1
    3     9	 1
    3    39	 1
    3    40	 1
    3     6	 1
    3    33	 1
    4    22	 1
    4    15	 1
    4    12	 1
    4    14	 1
    4    13	 1
    4     8	 1
    4     7	 1
    4    34	 1
    4    37	 1
    4    38	 1
    5    12	 1
    5    27	 1
    5    23	 1
    5    21	 1
    5    16	 1
    5    11	 1
    5    49	 1
    5     9	 1
    5    39	 1
    5    40	 1
    5    35	 1
    5    36	 1
    6    22	 1
    6    15	 1
    6    10	 1
    6    37	 1
    6    38	 1
    7    33	 1
    7     9	 1
    7    35	 1
    7    36	 1
    8    33	 1
    8    39	 1
    8    40	 1
    9    34	 1
   10    11	 1
   10    49	 1
   10    33	 1
   10    35	 1
   10    36	 1
   11    12	 1
   12    22	 1
   12    15	 1
   12    49	 1
   13    49	 1
   14    49	 1
   15    33	 1
   15    27	 1
   15    23	 1
   15    19	 1
   15    18	 1
   50    15	 1
   15    43	 1
   16    22	 1
   16    20	 1
   16    44	 1
   16    42	 1
   17    21	 1
   17    43	 1
   18    41	 1
   50    41	 1
   18    20	 1
   50    20	 1
   18    42	 1
   50    42	 1
   19    41	 1
   19    44	 1
   21    22	 1
   21    41	 1
   21    42	 1
   22    33	 1
   22    25	 1
   22    46	 1
   22    47	 1
   23    26	 1
   23    48	 1
   23    28	 1
   24    27	 1
   24    47	 1
   24    29	 1
   25    45	 1
   25    48	 1
   25    31	 1
   25    30	 1
   25    32	 1
   26    46	 1
   26    29	 1
   27    45	 1
   27    28	 1
   28    46	 1
   28    47	 1
   33    34	 1
   34    35	 1
   34    36	 1
   35    37	 1
   35    38	 1
   36    37	 1
   36    38	 1
   37    39	 1
   37    40	 1
   38    39	 1
   38    40	 1
   42    43	 1
   43    44	 1
   45    46	 1
   47    48	 1

[ angles ]
;	ai	  aj	ak funct			c0			  c1			c2			  c3
    2     1     5	5 ;     NG3C51     CG3C50     CG3RC1
    2     1    22	5 ;     NG3C51     CG3C50     CG2R61
    2     1    15	5 ;     NG3C51     CG3C50     CG2R61
    5     1    22	5 ;     CG3RC1     CG3C50     CG2R61
    5     1    15	5 ;     CG3RC1     CG3C50     CG2R61
   22     1    15	5 ;     CG2R61     CG3C50     CG2R61
    3     2    12	5 ;     CG3C51     NG3C51       HGP1
    3     2     1	5 ;     CG3C51     NG3C51     CG3C50
   12     2     1	5 ;       HGP1     NG3C51     CG3C50
   11     3     4	5 ;      NG321     CG3C51     NG3C51
   11     3     2	5 ;      NG321     CG3C51     NG3C51
   11     3    49	5 ;      NG321     CG3C51       HGA1
    4     3     2	5 ;     NG3C51     CG3C51     NG3C51
    4     3    49	5 ;     NG3C51     CG3C51       HGA1
    2     3    49	5 ;     NG3C51     CG3C51       HGA1
    3     4    10	5 ;     CG3C51     NG3C51      CG321
    3     4     5	5 ;     CG3C51     NG3C51     CG3RC1
   10     4     5	5 ;      CG321     NG3C51     CG3RC1
    4     5     6	5 ;     NG3C51     CG3RC1      NG3P2
    4     5     1	5 ;     NG3C51     CG3RC1     CG3C50
    4     5    33	5 ;     NG3C51     CG3RC1       HGA1
    6     5     1	5 ;      NG3P2     CG3RC1     CG3C50
    6     5    33	5 ;      NG3P2     CG3RC1       HGA1
    1     5    33	5 ;     CG3C50     CG3RC1       HGA1
    5     6     8	5 ;     CG3RC1      NG3P2      CG324
    5     6     7	5 ;     CG3RC1      NG3P2       HGP2
    5     6    34	5 ;     CG3RC1      NG3P2       HGP2
    8     6     7	5 ;      CG324      NG3P2       HGP2
    8     6    34	5 ;      CG324      NG3P2       HGP2
    7     6    34	5 ;       HGP2      NG3P2       HGP2
    9     8     6	5 ;      CG321      CG324      NG3P2
    9     8    35	5 ;      CG321      CG324       HGA2
    9     8    36	5 ;      CG321      CG324       HGA2
    6     8    35	5 ;      NG3P2      CG324       HGA2
    6     8    36	5 ;      NG3P2      CG324       HGA2
   35     8    36	5 ;       HGA2      CG324       HGA2
   10     9     8	5 ;      CG321      CG321      CG324
   10     9    37	5 ;      CG321      CG321       HGA2
   10     9    38	5 ;      CG321      CG321       HGA2
    8     9    37	5 ;      CG324      CG321       HGA2
    8     9    38	5 ;      CG324      CG321       HGA2
   37     9    38	5 ;       HGA2      CG321       HGA2
    4    10     9	5 ;     NG3C51      CG321      CG321
    4    10    39	5 ;     NG3C51      CG321       HGA2
    4    10    40	5 ;     NG3C51      CG321       HGA2
    9    10    39	5 ;      CG321      CG321       HGA2
    9    10    40	5 ;      CG321      CG321       HGA2
   39    10    40	5 ;       HGA2      CG321       HGA2
   14    11    13	5 ;     HGPAM2      NG321     HGPAM2
   14    11     3	5 ;     HGPAM2      NG321     CG3C51
   13    11     3	5 ;     HGPAM2      NG321     CG3C51
    1    15    21	5 ;     CG3C50     CG2R61     CG2R61
    1    15    16	5 ;     CG3C50     CG2R61     CG2R61
   21    15    16	5 ;     CG2R61     CG2R61     CG2R61
   15    16    17	5 ;     CG2R61     CG2R61     CG2R61
   15    16    41	5 ;     CG2R61     CG2R61      HGR62
   17    16    41	5 ;     CG2R61     CG2R61      HGR62
   16    17    19	5 ;     CG2R61     CG2R61     CG2R61
   16    17    18	5 ;     CG2R61     CG2R61      BRGR1
   19    17    18	5 ;     CG2R61     CG2R61      BRGR1
   20    19    17	5 ;     CG2R61     CG2R61     CG2R61
   20    19    42	5 ;     CG2R61     CG2R61      HGR62
   17    19    42	5 ;     CG2R61     CG2R61      HGR62
   21    20    19	5 ;     CG2R61     CG2R61     CG2R61
   21    20    43	5 ;     CG2R61     CG2R61      HGR61
   19    20    43	5 ;     CG2R61     CG2R61      HGR61
   15    21    20	5 ;     CG2R61     CG2R61     CG2R61
   15    21    44	5 ;     CG2R61     CG2R61      HGR61
   20    21    44	5 ;     CG2R61     CG2R61      HGR61
   27    22     1	5 ;     CG2R61     CG2R61     CG3C50
   27    22    23	5 ;     CG2R61     CG2R61     CG2R61
    1    22    23	5 ;     CG3C50     CG2R61     CG2R61
   22    23    24	5 ;     CG2R61     CG2R61     CG2R61
   22    23    45	5 ;     CG2R61     CG2R61      HGR61
   24    23    45	5 ;     CG2R61     CG2R61      HGR61
   25    24    23	5 ;     CG2R61     CG2R61     CG2R61
   25    24    46	5 ;     CG2R61     CG2R61      HGR61
   23    24    46	5 ;     CG2R61     CG2R61      HGR61
   26    25    28	5 ;     CG2R61     CG2R61      OG301
   26    25    24	5 ;     CG2R61     CG2R61     CG2R61
   28    25    24	5 ;      OG301     CG2R61     CG2R61
   27    26    25	5 ;     CG2R61     CG2R61     CG2R61
   27    26    47	5 ;     CG2R61     CG2R61      HGR61
   25    26    47	5 ;     CG2R61     CG2R61      HGR61
   26    27    22	5 ;     CG2R61     CG2R61     CG2R61
   26    27    48	5 ;     CG2R61     CG2R61      HGR61
   22    27    48	5 ;     CG2R61     CG2R61      HGR61
   25    28    29	5 ;     CG2R61      OG301      CG302
   31    29    28	5 ;       FGA3      CG302      OG301
   31    29    30	5 ;       FGA3      CG302       FGA3
   31    29    32	5 ;       FGA3      CG302       FGA3
   28    29    30	5 ;      OG301      CG302       FGA3
   28    29    32	5 ;      OG301      CG302       FGA3
   30    29    32	5 ;       FGA3      CG302       FGA3

[ dihedrals ]
;	ai	  aj	ak	  al funct			  c0			c1			  c2			c3			  c4			c5
    5     1     2     3	 9 ;     CG3RC1     CG3C50     NG3C51     CG3C51
    5     1     2    12	 9 ;     CG3RC1     CG3C50     NG3C51       HGP1
   22     1     2     3	 9 ;     CG2R61     CG3C50     NG3C51     CG3C51
   22     1     2    12	 9 ;     CG2R61     CG3C50     NG3C51       HGP1
   15     1     2     3	 9 ;     CG2R61     CG3C50     NG3C51     CG3C51
   15     1     2    12	 9 ;     CG2R61     CG3C50     NG3C51       HGP1
    2     1     5     4	 9 ;     NG3C51     CG3C50     CG3RC1     NG3C51
    2     1     5     6	 9 ;     NG3C51     CG3C50     CG3RC1      NG3P2
    2     1     5    33	 9 ;     NG3C51     CG3C50     CG3RC1       HGA1
   22     1     5     4	 9 ;     CG2R61     CG3C50     CG3RC1     NG3C51
   22     1     5     6	 9 ;     CG2R61     CG3C50     CG3RC1      NG3P2
   22     1     5    33	 9 ;     CG2R61     CG3C50     CG3RC1       HGA1
   15     1     5     4	 9 ;     CG2R61     CG3C50     CG3RC1     NG3C51
   15     1     5     6	 9 ;     CG2R61     CG3C50     CG3RC1      NG3P2
   15     1     5    33	 9 ;     CG2R61     CG3C50     CG3RC1       HGA1
    2     1    22    27	 9 ;     NG3C51     CG3C50     CG2R61     CG2R61
    2     1    22    23	 9 ;     NG3C51     CG3C50     CG2R61     CG2R61
    5     1    22    27	 9 ;     CG3RC1     CG3C50     CG2R61     CG2R61
    5     1    22    23	 9 ;     CG3RC1     CG3C50     CG2R61     CG2R61
   15     1    22    27	 9 ;     CG2R61     CG3C50     CG2R61     CG2R61
   15     1    22    23	 9 ;     CG2R61     CG3C50     CG2R61     CG2R61
    2     1    15    21	 9 ;     NG3C51     CG3C50     CG2R61     CG2R61
    2     1    15    16	 9 ;     NG3C51     CG3C50     CG2R61     CG2R61
    5     1    15    21	 9 ;     CG3RC1     CG3C50     CG2R61     CG2R61
    5     1    15    16	 9 ;     CG3RC1     CG3C50     CG2R61     CG2R61
   22     1    15    21	 9 ;     CG2R61     CG3C50     CG2R61     CG2R61
   22     1    15    16	 9 ;     CG2R61     CG3C50     CG2R61     CG2R61
   12     2     3    11	 9 ;       HGP1     NG3C51     CG3C51      NG321
   12     2     3     4	 9 ;       HGP1     NG3C51     CG3C51     NG3C51
   12     2     3    49	 9 ;       HGP1     NG3C51     CG3C51       HGA1
    1     2     3    11	 9 ;     CG3C50     NG3C51     CG3C51      NG321
    1     2     3     4	 9 ;     CG3C50     NG3C51     CG3C51     NG3C51
    1     2     3    49	 9 ;     CG3C50     NG3C51     CG3C51       HGA1
    4     3    11    14	 9 ;     NG3C51     CG3C51      NG321     HGPAM2
    4     3    11    13	 9 ;     NG3C51     CG3C51      NG321     HGPAM2
    2     3    11    14	 9 ;     NG3C51     CG3C51      NG321     HGPAM2
    2     3    11    13	 9 ;     NG3C51     CG3C51      NG321     HGPAM2
   49     3    11    14	 9 ;       HGA1     CG3C51      NG321     HGPAM2
   49     3    11    13	 9 ;       HGA1     CG3C51      NG321     HGPAM2
   11     3     4    10	 9 ;      NG321     CG3C51     NG3C51      CG321
   11     3     4     5	 9 ;      NG321     CG3C51     NG3C51     CG3RC1
    2     3     4    10	 9 ;     NG3C51     CG3C51     NG3C51      CG321
    2     3     4     5	 9 ;     NG3C51     CG3C51     NG3C51     CG3RC1
   49     3     4    10	 9 ;       HGA1     CG3C51     NG3C51      CG321
   49     3     4     5	 9 ;       HGA1     CG3C51     NG3C51     CG3RC1
    3     4    10     9	 9 ;     CG3C51     NG3C51      CG321      CG321
    3     4    10    39	 9 ;     CG3C51     NG3C51      CG321       HGA2
    3     4    10    40	 9 ;     CG3C51     NG3C51      CG321       HGA2
    5     4    10     9	 9 ;     CG3RC1     NG3C51      CG321      CG321
    5     4    10    39	 9 ;     CG3RC1     NG3C51      CG321       HGA2
    5     4    10    40	 9 ;     CG3RC1     NG3C51      CG321       HGA2
    3     4     5     6	 9 ;     CG3C51     NG3C51     CG3RC1      NG3P2
    3     4     5     1	 9 ;     CG3C51     NG3C51     CG3RC1     CG3C50
    3     4     5    33	 9 ;     CG3C51     NG3C51     CG3RC1       HGA1
   10     4     5     6	 9 ;      CG321     NG3C51     CG3RC1      NG3P2
   10     4     5     1	 9 ;      CG321     NG3C51     CG3RC1     CG3C50
   10     4     5    33	 9 ;      CG321     NG3C51     CG3RC1       HGA1
    4     5     6     8	 9 ;     NG3C51     CG3RC1      NG3P2      CG324
    4     5     6     7	 9 ;     NG3C51     CG3RC1      NG3P2       HGP2
    4     5     6    34	 9 ;     NG3C51     CG3RC1      NG3P2       HGP2
    1     5     6     8	 9 ;     CG3C50     CG3RC1      NG3P2      CG324
    1     5     6     7	 9 ;     CG3C50     CG3RC1      NG3P2       HGP2
    1     5     6    34	 9 ;     CG3C50     CG3RC1      NG3P2       HGP2
   33     5     6     8	 9 ;       HGA1     CG3RC1      NG3P2      CG324
   33     5     6     7	 9 ;       HGA1     CG3RC1      NG3P2       HGP2
   33     5     6    34	 9 ;       HGA1     CG3RC1      NG3P2       HGP2
    5     6     8     9	 9 ;     CG3RC1      NG3P2      CG324      CG321
    5     6     8    35	 9 ;     CG3RC1      NG3P2      CG324       HGA2
    5     6     8    36	 9 ;     CG3RC1      NG3P2      CG324       HGA2
    7     6     8     9	 9 ;       HGP2      NG3P2      CG324      CG321
    7     6     8    35	 9 ;       HGP2      NG3P2      CG324       HGA2
    7     6     8    36	 9 ;       HGP2      NG3P2      CG324       HGA2
   34     6     8     9	 9 ;       HGP2      NG3P2      CG324      CG321
   34     6     8    35	 9 ;       HGP2      NG3P2      CG324       HGA2
   34     6     8    36	 9 ;       HGP2      NG3P2      CG324       HGA2
    6     8     9    10	 9 ;      NG3P2      CG324      CG321      CG321
    6     8     9    37	 9 ;      NG3P2      CG324      CG321       HGA2
    6     8     9    38	 9 ;      NG3P2      CG324      CG321       HGA2
   35     8     9    10	 9 ;       HGA2      CG324      CG321      CG321
   35     8     9    37	 9 ;       HGA2      CG324      CG321       HGA2
   35     8     9    38	 9 ;       HGA2      CG324      CG321       HGA2
   36     8     9    10	 9 ;       HGA2      CG324      CG321      CG321
   36     8     9    37	 9 ;       HGA2      CG324      CG321       HGA2
   36     8     9    38	 9 ;       HGA2      CG324      CG321       HGA2
    8     9    10     4	 9 ;      CG324      CG321      CG321     NG3C51
    8     9    10    39	 9 ;      CG324      CG321      CG321       HGA2
    8     9    10    40	 9 ;      CG324      CG321      CG321       HGA2
   37     9    10     4	 9 ;       HGA2      CG321      CG321     NG3C51
   37     9    10    39	 9 ;       HGA2      CG321      CG321       HGA2
   37     9    10    40	 9 ;       HGA2      CG321      CG321       HGA2
   38     9    10     4	 9 ;       HGA2      CG321      CG321     NG3C51
   38     9    10    39	 9 ;       HGA2      CG321      CG321       HGA2
   38     9    10    40	 9 ;       HGA2      CG321      CG321       HGA2
    1    15    21    20	 9 ;     CG3C50     CG2R61     CG2R61     CG2R61
    1    15    21    44	 9 ;     CG3C50     CG2R61     CG2R61      HGR61
   16    15    21    20	 9 ;     CG2R61     CG2R61     CG2R61     CG2R61
   16    15    21    44	 9 ;     CG2R61     CG2R61     CG2R61      HGR61
    1    15    16    17	 9 ;     CG3C50     CG2R61     CG2R61     CG2R61
    1    15    16    41	 9 ;     CG3C50     CG2R61     CG2R61      HGR62
   21    15    16    17	 9 ;     CG2R61     CG2R61     CG2R61     CG2R61
   21    15    16    41	 9 ;     CG2R61     CG2R61     CG2R61      HGR62
   15    16    17    19	 9 ;     CG2R61     CG2R61     CG2R61     CG2R61
   15    16    17    18	 9 ;     CG2R61     CG2R61     CG2R61      BRGR1
   41    16    17    19	 9 ;      HGR62     CG2R61     CG2R61     CG2R61
   41    16    17    18	 9 ;      HGR62     CG2R61     CG2R61      BRGR1
   16    17    19    20	 9 ;     CG2R61     CG2R61     CG2R61     CG2R61
   16    17    19    42	 9 ;     CG2R61     CG2R61     CG2R61      HGR62
   18    17    19    20	 9 ;      BRGR1     CG2R61     CG2R61     CG2R61
   18    17    19    42	 9 ;      BRGR1     CG2R61     CG2R61      HGR62
   17    19    20    21	 9 ;     CG2R61     CG2R61     CG2R61     CG2R61
   17    19    20    43	 9 ;     CG2R61     CG2R61     CG2R61      HGR61
   42    19    20    21	 9 ;      HGR62     CG2R61     CG2R61     CG2R61
   42    19    20    43	 9 ;      HGR62     CG2R61     CG2R61      HGR61
   19    20    21    15	 9 ;     CG2R61     CG2R61     CG2R61     CG2R61
   19    20    21    44	 9 ;     CG2R61     CG2R61     CG2R61      HGR61
   43    20    21    15	 9 ;      HGR61     CG2R61     CG2R61     CG2R61
   43    20    21    44	 9 ;      HGR61     CG2R61     CG2R61      HGR61
    1    22    27    26	 9 ;     CG3C50     CG2R61     CG2R61     CG2R61
    1    22    27    48	 9 ;     CG3C50     CG2R61     CG2R61      HGR61
   23    22    27    26	 9 ;     CG2R61     CG2R61     CG2R61     CG2R61
   23    22    27    48	 9 ;     CG2R61     CG2R61     CG2R61      HGR61
   27    22    23    24	 9 ;     CG2R61     CG2R61     CG2R61     CG2R61
   27    22    23    45	 9 ;     CG2R61     CG2R61     CG2R61      HGR61
    1    22    23    24	 9 ;     CG3C50     CG2R61     CG2R61     CG2R61
    1    22    23    45	 9 ;     CG3C50     CG2R61     CG2R61      HGR61
   22    23    24    25	 9 ;     CG2R61     CG2R61     CG2R61     CG2R61
   22    23    24    46	 9 ;     CG2R61     CG2R61     CG2R61      HGR61
   45    23    24    25	 9 ;      HGR61     CG2R61     CG2R61     CG2R61
   45    23    24    46	 9 ;      HGR61     CG2R61     CG2R61      HGR61
   23    24    25    26	 9 ;     CG2R61     CG2R61     CG2R61     CG2R61
   23    24    25    28	 9 ;     CG2R61     CG2R61     CG2R61      OG301
   46    24    25    26	 9 ;      HGR61     CG2R61     CG2R61     CG2R61
   46    24    25    28	 9 ;      HGR61     CG2R61     CG2R61      OG301
   28    25    26    27	 9 ;      OG301     CG2R61     CG2R61     CG2R61
   28    25    26    47	 9 ;      OG301     CG2R61     CG2R61      HGR61
   24    25    26    27	 9 ;     CG2R61     CG2R61     CG2R61     CG2R61
   24    25    26    47	 9 ;     CG2R61     CG2R61     CG2R61      HGR61
   26    25    28    29	 9 ;     CG2R61     CG2R61      OG301      CG302
   24    25    28    29	 9 ;     CG2R61     CG2R61      OG301      CG302
   25    26    27    22	 9 ;     CG2R61     CG2R61     CG2R61     CG2R61
   25    26    27    48	 9 ;     CG2R61     CG2R61     CG2R61      HGR61
   47    26    27    22	 9 ;      HGR61     CG2R61     CG2R61     CG2R61
   47    26    27    48	 9 ;      HGR61     CG2R61     CG2R61      HGR61
   25    28    29    31	 9 ;     CG2R61      OG301      CG302       FGA3
   25    28    29    30	 9 ;     CG2R61      OG301      CG302       FGA3
   25    28    29    32	 9 ;     CG2R61      OG301      CG302       FGA3

[ virtual_sites2 ]
; Site   from				funct a
   50    18    17     2   -0.189

[ exclusions ]
;	ai	  aj
   18    50
   50    17
   50    16
   50    19
   50    15
   50    41
   50    20
   50    42

