GROup of MAchos and Cynical Suckers
   48
    1LIG     C1    1  -1.366   0.326  -1.551
    1LIG     C2    2  -1.506   0.344  -1.549
    1LIG     C3    3  -1.570   0.455  -1.609
    1LIG     C4    4  -1.490   0.550  -1.672
    1LIG     O1    5  -1.540   0.662  -1.734
    1LIG     C5    6  -1.674   0.687  -1.727
    1LIG     C6    7  -1.766   0.602  -1.666
    1LIG     C7    8  -1.902   0.639  -1.664
    1LIG     C8    9  -1.945   0.759  -1.723
    1LIG     C9   10  -1.851   0.842  -1.783
    1LIG    C10   11  -1.716   0.807  -1.785
    1LIG    C11   12  -1.720   0.471  -1.602
    1LIG     N1   13  -1.765   0.468  -1.460
    1LIG     HN   14  -1.734   0.528  -1.384
    1LIG    C12   15  -1.851   0.372  -1.454
    1LIG     O2   16  -1.876   0.297  -1.564
    1LIG    C13   17  -1.793   0.350  -1.667
    1LIG     N2   18  -1.921   0.335  -1.346
    1LIG    C14   19  -1.352   0.536  -1.676
    1LIG    C15   20  -1.291   0.425  -1.616
    1LIG     H1   21  -1.957   0.240  -1.347
    1LIG     H2   22  -1.884   0.368  -1.258
    1LIG     O3   23  -2.074   0.803  -1.727
    1LIG    C16   24  -2.175   0.705  -1.745
    1LIG    C17   25  -1.303   0.208  -1.488
    1LIG    C18   26  -1.283   0.201  -1.349
    1LIG    C19   27  -1.223   0.090  -1.289
    1LIG    C20   28  -1.180  -0.016  -1.368
    1LIG     CL   29  -1.105  -0.153  -1.295
    1LIG    C21   30  -1.198  -0.013  -1.506
    1LIG    C22   31  -1.259   0.098  -1.565
    1LIG     HC   32  -1.567   0.269  -1.501
    1LIG    HC1   33  -1.974   0.575  -1.617
    1LIG    HC2   34  -1.883   0.935  -1.828
    1LIG    HC3   35  -1.644   0.873  -1.831
    1LIG    HC4   36  -1.853   0.383  -1.752
    1LIG    HC5   37  -1.720   0.276  -1.698
    1LIG    HC6   38  -1.291   0.610  -1.726
    1LIG    HC7   39  -1.183   0.416  -1.618
    1LIG    HC8   40  -2.268   0.753  -1.775
    1LIG    HC9   41  -2.190   0.651  -1.652
    1LIG   HC10   42  -2.144   0.635  -1.823
    1LIG   HC11   43  -1.314   0.284  -1.287
    1LIG   HC12   44  -1.210   0.086  -1.182
    1LIG   HC13   45  -1.164  -0.095  -1.567
    1LIG   HC14   46  -1.274   0.099  -1.672
    1LIG    H19   47  -1.930   0.441  -1.483
    1LIG    LP1   48  -1.034  -0.283  -1.225
   0.00000   0.00000   0.00000
