GROtesk MACabre and Sinister
   61
    1LIG     C1    1  -1.579   0.752  -1.629
    1LIG     C2    2  -1.613   0.827  -1.759
    1LIG      S    3  -1.749   0.745  -1.840
    1LIG     O1    4  -1.713   0.605  -1.855
    1LIG     O2    5  -1.795   0.823  -1.952
    1LIG     C3    6  -1.876   0.744  -1.717
    1LIG     C4    7  -1.824   0.679  -1.589
    1LIG     C5    8  -1.700   0.754  -1.532
    1LIG      N    9  -1.798   0.531  -1.611
    1LIG     H1   10  -1.886   0.483  -1.635
    1LIG     H2   11  -1.742   0.516  -1.698
    1LIG     C6   12  -1.735   0.455  -1.500
    1LIG     C7   13  -1.624   0.368  -1.549
    1LIG     C8   14  -1.505   0.361  -1.475
    1LIG     C9   15  -1.395   0.284  -1.518
    1LIG    C10   16  -1.411   0.212  -1.638
    1LIG    C11   17  -1.529   0.219  -1.712
    1LIG    C12   18  -1.635   0.298  -1.669
    1LIG    C13   19  -1.266   0.275  -1.436
    1LIG    C14   20  -1.149   0.242  -1.531
    1LIG    C15   21  -1.235   0.405  -1.359
    1LIG    C16   22  -1.272   0.164  -1.329
    1LIG     O3   23  -1.739   0.889  -1.509
    1LIG     H3   24  -1.742   0.938  -1.593
    1LIG    C17   25  -1.451   0.805  -1.562
    1LIG    C18   26  -1.326   0.725  -1.596
    1LIG    C19   27  -1.325   0.627  -1.696
    1LIG    C20   28  -1.208   0.556  -1.725
    1LIG     BR   29  -1.202   0.426  -1.860
    1LIG    C21   30  -1.091   0.581  -1.653
    1LIG    C22   31  -1.092   0.676  -1.552
    1LIG    C23   32  -1.208   0.748  -1.524
    1LIG     HC   33  -1.561   0.648  -1.656
    1LIG    HC2   34  -1.527   0.829  -1.824
    1LIG    HC3   35  -1.642   0.930  -1.735
    1LIG    HC4   36  -1.963   0.689  -1.754
    1LIG    HC5   37  -1.906   0.847  -1.695
    1LIG    HC1   38  -1.903   0.686  -1.514
    1LIG    HC6   39  -1.671   0.709  -1.438
    1LIG    HC7   40  -1.811   0.392  -1.452
    1LIG    HC8   41  -1.696   0.525  -1.426
    1LIG    HC9   42  -1.497   0.415  -1.382
    1LIG   HC10   43  -1.330   0.149  -1.673
    1LIG   HC11   44  -1.538   0.163  -1.804
    1LIG   HC12   45  -1.726   0.304  -1.727
    1LIG   HC13   46  -1.079   0.174  -1.481
    1LIG   HC14   47  -1.097   0.334  -1.557
    1LIG   HC15   48  -1.188   0.194  -1.621
    1LIG   HC16   49  -1.229   0.488  -1.430
    1LIG   HC17   50  -1.315   0.424  -1.287
    1LIG   HC18   51  -1.140   0.395  -1.307
    1LIG   HC19   52  -1.294   0.068  -1.376
    1LIG   HC20   53  -1.176   0.158  -1.277
    1LIG   HC21   54  -1.351   0.187  -1.257
    1LIG   HC22   55  -1.465   0.803  -1.454
    1LIG   HC23   56  -1.435   0.909  -1.594
    1LIG   HC24   57  -1.415   0.605  -1.752
    1LIG   HC25   58  -1.001   0.526  -1.676
    1LIG   HC26   59  -1.002   0.695  -1.495
    1LIG   HC27   60  -1.207   0.822  -1.445
    1LIG    LP1   61  -1.196   0.294  -1.996
   0.00000   0.00000   0.00000
