; Created by cgenff_charmm2gmx.py

[ moleculetype ]
; Name			   nrexcl
LIG				 3

[ atoms ]
;	 nr		  type	resnr residue  atom   cgnr	   charge		mass  typeB    chargeB		massB
; residue	 1 LIG rtp LIG q	qsum
     1      CG311      1    LIG     C1      1     -0.145     12.011   ;
     2      CG321      1    LIG     C2      2      0.180     12.011   ;
     3      SG3O2      1    LIG      S      3      0.113     32.060   ;
     4      OG2P1      1    LIG     O1      4     -0.300     15.999   ;
     5      OG2P1      1    LIG     O2      5     -0.300     15.999   ;
     6      CG321      1    LIG     C3      6      0.224     12.011   ;
     7      CG314      1    LIG     C4      7     -0.043     12.011   ;
     8      CG311      1    LIG     C5      8      0.100     12.011   ;
     9      NG3P2      1    LIG      N      9     -0.444     14.007   ;
    10       HGP2      1    LIG     H1     10      0.346      1.008   ;
    11       HGP2      1    LIG     H2     11      0.346      1.008   ;
    12      CG324      1    LIG     C6     12      0.178     12.011   ;
    13     CG2R61      1    LIG     C7     13      0.036     12.011   ;
    14     CG2R61      1    LIG     C8     14     -0.124     12.011   ;
    15     CG2R61      1    LIG     C9     15      0.084     12.011   ;
    16     CG2R61      1    LIG    C10     16     -0.121     12.011   ;
    17     CG2R61      1    LIG    C11     17     -0.108     12.011   ;
    18     CG2R61      1    LIG    C12     18     -0.119     12.011   ;
    19      CG301      1    LIG    C13     19     -0.018     12.011   ;
    20      CG331      1    LIG    C14     20     -0.289     12.011   ;
    21      CG331      1    LIG    C15     21     -0.289     12.011   ;
    22      CG331      1    LIG    C16     22     -0.289     12.011   ;
    23      OG311      1    LIG     O3     23     -0.595     15.999   ;
    24       HGP1      1    LIG     H3     24      0.422      1.008   ;
    25      CG321      1    LIG    C17     25     -0.091     12.011   ;
    26     CG2R61      1    LIG    C18     26     -0.011     12.011   ;
    27     CG2R61      1    LIG    C19     27     -0.095     12.011   ;
    28     CG2R61      1    LIG    C20     28     -0.023     12.011   ;
    29      BRGR1      1    LIG     BR     29     -0.181     79.904   ;
    30     CG2R61      1    LIG    C21     30     -0.073     12.011   ;
    31     CG2R61      1    LIG    C22     31     -0.112     12.011   ;
    32     CG2R61      1    LIG    C23     32     -0.115     12.011   ;
    33       HGA1      1    LIG     HC     33      0.090      1.008   ;
    34       HGA2      1    LIG    HC2     34      0.090      1.008   ;
    35       HGA2      1    LIG    HC3     35      0.090      1.008   ;
    36       HGA2      1    LIG    HC4     36      0.090      1.008   ;
    37       HGA2      1    LIG    HC5     37      0.090      1.008   ;
    38       HGA1      1    LIG    HC1     38      0.109      1.008   ;
    39       HGA1      1    LIG    HC6     39      0.090      1.008   ;
    40       HGA2      1    LIG    HC7     40      0.090      1.008   ;
    41       HGA2      1    LIG    HC8     41      0.090      1.008   ;
    42      HGR61      1    LIG    HC9     42      0.116      1.008   ;
    43      HGR61      1    LIG   HC10     43      0.116      1.008   ;
    44      HGR61      1    LIG   HC11     44      0.116      1.008   ;
    45      HGR61      1    LIG   HC12     45      0.116      1.008   ;
    46       HGA3      1    LIG   HC13     46      0.090      1.008   ;
    47       HGA3      1    LIG   HC14     47      0.090      1.008   ;
    48       HGA3      1    LIG   HC15     48      0.090      1.008   ;
    49       HGA3      1    LIG   HC16     49      0.090      1.008   ;
    50       HGA3      1    LIG   HC17     50      0.090      1.008   ;
    51       HGA3      1    LIG   HC18     51      0.090      1.008   ;
    52       HGA3      1    LIG   HC19     52      0.090      1.008   ;
    53       HGA3      1    LIG   HC20     53      0.090      1.008   ;
    54       HGA3      1    LIG   HC21     54      0.090      1.008   ;
    55       HGA2      1    LIG   HC22     55      0.090      1.008   ;
    56       HGA2      1    LIG   HC23     56      0.090      1.008   ;
    57      HGR62      1    LIG   HC24     57      0.143      1.008   ;
    58      HGR62      1    LIG   HC25     58      0.148      1.008   ;
    59      HGR61      1    LIG   HC26     59      0.116      1.008   ;
    60      HGR61      1    LIG   HC27     60      0.116      1.008   ;
    61        LPH      1    LIG    LP1     61      0.050      0.000   ;

[ bonds ]
;	ai	  aj funct			  c0			c1			  c2			c3
    1    25	 1 ;       CG311      CG321
    1     2	 1 ;       CG311      CG321
    1     8	 1 ;       CG311      CG311
    1    33	 1 ;       CG311       HGA1
    2     3	 1 ;       CG321      SG3O2
    2    34	 1 ;       CG321       HGA2
    2    35	 1 ;       CG321       HGA2
    3     5	 1 ;       SG3O2      OG2P1
    3     4	 1 ;       SG3O2      OG2P1
    3     6	 1 ;       SG3O2      CG321
    6     7	 1 ;       CG321      CG314
    6    36	 1 ;       CG321       HGA2
    6    37	 1 ;       CG321       HGA2
    7     8	 1 ;       CG314      CG311
    7     9	 1 ;       CG314      NG3P2
    7    38	 1 ;       CG314       HGA1
    8    23	 1 ;       CG311      OG311
    8    39	 1 ;       CG311       HGA1
    9    11	 1 ;       NG3P2       HGP2
    9    12	 1 ;       NG3P2      CG324
    9    10	 1 ;       NG3P2       HGP2
   12    13	 1 ;       CG324     CG2R61
   12    40	 1 ;       CG324       HGA2
   12    41	 1 ;       CG324       HGA2
   13    14	 1 ;      CG2R61     CG2R61
   13    18	 1 ;      CG2R61     CG2R61
   14    15	 1 ;      CG2R61     CG2R61
   14    42	 1 ;      CG2R61      HGR61
   15    19	 1 ;      CG2R61      CG301
   15    16	 1 ;      CG2R61     CG2R61
   16    17	 1 ;      CG2R61     CG2R61
   16    43	 1 ;      CG2R61      HGR61
   17    18	 1 ;      CG2R61     CG2R61
   17    44	 1 ;      CG2R61      HGR61
   18    45	 1 ;      CG2R61      HGR61
   19    20	 1 ;       CG301      CG331
   19    21	 1 ;       CG301      CG331
   19    22	 1 ;       CG301      CG331
   20    46	 1 ;       CG331       HGA3
   20    47	 1 ;       CG331       HGA3
   20    48	 1 ;       CG331       HGA3
   21    49	 1 ;       CG331       HGA3
   21    50	 1 ;       CG331       HGA3
   21    51	 1 ;       CG331       HGA3
   22    52	 1 ;       CG331       HGA3
   22    53	 1 ;       CG331       HGA3
   22    54	 1 ;       CG331       HGA3
   23    24	 1 ;       OG311       HGP1
   25    26	 1 ;       CG321     CG2R61
   25    55	 1 ;       CG321       HGA2
   25    56	 1 ;       CG321       HGA2
   26    32	 1 ;      CG2R61     CG2R61
   26    27	 1 ;      CG2R61     CG2R61
   27    28	 1 ;      CG2R61     CG2R61
   27    57	 1 ;      CG2R61      HGR62
   28    30	 1 ;      CG2R61     CG2R61
   28    29	 1 ;      CG2R61      BRGR1
   30    31	 1 ;      CG2R61     CG2R61
   30    58	 1 ;      CG2R61      HGR62
   31    32	 1 ;      CG2R61     CG2R61
   31    59	 1 ;      CG2R61      HGR61
   32    60	 1 ;      CG2R61      HGR61

[ pairs ]
;	ai	  aj funct			  c0			c1			  c2			c3
    1     5	 1
    1     4	 1
    1     6	 1
    1     9	 1
    1    38	 1
    1    24	 1
    1    32	 1
    1    27	 1
    2    26	 1
    2    55	 1
    2    56	 1
    2    23	 1
    2     7	 1
    2    39	 1
    2    36	 1
    2    37	 1
    3    25	 1
    3     8	 1
    3    33	 1
    3     9	 1
    3    38	 1
    4    34	 1
    4    35	 1
    4     7	 1
    4    36	 1
    4    37	 1
    5    34	 1
    5    35	 1
    5     7	 1
    5    36	 1
    5    37	 1
    6    34	 1
    6    35	 1
    6    23	 1
    6    39	 1
    6    11	 1
    6    12	 1
    6    10	 1
    7    25	 1
    7    33	 1
    7    24	 1
    7    13	 1
    7    40	 1
    7    41	 1
    8    26	 1
    8    55	 1
    8    56	 1
    8    34	 1
    8    35	 1
    8    36	 1
    8    37	 1
    8    11	 1
    8    12	 1
    8    10	 1
    9    36	 1
    9    37	 1
    9    23	 1
    9    39	 1
    9    14	 1
    9    18	 1
   10    38	 1
   10    13	 1
   10    40	 1
   10    41	 1
   11    38	 1
   11    13	 1
   11    40	 1
   11    41	 1
   12    38	 1
   12    15	 1
   12    42	 1
   12    17	 1
   12    45	 1
   13    19	 1
   13    16	 1
   13    44	 1
   14    40	 1
   14    41	 1
   14    17	 1
   14    45	 1
   14    20	 1
   14    21	 1
   14    22	 1
   14    43	 1
   15    18	 1
   15    44	 1
   15    46	 1
   15    47	 1
   15    48	 1
   15    49	 1
   15    50	 1
   15    51	 1
   15    52	 1
   15    53	 1
   15    54	 1
   16    42	 1
   16    20	 1
   16    21	 1
   16    22	 1
   16    45	 1
   17    19	 1
   18    40	 1
   18    41	 1
   18    42	 1
   18    43	 1
   19    42	 1
   19    43	 1
   20    49	 1
   20    50	 1
   20    51	 1
   20    52	 1
   20    53	 1
   20    54	 1
   21    46	 1
   21    47	 1
   21    48	 1
   21    52	 1
   21    53	 1
   21    54	 1
   22    46	 1
   22    47	 1
   22    48	 1
   22    49	 1
   22    50	 1
   22    51	 1
   23    25	 1
   23    33	 1
   23    38	 1
   24    39	 1
   25    34	 1
   25    35	 1
   25    39	 1
   25    31	 1
   25    60	 1
   25    28	 1
   25    57	 1
   26    33	 1
   26    30	 1
   26    29	 1
   61    26	 1
   26    59	 1
   27    55	 1
   27    56	 1
   27    31	 1
   27    60	 1
   27    58	 1
   28    32	 1
   28    59	 1
   29    57	 1
   61    57	 1
   29    31	 1
   61    31	 1
   29    58	 1
   61    58	 1
   30    57	 1
   30    60	 1
   32    55	 1
   32    56	 1
   32    57	 1
   32    58	 1
   33    55	 1
   33    56	 1
   33    34	 1
   33    35	 1
   33    39	 1
   36    38	 1
   37    38	 1
   38    39	 1
   43    44	 1
   44    45	 1
   58    59	 1
   59    60	 1

[ angles ]
;	ai	  aj	ak funct			c0			  c1			c2			  c3
   25     1     2	5 ;      CG321      CG311      CG321
   25     1     8	5 ;      CG321      CG311      CG311
   25     1    33	5 ;      CG321      CG311       HGA1
    2     1     8	5 ;      CG321      CG311      CG311
    2     1    33	5 ;      CG321      CG311       HGA1
    8     1    33	5 ;      CG311      CG311       HGA1
    1     2     3	5 ;      CG311      CG321      SG3O2
    1     2    34	5 ;      CG311      CG321       HGA2
    1     2    35	5 ;      CG311      CG321       HGA2
    3     2    34	5 ;      SG3O2      CG321       HGA2
    3     2    35	5 ;      SG3O2      CG321       HGA2
   34     2    35	5 ;       HGA2      CG321       HGA2
    2     3     5	5 ;      CG321      SG3O2      OG2P1
    2     3     4	5 ;      CG321      SG3O2      OG2P1
    2     3     6	5 ;      CG321      SG3O2      CG321
    5     3     4	5 ;      OG2P1      SG3O2      OG2P1
    5     3     6	5 ;      OG2P1      SG3O2      CG321
    4     3     6	5 ;      OG2P1      SG3O2      CG321
    3     6     7	5 ;      SG3O2      CG321      CG314
    3     6    36	5 ;      SG3O2      CG321       HGA2
    3     6    37	5 ;      SG3O2      CG321       HGA2
    7     6    36	5 ;      CG314      CG321       HGA2
    7     6    37	5 ;      CG314      CG321       HGA2
   36     6    37	5 ;       HGA2      CG321       HGA2
    8     7     6	5 ;      CG311      CG314      CG321
    8     7     9	5 ;      CG311      CG314      NG3P2
    8     7    38	5 ;      CG311      CG314       HGA1
    6     7     9	5 ;      CG321      CG314      NG3P2
    6     7    38	5 ;      CG321      CG314       HGA1
    9     7    38	5 ;      NG3P2      CG314       HGA1
    1     8    23	5 ;      CG311      CG311      OG311
    1     8     7	5 ;      CG311      CG311      CG314
    1     8    39	5 ;      CG311      CG311       HGA1
   23     8     7	5 ;      OG311      CG311      CG314
   23     8    39	5 ;      OG311      CG311       HGA1
    7     8    39	5 ;      CG314      CG311       HGA1
   11     9     7	5 ;       HGP2      NG3P2      CG314
   11     9    12	5 ;       HGP2      NG3P2      CG324
   11     9    10	5 ;       HGP2      NG3P2       HGP2
    7     9    12	5 ;      CG314      NG3P2      CG324
    7     9    10	5 ;      CG314      NG3P2       HGP2
   12     9    10	5 ;      CG324      NG3P2       HGP2
   13    12     9	5 ;     CG2R61      CG324      NG3P2
   13    12    40	5 ;     CG2R61      CG324       HGA2
   13    12    41	5 ;     CG2R61      CG324       HGA2
    9    12    40	5 ;      NG3P2      CG324       HGA2
    9    12    41	5 ;      NG3P2      CG324       HGA2
   40    12    41	5 ;       HGA2      CG324       HGA2
   14    13    18	5 ;     CG2R61     CG2R61     CG2R61
   14    13    12	5 ;     CG2R61     CG2R61      CG324
   18    13    12	5 ;     CG2R61     CG2R61      CG324
   15    14    13	5 ;     CG2R61     CG2R61     CG2R61
   15    14    42	5 ;     CG2R61     CG2R61      HGR61
   13    14    42	5 ;     CG2R61     CG2R61      HGR61
   19    15    16	5 ;      CG301     CG2R61     CG2R61
   19    15    14	5 ;      CG301     CG2R61     CG2R61
   16    15    14	5 ;     CG2R61     CG2R61     CG2R61
   15    16    17	5 ;     CG2R61     CG2R61     CG2R61
   15    16    43	5 ;     CG2R61     CG2R61      HGR61
   17    16    43	5 ;     CG2R61     CG2R61      HGR61
   16    17    18	5 ;     CG2R61     CG2R61     CG2R61
   16    17    44	5 ;     CG2R61     CG2R61      HGR61
   18    17    44	5 ;     CG2R61     CG2R61      HGR61
   17    18    13	5 ;     CG2R61     CG2R61     CG2R61
   17    18    45	5 ;     CG2R61     CG2R61      HGR61
   13    18    45	5 ;     CG2R61     CG2R61      HGR61
   20    19    21	5 ;      CG331      CG301      CG331
   20    19    15	5 ;      CG331      CG301     CG2R61
   20    19    22	5 ;      CG331      CG301      CG331
   21    19    15	5 ;      CG331      CG301     CG2R61
   21    19    22	5 ;      CG331      CG301      CG331
   15    19    22	5 ;     CG2R61      CG301      CG331
   19    20    46	5 ;      CG301      CG331       HGA3
   19    20    47	5 ;      CG301      CG331       HGA3
   19    20    48	5 ;      CG301      CG331       HGA3
   46    20    47	5 ;       HGA3      CG331       HGA3
   46    20    48	5 ;       HGA3      CG331       HGA3
   47    20    48	5 ;       HGA3      CG331       HGA3
   19    21    49	5 ;      CG301      CG331       HGA3
   19    21    50	5 ;      CG301      CG331       HGA3
   19    21    51	5 ;      CG301      CG331       HGA3
   49    21    50	5 ;       HGA3      CG331       HGA3
   49    21    51	5 ;       HGA3      CG331       HGA3
   50    21    51	5 ;       HGA3      CG331       HGA3
   19    22    52	5 ;      CG301      CG331       HGA3
   19    22    53	5 ;      CG301      CG331       HGA3
   19    22    54	5 ;      CG301      CG331       HGA3
   52    22    53	5 ;       HGA3      CG331       HGA3
   52    22    54	5 ;       HGA3      CG331       HGA3
   53    22    54	5 ;       HGA3      CG331       HGA3
   24    23     8	5 ;       HGP1      OG311      CG311
   26    25     1	5 ;     CG2R61      CG321      CG311
   26    25    55	5 ;     CG2R61      CG321       HGA2
   26    25    56	5 ;     CG2R61      CG321       HGA2
    1    25    55	5 ;      CG311      CG321       HGA2
    1    25    56	5 ;      CG311      CG321       HGA2
   55    25    56	5 ;       HGA2      CG321       HGA2
   32    26    27	5 ;     CG2R61     CG2R61     CG2R61
   32    26    25	5 ;     CG2R61     CG2R61      CG321
   27    26    25	5 ;     CG2R61     CG2R61      CG321
   28    27    26	5 ;     CG2R61     CG2R61     CG2R61
   28    27    57	5 ;     CG2R61     CG2R61      HGR62
   26    27    57	5 ;     CG2R61     CG2R61      HGR62
   30    28    29	5 ;     CG2R61     CG2R61      BRGR1
   30    28    27	5 ;     CG2R61     CG2R61     CG2R61
   29    28    27	5 ;      BRGR1     CG2R61     CG2R61
   31    30    28	5 ;     CG2R61     CG2R61     CG2R61
   31    30    58	5 ;     CG2R61     CG2R61      HGR62
   28    30    58	5 ;     CG2R61     CG2R61      HGR62
   30    31    32	5 ;     CG2R61     CG2R61     CG2R61
   30    31    59	5 ;     CG2R61     CG2R61      HGR61
   32    31    59	5 ;     CG2R61     CG2R61      HGR61
   31    32    26	5 ;     CG2R61     CG2R61     CG2R61
   31    32    60	5 ;     CG2R61     CG2R61      HGR61
   26    32    60	5 ;     CG2R61     CG2R61      HGR61

[ dihedrals ]
;	ai	  aj	ak	  al funct			  c0			c1			  c2			c3			  c4			c5
    2     1    25    26	 9 ;      CG321      CG311      CG321     CG2R61
    2     1    25    55	 9 ;      CG321      CG311      CG321       HGA2
    2     1    25    56	 9 ;      CG321      CG311      CG321       HGA2
    8     1    25    26	 9 ;      CG311      CG311      CG321     CG2R61
    8     1    25    55	 9 ;      CG311      CG311      CG321       HGA2
    8     1    25    56	 9 ;      CG311      CG311      CG321       HGA2
   33     1    25    26	 9 ;       HGA1      CG311      CG321     CG2R61
   33     1    25    55	 9 ;       HGA1      CG311      CG321       HGA2
   33     1    25    56	 9 ;       HGA1      CG311      CG321       HGA2
   25     1     2     3	 9 ;      CG321      CG311      CG321      SG3O2
   25     1     2    34	 9 ;      CG321      CG311      CG321       HGA2
   25     1     2    35	 9 ;      CG321      CG311      CG321       HGA2
    8     1     2     3	 9 ;      CG311      CG311      CG321      SG3O2
    8     1     2    34	 9 ;      CG311      CG311      CG321       HGA2
    8     1     2    35	 9 ;      CG311      CG311      CG321       HGA2
   33     1     2     3	 9 ;       HGA1      CG311      CG321      SG3O2
   33     1     2    34	 9 ;       HGA1      CG311      CG321       HGA2
   33     1     2    35	 9 ;       HGA1      CG311      CG321       HGA2
   25     1     8    23	 9 ;      CG321      CG311      CG311      OG311
   25     1     8     7	 9 ;      CG321      CG311      CG311      CG314
   25     1     8    39	 9 ;      CG321      CG311      CG311       HGA1
    2     1     8    23	 9 ;      CG321      CG311      CG311      OG311
    2     1     8     7	 9 ;      CG321      CG311      CG311      CG314
    2     1     8    39	 9 ;      CG321      CG311      CG311       HGA1
   33     1     8    23	 9 ;       HGA1      CG311      CG311      OG311
   33     1     8     7	 9 ;       HGA1      CG311      CG311      CG314
   33     1     8    39	 9 ;       HGA1      CG311      CG311       HGA1
    1     2     3     5	 9 ;      CG311      CG321      SG3O2      OG2P1
    1     2     3     4	 9 ;      CG311      CG321      SG3O2      OG2P1
    1     2     3     6	 9 ;      CG311      CG321      SG3O2      CG321
   34     2     3     5	 9 ;       HGA2      CG321      SG3O2      OG2P1
   34     2     3     4	 9 ;       HGA2      CG321      SG3O2      OG2P1
   34     2     3     6	 9 ;       HGA2      CG321      SG3O2      CG321
   35     2     3     5	 9 ;       HGA2      CG321      SG3O2      OG2P1
   35     2     3     4	 9 ;       HGA2      CG321      SG3O2      OG2P1
   35     2     3     6	 9 ;       HGA2      CG321      SG3O2      CG321
    2     3     6     7	 9 ;      CG321      SG3O2      CG321      CG314
    2     3     6    36	 9 ;      CG321      SG3O2      CG321       HGA2
    2     3     6    37	 9 ;      CG321      SG3O2      CG321       HGA2
    5     3     6     7	 9 ;      OG2P1      SG3O2      CG321      CG314
    5     3     6    36	 9 ;      OG2P1      SG3O2      CG321       HGA2
    5     3     6    37	 9 ;      OG2P1      SG3O2      CG321       HGA2
    4     3     6     7	 9 ;      OG2P1      SG3O2      CG321      CG314
    4     3     6    36	 9 ;      OG2P1      SG3O2      CG321       HGA2
    4     3     6    37	 9 ;      OG2P1      SG3O2      CG321       HGA2
    3     6     7     8	 9 ;      SG3O2      CG321      CG314      CG311
    3     6     7     9	 9 ;      SG3O2      CG321      CG314      NG3P2
    3     6     7    38	 9 ;      SG3O2      CG321      CG314       HGA1
   36     6     7     8	 9 ;       HGA2      CG321      CG314      CG311
   36     6     7     9	 9 ;       HGA2      CG321      CG314      NG3P2
   36     6     7    38	 9 ;       HGA2      CG321      CG314       HGA1
   37     6     7     8	 9 ;       HGA2      CG321      CG314      CG311
   37     6     7     9	 9 ;       HGA2      CG321      CG314      NG3P2
   37     6     7    38	 9 ;       HGA2      CG321      CG314       HGA1
    6     7     8     1	 9 ;      CG321      CG314      CG311      CG311
    6     7     8    23	 9 ;      CG321      CG314      CG311      OG311
    6     7     8    39	 9 ;      CG321      CG314      CG311       HGA1
    9     7     8     1	 9 ;      NG3P2      CG314      CG311      CG311
    9     7     8    23	 9 ;      NG3P2      CG314      CG311      OG311
    9     7     8    39	 9 ;      NG3P2      CG314      CG311       HGA1
   38     7     8     1	 9 ;       HGA1      CG314      CG311      CG311
   38     7     8    23	 9 ;       HGA1      CG314      CG311      OG311
   38     7     8    39	 9 ;       HGA1      CG314      CG311       HGA1
    8     7     9    11	 9 ;      CG311      CG314      NG3P2       HGP2
    8     7     9    12	 9 ;      CG311      CG314      NG3P2      CG324
    8     7     9    10	 9 ;      CG311      CG314      NG3P2       HGP2
    6     7     9    11	 9 ;      CG321      CG314      NG3P2       HGP2
    6     7     9    12	 9 ;      CG321      CG314      NG3P2      CG324
    6     7     9    10	 9 ;      CG321      CG314      NG3P2       HGP2
   38     7     9    11	 9 ;       HGA1      CG314      NG3P2       HGP2
   38     7     9    12	 9 ;       HGA1      CG314      NG3P2      CG324
   38     7     9    10	 9 ;       HGA1      CG314      NG3P2       HGP2
    1     8    23    24	 9 ;      CG311      CG311      OG311       HGP1
    7     8    23    24	 9 ;      CG314      CG311      OG311       HGP1
   39     8    23    24	 9 ;       HGA1      CG311      OG311       HGP1
   11     9    12    13	 9 ;       HGP2      NG3P2      CG324     CG2R61
   11     9    12    40	 9 ;       HGP2      NG3P2      CG324       HGA2
   11     9    12    41	 9 ;       HGP2      NG3P2      CG324       HGA2
    7     9    12    13	 9 ;      CG314      NG3P2      CG324     CG2R61
    7     9    12    40	 9 ;      CG314      NG3P2      CG324       HGA2
    7     9    12    41	 9 ;      CG314      NG3P2      CG324       HGA2
   10     9    12    13	 9 ;       HGP2      NG3P2      CG324     CG2R61
   10     9    12    40	 9 ;       HGP2      NG3P2      CG324       HGA2
   10     9    12    41	 9 ;       HGP2      NG3P2      CG324       HGA2
    9    12    13    14	 9 ;      NG3P2      CG324     CG2R61     CG2R61
    9    12    13    18	 9 ;      NG3P2      CG324     CG2R61     CG2R61
   40    12    13    14	 9 ;       HGA2      CG324     CG2R61     CG2R61
   40    12    13    18	 9 ;       HGA2      CG324     CG2R61     CG2R61
   41    12    13    14	 9 ;       HGA2      CG324     CG2R61     CG2R61
   41    12    13    18	 9 ;       HGA2      CG324     CG2R61     CG2R61
   18    13    14    15	 9 ;     CG2R61     CG2R61     CG2R61     CG2R61
   18    13    14    42	 9 ;     CG2R61     CG2R61     CG2R61      HGR61
   12    13    14    15	 9 ;      CG324     CG2R61     CG2R61     CG2R61
   12    13    14    42	 9 ;      CG324     CG2R61     CG2R61      HGR61
   14    13    18    17	 9 ;     CG2R61     CG2R61     CG2R61     CG2R61
   14    13    18    45	 9 ;     CG2R61     CG2R61     CG2R61      HGR61
   12    13    18    17	 9 ;      CG324     CG2R61     CG2R61     CG2R61
   12    13    18    45	 9 ;      CG324     CG2R61     CG2R61      HGR61
   13    14    15    19	 9 ;     CG2R61     CG2R61     CG2R61      CG301
   13    14    15    16	 9 ;     CG2R61     CG2R61     CG2R61     CG2R61
   42    14    15    19	 9 ;      HGR61     CG2R61     CG2R61      CG301
   42    14    15    16	 9 ;      HGR61     CG2R61     CG2R61     CG2R61
   16    15    19    20	 9 ;     CG2R61     CG2R61      CG301      CG331
   16    15    19    21	 9 ;     CG2R61     CG2R61      CG301      CG331
   16    15    19    22	 9 ;     CG2R61     CG2R61      CG301      CG331
   14    15    19    20	 9 ;     CG2R61     CG2R61      CG301      CG331
   14    15    19    21	 9 ;     CG2R61     CG2R61      CG301      CG331
   14    15    19    22	 9 ;     CG2R61     CG2R61      CG301      CG331
   19    15    16    17	 9 ;      CG301     CG2R61     CG2R61     CG2R61
   19    15    16    43	 9 ;      CG301     CG2R61     CG2R61      HGR61
   14    15    16    17	 9 ;     CG2R61     CG2R61     CG2R61     CG2R61
   14    15    16    43	 9 ;     CG2R61     CG2R61     CG2R61      HGR61
   15    16    17    18	 9 ;     CG2R61     CG2R61     CG2R61     CG2R61
   15    16    17    44	 9 ;     CG2R61     CG2R61     CG2R61      HGR61
   43    16    17    18	 9 ;      HGR61     CG2R61     CG2R61     CG2R61
   43    16    17    44	 9 ;      HGR61     CG2R61     CG2R61      HGR61
   16    17    18    13	 9 ;     CG2R61     CG2R61     CG2R61     CG2R61
   16    17    18    45	 9 ;     CG2R61     CG2R61     CG2R61      HGR61
   44    17    18    13	 9 ;      HGR61     CG2R61     CG2R61     CG2R61
   44    17    18    45	 9 ;      HGR61     CG2R61     CG2R61      HGR61
   21    19    20    46	 9 ;      CG331      CG301      CG331       HGA3
   21    19    20    47	 9 ;      CG331      CG301      CG331       HGA3
   21    19    20    48	 9 ;      CG331      CG301      CG331       HGA3
   15    19    20    46	 9 ;     CG2R61      CG301      CG331       HGA3
   15    19    20    47	 9 ;     CG2R61      CG301      CG331       HGA3
   15    19    20    48	 9 ;     CG2R61      CG301      CG331       HGA3
   22    19    20    46	 9 ;      CG331      CG301      CG331       HGA3
   22    19    20    47	 9 ;      CG331      CG301      CG331       HGA3
   22    19    20    48	 9 ;      CG331      CG301      CG331       HGA3
   20    19    21    49	 9 ;      CG331      CG301      CG331       HGA3
   20    19    21    50	 9 ;      CG331      CG301      CG331       HGA3
   20    19    21    51	 9 ;      CG331      CG301      CG331       HGA3
   15    19    21    49	 9 ;     CG2R61      CG301      CG331       HGA3
   15    19    21    50	 9 ;     CG2R61      CG301      CG331       HGA3
   15    19    21    51	 9 ;     CG2R61      CG301      CG331       HGA3
   22    19    21    49	 9 ;      CG331      CG301      CG331       HGA3
   22    19    21    50	 9 ;      CG331      CG301      CG331       HGA3
   22    19    21    51	 9 ;      CG331      CG301      CG331       HGA3
   20    19    22    52	 9 ;      CG331      CG301      CG331       HGA3
   20    19    22    53	 9 ;      CG331      CG301      CG331       HGA3
   20    19    22    54	 9 ;      CG331      CG301      CG331       HGA3
   21    19    22    52	 9 ;      CG331      CG301      CG331       HGA3
   21    19    22    53	 9 ;      CG331      CG301      CG331       HGA3
   21    19    22    54	 9 ;      CG331      CG301      CG331       HGA3
   15    19    22    52	 9 ;     CG2R61      CG301      CG331       HGA3
   15    19    22    53	 9 ;     CG2R61      CG301      CG331       HGA3
   15    19    22    54	 9 ;     CG2R61      CG301      CG331       HGA3
    1    25    26    32	 9 ;      CG311      CG321     CG2R61     CG2R61
    1    25    26    27	 9 ;      CG311      CG321     CG2R61     CG2R61
   55    25    26    32	 9 ;       HGA2      CG321     CG2R61     CG2R61
   55    25    26    27	 9 ;       HGA2      CG321     CG2R61     CG2R61
   56    25    26    32	 9 ;       HGA2      CG321     CG2R61     CG2R61
   56    25    26    27	 9 ;       HGA2      CG321     CG2R61     CG2R61
   27    26    32    31	 9 ;     CG2R61     CG2R61     CG2R61     CG2R61
   27    26    32    60	 9 ;     CG2R61     CG2R61     CG2R61      HGR61
   25    26    32    31	 9 ;      CG321     CG2R61     CG2R61     CG2R61
   25    26    32    60	 9 ;      CG321     CG2R61     CG2R61      HGR61
   32    26    27    28	 9 ;     CG2R61     CG2R61     CG2R61     CG2R61
   32    26    27    57	 9 ;     CG2R61     CG2R61     CG2R61      HGR62
   25    26    27    28	 9 ;      CG321     CG2R61     CG2R61     CG2R61
   25    26    27    57	 9 ;      CG321     CG2R61     CG2R61      HGR62
   26    27    28    30	 9 ;     CG2R61     CG2R61     CG2R61     CG2R61
   26    27    28    29	 9 ;     CG2R61     CG2R61     CG2R61      BRGR1
   57    27    28    30	 9 ;      HGR62     CG2R61     CG2R61     CG2R61
   57    27    28    29	 9 ;      HGR62     CG2R61     CG2R61      BRGR1
   29    28    30    31	 9 ;      BRGR1     CG2R61     CG2R61     CG2R61
   29    28    30    58	 9 ;      BRGR1     CG2R61     CG2R61      HGR62
   27    28    30    31	 9 ;     CG2R61     CG2R61     CG2R61     CG2R61
   27    28    30    58	 9 ;     CG2R61     CG2R61     CG2R61      HGR62
   28    30    31    32	 9 ;     CG2R61     CG2R61     CG2R61     CG2R61
   28    30    31    59	 9 ;     CG2R61     CG2R61     CG2R61      HGR61
   58    30    31    32	 9 ;      HGR62     CG2R61     CG2R61     CG2R61
   58    30    31    59	 9 ;      HGR62     CG2R61     CG2R61      HGR61
   30    31    32    26	 9 ;     CG2R61     CG2R61     CG2R61     CG2R61
   30    31    32    60	 9 ;     CG2R61     CG2R61     CG2R61      HGR61
   59    31    32    26	 9 ;      HGR61     CG2R61     CG2R61     CG2R61
   59    31    32    60	 9 ;      HGR61     CG2R61     CG2R61      HGR61

[ virtual_sites2 ]
; Site   from				funct a
   61    29    28     2   -0.189

[ exclusions ]
;	ai	  aj
   29    61
   61    28
   61    30
   61    27
   61    26
   61    57
   61    31
   61    58

