S  C  A  M  O  R  G
   66
    1LIG     C1    1  -1.690   0.576  -1.716
    1LIG     C2    2  -1.584   0.672  -1.767
    1LIG     O1    3  -1.638   0.736  -1.884
    1LIG     H1    4  -1.582   0.708  -1.959
    1LIG     C3    5  -1.521   0.777  -1.670
    1LIG     C4    6  -1.374   0.798  -1.718
    1LIG     C5    7  -1.270   0.725  -1.639
    1LIG     C6    8  -1.304   0.649  -1.526
    1LIG     C7    9  -1.205   0.579  -1.456
    1LIG     F1   10  -1.240   0.508  -1.348
    1LIG     C8   11  -1.073   0.582  -1.496
    1LIG     C9   12  -1.039   0.655  -1.609
    1LIG    C10   13  -1.136   0.726  -1.681
    1LIG     F2   14  -0.912   0.658  -1.651
    1LIG     N1   15  -1.594   0.904  -1.668
    1LIG    C11   16  -1.690   0.928  -1.572
    1LIG     O2   17  -1.735   0.838  -1.502
    1LIG    C12   18  -1.735   1.071  -1.564
    1LIG     H2   19  -1.544   0.987  -1.700
    1LIG     N2   20  -1.612   0.477  -1.630
    1LIG     H3   21  -1.531   0.531  -1.595
    1LIG     H4   22  -1.667   0.451  -1.547
    1LIG    C13   23  -1.561   0.356  -1.696
    1LIG    C14   24  -1.631   0.316  -1.823
    1LIG    C15   25  -1.653   0.236  -1.699
    1LIG    C16   26  -1.414   0.332  -1.673
    1LIG    C17   27  -1.371   0.255  -1.565
    1LIG    C18   28  -1.238   0.216  -1.548
    1LIG    C19   29  -1.144   0.256  -1.645
    1LIG    C20   30  -1.183   0.336  -1.752
    1LIG    C21   31  -1.316   0.374  -1.766
    1LIG    C22   32  -1.202   0.124  -1.432
    1LIG     O3   33  -1.064   0.147  -1.394
    1LIG    C23   34  -1.001   0.022  -1.365
    1LIG    C24   35  -1.108  -0.085  -1.371
    1LIG    C25   36  -1.209  -0.025  -1.465
    1LIG    C26   37  -1.287   0.163  -1.310
    1LIG    HC2   38  -1.739   0.525  -1.799
    1LIG    HC3   39  -1.764   0.628  -1.655
    1LIG     HC   40  -1.501   0.610  -1.802
    1LIG    HC1   41  -1.519   0.735  -1.570
    1LIG    HC4   42  -1.352   0.904  -1.713
    1LIG    HC5   43  -1.367   0.766  -1.822
    1LIG    HC6   44  -1.407   0.646  -1.492
    1LIG    HC7   45  -0.998   0.528  -1.441
    1LIG    HC8   46  -1.108   0.782  -1.769
    1LIG    HC9   47  -1.811   1.081  -1.486
    1LIG   HC10   48  -1.777   1.101  -1.660
    1LIG   HC11   49  -1.650   1.135  -1.540
    1LIG   HC12   50  -1.574   0.274  -1.906
    1LIG   HC13   51  -1.714   0.381  -1.852
    1LIG   HC14   52  -1.749   0.240  -1.648
    1LIG   HC15   53  -1.603   0.139  -1.697
    1LIG   HC16   54  -1.444   0.225  -1.491
    1LIG   HC17   55  -1.041   0.225  -1.636
    1LIG   HC18   56  -1.110   0.369  -1.824
    1LIG   HC19   57  -1.346   0.436  -1.849
    1LIG   HC20   58  -0.957   0.024  -1.265
    1LIG   HC21   59  -0.924   0.001  -1.439
    1LIG   HC22   60  -1.068  -0.178  -1.411
    1LIG   HC23   61  -1.151  -0.102  -1.273
    1LIG   HC24   62  -1.309  -0.064  -1.445
    1LIG   HC25   63  -1.181  -0.042  -1.569
    1LIG   HC26   64  -1.243   0.121  -1.220
    1LIG   HC27   65  -1.388   0.124  -1.323
    1LIG   HC28   66  -1.291   0.272  -1.302
   0.00000   0.00000   0.00000
