; Created by cgenff_charmm2gmx.py

[ moleculetype ]
; Name			   nrexcl
LIG				 3

[ atoms ]
;	 nr		  type	resnr residue  atom   cgnr	   charge		mass  typeB    chargeB		massB
; residue	 1 LIG rtp LIG q	qsum
     1      CG324      1    LIG     C1      1      0.186     12.011   ;
     2      CG311      1    LIG     C2      2      0.093     12.011   ;
     3      OG311      1    LIG     O1      3     -0.625     15.999   ;
     4       HGP1      1    LIG     H1      4      0.415      1.008   ;
     5      CG311      1    LIG     C3      5     -0.007     12.011   ;
     6      CG321      1    LIG     C4      6     -0.153     12.011   ;
     7     CG2R61      1    LIG     C5      7      0.057     12.011   ;
     8     CG2R61      1    LIG     C6      8     -0.218     12.011   ;
     9     CG2R66      1    LIG     C7      9      0.261     12.011   ;
    10       FGR1      1    LIG     F1     10     -0.210     18.998   ;
    11     CG2R61      1    LIG     C8     11     -0.240     12.011   ;
    12     CG2R66      1    LIG     C9     12      0.261     12.011   ;
    13     CG2R61      1    LIG    C10     13     -0.218     12.011   ;
    14       FGR1      1    LIG     F2     14     -0.210     18.998   ;
    15      NG2S1      1    LIG     N1     15     -0.339     14.007   ;
    16      CG2O1      1    LIG    C11     16      0.488     12.011   ;
    17      OG2D1      1    LIG     O2     17     -0.509     15.999   ;
    18      CG331      1    LIG    C12     18     -0.270     12.011   ;
    19       HGP1      1    LIG     H2     19      0.261      1.008   ;
    20      NG3P2      1    LIG     N2     20     -0.483     14.007   ;
    21       HGP2      1    LIG     H3     21      0.343      1.008   ;
    22       HGP2      1    LIG     H4     22      0.343      1.008   ;
    23     CG3C31      1    LIG    C13     23      0.393     12.011   ;
    24     CG3C31      1    LIG    C14     24     -0.149     12.011   ;
    25     CG3C31      1    LIG    C15     25     -0.149     12.011   ;
    26     CG2R61      1    LIG    C16     26     -0.092     12.011   ;
    27     CG2R61      1    LIG    C17     27     -0.096     12.011   ;
    28     CG2R61      1    LIG    C18     28      0.164     12.011   ;
    29     CG2R61      1    LIG    C19     29     -0.135     12.011   ;
    30     CG2R61      1    LIG    C20     30     -0.105     12.011   ;
    31     CG2R61      1    LIG    C21     31     -0.077     12.011   ;
    32     CG3C50      1    LIG    C22     32      0.303     12.011   ;
    33     OG3C51      1    LIG     O3     33     -0.459     15.999   ;
    34     CG3C52      1    LIG    C23     34     -0.089     12.011   ;
    35     CG3C52      1    LIG    C24     35     -0.181     12.011   ;
    36     CG3C52      1    LIG    C25     36     -0.215     12.011   ;
    37      CG331      1    LIG    C26     37     -0.317     12.011   ;
    38       HGA2      1    LIG    HC2     38      0.090      1.008   ;
    39       HGA2      1    LIG    HC3     39      0.090      1.008   ;
    40       HGA1      1    LIG     HC     40      0.090      1.008   ;
    41       HGA1      1    LIG    HC1     41      0.090      1.008   ;
    42       HGA2      1    LIG    HC4     42      0.090      1.008   ;
    43       HGA2      1    LIG    HC5     43      0.090      1.008   ;
    44      HGR62      1    LIG    HC6     44      0.174      1.008   ;
    45      HGR62      1    LIG    HC7     45      0.186      1.008   ;
    46      HGR62      1    LIG    HC8     46      0.174      1.008   ;
    47       HGA3      1    LIG    HC9     47      0.090      1.008   ;
    48       HGA3      1    LIG   HC10     48      0.090      1.008   ;
    49       HGA3      1    LIG   HC11     49      0.090      1.008   ;
    50       HGA2      1    LIG   HC12     50      0.090      1.008   ;
    51       HGA2      1    LIG   HC13     51      0.090      1.008   ;
    52       HGA2      1    LIG   HC14     52      0.090      1.008   ;
    53       HGA2      1    LIG   HC15     53      0.090      1.008   ;
    54      HGR61      1    LIG   HC16     54      0.116      1.008   ;
    55      HGR61      1    LIG   HC17     55      0.116      1.008   ;
    56      HGR61      1    LIG   HC18     56      0.116      1.008   ;
    57      HGR61      1    LIG   HC19     57      0.116      1.008   ;
    58       HGA2      1    LIG   HC20     58      0.090      1.008   ;
    59       HGA2      1    LIG   HC21     59      0.090      1.008   ;
    60       HGA2      1    LIG   HC22     60      0.090      1.008   ;
    61       HGA2      1    LIG   HC23     61      0.090      1.008   ;
    62       HGA2      1    LIG   HC24     62      0.090      1.008   ;
    63       HGA2      1    LIG   HC25     63      0.090      1.008   ;
    64       HGA3      1    LIG   HC26     64      0.090      1.008   ;
    65       HGA3      1    LIG   HC27     65      0.090      1.008   ;
    66       HGA3      1    LIG   HC28     66      0.090      1.008   ;

[ bonds ]
;	ai	  aj funct			  c0			c1			  c2			c3
    1     2	 1 ;       CG324      CG311
    1    20	 1 ;       CG324      NG3P2
    1    38	 1 ;       CG324       HGA2
    1    39	 1 ;       CG324       HGA2
    2     3	 1 ;       CG311      OG311
    2     5	 1 ;       CG311      CG311
    2    40	 1 ;       CG311       HGA1
    3     4	 1 ;       OG311       HGP1
    5     6	 1 ;       CG311      CG321
    5    15	 1 ;       CG311      NG2S1
    5    41	 1 ;       CG311       HGA1
    6     7	 1 ;       CG321     CG2R61
    6    42	 1 ;       CG321       HGA2
    6    43	 1 ;       CG321       HGA2
    7    13	 1 ;      CG2R61     CG2R61
    7     8	 1 ;      CG2R61     CG2R61
    8     9	 1 ;      CG2R61     CG2R66
    8    44	 1 ;      CG2R61      HGR62
    9    11	 1 ;      CG2R66     CG2R61
    9    10	 1 ;      CG2R66       FGR1
   11    12	 1 ;      CG2R61     CG2R66
   11    45	 1 ;      CG2R61      HGR62
   12    14	 1 ;      CG2R66       FGR1
   12    13	 1 ;      CG2R66     CG2R61
   13    46	 1 ;      CG2R61      HGR62
   15    19	 1 ;       NG2S1       HGP1
   15    16	 1 ;       NG2S1      CG2O1
   16    18	 1 ;       CG2O1      CG331
   16    17	 1 ;       CG2O1      OG2D1
   18    47	 1 ;       CG331       HGA3
   18    48	 1 ;       CG331       HGA3
   18    49	 1 ;       CG331       HGA3
   20    21	 1 ;       NG3P2       HGP2
   20    23	 1 ;       NG3P2     CG3C31
   20    22	 1 ;       NG3P2       HGP2
   23    26	 1 ;      CG3C31     CG2R61
   23    24	 1 ;      CG3C31     CG3C31
   23    25	 1 ;      CG3C31     CG3C31
   24    25	 1 ;      CG3C31     CG3C31
   24    50	 1 ;      CG3C31       HGA2
   24    51	 1 ;      CG3C31       HGA2
   25    52	 1 ;      CG3C31       HGA2
   25    53	 1 ;      CG3C31       HGA2
   26    31	 1 ;      CG2R61     CG2R61
   26    27	 1 ;      CG2R61     CG2R61
   27    28	 1 ;      CG2R61     CG2R61
   27    54	 1 ;      CG2R61      HGR61
   28    29	 1 ;      CG2R61     CG2R61
   28    32	 1 ;      CG2R61     CG3C50
   29    30	 1 ;      CG2R61     CG2R61
   29    55	 1 ;      CG2R61      HGR61
   30    31	 1 ;      CG2R61     CG2R61
   30    56	 1 ;      CG2R61      HGR61
   31    57	 1 ;      CG2R61      HGR61
   32    33	 1 ;      CG3C50     OG3C51
   32    36	 1 ;      CG3C50     CG3C52
   32    37	 1 ;      CG3C50      CG331
   33    34	 1 ;      OG3C51     CG3C52
   34    35	 1 ;      CG3C52     CG3C52
   34    58	 1 ;      CG3C52       HGA2
   34    59	 1 ;      CG3C52       HGA2
   35    36	 1 ;      CG3C52     CG3C52
   35    60	 1 ;      CG3C52       HGA2
   35    61	 1 ;      CG3C52       HGA2
   36    62	 1 ;      CG3C52       HGA2
   36    63	 1 ;      CG3C52       HGA2
   37    64	 1 ;       CG331       HGA3
   37    65	 1 ;       CG331       HGA3
   37    66	 1 ;       CG331       HGA3

[ pairs ]
;	ai	  aj funct			  c0			c1			  c2			c3
    1     4	 1
    1     6	 1
    1    15	 1
    1    41	 1
    1    26	 1
    1    24	 1
    1    25	 1
    2    21	 1
    2    23	 1
    2    22	 1
    2     7	 1
    2    42	 1
    2    43	 1
    2    19	 1
    2    16	 1
    3    20	 1
    3    38	 1
    3    39	 1
    3     6	 1
    3    15	 1
    3    41	 1
    4     5	 1
    4    40	 1
    5    20	 1
    5    38	 1
    5    39	 1
    5    13	 1
    5     8	 1
    5    18	 1
    5    17	 1
    6    40	 1
    6    19	 1
    6    16	 1
    6    12	 1
    6    46	 1
    6     9	 1
    6    44	 1
    7    15	 1
    7    41	 1
    7    11	 1
    7    10	 1
    7    14	 1
    8    42	 1
    8    43	 1
    8    12	 1
    8    46	 1
    8    45	 1
    9    13	 1
    9    14	 1
   10    44	 1
   10    12	 1
   10    45	 1
   11    44	 1
   11    46	 1
   13    42	 1
   13    43	 1
   13    44	 1
   13    45	 1
   14    45	 1
   14    46	 1
   15    40	 1
   15    42	 1
   15    43	 1
   15    47	 1
   15    48	 1
   15    49	 1
   16    41	 1
   17    19	 1
   17    47	 1
   17    48	 1
   17    49	 1
   18    19	 1
   19    41	 1
   20    40	 1
   20    31	 1
   20    27	 1
   20    50	 1
   20    51	 1
   20    52	 1
   20    53	 1
   21    38	 1
   21    39	 1
   21    26	 1
   21    24	 1
   21    25	 1
   22    38	 1
   22    39	 1
   22    26	 1
   22    24	 1
   22    25	 1
   23    38	 1
   23    39	 1
   23    30	 1
   23    57	 1
   23    28	 1
   23    54	 1
   24    31	 1
   24    27	 1
   25    31	 1
   25    27	 1
   26    50	 1
   26    51	 1
   26    52	 1
   26    53	 1
   26    29	 1
   26    32	 1
   26    56	 1
   27    30	 1
   27    57	 1
   27    55	 1
   27    33	 1
   27    36	 1
   27    37	 1
   28    31	 1
   28    56	 1
   28    34	 1
   28    35	 1
   28    62	 1
   28    63	 1
   28    64	 1
   28    65	 1
   28    66	 1
   29    54	 1
   29    33	 1
   29    36	 1
   29    37	 1
   29    57	 1
   30    32	 1
   31    54	 1
   31    55	 1
   32    54	 1
   32    55	 1
   32    58	 1
   32    59	 1
   32    60	 1
   32    61	 1
   33    62	 1
   33    63	 1
   33    64	 1
   33    65	 1
   33    66	 1
   33    60	 1
   33    61	 1
   34    37	 1
   34    62	 1
   34    63	 1
   35    37	 1
   36    64	 1
   36    65	 1
   36    66	 1
   36    58	 1
   36    59	 1
   37    62	 1
   37    63	 1
   38    40	 1
   39    40	 1
   40    41	 1
   41    42	 1
   41    43	 1
   50    52	 1
   50    53	 1
   51    52	 1
   51    53	 1
   55    56	 1
   56    57	 1
   58    60	 1
   58    61	 1
   59    60	 1
   59    61	 1
   60    62	 1
   60    63	 1
   61    62	 1
   61    63	 1

[ angles ]
;	ai	  aj	ak funct			c0			  c1			c2			  c3
    2     1    20	5 ;      CG311      CG324      NG3P2
    2     1    38	5 ;      CG311      CG324       HGA2
    2     1    39	5 ;      CG311      CG324       HGA2
   20     1    38	5 ;      NG3P2      CG324       HGA2
   20     1    39	5 ;      NG3P2      CG324       HGA2
   38     1    39	5 ;       HGA2      CG324       HGA2
    3     2     5	5 ;      OG311      CG311      CG311
    3     2     1	5 ;      OG311      CG311      CG324
    3     2    40	5 ;      OG311      CG311       HGA1
    5     2     1	5 ;      CG311      CG311      CG324
    5     2    40	5 ;      CG311      CG311       HGA1
    1     2    40	5 ;      CG324      CG311       HGA1
    4     3     2	5 ;       HGP1      OG311      CG311
    6     5     2	5 ;      CG321      CG311      CG311
    6     5    15	5 ;      CG321      CG311      NG2S1
    6     5    41	5 ;      CG321      CG311       HGA1
    2     5    15	5 ;      CG311      CG311      NG2S1
    2     5    41	5 ;      CG311      CG311       HGA1
   15     5    41	5 ;      NG2S1      CG311       HGA1
    7     6     5	5 ;     CG2R61      CG321      CG311
    7     6    42	5 ;     CG2R61      CG321       HGA2
    7     6    43	5 ;     CG2R61      CG321       HGA2
    5     6    42	5 ;      CG311      CG321       HGA2
    5     6    43	5 ;      CG311      CG321       HGA2
   42     6    43	5 ;       HGA2      CG321       HGA2
   13     7     6	5 ;     CG2R61     CG2R61      CG321
   13     7     8	5 ;     CG2R61     CG2R61     CG2R61
    6     7     8	5 ;      CG321     CG2R61     CG2R61
    7     8     9	5 ;     CG2R61     CG2R61     CG2R66
    7     8    44	5 ;     CG2R61     CG2R61      HGR62
    9     8    44	5 ;     CG2R66     CG2R61      HGR62
   11     9     8	5 ;     CG2R61     CG2R66     CG2R61
   11     9    10	5 ;     CG2R61     CG2R66       FGR1
    8     9    10	5 ;     CG2R61     CG2R66       FGR1
   12    11     9	5 ;     CG2R66     CG2R61     CG2R66
   12    11    45	5 ;     CG2R66     CG2R61      HGR62
    9    11    45	5 ;     CG2R66     CG2R61      HGR62
   14    12    13	5 ;       FGR1     CG2R66     CG2R61
   14    12    11	5 ;       FGR1     CG2R66     CG2R61
   13    12    11	5 ;     CG2R61     CG2R66     CG2R61
   12    13     7	5 ;     CG2R66     CG2R61     CG2R61
   12    13    46	5 ;     CG2R66     CG2R61      HGR62
    7    13    46	5 ;     CG2R61     CG2R61      HGR62
   19    15     5	5 ;       HGP1      NG2S1      CG311
   19    15    16	5 ;       HGP1      NG2S1      CG2O1
    5    15    16	5 ;      CG311      NG2S1      CG2O1
   15    16    18	5 ;      NG2S1      CG2O1      CG331
   15    16    17	5 ;      NG2S1      CG2O1      OG2D1
   18    16    17	5 ;      CG331      CG2O1      OG2D1
   16    18    47	5 ;      CG2O1      CG331       HGA3
   16    18    48	5 ;      CG2O1      CG331       HGA3
   16    18    49	5 ;      CG2O1      CG331       HGA3
   47    18    48	5 ;       HGA3      CG331       HGA3
   47    18    49	5 ;       HGA3      CG331       HGA3
   48    18    49	5 ;       HGA3      CG331       HGA3
   21    20    23	5 ;       HGP2      NG3P2     CG3C31
   21    20     1	5 ;       HGP2      NG3P2      CG324
   21    20    22	5 ;       HGP2      NG3P2       HGP2
   23    20     1	5 ;     CG3C31      NG3P2      CG324
   23    20    22	5 ;     CG3C31      NG3P2       HGP2
    1    20    22	5 ;      CG324      NG3P2       HGP2
   26    23    24	5 ;     CG2R61     CG3C31     CG3C31
   26    23    20	5 ;     CG2R61     CG3C31      NG3P2
   26    23    25	5 ;     CG2R61     CG3C31     CG3C31
   24    23    20	5 ;     CG3C31     CG3C31      NG3P2
   24    23    25	5 ;     CG3C31     CG3C31     CG3C31
   20    23    25	5 ;      NG3P2     CG3C31     CG3C31
   23    24    25	5 ;     CG3C31     CG3C31     CG3C31
   23    24    50	5 ;     CG3C31     CG3C31       HGA2
   23    24    51	5 ;     CG3C31     CG3C31       HGA2
   25    24    50	5 ;     CG3C31     CG3C31       HGA2
   25    24    51	5 ;     CG3C31     CG3C31       HGA2
   50    24    51	5 ;       HGA2     CG3C31       HGA2
   24    25    23	5 ;     CG3C31     CG3C31     CG3C31
   24    25    52	5 ;     CG3C31     CG3C31       HGA2
   24    25    53	5 ;     CG3C31     CG3C31       HGA2
   23    25    52	5 ;     CG3C31     CG3C31       HGA2
   23    25    53	5 ;     CG3C31     CG3C31       HGA2
   52    25    53	5 ;       HGA2     CG3C31       HGA2
   31    26    27	5 ;     CG2R61     CG2R61     CG2R61
   31    26    23	5 ;     CG2R61     CG2R61     CG3C31
   27    26    23	5 ;     CG2R61     CG2R61     CG3C31
   28    27    26	5 ;     CG2R61     CG2R61     CG2R61
   28    27    54	5 ;     CG2R61     CG2R61      HGR61
   26    27    54	5 ;     CG2R61     CG2R61      HGR61
   29    28    32	5 ;     CG2R61     CG2R61     CG3C50
   29    28    27	5 ;     CG2R61     CG2R61     CG2R61
   32    28    27	5 ;     CG3C50     CG2R61     CG2R61
   30    29    28	5 ;     CG2R61     CG2R61     CG2R61
   30    29    55	5 ;     CG2R61     CG2R61      HGR61
   28    29    55	5 ;     CG2R61     CG2R61      HGR61
   29    30    31	5 ;     CG2R61     CG2R61     CG2R61
   29    30    56	5 ;     CG2R61     CG2R61      HGR61
   31    30    56	5 ;     CG2R61     CG2R61      HGR61
   30    31    26	5 ;     CG2R61     CG2R61     CG2R61
   30    31    57	5 ;     CG2R61     CG2R61      HGR61
   26    31    57	5 ;     CG2R61     CG2R61      HGR61
   33    32    28	5 ;     OG3C51     CG3C50     CG2R61
   33    32    36	5 ;     OG3C51     CG3C50     CG3C52
   33    32    37	5 ;     OG3C51     CG3C50      CG331
   28    32    36	5 ;     CG2R61     CG3C50     CG3C52
   28    32    37	5 ;     CG2R61     CG3C50      CG331
   36    32    37	5 ;     CG3C52     CG3C50      CG331
   34    33    32	5 ;     CG3C52     OG3C51     CG3C50
   33    34    35	5 ;     OG3C51     CG3C52     CG3C52
   33    34    58	5 ;     OG3C51     CG3C52       HGA2
   33    34    59	5 ;     OG3C51     CG3C52       HGA2
   35    34    58	5 ;     CG3C52     CG3C52       HGA2
   35    34    59	5 ;     CG3C52     CG3C52       HGA2
   58    34    59	5 ;       HGA2     CG3C52       HGA2
   34    35    36	5 ;     CG3C52     CG3C52     CG3C52
   34    35    60	5 ;     CG3C52     CG3C52       HGA2
   34    35    61	5 ;     CG3C52     CG3C52       HGA2
   36    35    60	5 ;     CG3C52     CG3C52       HGA2
   36    35    61	5 ;     CG3C52     CG3C52       HGA2
   60    35    61	5 ;       HGA2     CG3C52       HGA2
   32    36    35	5 ;     CG3C50     CG3C52     CG3C52
   32    36    62	5 ;     CG3C50     CG3C52       HGA2
   32    36    63	5 ;     CG3C50     CG3C52       HGA2
   35    36    62	5 ;     CG3C52     CG3C52       HGA2
   35    36    63	5 ;     CG3C52     CG3C52       HGA2
   62    36    63	5 ;       HGA2     CG3C52       HGA2
   32    37    64	5 ;     CG3C50      CG331       HGA3
   32    37    65	5 ;     CG3C50      CG331       HGA3
   32    37    66	5 ;     CG3C50      CG331       HGA3
   64    37    65	5 ;       HGA3      CG331       HGA3
   64    37    66	5 ;       HGA3      CG331       HGA3
   65    37    66	5 ;       HGA3      CG331       HGA3

[ dihedrals ]
;	ai	  aj	ak	  al funct			  c0			c1			  c2			c3			  c4			c5
   20     1     2     3	 9 ;      NG3P2      CG324      CG311      OG311
   20     1     2     5	 9 ;      NG3P2      CG324      CG311      CG311
   20     1     2    40	 9 ;      NG3P2      CG324      CG311       HGA1
   38     1     2     3	 9 ;       HGA2      CG324      CG311      OG311
   38     1     2     5	 9 ;       HGA2      CG324      CG311      CG311
   38     1     2    40	 9 ;       HGA2      CG324      CG311       HGA1
   39     1     2     3	 9 ;       HGA2      CG324      CG311      OG311
   39     1     2     5	 9 ;       HGA2      CG324      CG311      CG311
   39     1     2    40	 9 ;       HGA2      CG324      CG311       HGA1
    2     1    20    21	 9 ;      CG311      CG324      NG3P2       HGP2
    2     1    20    23	 9 ;      CG311      CG324      NG3P2     CG3C31
    2     1    20    22	 9 ;      CG311      CG324      NG3P2       HGP2
   38     1    20    21	 9 ;       HGA2      CG324      NG3P2       HGP2
   38     1    20    23	 9 ;       HGA2      CG324      NG3P2     CG3C31
   38     1    20    22	 9 ;       HGA2      CG324      NG3P2       HGP2
   39     1    20    21	 9 ;       HGA2      CG324      NG3P2       HGP2
   39     1    20    23	 9 ;       HGA2      CG324      NG3P2     CG3C31
   39     1    20    22	 9 ;       HGA2      CG324      NG3P2       HGP2
    5     2     3     4	 9 ;      CG311      CG311      OG311       HGP1
    1     2     3     4	 9 ;      CG324      CG311      OG311       HGP1
   40     2     3     4	 9 ;       HGA1      CG311      OG311       HGP1
    3     2     5     6	 9 ;      OG311      CG311      CG311      CG321
    3     2     5    15	 9 ;      OG311      CG311      CG311      NG2S1
    3     2     5    41	 9 ;      OG311      CG311      CG311       HGA1
    1     2     5     6	 9 ;      CG324      CG311      CG311      CG321
    1     2     5    15	 9 ;      CG324      CG311      CG311      NG2S1
    1     2     5    41	 9 ;      CG324      CG311      CG311       HGA1
   40     2     5     6	 9 ;       HGA1      CG311      CG311      CG321
   40     2     5    15	 9 ;       HGA1      CG311      CG311      NG2S1
   40     2     5    41	 9 ;       HGA1      CG311      CG311       HGA1
    2     5     6     7	 9 ;      CG311      CG311      CG321     CG2R61
    2     5     6    42	 9 ;      CG311      CG311      CG321       HGA2
    2     5     6    43	 9 ;      CG311      CG311      CG321       HGA2
   15     5     6     7	 9 ;      NG2S1      CG311      CG321     CG2R61
   15     5     6    42	 9 ;      NG2S1      CG311      CG321       HGA2
   15     5     6    43	 9 ;      NG2S1      CG311      CG321       HGA2
   41     5     6     7	 9 ;       HGA1      CG311      CG321     CG2R61
   41     5     6    42	 9 ;       HGA1      CG311      CG321       HGA2
   41     5     6    43	 9 ;       HGA1      CG311      CG321       HGA2
    6     5    15    19	 9 ;      CG321      CG311      NG2S1       HGP1
    6     5    15    16	 9 ;      CG321      CG311      NG2S1      CG2O1
    2     5    15    19	 9 ;      CG311      CG311      NG2S1       HGP1
    2     5    15    16	 9 ;      CG311      CG311      NG2S1      CG2O1
   41     5    15    19	 9 ;       HGA1      CG311      NG2S1       HGP1
   41     5    15    16	 9 ;       HGA1      CG311      NG2S1      CG2O1
    5     6     7    13	 9 ;      CG311      CG321     CG2R61     CG2R61
    5     6     7     8	 9 ;      CG311      CG321     CG2R61     CG2R61
   42     6     7    13	 9 ;       HGA2      CG321     CG2R61     CG2R61
   42     6     7     8	 9 ;       HGA2      CG321     CG2R61     CG2R61
   43     6     7    13	 9 ;       HGA2      CG321     CG2R61     CG2R61
   43     6     7     8	 9 ;       HGA2      CG321     CG2R61     CG2R61
    6     7    13    12	 9 ;      CG321     CG2R61     CG2R61     CG2R66
    6     7    13    46	 9 ;      CG321     CG2R61     CG2R61      HGR62
    8     7    13    12	 9 ;     CG2R61     CG2R61     CG2R61     CG2R66
    8     7    13    46	 9 ;     CG2R61     CG2R61     CG2R61      HGR62
   13     7     8     9	 9 ;     CG2R61     CG2R61     CG2R61     CG2R66
   13     7     8    44	 9 ;     CG2R61     CG2R61     CG2R61      HGR62
    6     7     8     9	 9 ;      CG321     CG2R61     CG2R61     CG2R66
    6     7     8    44	 9 ;      CG321     CG2R61     CG2R61      HGR62
    7     8     9    11	 9 ;     CG2R61     CG2R61     CG2R66     CG2R61
    7     8     9    10	 9 ;     CG2R61     CG2R61     CG2R66       FGR1
   44     8     9    11	 9 ;      HGR62     CG2R61     CG2R66     CG2R61
   44     8     9    10	 9 ;      HGR62     CG2R61     CG2R66       FGR1
    8     9    11    12	 9 ;     CG2R61     CG2R66     CG2R61     CG2R66
    8     9    11    45	 9 ;     CG2R61     CG2R66     CG2R61      HGR62
   10     9    11    12	 9 ;       FGR1     CG2R66     CG2R61     CG2R66
   10     9    11    45	 9 ;       FGR1     CG2R66     CG2R61      HGR62
    9    11    12    14	 9 ;     CG2R66     CG2R61     CG2R66       FGR1
    9    11    12    13	 9 ;     CG2R66     CG2R61     CG2R66     CG2R61
   45    11    12    14	 9 ;      HGR62     CG2R61     CG2R66       FGR1
   45    11    12    13	 9 ;      HGR62     CG2R61     CG2R66     CG2R61
   14    12    13     7	 9 ;       FGR1     CG2R66     CG2R61     CG2R61
   14    12    13    46	 9 ;       FGR1     CG2R66     CG2R61      HGR62
   11    12    13     7	 9 ;     CG2R61     CG2R66     CG2R61     CG2R61
   11    12    13    46	 9 ;     CG2R61     CG2R66     CG2R61      HGR62
   19    15    16    18	 9 ;       HGP1      NG2S1      CG2O1      CG331
   19    15    16    17	 9 ;       HGP1      NG2S1      CG2O1      OG2D1
    5    15    16    18	 9 ;      CG311      NG2S1      CG2O1      CG331
    5    15    16    17	 9 ;      CG311      NG2S1      CG2O1      OG2D1
   15    16    18    47	 9 ;      NG2S1      CG2O1      CG331       HGA3
   15    16    18    48	 9 ;      NG2S1      CG2O1      CG331       HGA3
   15    16    18    49	 9 ;      NG2S1      CG2O1      CG331       HGA3
   17    16    18    47	 9 ;      OG2D1      CG2O1      CG331       HGA3
   17    16    18    48	 9 ;      OG2D1      CG2O1      CG331       HGA3
   17    16    18    49	 9 ;      OG2D1      CG2O1      CG331       HGA3
   21    20    23    26	 9 ;       HGP2      NG3P2     CG3C31     CG2R61
   21    20    23    24	 9 ;       HGP2      NG3P2     CG3C31     CG3C31
   21    20    23    25	 9 ;       HGP2      NG3P2     CG3C31     CG3C31
    1    20    23    26	 9 ;      CG324      NG3P2     CG3C31     CG2R61
    1    20    23    24	 9 ;      CG324      NG3P2     CG3C31     CG3C31
    1    20    23    25	 9 ;      CG324      NG3P2     CG3C31     CG3C31
   22    20    23    26	 9 ;       HGP2      NG3P2     CG3C31     CG2R61
   22    20    23    24	 9 ;       HGP2      NG3P2     CG3C31     CG3C31
   22    20    23    25	 9 ;       HGP2      NG3P2     CG3C31     CG3C31
   24    23    26    31	 9 ;     CG3C31     CG3C31     CG2R61     CG2R61
   24    23    26    27	 9 ;     CG3C31     CG3C31     CG2R61     CG2R61
   20    23    26    31	 9 ;      NG3P2     CG3C31     CG2R61     CG2R61
   20    23    26    27	 9 ;      NG3P2     CG3C31     CG2R61     CG2R61
   25    23    26    31	 9 ;     CG3C31     CG3C31     CG2R61     CG2R61
   25    23    26    27	 9 ;     CG3C31     CG3C31     CG2R61     CG2R61
   26    23    24    25	 9 ;     CG2R61     CG3C31     CG3C31     CG3C31
   26    23    24    50	 9 ;     CG2R61     CG3C31     CG3C31       HGA2
   26    23    24    51	 9 ;     CG2R61     CG3C31     CG3C31       HGA2
   20    23    24    25	 9 ;      NG3P2     CG3C31     CG3C31     CG3C31
   20    23    24    50	 9 ;      NG3P2     CG3C31     CG3C31       HGA2
   20    23    24    51	 9 ;      NG3P2     CG3C31     CG3C31       HGA2
   25    23    24    50	 9 ;     CG3C31     CG3C31     CG3C31       HGA2
   25    23    24    51	 9 ;     CG3C31     CG3C31     CG3C31       HGA2
   26    23    25    24	 9 ;     CG2R61     CG3C31     CG3C31     CG3C31
   26    23    25    52	 9 ;     CG2R61     CG3C31     CG3C31       HGA2
   26    23    25    53	 9 ;     CG2R61     CG3C31     CG3C31       HGA2
   24    23    25    52	 9 ;     CG3C31     CG3C31     CG3C31       HGA2
   24    23    25    53	 9 ;     CG3C31     CG3C31     CG3C31       HGA2
   20    23    25    24	 9 ;      NG3P2     CG3C31     CG3C31     CG3C31
   20    23    25    52	 9 ;      NG3P2     CG3C31     CG3C31       HGA2
   20    23    25    53	 9 ;      NG3P2     CG3C31     CG3C31       HGA2
   23    24    25    52	 9 ;     CG3C31     CG3C31     CG3C31       HGA2
   23    24    25    53	 9 ;     CG3C31     CG3C31     CG3C31       HGA2
   50    24    25    23	 9 ;       HGA2     CG3C31     CG3C31     CG3C31
   50    24    25    52	 9 ;       HGA2     CG3C31     CG3C31       HGA2
   50    24    25    53	 9 ;       HGA2     CG3C31     CG3C31       HGA2
   51    24    25    23	 9 ;       HGA2     CG3C31     CG3C31     CG3C31
   51    24    25    52	 9 ;       HGA2     CG3C31     CG3C31       HGA2
   51    24    25    53	 9 ;       HGA2     CG3C31     CG3C31       HGA2
   27    26    31    30	 9 ;     CG2R61     CG2R61     CG2R61     CG2R61
   27    26    31    57	 9 ;     CG2R61     CG2R61     CG2R61      HGR61
   23    26    31    30	 9 ;     CG3C31     CG2R61     CG2R61     CG2R61
   23    26    31    57	 9 ;     CG3C31     CG2R61     CG2R61      HGR61
   31    26    27    28	 9 ;     CG2R61     CG2R61     CG2R61     CG2R61
   31    26    27    54	 9 ;     CG2R61     CG2R61     CG2R61      HGR61
   23    26    27    28	 9 ;     CG3C31     CG2R61     CG2R61     CG2R61
   23    26    27    54	 9 ;     CG3C31     CG2R61     CG2R61      HGR61
   26    27    28    29	 9 ;     CG2R61     CG2R61     CG2R61     CG2R61
   26    27    28    32	 9 ;     CG2R61     CG2R61     CG2R61     CG3C50
   54    27    28    29	 9 ;      HGR61     CG2R61     CG2R61     CG2R61
   54    27    28    32	 9 ;      HGR61     CG2R61     CG2R61     CG3C50
   32    28    29    30	 9 ;     CG3C50     CG2R61     CG2R61     CG2R61
   32    28    29    55	 9 ;     CG3C50     CG2R61     CG2R61      HGR61
   27    28    29    30	 9 ;     CG2R61     CG2R61     CG2R61     CG2R61
   27    28    29    55	 9 ;     CG2R61     CG2R61     CG2R61      HGR61
   29    28    32    33	 9 ;     CG2R61     CG2R61     CG3C50     OG3C51
   29    28    32    36	 9 ;     CG2R61     CG2R61     CG3C50     CG3C52
   29    28    32    37	 9 ;     CG2R61     CG2R61     CG3C50      CG331
   27    28    32    33	 9 ;     CG2R61     CG2R61     CG3C50     OG3C51
   27    28    32    36	 9 ;     CG2R61     CG2R61     CG3C50     CG3C52
   27    28    32    37	 9 ;     CG2R61     CG2R61     CG3C50      CG331
   28    29    30    31	 9 ;     CG2R61     CG2R61     CG2R61     CG2R61
   28    29    30    56	 9 ;     CG2R61     CG2R61     CG2R61      HGR61
   55    29    30    31	 9 ;      HGR61     CG2R61     CG2R61     CG2R61
   55    29    30    56	 9 ;      HGR61     CG2R61     CG2R61      HGR61
   29    30    31    26	 9 ;     CG2R61     CG2R61     CG2R61     CG2R61
   29    30    31    57	 9 ;     CG2R61     CG2R61     CG2R61      HGR61
   56    30    31    26	 9 ;      HGR61     CG2R61     CG2R61     CG2R61
   56    30    31    57	 9 ;      HGR61     CG2R61     CG2R61      HGR61
   28    32    33    34	 9 ;     CG2R61     CG3C50     OG3C51     CG3C52
   36    32    33    34	 9 ;     CG3C52     CG3C50     OG3C51     CG3C52
   37    32    33    34	 9 ;      CG331     CG3C50     OG3C51     CG3C52
   33    32    36    35	 9 ;     OG3C51     CG3C50     CG3C52     CG3C52
   33    32    36    62	 9 ;     OG3C51     CG3C50     CG3C52       HGA2
   33    32    36    63	 9 ;     OG3C51     CG3C50     CG3C52       HGA2
   28    32    36    35	 9 ;     CG2R61     CG3C50     CG3C52     CG3C52
   28    32    36    62	 9 ;     CG2R61     CG3C50     CG3C52       HGA2
   28    32    36    63	 9 ;     CG2R61     CG3C50     CG3C52       HGA2
   37    32    36    35	 9 ;      CG331     CG3C50     CG3C52     CG3C52
   37    32    36    62	 9 ;      CG331     CG3C50     CG3C52       HGA2
   37    32    36    63	 9 ;      CG331     CG3C50     CG3C52       HGA2
   33    32    37    64	 9 ;     OG3C51     CG3C50      CG331       HGA3
   33    32    37    65	 9 ;     OG3C51     CG3C50      CG331       HGA3
   33    32    37    66	 9 ;     OG3C51     CG3C50      CG331       HGA3
   28    32    37    64	 9 ;     CG2R61     CG3C50      CG331       HGA3
   28    32    37    65	 9 ;     CG2R61     CG3C50      CG331       HGA3
   28    32    37    66	 9 ;     CG2R61     CG3C50      CG331       HGA3
   36    32    37    64	 9 ;     CG3C52     CG3C50      CG331       HGA3
   36    32    37    65	 9 ;     CG3C52     CG3C50      CG331       HGA3
   36    32    37    66	 9 ;     CG3C52     CG3C50      CG331       HGA3
   32    33    34    35	 9 ;     CG3C50     OG3C51     CG3C52     CG3C52
   32    33    34    58	 9 ;     CG3C50     OG3C51     CG3C52       HGA2
   32    33    34    59	 9 ;     CG3C50     OG3C51     CG3C52       HGA2
   33    34    35    36	 9 ;     OG3C51     CG3C52     CG3C52     CG3C52
   33    34    35    60	 9 ;     OG3C51     CG3C52     CG3C52       HGA2
   33    34    35    61	 9 ;     OG3C51     CG3C52     CG3C52       HGA2
   58    34    35    36	 9 ;       HGA2     CG3C52     CG3C52     CG3C52
   58    34    35    60	 9 ;       HGA2     CG3C52     CG3C52       HGA2
   58    34    35    61	 9 ;       HGA2     CG3C52     CG3C52       HGA2
   59    34    35    36	 9 ;       HGA2     CG3C52     CG3C52     CG3C52
   59    34    35    60	 9 ;       HGA2     CG3C52     CG3C52       HGA2
   59    34    35    61	 9 ;       HGA2     CG3C52     CG3C52       HGA2
   34    35    36    32	 9 ;     CG3C52     CG3C52     CG3C52     CG3C50
   34    35    36    62	 9 ;     CG3C52     CG3C52     CG3C52       HGA2
   34    35    36    63	 9 ;     CG3C52     CG3C52     CG3C52       HGA2
   60    35    36    32	 9 ;       HGA2     CG3C52     CG3C52     CG3C50
   60    35    36    62	 9 ;       HGA2     CG3C52     CG3C52       HGA2
   60    35    36    63	 9 ;       HGA2     CG3C52     CG3C52       HGA2
   61    35    36    32	 9 ;       HGA2     CG3C52     CG3C52     CG3C50
   61    35    36    62	 9 ;       HGA2     CG3C52     CG3C52       HGA2
   61    35    36    63	 9 ;       HGA2     CG3C52     CG3C52       HGA2

[ dihedrals ]
;	ai	  aj	ak	  al funct			  c0			c1			  c2			c3
   16    18    15    17	 2

