; Created by cgenff_charmm2gmx.py

[ moleculetype ]
; Name			   nrexcl
LIG				 3

[ atoms ]
;	 nr		  type	resnr residue  atom   cgnr	   charge		mass  typeB    chargeB		massB
; residue	 1 LIG rtp LIG q	qsum
     1      CG321      1    LIG     C1      1     -0.115     12.011   ;
     2     CG2D1O      1    LIG     C2      2      0.088     12.011   ;
     3      NG311      1    LIG     N1      3     -0.562     14.007   ;
     4      CG314      1    LIG     C3      4      0.649     12.011   ;
     5     HGPAM1      1    LIG     HN      5      0.321      1.008   ;
     6      NG2S0      1    LIG     N2      6     -0.343     14.007   ;
     7      CG2O1      1    LIG     C4      7      0.413     12.011   ;
     8      CG331      1    LIG     C5      8     -0.238     12.011   ;
     9      OG2D1      1    LIG      O      9     -0.540     15.999   ;
    10     CG2DC1      1    LIG     C6     10      0.070     12.011   ;
    11      NG3P3      1    LIG     N3     11     -0.425     14.007   ;
    12       HGP2      1    LIG     H1     12      0.313      1.008   ;
    13       HGP2      1    LIG     H2     13      0.313      1.008   ;
    14      CG321      1    LIG     C7     14     -0.137     12.011   ;
    15     CG2R61      1    LIG     C8     15      0.003     12.011   ;
    16     CG2R61      1    LIG     C9     16     -0.124     12.011   ;
    17     CG2R67      1    LIG    C10     17      0.007     12.011   ;
    18     CG2R61      1    LIG    C11     18     -0.119     12.011   ;
    19     CG2R61      1    LIG    C12     19     -0.115     12.011   ;
    20     CG2R61      1    LIG    C13     20     -0.117     12.011   ;
    21     CG2R67      1    LIG    C14     21      0.006     12.011   ;
    22     CG2R61      1    LIG    C15     22     -0.119     12.011   ;
    23     CG2R61      1    LIG    C16     23     -0.119     12.011   ;
    24     CG2R61      1    LIG    C17     24     -0.110     12.011   ;
    25     CG2R61      1    LIG    C18     25     -0.119     12.011   ;
    26     CG2R61      1    LIG    C19     26     -0.119     12.011   ;
    27       HGA2      1    LIG    HC2     27      0.090      1.008   ;
    28       HGA2      1    LIG    HC3     28      0.090      1.008   ;
    29       HGA1      1    LIG     HC     29      0.115      1.008   ;
    30       HGA3      1    LIG    HC1     30      0.090      1.008   ;
    31       HGA3      1    LIG    HC4     31      0.090      1.008   ;
    32       HGA3      1    LIG    HC5     32      0.090      1.008   ;
    33       HGA4      1    LIG    HC6     33      0.136      1.008   ;
    34       HGP2      1    LIG    HN1     34      0.313      1.008   ;
    35       HGA2      1    LIG    HC7     35      0.090      1.008   ;
    36       HGA2      1    LIG    HC8     36      0.090      1.008   ;
    37      HGR61      1    LIG    HC9     37      0.116      1.008   ;
    38      HGR61      1    LIG   HC10     38      0.116      1.008   ;
    39      HGR61      1    LIG   HC11     39      0.116      1.008   ;
    40      HGR61      1    LIG   HC12     40      0.116      1.008   ;
    41      HGR61      1    LIG   HC13     41      0.116      1.008   ;
    42      HGR61      1    LIG   HC14     42      0.116      1.008   ;
    43      HGR61      1    LIG   HC15     43      0.116      1.008   ;
    44      HGR61      1    LIG   HC16     44      0.116      1.008   ;
    45      HGR61      1    LIG   HC17     45      0.116      1.008   ;

[ bonds ]
;	ai	  aj funct			  c0			c1			  c2			c3
    1    14	 1 ;       CG321      CG321
    1     2	 1 ;       CG321     CG2D1O
    1    27	 1 ;       CG321       HGA2
    1    28	 1 ;       CG321       HGA2
    2     3	 1 ;      CG2D1O      NG311
    2    10	 1 ;      CG2D1O     CG2DC1
    3     5	 1 ;       NG311     HGPAM1
    3     4	 1 ;       NG311      CG314
    4    11	 1 ;       CG314      NG3P3
    4     6	 1 ;       CG314      NG2S0
    4    29	 1 ;       CG314       HGA1
    6     7	 1 ;       NG2S0      CG2O1
    6     8	 1 ;       NG2S0      CG331
    7    10	 1 ;       CG2O1     CG2DC1
    7     9	 1 ;       CG2O1      OG2D1
    8    30	 1 ;       CG331       HGA3
    8    31	 1 ;       CG331       HGA3
    8    32	 1 ;       CG331       HGA3
   10    33	 1 ;      CG2DC1       HGA4
   11    13	 1 ;       NG3P3       HGP2
   11    12	 1 ;       NG3P3       HGP2
   11    34	 1 ;       NG3P3       HGP2
   14    15	 1 ;       CG321     CG2R61
   14    35	 1 ;       CG321       HGA2
   14    36	 1 ;       CG321       HGA2
   15    20	 1 ;      CG2R61     CG2R61
   15    16	 1 ;      CG2R61     CG2R61
   16    17	 1 ;      CG2R61     CG2R67
   16    37	 1 ;      CG2R61      HGR61
   17    18	 1 ;      CG2R67     CG2R61
   17    21	 1 ;      CG2R67     CG2R67
   18    19	 1 ;      CG2R61     CG2R61
   18    38	 1 ;      CG2R61      HGR61
   19    20	 1 ;      CG2R61     CG2R61
   19    39	 1 ;      CG2R61      HGR61
   20    40	 1 ;      CG2R61      HGR61
   21    22	 1 ;      CG2R67     CG2R61
   21    26	 1 ;      CG2R67     CG2R61
   22    23	 1 ;      CG2R61     CG2R61
   22    41	 1 ;      CG2R61      HGR61
   23    24	 1 ;      CG2R61     CG2R61
   23    42	 1 ;      CG2R61      HGR61
   24    25	 1 ;      CG2R61     CG2R61
   24    43	 1 ;      CG2R61      HGR61
   25    26	 1 ;      CG2R61     CG2R61
   25    44	 1 ;      CG2R61      HGR61
   26    45	 1 ;      CG2R61      HGR61

[ pairs ]
;	ai	  aj funct			  c0			c1			  c2			c3
    1     5	 1
    1     4	 1
    1     7	 1
    1    33	 1
    1    20	 1
    1    16	 1
    2    15	 1
    2    35	 1
    2    36	 1
    2    11	 1
    2     6	 1
    2    29	 1
    2     9	 1
    3    14	 1
    3    27	 1
    3    28	 1
    3     7	 1
    3    33	 1
    3    13	 1
    3    12	 1
    3    34	 1
    3     8	 1
    4    10	 1
    4     9	 1
    4    30	 1
    4    31	 1
    4    32	 1
    5    10	 1
    5    11	 1
    5     6	 1
    5    29	 1
    6    13	 1
    6    12	 1
    6    34	 1
    6    33	 1
    7    11	 1
    7    29	 1
    7    30	 1
    7    31	 1
    7    32	 1
    8    11	 1
    8    29	 1
    8    10	 1
    8     9	 1
    9    33	 1
   10    14	 1
   10    27	 1
   10    28	 1
   12    29	 1
   13    29	 1
   14    19	 1
   14    40	 1
   14    17	 1
   14    37	 1
   15    27	 1
   15    28	 1
   15    18	 1
   15    21	 1
   15    39	 1
   16    35	 1
   16    36	 1
   16    19	 1
   16    40	 1
   16    38	 1
   16    22	 1
   16    26	 1
   17    20	 1
   17    39	 1
   17    23	 1
   17    41	 1
   17    25	 1
   17    45	 1
   18    37	 1
   18    22	 1
   18    26	 1
   18    40	 1
   19    21	 1
   20    35	 1
   20    36	 1
   20    37	 1
   20    38	 1
   21    37	 1
   21    38	 1
   21    24	 1
   21    42	 1
   21    44	 1
   22    25	 1
   22    45	 1
   22    43	 1
   23    26	 1
   23    44	 1
   24    41	 1
   24    45	 1
   25    42	 1
   26    41	 1
   26    43	 1
   27    35	 1
   27    36	 1
   28    35	 1
   28    36	 1
   29    34	 1
   38    39	 1
   39    40	 1
   41    42	 1
   42    43	 1
   43    44	 1
   44    45	 1

[ angles ]
;	ai	  aj	ak funct			c0			  c1			c2			  c3
   14     1     2	5 ;      CG321      CG321     CG2D1O
   14     1    27	5 ;      CG321      CG321       HGA2
   14     1    28	5 ;      CG321      CG321       HGA2
    2     1    27	5 ;     CG2D1O      CG321       HGA2
    2     1    28	5 ;     CG2D1O      CG321       HGA2
   27     1    28	5 ;       HGA2      CG321       HGA2
    1     2     3	5 ;      CG321     CG2D1O      NG311
    1     2    10	5 ;      CG321     CG2D1O     CG2DC1
    3     2    10	5 ;      NG311     CG2D1O     CG2DC1
    5     3     2	5 ;     HGPAM1      NG311     CG2D1O
    5     3     4	5 ;     HGPAM1      NG311      CG314
    2     3     4	5 ;     CG2D1O      NG311      CG314
    3     4    11	5 ;      NG311      CG314      NG3P3
    3     4     6	5 ;      NG311      CG314      NG2S0
    3     4    29	5 ;      NG311      CG314       HGA1
   11     4     6	5 ;      NG3P3      CG314      NG2S0
   11     4    29	5 ;      NG3P3      CG314       HGA1
    6     4    29	5 ;      NG2S0      CG314       HGA1
    4     6     7	5 ;      CG314      NG2S0      CG2O1
    4     6     8	5 ;      CG314      NG2S0      CG331
    7     6     8	5 ;      CG2O1      NG2S0      CG331
   10     7     6	5 ;     CG2DC1      CG2O1      NG2S0
   10     7     9	5 ;     CG2DC1      CG2O1      OG2D1
    6     7     9	5 ;      NG2S0      CG2O1      OG2D1
    6     8    30	5 ;      NG2S0      CG331       HGA3
    6     8    31	5 ;      NG2S0      CG331       HGA3
    6     8    32	5 ;      NG2S0      CG331       HGA3
   30     8    31	5 ;       HGA3      CG331       HGA3
   30     8    32	5 ;       HGA3      CG331       HGA3
   31     8    32	5 ;       HGA3      CG331       HGA3
    2    10     7	5 ;     CG2D1O     CG2DC1      CG2O1
    2    10    33	5 ;     CG2D1O     CG2DC1       HGA4
    7    10    33	5 ;      CG2O1     CG2DC1       HGA4
   13    11    12	5 ;       HGP2      NG3P3       HGP2
   13    11     4	5 ;       HGP2      NG3P3      CG314
   13    11    34	5 ;       HGP2      NG3P3       HGP2
   12    11     4	5 ;       HGP2      NG3P3      CG314
   12    11    34	5 ;       HGP2      NG3P3       HGP2
    4    11    34	5 ;      CG314      NG3P3       HGP2
    1    14    15	5 ;      CG321      CG321     CG2R61
    1    14    35	5 ;      CG321      CG321       HGA2
    1    14    36	5 ;      CG321      CG321       HGA2
   15    14    35	5 ;     CG2R61      CG321       HGA2
   15    14    36	5 ;     CG2R61      CG321       HGA2
   35    14    36	5 ;       HGA2      CG321       HGA2
   14    15    20	5 ;      CG321     CG2R61     CG2R61
   14    15    16	5 ;      CG321     CG2R61     CG2R61
   20    15    16	5 ;     CG2R61     CG2R61     CG2R61
   15    16    17	5 ;     CG2R61     CG2R61     CG2R67
   15    16    37	5 ;     CG2R61     CG2R61      HGR61
   17    16    37	5 ;     CG2R67     CG2R61      HGR61
   16    17    18	5 ;     CG2R61     CG2R67     CG2R61
   16    17    21	5 ;     CG2R61     CG2R67     CG2R67
   18    17    21	5 ;     CG2R61     CG2R67     CG2R67
   19    18    17	5 ;     CG2R61     CG2R61     CG2R67
   19    18    38	5 ;     CG2R61     CG2R61      HGR61
   17    18    38	5 ;     CG2R67     CG2R61      HGR61
   20    19    18	5 ;     CG2R61     CG2R61     CG2R61
   20    19    39	5 ;     CG2R61     CG2R61      HGR61
   18    19    39	5 ;     CG2R61     CG2R61      HGR61
   15    20    19	5 ;     CG2R61     CG2R61     CG2R61
   15    20    40	5 ;     CG2R61     CG2R61      HGR61
   19    20    40	5 ;     CG2R61     CG2R61      HGR61
   22    21    17	5 ;     CG2R61     CG2R67     CG2R67
   22    21    26	5 ;     CG2R61     CG2R67     CG2R61
   17    21    26	5 ;     CG2R67     CG2R67     CG2R61
   23    22    21	5 ;     CG2R61     CG2R61     CG2R67
   23    22    41	5 ;     CG2R61     CG2R61      HGR61
   21    22    41	5 ;     CG2R67     CG2R61      HGR61
   22    23    24	5 ;     CG2R61     CG2R61     CG2R61
   22    23    42	5 ;     CG2R61     CG2R61      HGR61
   24    23    42	5 ;     CG2R61     CG2R61      HGR61
   23    24    25	5 ;     CG2R61     CG2R61     CG2R61
   23    24    43	5 ;     CG2R61     CG2R61      HGR61
   25    24    43	5 ;     CG2R61     CG2R61      HGR61
   24    25    26	5 ;     CG2R61     CG2R61     CG2R61
   24    25    44	5 ;     CG2R61     CG2R61      HGR61
   26    25    44	5 ;     CG2R61     CG2R61      HGR61
   21    26    25	5 ;     CG2R67     CG2R61     CG2R61
   21    26    45	5 ;     CG2R67     CG2R61      HGR61
   25    26    45	5 ;     CG2R61     CG2R61      HGR61

[ dihedrals ]
;	ai	  aj	ak	  al funct			  c0			c1			  c2			c3			  c4			c5
    2     1    14    15	 9 ;     CG2D1O      CG321      CG321     CG2R61
    2     1    14    35	 9 ;     CG2D1O      CG321      CG321       HGA2
    2     1    14    36	 9 ;     CG2D1O      CG321      CG321       HGA2
   27     1    14    15	 9 ;       HGA2      CG321      CG321     CG2R61
   27     1    14    35	 9 ;       HGA2      CG321      CG321       HGA2
   27     1    14    36	 9 ;       HGA2      CG321      CG321       HGA2
   28     1    14    15	 9 ;       HGA2      CG321      CG321     CG2R61
   28     1    14    35	 9 ;       HGA2      CG321      CG321       HGA2
   28     1    14    36	 9 ;       HGA2      CG321      CG321       HGA2
   14     1     2     3	 9 ;      CG321      CG321     CG2D1O      NG311
   14     1     2    10	 9 ;      CG321      CG321     CG2D1O     CG2DC1
   27     1     2     3	 9 ;       HGA2      CG321     CG2D1O      NG311
   27     1     2    10	 9 ;       HGA2      CG321     CG2D1O     CG2DC1
   28     1     2     3	 9 ;       HGA2      CG321     CG2D1O      NG311
   28     1     2    10	 9 ;       HGA2      CG321     CG2D1O     CG2DC1
    1     2     3     5	 9 ;      CG321     CG2D1O      NG311     HGPAM1
    1     2     3     4	 9 ;      CG321     CG2D1O      NG311      CG314
   10     2     3     5	 9 ;     CG2DC1     CG2D1O      NG311     HGPAM1
   10     2     3     4	 9 ;     CG2DC1     CG2D1O      NG311      CG314
    1     2    10     7	 9 ;      CG321     CG2D1O     CG2DC1      CG2O1
    1     2    10    33	 9 ;      CG321     CG2D1O     CG2DC1       HGA4
    3     2    10     7	 9 ;      NG311     CG2D1O     CG2DC1      CG2O1
    3     2    10    33	 9 ;      NG311     CG2D1O     CG2DC1       HGA4
    5     3     4    11	 9 ;     HGPAM1      NG311      CG314      NG3P3
    5     3     4     6	 9 ;     HGPAM1      NG311      CG314      NG2S0
    5     3     4    29	 9 ;     HGPAM1      NG311      CG314       HGA1
    2     3     4    11	 9 ;     CG2D1O      NG311      CG314      NG3P3
    2     3     4     6	 9 ;     CG2D1O      NG311      CG314      NG2S0
    2     3     4    29	 9 ;     CG2D1O      NG311      CG314       HGA1
    3     4    11    13	 9 ;      NG311      CG314      NG3P3       HGP2
    3     4    11    12	 9 ;      NG311      CG314      NG3P3       HGP2
    3     4    11    34	 9 ;      NG311      CG314      NG3P3       HGP2
    6     4    11    13	 9 ;      NG2S0      CG314      NG3P3       HGP2
    6     4    11    12	 9 ;      NG2S0      CG314      NG3P3       HGP2
    6     4    11    34	 9 ;      NG2S0      CG314      NG3P3       HGP2
   29     4    11    13	 9 ;       HGA1      CG314      NG3P3       HGP2
   29     4    11    12	 9 ;       HGA1      CG314      NG3P3       HGP2
   29     4    11    34	 9 ;       HGA1      CG314      NG3P3       HGP2
    3     4     6     7	 9 ;      NG311      CG314      NG2S0      CG2O1
    3     4     6     8	 9 ;      NG311      CG314      NG2S0      CG331
   11     4     6     7	 9 ;      NG3P3      CG314      NG2S0      CG2O1
   11     4     6     8	 9 ;      NG3P3      CG314      NG2S0      CG331
   29     4     6     7	 9 ;       HGA1      CG314      NG2S0      CG2O1
   29     4     6     8	 9 ;       HGA1      CG314      NG2S0      CG331
    4     6     7    10	 9 ;      CG314      NG2S0      CG2O1     CG2DC1
    4     6     7     9	 9 ;      CG314      NG2S0      CG2O1      OG2D1
    8     6     7    10	 9 ;      CG331      NG2S0      CG2O1     CG2DC1
    8     6     7     9	 9 ;      CG331      NG2S0      CG2O1      OG2D1
    4     6     8    30	 9 ;      CG314      NG2S0      CG331       HGA3
    4     6     8    31	 9 ;      CG314      NG2S0      CG331       HGA3
    4     6     8    32	 9 ;      CG314      NG2S0      CG331       HGA3
    7     6     8    30	 9 ;      CG2O1      NG2S0      CG331       HGA3
    7     6     8    31	 9 ;      CG2O1      NG2S0      CG331       HGA3
    7     6     8    32	 9 ;      CG2O1      NG2S0      CG331       HGA3
    6     7    10     2	 9 ;      NG2S0      CG2O1     CG2DC1     CG2D1O
    6     7    10    33	 9 ;      NG2S0      CG2O1     CG2DC1       HGA4
    9     7    10     2	 9 ;      OG2D1      CG2O1     CG2DC1     CG2D1O
    9     7    10    33	 9 ;      OG2D1      CG2O1     CG2DC1       HGA4
    1    14    15    20	 9 ;      CG321      CG321     CG2R61     CG2R61
    1    14    15    16	 9 ;      CG321      CG321     CG2R61     CG2R61
   35    14    15    20	 9 ;       HGA2      CG321     CG2R61     CG2R61
   35    14    15    16	 9 ;       HGA2      CG321     CG2R61     CG2R61
   36    14    15    20	 9 ;       HGA2      CG321     CG2R61     CG2R61
   36    14    15    16	 9 ;       HGA2      CG321     CG2R61     CG2R61
   14    15    20    19	 9 ;      CG321     CG2R61     CG2R61     CG2R61
   14    15    20    40	 9 ;      CG321     CG2R61     CG2R61      HGR61
   16    15    20    19	 9 ;     CG2R61     CG2R61     CG2R61     CG2R61
   16    15    20    40	 9 ;     CG2R61     CG2R61     CG2R61      HGR61
   14    15    16    17	 9 ;      CG321     CG2R61     CG2R61     CG2R67
   14    15    16    37	 9 ;      CG321     CG2R61     CG2R61      HGR61
   20    15    16    17	 9 ;     CG2R61     CG2R61     CG2R61     CG2R67
   20    15    16    37	 9 ;     CG2R61     CG2R61     CG2R61      HGR61
   15    16    17    18	 9 ;     CG2R61     CG2R61     CG2R67     CG2R61
   15    16    17    21	 9 ;     CG2R61     CG2R61     CG2R67     CG2R67
   37    16    17    18	 9 ;      HGR61     CG2R61     CG2R67     CG2R61
   37    16    17    21	 9 ;      HGR61     CG2R61     CG2R67     CG2R67
   16    17    18    19	 9 ;     CG2R61     CG2R67     CG2R61     CG2R61
   16    17    18    38	 9 ;     CG2R61     CG2R67     CG2R61      HGR61
   21    17    18    19	 9 ;     CG2R67     CG2R67     CG2R61     CG2R61
   21    17    18    38	 9 ;     CG2R67     CG2R67     CG2R61      HGR61
   16    17    21    22	 9 ;     CG2R61     CG2R67     CG2R67     CG2R61
   16    17    21    26	 9 ;     CG2R61     CG2R67     CG2R67     CG2R61
   18    17    21    22	 9 ;     CG2R61     CG2R67     CG2R67     CG2R61
   18    17    21    26	 9 ;     CG2R61     CG2R67     CG2R67     CG2R61
   17    18    19    20	 9 ;     CG2R67     CG2R61     CG2R61     CG2R61
   17    18    19    39	 9 ;     CG2R67     CG2R61     CG2R61      HGR61
   38    18    19    20	 9 ;      HGR61     CG2R61     CG2R61     CG2R61
   38    18    19    39	 9 ;      HGR61     CG2R61     CG2R61      HGR61
   18    19    20    15	 9 ;     CG2R61     CG2R61     CG2R61     CG2R61
   18    19    20    40	 9 ;     CG2R61     CG2R61     CG2R61      HGR61
   39    19    20    15	 9 ;      HGR61     CG2R61     CG2R61     CG2R61
   39    19    20    40	 9 ;      HGR61     CG2R61     CG2R61      HGR61
   17    21    22    23	 9 ;     CG2R67     CG2R67     CG2R61     CG2R61
   17    21    22    41	 9 ;     CG2R67     CG2R67     CG2R61      HGR61
   26    21    22    23	 9 ;     CG2R61     CG2R67     CG2R61     CG2R61
   26    21    22    41	 9 ;     CG2R61     CG2R67     CG2R61      HGR61
   22    21    26    25	 9 ;     CG2R61     CG2R67     CG2R61     CG2R61
   22    21    26    45	 9 ;     CG2R61     CG2R67     CG2R61      HGR61
   17    21    26    25	 9 ;     CG2R67     CG2R67     CG2R61     CG2R61
   17    21    26    45	 9 ;     CG2R67     CG2R67     CG2R61      HGR61
   21    22    23    24	 9 ;     CG2R67     CG2R61     CG2R61     CG2R61
   21    22    23    42	 9 ;     CG2R67     CG2R61     CG2R61      HGR61
   41    22    23    24	 9 ;      HGR61     CG2R61     CG2R61     CG2R61
   41    22    23    42	 9 ;      HGR61     CG2R61     CG2R61      HGR61
   22    23    24    25	 9 ;     CG2R61     CG2R61     CG2R61     CG2R61
   22    23    24    43	 9 ;     CG2R61     CG2R61     CG2R61      HGR61
   42    23    24    25	 9 ;      HGR61     CG2R61     CG2R61     CG2R61
   42    23    24    43	 9 ;      HGR61     CG2R61     CG2R61      HGR61
   23    24    25    26	 9 ;     CG2R61     CG2R61     CG2R61     CG2R61
   23    24    25    44	 9 ;     CG2R61     CG2R61     CG2R61      HGR61
   43    24    25    26	 9 ;      HGR61     CG2R61     CG2R61     CG2R61
   43    24    25    44	 9 ;      HGR61     CG2R61     CG2R61      HGR61
   24    25    26    21	 9 ;     CG2R61     CG2R61     CG2R61     CG2R67
   24    25    26    45	 9 ;     CG2R61     CG2R61     CG2R61      HGR61
   44    25    26    21	 9 ;      HGR61     CG2R61     CG2R61     CG2R67
   44    25    26    45	 9 ;      HGR61     CG2R61     CG2R61      HGR61

[ dihedrals ]
;	ai	  aj	ak	  al funct			  c0			c1			  c2			c3
    2    10     1     3	 2
    7    10     6     9	 2

