Guyana Rwanda Oman Macau Angola Cameroon Senegal
   45
    1LIG     C1    1  -1.379   0.765  -1.652
    1LIG     C2    2  -1.503   0.830  -1.593
    1LIG     N1    3  -1.526   0.960  -1.632
    1LIG     C3    4  -1.625   1.024  -1.576
    1LIG     HN    5  -1.468   1.005  -1.702
    1LIG     N2    6  -1.707   0.967  -1.480
    1LIG     C4    7  -1.695   0.834  -1.447
    1LIG     C5    8  -1.808   1.046  -1.411
    1LIG      O    9  -1.769   0.773  -1.370
    1LIG     C6   10  -1.583   0.763  -1.509
    1LIG     N3   11  -1.647   1.152  -1.617
    1LIG     H1   12  -1.746   1.174  -1.614
    1LIG     H2   13  -1.591   1.223  -1.571
    1LIG     C7   14  -1.385   0.612  -1.635
    1LIG     C8   15  -1.286   0.557  -1.536
    1LIG     C9   16  -1.262   0.418  -1.528
    1LIG    C10   17  -1.173   0.362  -1.434
    1LIG    C11   18  -1.114   0.450  -1.342
    1LIG    C12   19  -1.137   0.587  -1.348
    1LIG    C13   20  -1.220   0.641  -1.446
    1LIG    C14   21  -1.140   0.217  -1.436
    1LIG    C15   22  -1.181   0.136  -1.544
    1LIG    C16   23  -1.147   0.001  -1.551
    1LIG    C17   24  -1.069  -0.057  -1.451
    1LIG    C18   25  -1.026   0.021  -1.344
    1LIG    C19   26  -1.062   0.156  -1.336
    1LIG    HC2   27  -1.373   0.789  -1.758
    1LIG    HC3   28  -1.291   0.803  -1.601
    1LIG     HC   29  -1.558   1.059  -1.497
    1LIG    HC1   30  -1.861   0.983  -1.340
    1LIG    HC4   31  -1.878   1.087  -1.483
    1LIG    HC5   32  -1.759   1.128  -1.357
    1LIG    HC6   33  -1.565   0.659  -1.488
    1LIG    HN1   34  -1.620   1.154  -1.714
    1LIG    HC7   35  -1.365   0.567  -1.732
    1LIG    HC8   36  -1.485   0.584  -1.604
    1LIG    HC9   37  -1.313   0.352  -1.597
    1LIG   HC10   38  -1.050   0.410  -1.264
    1LIG   HC11   39  -1.089   0.653  -1.276
    1LIG   HC12   40  -1.235   0.748  -1.452
    1LIG   HC13   41  -1.241   0.180  -1.622
    1LIG   HC14   42  -1.181  -0.059  -1.634
    1LIG   HC15   43  -1.042  -0.161  -1.457
    1LIG   HC16   44  -0.966  -0.023  -1.266
    1LIG   HC17   45  -1.028   0.215  -1.252
   0.00000   0.00000   0.00000
