GROtesk MACabre and Sinister
   86
    1LIG     C1    1  -1.587   0.449  -1.133
    1LIG     O1    2  -1.538   0.512  -1.040
    1LIG     N1    3  -1.667   0.340  -1.117
    1LIG     H1    4  -1.689   0.285  -1.199
    1LIG     C2    5  -1.559   0.487  -1.275
    1LIG     C3    6  -1.488   0.396  -1.355
    1LIG     C4    7  -1.465   0.426  -1.490
    1LIG     C5    8  -1.513   0.546  -1.543
    1LIG     C6    9  -1.574   0.641  -1.460
    1LIG     C7   10  -1.599   0.611  -1.327
    1LIG     C8   11  -1.396   0.324  -1.574
    1LIG     O2   12  -1.448   0.215  -1.591
    1LIG     N2   13  -1.275   0.360  -1.630
    1LIG     H2   14  -1.231   0.448  -1.607
    1LIG     C9   15  -1.222   0.289  -1.746
    1LIG    C10   16  -1.332   0.256  -1.848
    1LIG    C11   17  -1.142   0.171  -1.696
    1LIG    C12   18  -1.136   0.056  -1.777
    1LIG    C13   19  -1.064  -0.056  -1.737
    1LIG    C14   20  -0.997  -0.054  -1.615
    1LIG      F   21  -0.929  -0.163  -1.576
    1LIG    C15   22  -0.999   0.059  -1.534
    1LIG    C16   23  -1.071   0.172  -1.574
    1LIG     N3   24  -1.601   0.774  -1.508
    1LIG    C17   25  -1.512   0.820  -1.617
    1LIG      S   26  -1.765   0.822  -1.518
    1LIG     O3   27  -1.803   0.886  -1.394
    1LIG     O4   28  -1.842   0.714  -1.575
    1LIG    C18   29  -1.754   0.950  -1.642
    1LIG    C19   30  -1.712   0.283  -0.989
    1LIG    C20   31  -1.595   0.271  -0.888
    1LIG    C21   32  -1.573   0.148  -0.804
    1LIG    C22   33  -1.662   0.039  -0.814
    1LIG    C23   34  -1.637  -0.081  -0.747
    1LIG    C24   35  -1.522  -0.095  -0.669
    1LIG    C25   36  -1.433   0.011  -0.659
    1LIG    C26   37  -1.458   0.131  -0.726
    1LIG    C27   38  -1.852   0.334  -0.937
    1LIG     O5   39  -1.954   0.326  -1.036
    1LIG     H3   40  -1.953   0.231  -1.066
    1LIG    C28   41  -1.857   0.476  -0.878
    1LIG     N4   42  -1.945   0.487  -0.753
    1LIG    C29   43  -2.039   0.600  -0.781
    1LIG     H4   44  -1.991   0.396  -0.736
    1LIG     H5   45  -1.887   0.502  -0.670
    1LIG     N5   46  -2.046   0.598  -0.925
    1LIG    C30   47  -2.173   0.577  -0.710
    1LIG    C31   48  -1.974   0.729  -0.730
    1LIG    C32   49  -2.147   0.667  -1.003
    1LIG    C33   50  -1.922   0.566  -0.980
    1LIG     O6   51  -1.881   0.592  -1.091
    1LIG     H6   52  -1.452   0.308  -1.315
    1LIG     H7   53  -1.504   0.565  -1.645
    1LIG     H8   54  -1.648   0.679  -1.266
    1LIG     H9   55  -1.156   0.352  -1.802
    1LIG    H10   56  -1.405   0.193  -1.802
    1LIG    H11   57  -1.288   0.206  -1.932
    1LIG    H12   58  -1.378   0.347  -1.881
    1LIG    H13   59  -1.185   0.055  -1.867
    1LIG    H14   60  -1.060  -0.140  -1.797
    1LIG    H15   61  -0.948   0.059  -1.445
    1LIG    H16   62  -1.072   0.256  -1.515
    1LIG    H17   63  -1.539   0.919  -1.646
    1LIG    H18   64  -1.521   0.754  -1.701
    1LIG    H19   65  -1.410   0.820  -1.582
    1LIG    H20   66  -1.726   0.907  -1.736
    1LIG    H21   67  -1.681   1.022  -1.612
    1LIG    H22   68  -1.849   0.998  -1.652
    1LIG    H23   69  -1.606   0.352  -0.819
    1LIG    H24   70  -1.510   0.268  -0.953
    1LIG    H25   71  -1.747   0.049  -0.871
    1LIG    H26   72  -1.704  -0.159  -0.755
    1LIG    H27   73  -1.503  -0.184  -0.621
    1LIG    H28   74  -1.348   0.001  -0.600
    1LIG    H29   75  -1.390   0.208  -0.718
    1LIG    H30   76  -1.870   0.266  -0.856
    1LIG    H31   77  -1.756   0.502  -0.853
    1LIG    H32   78  -2.217   0.486  -0.746
    1LIG    H33   79  -2.238   0.659  -0.729
    1LIG    H34   80  -2.156   0.569  -0.604
    1LIG    H35   81  -1.881   0.745  -0.780
    1LIG    H36   82  -1.957   0.722  -0.625
    1LIG    H37   83  -2.039   0.812  -0.749
    1LIG    H38   84  -2.129   0.650  -1.107
    1LIG    H39   85  -2.143   0.772  -0.983
    1LIG    H40   86  -2.244   0.629  -0.977
   0.00000   0.00000   0.00000
