; Created by cgenff_charmm2gmx.py

[ moleculetype ]
; Name			   nrexcl
LIG				 3

[ atoms ]
;	 nr		  type	resnr residue  atom   cgnr	   charge		mass  typeB    chargeB		massB
; residue	 1 LIG rtp LIG q	qsum
     1      CG2O1      1    LIG     C1      1      0.489     12.011   ;
     2      OG2D1      1    LIG     O1      2     -0.463     15.999   ;
     3      NG2P1      1    LIG     N1      3     -0.129     14.007   ;
     4       HGP2      1    LIG     H1      4      0.414      1.008   ;
     5     CG2R61      1    LIG     C2      5     -0.099     12.011   ;
     6     CG2R61      1    LIG     C3      6     -0.004     12.011   ;
     7     CG2R61      1    LIG     C4      7     -0.101     12.011   ;
     8     CG2R61      1    LIG     C5      8     -0.064     12.011   ;
     9     CG2R61      1    LIG     C6      9      0.138     12.011   ;
    10     CG2R61      1    LIG     C7     10     -0.064     12.011   ;
    11      CG2O1      1    LIG     C8     11      0.320     12.011   ;
    12      OG2D1      1    LIG     O2     12     -0.463     15.999   ;
    13      NG2S1      1    LIG     N2     13     -0.366     14.007   ;
    14       HGP1      1    LIG     H2     14      0.314      1.008   ;
    15      CG311      1    LIG     C9     15      0.138     12.011   ;
    16      CG331      1    LIG    C10     16     -0.265     12.011   ;
    17     CG2R61      1    LIG    C11     17     -0.081     12.011   ;
    18     CG2R61      1    LIG    C12     18     -0.121     12.011   ;
    19     CG2R61      1    LIG    C13     19     -0.105     12.011   ;
    20     CG2R66      1    LIG    C14     20      0.107     12.011   ;
    21       FGR1      1    LIG      F     21     -0.211     18.998   ;
    22     CG2R61      1    LIG    C15     22     -0.105     12.011   ;
    23     CG2R61      1    LIG    C16     23     -0.121     12.011   ;
    24      NG301      1    LIG     N3     24     -0.228     14.007   ;
    25      CG331      1    LIG    C17     25     -0.103     12.011   ;
    26      SG3O2      1    LIG      S     26      0.397     32.060   ;
    27      OG2P1      1    LIG     O3     27     -0.388     15.999   ;
    28      OG2P1      1    LIG     O4     28     -0.388     15.999   ;
    29      CG331      1    LIG    C18     29      0.036     12.011   ;
    30     CG2DC1      1    LIG    C19     30      0.631     12.011   ;
    31      CG321      1    LIG    C20     31     -0.050     12.011   ;
    32     CG2R61      1    LIG    C21     32     -0.189     12.011   ;
    33     CG2R61      1    LIG    C22     33     -0.123     12.011   ;
    34     CG2R61      1    LIG    C23     34     -0.112     12.011   ;
    35     CG2R61      1    LIG    C24     35     -0.116     12.011   ;
    36     CG2R61      1    LIG    C25     36     -0.112     12.011   ;
    37     CG2R61      1    LIG    C26     37     -0.123     12.011   ;
    38      CG311      1    LIG    C27     38      0.115     12.011   ;
    39      OG311      1    LIG     O5     39     -0.586     15.999   ;
    40       HGP1      1    LIG     H3     40      0.415      1.008   ;
    41     CG3C53      1    LIG    C28     41      0.510     12.011   ;
    42      NG3P2      1    LIG     N4     42     -0.649     14.007   ;
    43     CG3C50      1    LIG    C29     43      0.706     12.011   ;
    44       HGP2      1    LIG     H4     44      0.298      1.008   ;
    45       HGP2      1    LIG     H5     45      0.298      1.008   ;
    46     NG2R53      1    LIG     N5     46     -0.341     14.007   ;
    47      CG331      1    LIG    C30     47     -0.268     12.011   ;
    48      CG331      1    LIG    C31     48     -0.268     12.011   ;
    49      CG331      1    LIG    C32     49     -0.052     12.011   ;
    50     CG2R53      1    LIG    C33     50      0.457     12.011   ;
    51      OG2D1      1    LIG     O6     51     -0.513     15.999   ;
    52      HGR61      1    LIG     H6     52      0.116      1.008   ;
    53      HGR61      1    LIG     H7     53      0.116      1.008   ;
    54      HGR61      1    LIG     H8     54      0.116      1.008   ;
    55       HGA1      1    LIG     H9     55      0.090      1.008   ;
    56       HGA3      1    LIG    H10     56      0.090      1.008   ;
    57       HGA3      1    LIG    H11     57      0.090      1.008   ;
    58       HGA3      1    LIG    H12     58      0.090      1.008   ;
    59      HGR61      1    LIG    H13     59      0.116      1.008   ;
    60      HGR62      1    LIG    H14     60      0.179      1.008   ;
    61      HGR62      1    LIG    H15     61      0.179      1.008   ;
    62      HGR61      1    LIG    H16     62      0.116      1.008   ;
    63       HGA3      1    LIG    H17     63      0.090      1.008   ;
    64       HGA3      1    LIG    H18     64      0.090      1.008   ;
    65       HGA3      1    LIG    H19     65      0.090      1.008   ;
    66       HGA3      1    LIG    H20     66      0.090      1.008   ;
    67       HGA3      1    LIG    H21     67      0.090      1.008   ;
    68       HGA3      1    LIG    H22     68      0.090      1.008   ;
    69       HGA2      1    LIG    H23     69      0.090      1.008   ;
    70       HGA2      1    LIG    H24     70      0.090      1.008   ;
    71      HGR61      1    LIG    H25     71      0.116      1.008   ;
    72      HGR61      1    LIG    H26     72      0.116      1.008   ;
    73      HGR61      1    LIG    H27     73      0.116      1.008   ;
    74      HGR61      1    LIG    H28     74      0.116      1.008   ;
    75      HGR61      1    LIG    H29     75      0.116      1.008   ;
    76       HGA1      1    LIG    H30     76      0.090      1.008   ;
    77       HGA1      1    LIG    H31     77      0.090      1.008   ;
    78       HGA3      1    LIG    H32     78      0.090      1.008   ;
    79       HGA3      1    LIG    H33     79      0.090      1.008   ;
    80       HGA3      1    LIG    H34     80      0.090      1.008   ;
    81       HGA3      1    LIG    H35     81      0.090      1.008   ;
    82       HGA3      1    LIG    H36     82      0.090      1.008   ;
    83       HGA3      1    LIG    H37     83      0.090      1.008   ;
    84       HGA3      1    LIG    H38     84      0.090      1.008   ;
    85       HGA3      1    LIG    H39     85      0.090      1.008   ;
    86       HGA3      1    LIG    H40     86      0.090      1.008   ;

[ bonds ]
;	ai	  aj funct			  c0			c1			  c2			c3
    1     5	 1 ;       CG2O1     CG2R61
    1     3	 1 ;       CG2O1      NG2P1
    1     2	 1 ;       CG2O1      OG2D1
    3     4	 1 ;       NG2P1       HGP2
    3    30	 1 ;       NG2P1     CG2DC1
    5     6	 1 ;      CG2R61     CG2R61
    5    10	 1 ;      CG2R61     CG2R61
    6     7	 1 ;      CG2R61     CG2R61
    6    52	 1 ;      CG2R61      HGR61
    7    11	 1 ;      CG2R61      CG2O1
    7     8	 1 ;      CG2R61     CG2R61
    8     9	 1 ;      CG2R61     CG2R61
    8    53	 1 ;      CG2R61      HGR61
    9    24	 1 ;      CG2R61      NG301
    9    10	 1 ;      CG2R61     CG2R61
   10    54	 1 ;      CG2R61      HGR61
   11    13	 1 ;       CG2O1      NG2S1
   11    12	 1 ;       CG2O1      OG2D1
   13    15	 1 ;       NG2S1      CG311
   13    14	 1 ;       NG2S1       HGP1
   15    16	 1 ;       CG311      CG331
   15    17	 1 ;       CG311     CG2R61
   15    55	 1 ;       CG311       HGA1
   16    56	 1 ;       CG331       HGA3
   16    57	 1 ;       CG331       HGA3
   16    58	 1 ;       CG331       HGA3
   17    18	 1 ;      CG2R61     CG2R61
   17    23	 1 ;      CG2R61     CG2R61
   18    19	 1 ;      CG2R61     CG2R61
   18    59	 1 ;      CG2R61      HGR61
   19    20	 1 ;      CG2R61     CG2R66
   19    60	 1 ;      CG2R61      HGR62
   20    21	 1 ;      CG2R66       FGR1
   20    22	 1 ;      CG2R66     CG2R61
   22    23	 1 ;      CG2R61     CG2R61
   22    61	 1 ;      CG2R61      HGR62
   23    62	 1 ;      CG2R61      HGR61
   24    25	 1 ;       NG301      CG331
   24    26	 1 ;       NG301      SG3O2
   25    63	 1 ;       CG331       HGA3
   25    64	 1 ;       CG331       HGA3
   25    65	 1 ;       CG331       HGA3
   26    29	 1 ;       SG3O2      CG331
   26    28	 1 ;       SG3O2      OG2P1
   26    27	 1 ;       SG3O2      OG2P1
   29    66	 1 ;       CG331       HGA3
   29    67	 1 ;       CG331       HGA3
   29    68	 1 ;       CG331       HGA3
   30    38	 1 ;      CG2DC1      CG311
   30    31	 1 ;      CG2DC1      CG321
   31    32	 1 ;       CG321     CG2R61
   31    69	 1 ;       CG321       HGA2
   31    70	 1 ;       CG321       HGA2
   32    33	 1 ;      CG2R61     CG2R61
   32    37	 1 ;      CG2R61     CG2R61
   33    34	 1 ;      CG2R61     CG2R61
   33    71	 1 ;      CG2R61      HGR61
   34    35	 1 ;      CG2R61     CG2R61
   34    72	 1 ;      CG2R61      HGR61
   35    36	 1 ;      CG2R61     CG2R61
   35    73	 1 ;      CG2R61      HGR61
   36    37	 1 ;      CG2R61     CG2R61
   36    74	 1 ;      CG2R61      HGR61
   37    75	 1 ;      CG2R61      HGR61
   38    39	 1 ;       CG311      OG311
   38    41	 1 ;       CG311     CG3C53
   38    76	 1 ;       CG311       HGA1
   39    40	 1 ;       OG311       HGP1
   41    50	 1 ;      CG3C53     CG2R53
   41    42	 1 ;      CG3C53      NG3P2
   41    77	 1 ;      CG3C53       HGA1
   42    43	 1 ;       NG3P2     CG3C50
   42    44	 1 ;       NG3P2       HGP2
   42    45	 1 ;       NG3P2       HGP2
   43    46	 1 ;      CG3C50     NG2R53
   43    48	 1 ;      CG3C50      CG331
   43    47	 1 ;      CG3C50      CG331
   46    49	 1 ;      NG2R53      CG331
   46    50	 1 ;      NG2R53     CG2R53
   47    78	 1 ;       CG331       HGA3
   47    79	 1 ;       CG331       HGA3
   47    80	 1 ;       CG331       HGA3
   48    81	 1 ;       CG331       HGA3
   48    82	 1 ;       CG331       HGA3
   48    83	 1 ;       CG331       HGA3
   49    84	 1 ;       CG331       HGA3
   49    85	 1 ;       CG331       HGA3
   49    86	 1 ;       CG331       HGA3
   50    51	 1 ;      CG2R53      OG2D1

[ pairs ]
;	ai	  aj funct			  c0			c1			  c2			c3
    1    38	 1
    1    31	 1
    1     7	 1
    1    52	 1
    1     9	 1
    1    54	 1
    2     6	 1
    2    10	 1
    2     4	 1
    2    30	 1
    3     6	 1
    3    10	 1
    3    39	 1
    3    41	 1
    3    76	 1
    3    32	 1
    3    69	 1
    3    70	 1
    4     5	 1
    4    38	 1
    4    31	 1
    5    30	 1
    5    11	 1
    5     8	 1
    5    24	 1
    6     9	 1
    6    54	 1
    6    13	 1
    6    12	 1
    6    53	 1
    7    10	 1
    7    24	 1
    7    15	 1
    7    14	 1
    8    52	 1
    8    13	 1
    8    12	 1
    8    25	 1
    8    26	 1
    8    54	 1
    9    11	 1
    9    63	 1
    9    64	 1
    9    65	 1
    9    29	 1
    9    28	 1
    9    27	 1
   10    52	 1
   10    53	 1
   10    25	 1
   10    26	 1
   11    52	 1
   11    53	 1
   11    16	 1
   11    17	 1
   11    55	 1
   12    15	 1
   12    14	 1
   13    56	 1
   13    57	 1
   13    58	 1
   13    18	 1
   13    23	 1
   14    16	 1
   14    17	 1
   14    55	 1
   15    19	 1
   15    59	 1
   15    22	 1
   15    62	 1
   16    18	 1
   16    23	 1
   17    56	 1
   17    57	 1
   17    58	 1
   17    20	 1
   17    60	 1
   17    61	 1
   18    55	 1
   18    22	 1
   18    62	 1
   18    21	 1
   19    23	 1
   19    61	 1
   20    59	 1
   20    62	 1
   21    60	 1
   21    23	 1
   21    61	 1
   22    60	 1
   23    55	 1
   23    59	 1
   24    53	 1
   24    54	 1
   24    66	 1
   24    67	 1
   24    68	 1
   25    29	 1
   25    28	 1
   25    27	 1
   26    63	 1
   26    64	 1
   26    65	 1
   27    66	 1
   27    67	 1
   27    68	 1
   28    66	 1
   28    67	 1
   28    68	 1
   30    33	 1
   30    37	 1
   30    40	 1
   30    50	 1
   30    42	 1
   30    77	 1
   31    39	 1
   31    41	 1
   31    76	 1
   31    34	 1
   31    71	 1
   31    36	 1
   31    75	 1
   32    38	 1
   32    35	 1
   32    72	 1
   32    74	 1
   33    69	 1
   33    70	 1
   33    36	 1
   33    75	 1
   33    73	 1
   34    37	 1
   34    74	 1
   35    71	 1
   35    75	 1
   36    72	 1
   37    69	 1
   37    70	 1
   37    71	 1
   37    73	 1
   38    69	 1
   38    70	 1
   38    51	 1
   38    46	 1
   38    43	 1
   38    44	 1
   38    45	 1
   39    50	 1
   39    42	 1
   39    77	 1
   40    41	 1
   40    76	 1
   41    48	 1
   41    47	 1
   41    49	 1
   42    76	 1
   42    51	 1
   42    49	 1
   42    81	 1
   42    82	 1
   42    83	 1
   42    78	 1
   42    79	 1
   42    80	 1
   43    77	 1
   43    84	 1
   43    85	 1
   43    86	 1
   43    51	 1
   44    50	 1
   44    77	 1
   44    46	 1
   44    48	 1
   44    47	 1
   45    50	 1
   45    77	 1
   45    46	 1
   45    48	 1
   45    47	 1
   46    77	 1
   46    81	 1
   46    82	 1
   46    83	 1
   46    78	 1
   46    79	 1
   46    80	 1
   47    49	 1
   47    50	 1
   47    81	 1
   47    82	 1
   47    83	 1
   48    49	 1
   48    50	 1
   48    78	 1
   48    79	 1
   48    80	 1
   49    51	 1
   50    76	 1
   50    84	 1
   50    85	 1
   50    86	 1
   51    77	 1
   55    56	 1
   55    57	 1
   55    58	 1
   59    60	 1
   61    62	 1
   71    72	 1
   72    73	 1
   73    74	 1
   74    75	 1
   76    77	 1

[ angles ]
;	ai	  aj	ak funct			c0			  c1			c2			  c3
    5     1     3	5 ;     CG2R61      CG2O1      NG2P1
    5     1     2	5 ;     CG2R61      CG2O1      OG2D1
    3     1     2	5 ;      NG2P1      CG2O1      OG2D1
    4     3     1	5 ;       HGP2      NG2P1      CG2O1
    4     3    30	5 ;       HGP2      NG2P1     CG2DC1
    1     3    30	5 ;      CG2O1      NG2P1     CG2DC1
    6     5    10	5 ;     CG2R61     CG2R61     CG2R61
    6     5     1	5 ;     CG2R61     CG2R61      CG2O1
   10     5     1	5 ;     CG2R61     CG2R61      CG2O1
    7     6     5	5 ;     CG2R61     CG2R61     CG2R61
    7     6    52	5 ;     CG2R61     CG2R61      HGR61
    5     6    52	5 ;     CG2R61     CG2R61      HGR61
   11     7     8	5 ;      CG2O1     CG2R61     CG2R61
   11     7     6	5 ;      CG2O1     CG2R61     CG2R61
    8     7     6	5 ;     CG2R61     CG2R61     CG2R61
    7     8     9	5 ;     CG2R61     CG2R61     CG2R61
    7     8    53	5 ;     CG2R61     CG2R61      HGR61
    9     8    53	5 ;     CG2R61     CG2R61      HGR61
    8     9    24	5 ;     CG2R61     CG2R61      NG301
    8     9    10	5 ;     CG2R61     CG2R61     CG2R61
   24     9    10	5 ;      NG301     CG2R61     CG2R61
    9    10     5	5 ;     CG2R61     CG2R61     CG2R61
    9    10    54	5 ;     CG2R61     CG2R61      HGR61
    5    10    54	5 ;     CG2R61     CG2R61      HGR61
   13    11    12	5 ;      NG2S1      CG2O1      OG2D1
   13    11     7	5 ;      NG2S1      CG2O1     CG2R61
   12    11     7	5 ;      OG2D1      CG2O1     CG2R61
   15    13    14	5 ;      CG311      NG2S1       HGP1
   15    13    11	5 ;      CG311      NG2S1      CG2O1
   14    13    11	5 ;       HGP1      NG2S1      CG2O1
   16    15    17	5 ;      CG331      CG311     CG2R61
   16    15    13	5 ;      CG331      CG311      NG2S1
   16    15    55	5 ;      CG331      CG311       HGA1
   17    15    13	5 ;     CG2R61      CG311      NG2S1
   17    15    55	5 ;     CG2R61      CG311       HGA1
   13    15    55	5 ;      NG2S1      CG311       HGA1
   15    16    56	5 ;      CG311      CG331       HGA3
   15    16    57	5 ;      CG311      CG331       HGA3
   15    16    58	5 ;      CG311      CG331       HGA3
   56    16    57	5 ;       HGA3      CG331       HGA3
   56    16    58	5 ;       HGA3      CG331       HGA3
   57    16    58	5 ;       HGA3      CG331       HGA3
   18    17    15	5 ;     CG2R61     CG2R61      CG311
   18    17    23	5 ;     CG2R61     CG2R61     CG2R61
   15    17    23	5 ;      CG311     CG2R61     CG2R61
   19    18    17	5 ;     CG2R61     CG2R61     CG2R61
   19    18    59	5 ;     CG2R61     CG2R61      HGR61
   17    18    59	5 ;     CG2R61     CG2R61      HGR61
   18    19    20	5 ;     CG2R61     CG2R61     CG2R66
   18    19    60	5 ;     CG2R61     CG2R61      HGR62
   20    19    60	5 ;     CG2R66     CG2R61      HGR62
   19    20    21	5 ;     CG2R61     CG2R66       FGR1
   19    20    22	5 ;     CG2R61     CG2R66     CG2R61
   21    20    22	5 ;       FGR1     CG2R66     CG2R61
   20    22    23	5 ;     CG2R66     CG2R61     CG2R61
   20    22    61	5 ;     CG2R66     CG2R61      HGR62
   23    22    61	5 ;     CG2R61     CG2R61      HGR62
   17    23    22	5 ;     CG2R61     CG2R61     CG2R61
   17    23    62	5 ;     CG2R61     CG2R61      HGR61
   22    23    62	5 ;     CG2R61     CG2R61      HGR61
   25    24    26	5 ;      CG331      NG301      SG3O2
   25    24     9	5 ;      CG331      NG301     CG2R61
   26    24     9	5 ;      SG3O2      NG301     CG2R61
   24    25    63	5 ;      NG301      CG331       HGA3
   24    25    64	5 ;      NG301      CG331       HGA3
   24    25    65	5 ;      NG301      CG331       HGA3
   63    25    64	5 ;       HGA3      CG331       HGA3
   63    25    65	5 ;       HGA3      CG331       HGA3
   64    25    65	5 ;       HGA3      CG331       HGA3
   29    26    28	5 ;      CG331      SG3O2      OG2P1
   29    26    24	5 ;      CG331      SG3O2      NG301
   29    26    27	5 ;      CG331      SG3O2      OG2P1
   28    26    24	5 ;      OG2P1      SG3O2      NG301
   28    26    27	5 ;      OG2P1      SG3O2      OG2P1
   24    26    27	5 ;      NG301      SG3O2      OG2P1
   26    29    66	5 ;      SG3O2      CG331       HGA3
   26    29    67	5 ;      SG3O2      CG331       HGA3
   26    29    68	5 ;      SG3O2      CG331       HGA3
   66    29    67	5 ;       HGA3      CG331       HGA3
   66    29    68	5 ;       HGA3      CG331       HGA3
   67    29    68	5 ;       HGA3      CG331       HGA3
    3    30    38	5 ;      NG2P1     CG2DC1      CG311
    3    30    31	5 ;      NG2P1     CG2DC1      CG321
   38    30    31	5 ;      CG311     CG2DC1      CG321
   30    31    32	5 ;     CG2DC1      CG321     CG2R61
   30    31    69	5 ;     CG2DC1      CG321       HGA2
   30    31    70	5 ;     CG2DC1      CG321       HGA2
   32    31    69	5 ;     CG2R61      CG321       HGA2
   32    31    70	5 ;     CG2R61      CG321       HGA2
   69    31    70	5 ;       HGA2      CG321       HGA2
   31    32    33	5 ;      CG321     CG2R61     CG2R61
   31    32    37	5 ;      CG321     CG2R61     CG2R61
   33    32    37	5 ;     CG2R61     CG2R61     CG2R61
   32    33    34	5 ;     CG2R61     CG2R61     CG2R61
   32    33    71	5 ;     CG2R61     CG2R61      HGR61
   34    33    71	5 ;     CG2R61     CG2R61      HGR61
   33    34    35	5 ;     CG2R61     CG2R61     CG2R61
   33    34    72	5 ;     CG2R61     CG2R61      HGR61
   35    34    72	5 ;     CG2R61     CG2R61      HGR61
   34    35    36	5 ;     CG2R61     CG2R61     CG2R61
   34    35    73	5 ;     CG2R61     CG2R61      HGR61
   36    35    73	5 ;     CG2R61     CG2R61      HGR61
   37    36    35	5 ;     CG2R61     CG2R61     CG2R61
   37    36    74	5 ;     CG2R61     CG2R61      HGR61
   35    36    74	5 ;     CG2R61     CG2R61      HGR61
   32    37    36	5 ;     CG2R61     CG2R61     CG2R61
   32    37    75	5 ;     CG2R61     CG2R61      HGR61
   36    37    75	5 ;     CG2R61     CG2R61      HGR61
   39    38    30	5 ;      OG311      CG311     CG2DC1
   39    38    41	5 ;      OG311      CG311     CG3C53
   39    38    76	5 ;      OG311      CG311       HGA1
   30    38    41	5 ;     CG2DC1      CG311     CG3C53
   30    38    76	5 ;     CG2DC1      CG311       HGA1
   41    38    76	5 ;     CG3C53      CG311       HGA1
   40    39    38	5 ;       HGP1      OG311      CG311
   50    41    38	5 ;     CG2R53     CG3C53      CG311
   50    41    42	5 ;     CG2R53     CG3C53      NG3P2
   50    41    77	5 ;     CG2R53     CG3C53       HGA1
   38    41    42	5 ;      CG311     CG3C53      NG3P2
   38    41    77	5 ;      CG311     CG3C53       HGA1
   42    41    77	5 ;      NG3P2     CG3C53       HGA1
   41    42    43	5 ;     CG3C53      NG3P2     CG3C50
   41    42    44	5 ;     CG3C53      NG3P2       HGP2
   41    42    45	5 ;     CG3C53      NG3P2       HGP2
   43    42    44	5 ;     CG3C50      NG3P2       HGP2
   43    42    45	5 ;     CG3C50      NG3P2       HGP2
   44    42    45	5 ;       HGP2      NG3P2       HGP2
   46    43    42	5 ;     NG2R53     CG3C50      NG3P2
   46    43    48	5 ;     NG2R53     CG3C50      CG331
   46    43    47	5 ;     NG2R53     CG3C50      CG331
   42    43    48	5 ;      NG3P2     CG3C50      CG331
   42    43    47	5 ;      NG3P2     CG3C50      CG331
   48    43    47	5 ;      CG331     CG3C50      CG331
   49    46    50	5 ;      CG331     NG2R53     CG2R53
   49    46    43	5 ;      CG331     NG2R53     CG3C50
   50    46    43	5 ;     CG2R53     NG2R53     CG3C50
   43    47    78	5 ;     CG3C50      CG331       HGA3
   43    47    79	5 ;     CG3C50      CG331       HGA3
   43    47    80	5 ;     CG3C50      CG331       HGA3
   78    47    79	5 ;       HGA3      CG331       HGA3
   78    47    80	5 ;       HGA3      CG331       HGA3
   79    47    80	5 ;       HGA3      CG331       HGA3
   43    48    81	5 ;     CG3C50      CG331       HGA3
   43    48    82	5 ;     CG3C50      CG331       HGA3
   43    48    83	5 ;     CG3C50      CG331       HGA3
   81    48    82	5 ;       HGA3      CG331       HGA3
   81    48    83	5 ;       HGA3      CG331       HGA3
   82    48    83	5 ;       HGA3      CG331       HGA3
   46    49    84	5 ;     NG2R53      CG331       HGA3
   46    49    85	5 ;     NG2R53      CG331       HGA3
   46    49    86	5 ;     NG2R53      CG331       HGA3
   84    49    85	5 ;       HGA3      CG331       HGA3
   84    49    86	5 ;       HGA3      CG331       HGA3
   85    49    86	5 ;       HGA3      CG331       HGA3
   51    50    46	5 ;      OG2D1     CG2R53     NG2R53
   51    50    41	5 ;      OG2D1     CG2R53     CG3C53
   46    50    41	5 ;     NG2R53     CG2R53     CG3C53

[ dihedrals ]
;	ai	  aj	ak	  al funct			  c0			c1			  c2			c3			  c4			c5
    3     1     5     6	 9 ;      NG2P1      CG2O1     CG2R61     CG2R61
    3     1     5    10	 9 ;      NG2P1      CG2O1     CG2R61     CG2R61
    2     1     5     6	 9 ;      OG2D1      CG2O1     CG2R61     CG2R61
    2     1     5    10	 9 ;      OG2D1      CG2O1     CG2R61     CG2R61
    5     1     3     4	 9 ;     CG2R61      CG2O1      NG2P1       HGP2
    5     1     3    30	 9 ;     CG2R61      CG2O1      NG2P1     CG2DC1
    2     1     3     4	 9 ;      OG2D1      CG2O1      NG2P1       HGP2
    2     1     3    30	 9 ;      OG2D1      CG2O1      NG2P1     CG2DC1
    4     3    30    38	 9 ;       HGP2      NG2P1     CG2DC1      CG311
    4     3    30    31	 9 ;       HGP2      NG2P1     CG2DC1      CG321
    1     3    30    38	 9 ;      CG2O1      NG2P1     CG2DC1      CG311
    1     3    30    31	 9 ;      CG2O1      NG2P1     CG2DC1      CG321
   10     5     6     7	 9 ;     CG2R61     CG2R61     CG2R61     CG2R61
   10     5     6    52	 9 ;     CG2R61     CG2R61     CG2R61      HGR61
    1     5     6     7	 9 ;      CG2O1     CG2R61     CG2R61     CG2R61
    1     5     6    52	 9 ;      CG2O1     CG2R61     CG2R61      HGR61
    6     5    10     9	 9 ;     CG2R61     CG2R61     CG2R61     CG2R61
    6     5    10    54	 9 ;     CG2R61     CG2R61     CG2R61      HGR61
    1     5    10     9	 9 ;      CG2O1     CG2R61     CG2R61     CG2R61
    1     5    10    54	 9 ;      CG2O1     CG2R61     CG2R61      HGR61
    5     6     7    11	 9 ;     CG2R61     CG2R61     CG2R61      CG2O1
    5     6     7     8	 9 ;     CG2R61     CG2R61     CG2R61     CG2R61
   52     6     7    11	 9 ;      HGR61     CG2R61     CG2R61      CG2O1
   52     6     7     8	 9 ;      HGR61     CG2R61     CG2R61     CG2R61
    8     7    11    13	 9 ;     CG2R61     CG2R61      CG2O1      NG2S1
    8     7    11    12	 9 ;     CG2R61     CG2R61      CG2O1      OG2D1
    6     7    11    13	 9 ;     CG2R61     CG2R61      CG2O1      NG2S1
    6     7    11    12	 9 ;     CG2R61     CG2R61      CG2O1      OG2D1
   11     7     8     9	 9 ;      CG2O1     CG2R61     CG2R61     CG2R61
   11     7     8    53	 9 ;      CG2O1     CG2R61     CG2R61      HGR61
    6     7     8     9	 9 ;     CG2R61     CG2R61     CG2R61     CG2R61
    6     7     8    53	 9 ;     CG2R61     CG2R61     CG2R61      HGR61
    7     8     9    24	 9 ;     CG2R61     CG2R61     CG2R61      NG301
    7     8     9    10	 9 ;     CG2R61     CG2R61     CG2R61     CG2R61
   53     8     9    24	 9 ;      HGR61     CG2R61     CG2R61      NG301
   53     8     9    10	 9 ;      HGR61     CG2R61     CG2R61     CG2R61
    8     9    24    25	 9 ;     CG2R61     CG2R61      NG301      CG331
    8     9    24    26	 9 ;     CG2R61     CG2R61      NG301      SG3O2
   10     9    24    25	 9 ;     CG2R61     CG2R61      NG301      CG331
   10     9    24    26	 9 ;     CG2R61     CG2R61      NG301      SG3O2
    8     9    10     5	 9 ;     CG2R61     CG2R61     CG2R61     CG2R61
    8     9    10    54	 9 ;     CG2R61     CG2R61     CG2R61      HGR61
   24     9    10     5	 9 ;      NG301     CG2R61     CG2R61     CG2R61
   24     9    10    54	 9 ;      NG301     CG2R61     CG2R61      HGR61
   12    11    13    15	 9 ;      OG2D1      CG2O1      NG2S1      CG311
   12    11    13    14	 9 ;      OG2D1      CG2O1      NG2S1       HGP1
    7    11    13    15	 9 ;     CG2R61      CG2O1      NG2S1      CG311
    7    11    13    14	 9 ;     CG2R61      CG2O1      NG2S1       HGP1
   14    13    15    16	 9 ;       HGP1      NG2S1      CG311      CG331
   14    13    15    17	 9 ;       HGP1      NG2S1      CG311     CG2R61
   14    13    15    55	 9 ;       HGP1      NG2S1      CG311       HGA1
   11    13    15    16	 9 ;      CG2O1      NG2S1      CG311      CG331
   11    13    15    17	 9 ;      CG2O1      NG2S1      CG311     CG2R61
   11    13    15    55	 9 ;      CG2O1      NG2S1      CG311       HGA1
   17    15    16    56	 9 ;     CG2R61      CG311      CG331       HGA3
   17    15    16    57	 9 ;     CG2R61      CG311      CG331       HGA3
   17    15    16    58	 9 ;     CG2R61      CG311      CG331       HGA3
   13    15    16    56	 9 ;      NG2S1      CG311      CG331       HGA3
   13    15    16    57	 9 ;      NG2S1      CG311      CG331       HGA3
   13    15    16    58	 9 ;      NG2S1      CG311      CG331       HGA3
   55    15    16    56	 9 ;       HGA1      CG311      CG331       HGA3
   55    15    16    57	 9 ;       HGA1      CG311      CG331       HGA3
   55    15    16    58	 9 ;       HGA1      CG311      CG331       HGA3
   16    15    17    18	 9 ;      CG331      CG311     CG2R61     CG2R61
   16    15    17    23	 9 ;      CG331      CG311     CG2R61     CG2R61
   13    15    17    18	 9 ;      NG2S1      CG311     CG2R61     CG2R61
   13    15    17    23	 9 ;      NG2S1      CG311     CG2R61     CG2R61
   55    15    17    18	 9 ;       HGA1      CG311     CG2R61     CG2R61
   55    15    17    23	 9 ;       HGA1      CG311     CG2R61     CG2R61
   15    17    18    19	 9 ;      CG311     CG2R61     CG2R61     CG2R61
   15    17    18    59	 9 ;      CG311     CG2R61     CG2R61      HGR61
   23    17    18    19	 9 ;     CG2R61     CG2R61     CG2R61     CG2R61
   23    17    18    59	 9 ;     CG2R61     CG2R61     CG2R61      HGR61
   18    17    23    22	 9 ;     CG2R61     CG2R61     CG2R61     CG2R61
   18    17    23    62	 9 ;     CG2R61     CG2R61     CG2R61      HGR61
   15    17    23    22	 9 ;      CG311     CG2R61     CG2R61     CG2R61
   15    17    23    62	 9 ;      CG311     CG2R61     CG2R61      HGR61
   17    18    19    20	 9 ;     CG2R61     CG2R61     CG2R61     CG2R66
   17    18    19    60	 9 ;     CG2R61     CG2R61     CG2R61      HGR62
   59    18    19    20	 9 ;      HGR61     CG2R61     CG2R61     CG2R66
   59    18    19    60	 9 ;      HGR61     CG2R61     CG2R61      HGR62
   18    19    20    21	 9 ;     CG2R61     CG2R61     CG2R66       FGR1
   18    19    20    22	 9 ;     CG2R61     CG2R61     CG2R66     CG2R61
   60    19    20    21	 9 ;      HGR62     CG2R61     CG2R66       FGR1
   60    19    20    22	 9 ;      HGR62     CG2R61     CG2R66     CG2R61
   19    20    22    23	 9 ;     CG2R61     CG2R66     CG2R61     CG2R61
   19    20    22    61	 9 ;     CG2R61     CG2R66     CG2R61      HGR62
   21    20    22    23	 9 ;       FGR1     CG2R66     CG2R61     CG2R61
   21    20    22    61	 9 ;       FGR1     CG2R66     CG2R61      HGR62
   20    22    23    17	 9 ;     CG2R66     CG2R61     CG2R61     CG2R61
   20    22    23    62	 9 ;     CG2R66     CG2R61     CG2R61      HGR61
   61    22    23    17	 9 ;      HGR62     CG2R61     CG2R61     CG2R61
   61    22    23    62	 9 ;      HGR62     CG2R61     CG2R61      HGR61
   26    24    25    63	 9 ;      SG3O2      NG301      CG331       HGA3
   26    24    25    64	 9 ;      SG3O2      NG301      CG331       HGA3
   26    24    25    65	 9 ;      SG3O2      NG301      CG331       HGA3
    9    24    25    63	 9 ;     CG2R61      NG301      CG331       HGA3
    9    24    25    64	 9 ;     CG2R61      NG301      CG331       HGA3
    9    24    25    65	 9 ;     CG2R61      NG301      CG331       HGA3
   25    24    26    29	 9 ;      CG331      NG301      SG3O2      CG331
   25    24    26    28	 9 ;      CG331      NG301      SG3O2      OG2P1
   25    24    26    27	 9 ;      CG331      NG301      SG3O2      OG2P1
    9    24    26    29	 9 ;     CG2R61      NG301      SG3O2      CG331
    9    24    26    28	 9 ;     CG2R61      NG301      SG3O2      OG2P1
    9    24    26    27	 9 ;     CG2R61      NG301      SG3O2      OG2P1
   28    26    29    66	 9 ;      OG2P1      SG3O2      CG331       HGA3
   28    26    29    67	 9 ;      OG2P1      SG3O2      CG331       HGA3
   28    26    29    68	 9 ;      OG2P1      SG3O2      CG331       HGA3
   24    26    29    66	 9 ;      NG301      SG3O2      CG331       HGA3
   24    26    29    67	 9 ;      NG301      SG3O2      CG331       HGA3
   24    26    29    68	 9 ;      NG301      SG3O2      CG331       HGA3
   27    26    29    66	 9 ;      OG2P1      SG3O2      CG331       HGA3
   27    26    29    67	 9 ;      OG2P1      SG3O2      CG331       HGA3
   27    26    29    68	 9 ;      OG2P1      SG3O2      CG331       HGA3
    3    30    38    39	 9 ;      NG2P1     CG2DC1      CG311      OG311
    3    30    38    41	 9 ;      NG2P1     CG2DC1      CG311     CG3C53
    3    30    38    76	 9 ;      NG2P1     CG2DC1      CG311       HGA1
   31    30    38    39	 9 ;      CG321     CG2DC1      CG311      OG311
   31    30    38    41	 9 ;      CG321     CG2DC1      CG311     CG3C53
   31    30    38    76	 9 ;      CG321     CG2DC1      CG311       HGA1
    3    30    31    32	 9 ;      NG2P1     CG2DC1      CG321     CG2R61
    3    30    31    69	 9 ;      NG2P1     CG2DC1      CG321       HGA2
    3    30    31    70	 9 ;      NG2P1     CG2DC1      CG321       HGA2
   38    30    31    32	 9 ;      CG311     CG2DC1      CG321     CG2R61
   38    30    31    69	 9 ;      CG311     CG2DC1      CG321       HGA2
   38    30    31    70	 9 ;      CG311     CG2DC1      CG321       HGA2
   30    31    32    33	 9 ;     CG2DC1      CG321     CG2R61     CG2R61
   30    31    32    37	 9 ;     CG2DC1      CG321     CG2R61     CG2R61
   69    31    32    33	 9 ;       HGA2      CG321     CG2R61     CG2R61
   69    31    32    37	 9 ;       HGA2      CG321     CG2R61     CG2R61
   70    31    32    33	 9 ;       HGA2      CG321     CG2R61     CG2R61
   70    31    32    37	 9 ;       HGA2      CG321     CG2R61     CG2R61
   31    32    33    34	 9 ;      CG321     CG2R61     CG2R61     CG2R61
   31    32    33    71	 9 ;      CG321     CG2R61     CG2R61      HGR61
   37    32    33    34	 9 ;     CG2R61     CG2R61     CG2R61     CG2R61
   37    32    33    71	 9 ;     CG2R61     CG2R61     CG2R61      HGR61
   31    32    37    36	 9 ;      CG321     CG2R61     CG2R61     CG2R61
   31    32    37    75	 9 ;      CG321     CG2R61     CG2R61      HGR61
   33    32    37    36	 9 ;     CG2R61     CG2R61     CG2R61     CG2R61
   33    32    37    75	 9 ;     CG2R61     CG2R61     CG2R61      HGR61
   32    33    34    35	 9 ;     CG2R61     CG2R61     CG2R61     CG2R61
   32    33    34    72	 9 ;     CG2R61     CG2R61     CG2R61      HGR61
   71    33    34    35	 9 ;      HGR61     CG2R61     CG2R61     CG2R61
   71    33    34    72	 9 ;      HGR61     CG2R61     CG2R61      HGR61
   33    34    35    36	 9 ;     CG2R61     CG2R61     CG2R61     CG2R61
   33    34    35    73	 9 ;     CG2R61     CG2R61     CG2R61      HGR61
   72    34    35    36	 9 ;      HGR61     CG2R61     CG2R61     CG2R61
   72    34    35    73	 9 ;      HGR61     CG2R61     CG2R61      HGR61
   34    35    36    37	 9 ;     CG2R61     CG2R61     CG2R61     CG2R61
   34    35    36    74	 9 ;     CG2R61     CG2R61     CG2R61      HGR61
   73    35    36    37	 9 ;      HGR61     CG2R61     CG2R61     CG2R61
   73    35    36    74	 9 ;      HGR61     CG2R61     CG2R61      HGR61
   35    36    37    32	 9 ;     CG2R61     CG2R61     CG2R61     CG2R61
   35    36    37    75	 9 ;     CG2R61     CG2R61     CG2R61      HGR61
   74    36    37    32	 9 ;      HGR61     CG2R61     CG2R61     CG2R61
   74    36    37    75	 9 ;      HGR61     CG2R61     CG2R61      HGR61
   30    38    39    40	 9 ;     CG2DC1      CG311      OG311       HGP1
   41    38    39    40	 9 ;     CG3C53      CG311      OG311       HGP1
   76    38    39    40	 9 ;       HGA1      CG311      OG311       HGP1
   39    38    41    50	 9 ;      OG311      CG311     CG3C53     CG2R53
   39    38    41    42	 9 ;      OG311      CG311     CG3C53      NG3P2
   39    38    41    77	 9 ;      OG311      CG311     CG3C53       HGA1
   30    38    41    50	 9 ;     CG2DC1      CG311     CG3C53     CG2R53
   30    38    41    42	 9 ;     CG2DC1      CG311     CG3C53      NG3P2
   30    38    41    77	 9 ;     CG2DC1      CG311     CG3C53       HGA1
   76    38    41    50	 9 ;       HGA1      CG311     CG3C53     CG2R53
   76    38    41    42	 9 ;       HGA1      CG311     CG3C53      NG3P2
   76    38    41    77	 9 ;       HGA1      CG311     CG3C53       HGA1
   38    41    50    51	 9 ;      CG311     CG3C53     CG2R53      OG2D1
   38    41    50    46	 9 ;      CG311     CG3C53     CG2R53     NG2R53
   42    41    50    51	 9 ;      NG3P2     CG3C53     CG2R53      OG2D1
   42    41    50    46	 9 ;      NG3P2     CG3C53     CG2R53     NG2R53
   77    41    50    51	 9 ;       HGA1     CG3C53     CG2R53      OG2D1
   77    41    50    46	 9 ;       HGA1     CG3C53     CG2R53     NG2R53
   50    41    42    43	 9 ;     CG2R53     CG3C53      NG3P2     CG3C50
   50    41    42    44	 9 ;     CG2R53     CG3C53      NG3P2       HGP2
   50    41    42    45	 9 ;     CG2R53     CG3C53      NG3P2       HGP2
   38    41    42    43	 9 ;      CG311     CG3C53      NG3P2     CG3C50
   38    41    42    44	 9 ;      CG311     CG3C53      NG3P2       HGP2
   38    41    42    45	 9 ;      CG311     CG3C53      NG3P2       HGP2
   77    41    42    43	 9 ;       HGA1     CG3C53      NG3P2     CG3C50
   77    41    42    44	 9 ;       HGA1     CG3C53      NG3P2       HGP2
   77    41    42    45	 9 ;       HGA1     CG3C53      NG3P2       HGP2
   41    42    43    46	 9 ;     CG3C53      NG3P2     CG3C50     NG2R53
   41    42    43    48	 9 ;     CG3C53      NG3P2     CG3C50      CG331
   41    42    43    47	 9 ;     CG3C53      NG3P2     CG3C50      CG331
   44    42    43    46	 9 ;       HGP2      NG3P2     CG3C50     NG2R53
   44    42    43    48	 9 ;       HGP2      NG3P2     CG3C50      CG331
   44    42    43    47	 9 ;       HGP2      NG3P2     CG3C50      CG331
   45    42    43    46	 9 ;       HGP2      NG3P2     CG3C50     NG2R53
   45    42    43    48	 9 ;       HGP2      NG3P2     CG3C50      CG331
   45    42    43    47	 9 ;       HGP2      NG3P2     CG3C50      CG331
   42    43    46    49	 9 ;      NG3P2     CG3C50     NG2R53      CG331
   42    43    46    50	 9 ;      NG3P2     CG3C50     NG2R53     CG2R53
   48    43    46    49	 9 ;      CG331     CG3C50     NG2R53      CG331
   48    43    46    50	 9 ;      CG331     CG3C50     NG2R53     CG2R53
   47    43    46    49	 9 ;      CG331     CG3C50     NG2R53      CG331
   47    43    46    50	 9 ;      CG331     CG3C50     NG2R53     CG2R53
   46    43    48    81	 9 ;     NG2R53     CG3C50      CG331       HGA3
   46    43    48    82	 9 ;     NG2R53     CG3C50      CG331       HGA3
   46    43    48    83	 9 ;     NG2R53     CG3C50      CG331       HGA3
   42    43    48    81	 9 ;      NG3P2     CG3C50      CG331       HGA3
   42    43    48    82	 9 ;      NG3P2     CG3C50      CG331       HGA3
   42    43    48    83	 9 ;      NG3P2     CG3C50      CG331       HGA3
   47    43    48    81	 9 ;      CG331     CG3C50      CG331       HGA3
   47    43    48    82	 9 ;      CG331     CG3C50      CG331       HGA3
   47    43    48    83	 9 ;      CG331     CG3C50      CG331       HGA3
   46    43    47    78	 9 ;     NG2R53     CG3C50      CG331       HGA3
   46    43    47    79	 9 ;     NG2R53     CG3C50      CG331       HGA3
   46    43    47    80	 9 ;     NG2R53     CG3C50      CG331       HGA3
   42    43    47    78	 9 ;      NG3P2     CG3C50      CG331       HGA3
   42    43    47    79	 9 ;      NG3P2     CG3C50      CG331       HGA3
   42    43    47    80	 9 ;      NG3P2     CG3C50      CG331       HGA3
   48    43    47    78	 9 ;      CG331     CG3C50      CG331       HGA3
   48    43    47    79	 9 ;      CG331     CG3C50      CG331       HGA3
   48    43    47    80	 9 ;      CG331     CG3C50      CG331       HGA3
   50    46    49    84	 9 ;     CG2R53     NG2R53      CG331       HGA3
   50    46    49    85	 9 ;     CG2R53     NG2R53      CG331       HGA3
   50    46    49    86	 9 ;     CG2R53     NG2R53      CG331       HGA3
   43    46    49    84	 9 ;     CG3C50     NG2R53      CG331       HGA3
   43    46    49    85	 9 ;     CG3C50     NG2R53      CG331       HGA3
   43    46    49    86	 9 ;     CG3C50     NG2R53      CG331       HGA3
   49    46    50    51	 9 ;      CG331     NG2R53     CG2R53      OG2D1
   49    46    50    41	 9 ;      CG331     NG2R53     CG2R53     CG3C53
   43    46    50    51	 9 ;     CG3C50     NG2R53     CG2R53      OG2D1
   43    46    50    41	 9 ;     CG3C50     NG2R53     CG2R53     CG3C53

[ dihedrals ]
;	ai	  aj	ak	  al funct			  c0			c1			  c2			c3
    1     5     3     2	 2
   11     7    13    12	 2
   30    38    31     3	 2
   50    41    46    51	 2

