; Created by cgenff_charmm2gmx.py

[ moleculetype ]
; Name			   nrexcl
LIG				 3

[ atoms ]
;	 nr		  type	resnr residue  atom   cgnr	   charge		mass  typeB    chargeB		massB
; residue	 1 LIG rtp LIG q	qsum
     1     CG2R61      1    LIG     C1      1     -0.137     12.011   ;
     2     CG2R61      1    LIG     C2      2     -0.127     12.011   ;
     3     CG2R61      1    LIG     C3      3     -0.324     12.011   ;
     4     CG2R61      1    LIG     C4      4      0.147     12.011   ;
     5     OG3R60      1    LIG     O1      5     -0.292     15.999   ;
     6     CG2R61      1    LIG     C5      6      0.147     12.011   ;
     7     CG2R61      1    LIG     C6      7     -0.324     12.011   ;
     8     CG2R61      1    LIG     C7      8     -0.131     12.011   ;
     9     CG2R61      1    LIG     C8      9      0.222     12.011   ;
    10     CG2R61      1    LIG     C9     10     -0.117     12.011   ;
    11     CG2R61      1    LIG    C10     11     -0.106     12.011   ;
    12     CG3C50      1    LIG    C11     12      1.306     12.011   ;
    13      NG3P2      1    LIG     N1     13     -1.541     14.007   ;
    14       HGP2      1    LIG    HN3     14      0.500      1.008   ;
    15     CG3C53      1    LIG    C12     15      1.711     12.011   ;
    16     OG3C51      1    LIG     O2     16     -0.243     15.999   ;
    17     CG3C52      1    LIG    C13     17     -0.015     12.011   ;
    18     CG2R61      1    LIG    C14     18     -0.106     12.011   ;
    19     CG2R61      1    LIG    C15     19     -0.113     12.011   ;
    20     CG2DC1      1    LIG    C16     20      0.053     12.011   ;
    21     CG2DC2      1    LIG    C17     21     -0.246     12.011   ;
    22     CG2DC2      1    LIG    C18     22     -0.181     12.011   ;
    23      CG321      1    LIG    C19     23     -0.037     12.011   ;
    24      NG311      1    LIG     N2     24     -0.466     14.007   ;
    25     CG2D1O      1    LIG    C20     25      0.321     12.011   ;
    26     HGPAM1      1    LIG    HN4     26      0.324      1.008   ;
    27       FGA1      1    LIG      F     27     -0.107     18.998   ;
    28      NG3P3      1    LIG     N3     28     -0.781     14.007   ;
    29       HGP2      1    LIG     H1     29      0.307      1.008   ;
    30       HGP2      1    LIG     H2     30      0.307      1.008   ;
    31      OG301      1    LIG     O3     31     -0.383     15.999   ;
    32      CG331      1    LIG    C21     32     -0.094     12.011   ;
    33      HGR61      1    LIG     HC     33      0.116      1.008   ;
    34      HGR61      1    LIG    HC1     34      0.116      1.008   ;
    35      HGR61      1    LIG    HC2     35      0.116      1.008   ;
    36      HGR61      1    LIG    HC3     36      0.116      1.008   ;
    37       HGP2      1    LIG    HN2     37      0.500      1.008   ;
    38       HGA1      1    LIG    HC4     38      0.090      1.008   ;
    39       HGA2      1    LIG    HC5     39      0.090      1.008   ;
    40       HGA2      1    LIG    HC6     40      0.090      1.008   ;
    41      HGR61      1    LIG    HC7     41      0.116      1.008   ;
    42      HGR61      1    LIG    HC8     42      0.116      1.008   ;
    43       HGA4      1    LIG    HC9     43      0.153      1.008   ;
    44       HGA4      1    LIG   HC10     44      0.150      1.008   ;
    45       HGA2      1    LIG   HC11     45      0.090      1.008   ;
    46       HGP2      1    LIG    HN1     46      0.307      1.008   ;
    47       HGA3      1    LIG   HC12     47      0.090      1.008   ;
    48       HGA3      1    LIG   HC13     48      0.090      1.008   ;
    49       HGA3      1    LIG   HC14     49      0.090      1.008   ;
    50       HGA2      1    LIG    H22     50      0.090      1.008   ;

[ bonds ]
;	ai	  aj funct			  c0			c1			  c2			c3
    1    19	 1 ;      CG2R61     CG2R61
    1    20	 1 ;      CG2R61     CG2DC1
    1     2	 1 ;      CG2R61     CG2R61
    2     3	 1 ;      CG2R61     CG2R61
    2    33	 1 ;      CG2R61      HGR61
    3     4	 1 ;      CG2R61     CG2R61
    3    12	 1 ;      CG2R61     CG3C50
    4    18	 1 ;      CG2R61     CG2R61
    4     5	 1 ;      CG2R61     OG3R60
    5     6	 1 ;      OG3R60     CG2R61
    6    11	 1 ;      CG2R61     CG2R61
    6     7	 1 ;      CG2R61     CG2R61
    7    12	 1 ;      CG2R61     CG3C50
    7     8	 1 ;      CG2R61     CG2R61
    8     9	 1 ;      CG2R61     CG2R61
    8    34	 1 ;      CG2R61      HGR61
    9    10	 1 ;      CG2R61     CG2R61
    9    31	 1 ;      CG2R61      OG301
   10    11	 1 ;      CG2R61     CG2R61
   10    35	 1 ;      CG2R61      HGR61
   11    36	 1 ;      CG2R61      HGR61
   12    13	 1 ;      CG3C50      NG3P2
   12    17	 1 ;      CG3C50     CG3C52
   13    14	 1 ;       NG3P2       HGP2
   13    15	 1 ;       NG3P2     CG3C53
   13    37	 1 ;       NG3P2       HGP2
   15    28	 1 ;      CG3C53      NG3P3
   15    16	 1 ;      CG3C53     OG3C51
   15    38	 1 ;      CG3C53       HGA1
   16    17	 1 ;      OG3C51     CG3C52
   17    39	 1 ;      CG3C52       HGA2
   17    40	 1 ;      CG3C52       HGA2
   18    19	 1 ;      CG2R61     CG2R61
   18    41	 1 ;      CG2R61      HGR61
   19    42	 1 ;      CG2R61      HGR61
   20    25	 1 ;      CG2DC1     CG2D1O
   20    21	 1 ;      CG2DC1     CG2DC2
   21    22	 1 ;      CG2DC2     CG2DC2
   21    43	 1 ;      CG2DC2       HGA4
   22    23	 1 ;      CG2DC2      CG321
   22    44	 1 ;      CG2DC2       HGA4
   23    24	 1 ;       CG321      NG311
   23    45	 1 ;       CG321       HGA2
   23    50	 1 ;       CG321       HGA2
   24    26	 1 ;       NG311     HGPAM1
   24    25	 1 ;       NG311     CG2D1O
   25    27	 1 ;      CG2D1O       FGA1
   28    30	 1 ;       NG3P3       HGP2
   28    29	 1 ;       NG3P3       HGP2
   28    46	 1 ;       NG3P3       HGP2
   31    32	 1 ;       OG301      CG331
   32    47	 1 ;       CG331       HGA3
   32    48	 1 ;       CG331       HGA3
   32    49	 1 ;       CG331       HGA3

[ pairs ]
;	ai	  aj funct			  c0			c1			  c2			c3
    1     4	 1
    1    12	 1
    1    41	 1
    1    27	 1
    1    24	 1
    1    22	 1
    1    43	 1
    2    18	 1
    2    42	 1
    2    25	 1
    2    21	 1
    2     5	 1
    2    13	 1
    2     7	 1
    2    17	 1
    3    19	 1
    3    20	 1
    3    41	 1
    3     6	 1
    3     8	 1
    3    14	 1
    3    15	 1
    3    37	 1
    3    16	 1
    3    39	 1
    3    40	 1
    4    33	 1
    4    13	 1
    4     7	 1
    4    17	 1
    4    11	 1
    4    42	 1
    5    12	 1
    5    19	 1
    5    41	 1
    5    10	 1
    5    36	 1
    5     8	 1
    6    18	 1
    6    13	 1
    6    17	 1
    6     9	 1
    6    34	 1
    6    35	 1
    7    10	 1
    7    36	 1
    7    31	 1
    7    14	 1
    7    15	 1
    7    37	 1
    7    16	 1
    7    39	 1
    7    40	 1
    8    11	 1
    8    13	 1
    8    17	 1
    8    35	 1
    8    32	 1
    9    12	 1
    9    36	 1
    9    47	 1
    9    48	 1
    9    49	 1
   10    34	 1
   10    32	 1
   11    12	 1
   11    31	 1
   12    33	 1
   12    18	 1
   12    34	 1
   12    28	 1
   12    38	 1
   13    39	 1
   13    40	 1
   13    30	 1
   13    29	 1
   13    46	 1
   14    17	 1
   14    28	 1
   14    16	 1
   14    38	 1
   15    39	 1
   15    40	 1
   16    37	 1
   16    30	 1
   16    29	 1
   16    46	 1
   17    37	 1
   17    28	 1
   17    38	 1
   18    20	 1
   19    25	 1
   19    21	 1
   19    33	 1
   20    42	 1
   20    33	 1
   20    23	 1
   20    44	 1
   20    26	 1
   21    27	 1
   21    24	 1
   21    45	 1
   21    50	 1
   22    25	 1
   22    26	 1
   23    43	 1
   23    27	 1
   24    44	 1
   25    43	 1
   25    45	 1
   25    50	 1
   26    45	 1
   26    50	 1
   26    27	 1
   28    37	 1
   29    38	 1
   30    38	 1
   31    34	 1
   31    35	 1
   35    36	 1
   37    38	 1
   38    46	 1
   41    42	 1
   43    44	 1
   44    45	 1
   44    50	 1

[ angles ]
;	ai	  aj	ak funct			c0			  c1			c2			  c3
   19     1    20	5 ;     CG2R61     CG2R61     CG2DC1
   19     1     2	5 ;     CG2R61     CG2R61     CG2R61
   20     1     2	5 ;     CG2DC1     CG2R61     CG2R61
    1     2     3	5 ;     CG2R61     CG2R61     CG2R61
    1     2    33	5 ;     CG2R61     CG2R61      HGR61
    3     2    33	5 ;     CG2R61     CG2R61      HGR61
    4     3     2	5 ;     CG2R61     CG2R61     CG2R61
    4     3    12	5 ;     CG2R61     CG2R61     CG3C50
    2     3    12	5 ;     CG2R61     CG2R61     CG3C50
   18     4     5	5 ;     CG2R61     CG2R61     OG3R60
   18     4     3	5 ;     CG2R61     CG2R61     CG2R61
    5     4     3	5 ;     OG3R60     CG2R61     CG2R61
    4     5     6	5 ;     CG2R61     OG3R60     CG2R61
    5     6    11	5 ;     OG3R60     CG2R61     CG2R61
    5     6     7	5 ;     OG3R60     CG2R61     CG2R61
   11     6     7	5 ;     CG2R61     CG2R61     CG2R61
    6     7    12	5 ;     CG2R61     CG2R61     CG3C50
    6     7     8	5 ;     CG2R61     CG2R61     CG2R61
   12     7     8	5 ;     CG3C50     CG2R61     CG2R61
    7     8     9	5 ;     CG2R61     CG2R61     CG2R61
    7     8    34	5 ;     CG2R61     CG2R61      HGR61
    9     8    34	5 ;     CG2R61     CG2R61      HGR61
   10     9     8	5 ;     CG2R61     CG2R61     CG2R61
   10     9    31	5 ;     CG2R61     CG2R61      OG301
    8     9    31	5 ;     CG2R61     CG2R61      OG301
   11    10     9	5 ;     CG2R61     CG2R61     CG2R61
   11    10    35	5 ;     CG2R61     CG2R61      HGR61
    9    10    35	5 ;     CG2R61     CG2R61      HGR61
    6    11    10	5 ;     CG2R61     CG2R61     CG2R61
    6    11    36	5 ;     CG2R61     CG2R61      HGR61
   10    11    36	5 ;     CG2R61     CG2R61      HGR61
   13    12     3	5 ;      NG3P2     CG3C50     CG2R61
   13    12     7	5 ;      NG3P2     CG3C50     CG2R61
   13    12    17	5 ;      NG3P2     CG3C50     CG3C52
    3    12     7	5 ;     CG2R61     CG3C50     CG2R61
    3    12    17	5 ;     CG2R61     CG3C50     CG3C52
    7    12    17	5 ;     CG2R61     CG3C50     CG3C52
   14    13    12	5 ;       HGP2      NG3P2     CG3C50
   14    13    15	5 ;       HGP2      NG3P2     CG3C53
   14    13    37	5 ;       HGP2      NG3P2       HGP2
   12    13    15	5 ;     CG3C50      NG3P2     CG3C53
   12    13    37	5 ;     CG3C50      NG3P2       HGP2
   15    13    37	5 ;     CG3C53      NG3P2       HGP2
   13    15    28	5 ;      NG3P2     CG3C53      NG3P3
   13    15    16	5 ;      NG3P2     CG3C53     OG3C51
   13    15    38	5 ;      NG3P2     CG3C53       HGA1
   28    15    16	5 ;      NG3P3     CG3C53     OG3C51
   28    15    38	5 ;      NG3P3     CG3C53       HGA1
   16    15    38	5 ;     OG3C51     CG3C53       HGA1
   15    16    17	5 ;     CG3C53     OG3C51     CG3C52
   12    17    16	5 ;     CG3C50     CG3C52     OG3C51
   12    17    39	5 ;     CG3C50     CG3C52       HGA2
   12    17    40	5 ;     CG3C50     CG3C52       HGA2
   16    17    39	5 ;     OG3C51     CG3C52       HGA2
   16    17    40	5 ;     OG3C51     CG3C52       HGA2
   39    17    40	5 ;       HGA2     CG3C52       HGA2
   19    18     4	5 ;     CG2R61     CG2R61     CG2R61
   19    18    41	5 ;     CG2R61     CG2R61      HGR61
    4    18    41	5 ;     CG2R61     CG2R61      HGR61
   18    19     1	5 ;     CG2R61     CG2R61     CG2R61
   18    19    42	5 ;     CG2R61     CG2R61      HGR61
    1    19    42	5 ;     CG2R61     CG2R61      HGR61
   25    20     1	5 ;     CG2D1O     CG2DC1     CG2R61
   25    20    21	5 ;     CG2D1O     CG2DC1     CG2DC2
    1    20    21	5 ;     CG2R61     CG2DC1     CG2DC2
   20    21    22	5 ;     CG2DC1     CG2DC2     CG2DC2
   20    21    43	5 ;     CG2DC1     CG2DC2       HGA4
   22    21    43	5 ;     CG2DC2     CG2DC2       HGA4
   23    22    21	5 ;      CG321     CG2DC2     CG2DC2
   23    22    44	5 ;      CG321     CG2DC2       HGA4
   21    22    44	5 ;     CG2DC2     CG2DC2       HGA4
   24    23    22	5 ;      NG311      CG321     CG2DC2
   24    23    45	5 ;      NG311      CG321       HGA2
   24    23    50	5 ;      NG311      CG321       HGA2
   22    23    45	5 ;     CG2DC2      CG321       HGA2
   22    23    50	5 ;     CG2DC2      CG321       HGA2
   45    23    50	5 ;       HGA2      CG321       HGA2
   26    24    25	5 ;     HGPAM1      NG311     CG2D1O
   26    24    23	5 ;     HGPAM1      NG311      CG321
   25    24    23	5 ;     CG2D1O      NG311      CG321
   27    25    24	5 ;       FGA1     CG2D1O      NG311
   27    25    20	5 ;       FGA1     CG2D1O     CG2DC1
   24    25    20	5 ;      NG311     CG2D1O     CG2DC1
   30    28    15	5 ;       HGP2      NG3P3     CG3C53
   30    28    29	5 ;       HGP2      NG3P3       HGP2
   30    28    46	5 ;       HGP2      NG3P3       HGP2
   15    28    29	5 ;     CG3C53      NG3P3       HGP2
   15    28    46	5 ;     CG3C53      NG3P3       HGP2
   29    28    46	5 ;       HGP2      NG3P3       HGP2
    9    31    32	5 ;     CG2R61      OG301      CG331
   31    32    47	5 ;      OG301      CG331       HGA3
   31    32    48	5 ;      OG301      CG331       HGA3
   31    32    49	5 ;      OG301      CG331       HGA3
   47    32    48	5 ;       HGA3      CG331       HGA3
   47    32    49	5 ;       HGA3      CG331       HGA3
   48    32    49	5 ;       HGA3      CG331       HGA3

[ dihedrals ]
;	ai	  aj	ak	  al funct			  c0			c1			  c2			c3			  c4			c5
   20     1    19    18	 9 ;     CG2DC1     CG2R61     CG2R61     CG2R61
   20     1    19    42	 9 ;     CG2DC1     CG2R61     CG2R61      HGR61
    2     1    19    18	 9 ;     CG2R61     CG2R61     CG2R61     CG2R61
    2     1    19    42	 9 ;     CG2R61     CG2R61     CG2R61      HGR61
   19     1    20    25	 9 ;     CG2R61     CG2R61     CG2DC1     CG2D1O
   19     1    20    21	 9 ;     CG2R61     CG2R61     CG2DC1     CG2DC2
    2     1    20    25	 9 ;     CG2R61     CG2R61     CG2DC1     CG2D1O
    2     1    20    21	 9 ;     CG2R61     CG2R61     CG2DC1     CG2DC2
   19     1     2     3	 9 ;     CG2R61     CG2R61     CG2R61     CG2R61
   19     1     2    33	 9 ;     CG2R61     CG2R61     CG2R61      HGR61
   20     1     2     3	 9 ;     CG2DC1     CG2R61     CG2R61     CG2R61
   20     1     2    33	 9 ;     CG2DC1     CG2R61     CG2R61      HGR61
    1     2     3     4	 9 ;     CG2R61     CG2R61     CG2R61     CG2R61
    1     2     3    12	 9 ;     CG2R61     CG2R61     CG2R61     CG3C50
   33     2     3     4	 9 ;      HGR61     CG2R61     CG2R61     CG2R61
   33     2     3    12	 9 ;      HGR61     CG2R61     CG2R61     CG3C50
    2     3     4    18	 9 ;     CG2R61     CG2R61     CG2R61     CG2R61
    2     3     4     5	 9 ;     CG2R61     CG2R61     CG2R61     OG3R60
   12     3     4    18	 9 ;     CG3C50     CG2R61     CG2R61     CG2R61
   12     3     4     5	 9 ;     CG3C50     CG2R61     CG2R61     OG3R60
    4     3    12    13	 9 ;     CG2R61     CG2R61     CG3C50      NG3P2
    4     3    12     7	 9 ;     CG2R61     CG2R61     CG3C50     CG2R61
    4     3    12    17	 9 ;     CG2R61     CG2R61     CG3C50     CG3C52
    2     3    12    13	 9 ;     CG2R61     CG2R61     CG3C50      NG3P2
    2     3    12     7	 9 ;     CG2R61     CG2R61     CG3C50     CG2R61
    2     3    12    17	 9 ;     CG2R61     CG2R61     CG3C50     CG3C52
    5     4    18    19	 9 ;     OG3R60     CG2R61     CG2R61     CG2R61
    5     4    18    41	 9 ;     OG3R60     CG2R61     CG2R61      HGR61
    3     4    18    19	 9 ;     CG2R61     CG2R61     CG2R61     CG2R61
    3     4    18    41	 9 ;     CG2R61     CG2R61     CG2R61      HGR61
   18     4     5     6	 9 ;     CG2R61     CG2R61     OG3R60     CG2R61
    3     4     5     6	 9 ;     CG2R61     CG2R61     OG3R60     CG2R61
    4     5     6    11	 9 ;     CG2R61     OG3R60     CG2R61     CG2R61
    4     5     6     7	 9 ;     CG2R61     OG3R60     CG2R61     CG2R61
    5     6    11    10	 9 ;     OG3R60     CG2R61     CG2R61     CG2R61
    5     6    11    36	 9 ;     OG3R60     CG2R61     CG2R61      HGR61
    7     6    11    10	 9 ;     CG2R61     CG2R61     CG2R61     CG2R61
    7     6    11    36	 9 ;     CG2R61     CG2R61     CG2R61      HGR61
    5     6     7    12	 9 ;     OG3R60     CG2R61     CG2R61     CG3C50
    5     6     7     8	 9 ;     OG3R60     CG2R61     CG2R61     CG2R61
   11     6     7    12	 9 ;     CG2R61     CG2R61     CG2R61     CG3C50
   11     6     7     8	 9 ;     CG2R61     CG2R61     CG2R61     CG2R61
    6     7    12    13	 9 ;     CG2R61     CG2R61     CG3C50      NG3P2
    6     7    12     3	 9 ;     CG2R61     CG2R61     CG3C50     CG2R61
    6     7    12    17	 9 ;     CG2R61     CG2R61     CG3C50     CG3C52
    8     7    12    13	 9 ;     CG2R61     CG2R61     CG3C50      NG3P2
    8     7    12     3	 9 ;     CG2R61     CG2R61     CG3C50     CG2R61
    8     7    12    17	 9 ;     CG2R61     CG2R61     CG3C50     CG3C52
    6     7     8     9	 9 ;     CG2R61     CG2R61     CG2R61     CG2R61
    6     7     8    34	 9 ;     CG2R61     CG2R61     CG2R61      HGR61
   12     7     8     9	 9 ;     CG3C50     CG2R61     CG2R61     CG2R61
   12     7     8    34	 9 ;     CG3C50     CG2R61     CG2R61      HGR61
    7     8     9    10	 9 ;     CG2R61     CG2R61     CG2R61     CG2R61
    7     8     9    31	 9 ;     CG2R61     CG2R61     CG2R61      OG301
   34     8     9    10	 9 ;      HGR61     CG2R61     CG2R61     CG2R61
   34     8     9    31	 9 ;      HGR61     CG2R61     CG2R61      OG301
    8     9    10    11	 9 ;     CG2R61     CG2R61     CG2R61     CG2R61
    8     9    10    35	 9 ;     CG2R61     CG2R61     CG2R61      HGR61
   31     9    10    11	 9 ;      OG301     CG2R61     CG2R61     CG2R61
   31     9    10    35	 9 ;      OG301     CG2R61     CG2R61      HGR61
   10     9    31    32	 9 ;     CG2R61     CG2R61      OG301      CG331
    8     9    31    32	 9 ;     CG2R61     CG2R61      OG301      CG331
    9    10    11     6	 9 ;     CG2R61     CG2R61     CG2R61     CG2R61
    9    10    11    36	 9 ;     CG2R61     CG2R61     CG2R61      HGR61
   35    10    11     6	 9 ;      HGR61     CG2R61     CG2R61     CG2R61
   35    10    11    36	 9 ;      HGR61     CG2R61     CG2R61      HGR61
    3    12    13    14	 9 ;     CG2R61     CG3C50      NG3P2       HGP2
    3    12    13    15	 9 ;     CG2R61     CG3C50      NG3P2     CG3C53
    3    12    13    37	 9 ;     CG2R61     CG3C50      NG3P2       HGP2
    7    12    13    14	 9 ;     CG2R61     CG3C50      NG3P2       HGP2
    7    12    13    15	 9 ;     CG2R61     CG3C50      NG3P2     CG3C53
    7    12    13    37	 9 ;     CG2R61     CG3C50      NG3P2       HGP2
   17    12    13    14	 9 ;     CG3C52     CG3C50      NG3P2       HGP2
   17    12    13    15	 9 ;     CG3C52     CG3C50      NG3P2     CG3C53
   17    12    13    37	 9 ;     CG3C52     CG3C50      NG3P2       HGP2
   13    12    17    16	 9 ;      NG3P2     CG3C50     CG3C52     OG3C51
   13    12    17    39	 9 ;      NG3P2     CG3C50     CG3C52       HGA2
   13    12    17    40	 9 ;      NG3P2     CG3C50     CG3C52       HGA2
    3    12    17    16	 9 ;     CG2R61     CG3C50     CG3C52     OG3C51
    3    12    17    39	 9 ;     CG2R61     CG3C50     CG3C52       HGA2
    3    12    17    40	 9 ;     CG2R61     CG3C50     CG3C52       HGA2
    7    12    17    16	 9 ;     CG2R61     CG3C50     CG3C52     OG3C51
    7    12    17    39	 9 ;     CG2R61     CG3C50     CG3C52       HGA2
    7    12    17    40	 9 ;     CG2R61     CG3C50     CG3C52       HGA2
   14    13    15    28	 9 ;       HGP2      NG3P2     CG3C53      NG3P3
   14    13    15    16	 9 ;       HGP2      NG3P2     CG3C53     OG3C51
   14    13    15    38	 9 ;       HGP2      NG3P2     CG3C53       HGA1
   12    13    15    28	 9 ;     CG3C50      NG3P2     CG3C53      NG3P3
   12    13    15    16	 9 ;     CG3C50      NG3P2     CG3C53     OG3C51
   12    13    15    38	 9 ;     CG3C50      NG3P2     CG3C53       HGA1
   37    13    15    28	 9 ;       HGP2      NG3P2     CG3C53      NG3P3
   37    13    15    16	 9 ;       HGP2      NG3P2     CG3C53     OG3C51
   37    13    15    38	 9 ;       HGP2      NG3P2     CG3C53       HGA1
   13    15    28    30	 9 ;      NG3P2     CG3C53      NG3P3       HGP2
   13    15    28    29	 9 ;      NG3P2     CG3C53      NG3P3       HGP2
   13    15    28    46	 9 ;      NG3P2     CG3C53      NG3P3       HGP2
   16    15    28    30	 9 ;     OG3C51     CG3C53      NG3P3       HGP2
   16    15    28    29	 9 ;     OG3C51     CG3C53      NG3P3       HGP2
   16    15    28    46	 9 ;     OG3C51     CG3C53      NG3P3       HGP2
   38    15    28    30	 9 ;       HGA1     CG3C53      NG3P3       HGP2
   38    15    28    29	 9 ;       HGA1     CG3C53      NG3P3       HGP2
   38    15    28    46	 9 ;       HGA1     CG3C53      NG3P3       HGP2
   13    15    16    17	 9 ;      NG3P2     CG3C53     OG3C51     CG3C52
   28    15    16    17	 9 ;      NG3P3     CG3C53     OG3C51     CG3C52
   38    15    16    17	 9 ;       HGA1     CG3C53     OG3C51     CG3C52
   15    16    17    12	 9 ;     CG3C53     OG3C51     CG3C52     CG3C50
   15    16    17    39	 9 ;     CG3C53     OG3C51     CG3C52       HGA2
   15    16    17    40	 9 ;     CG3C53     OG3C51     CG3C52       HGA2
    4    18    19     1	 9 ;     CG2R61     CG2R61     CG2R61     CG2R61
    4    18    19    42	 9 ;     CG2R61     CG2R61     CG2R61      HGR61
   41    18    19     1	 9 ;      HGR61     CG2R61     CG2R61     CG2R61
   41    18    19    42	 9 ;      HGR61     CG2R61     CG2R61      HGR61
    1    20    25    27	 9 ;     CG2R61     CG2DC1     CG2D1O       FGA1
    1    20    25    24	 9 ;     CG2R61     CG2DC1     CG2D1O      NG311
   21    20    25    27	 9 ;     CG2DC2     CG2DC1     CG2D1O       FGA1
   21    20    25    24	 9 ;     CG2DC2     CG2DC1     CG2D1O      NG311
   25    20    21    22	 9 ;     CG2D1O     CG2DC1     CG2DC2     CG2DC2
   25    20    21    43	 9 ;     CG2D1O     CG2DC1     CG2DC2       HGA4
    1    20    21    22	 9 ;     CG2R61     CG2DC1     CG2DC2     CG2DC2
    1    20    21    43	 9 ;     CG2R61     CG2DC1     CG2DC2       HGA4
   20    21    22    23	 9 ;     CG2DC1     CG2DC2     CG2DC2      CG321
   20    21    22    44	 9 ;     CG2DC1     CG2DC2     CG2DC2       HGA4
   43    21    22    23	 9 ;       HGA4     CG2DC2     CG2DC2      CG321
   43    21    22    44	 9 ;       HGA4     CG2DC2     CG2DC2       HGA4
   21    22    23    24	 9 ;     CG2DC2     CG2DC2      CG321      NG311
   21    22    23    45	 9 ;     CG2DC2     CG2DC2      CG321       HGA2
   21    22    23    50	 9 ;     CG2DC2     CG2DC2      CG321       HGA2
   44    22    23    24	 9 ;       HGA4     CG2DC2      CG321      NG311
   44    22    23    45	 9 ;       HGA4     CG2DC2      CG321       HGA2
   44    22    23    50	 9 ;       HGA4     CG2DC2      CG321       HGA2
   22    23    24    26	 9 ;     CG2DC2      CG321      NG311     HGPAM1
   22    23    24    25	 9 ;     CG2DC2      CG321      NG311     CG2D1O
   45    23    24    26	 9 ;       HGA2      CG321      NG311     HGPAM1
   45    23    24    25	 9 ;       HGA2      CG321      NG311     CG2D1O
   50    23    24    26	 9 ;       HGA2      CG321      NG311     HGPAM1
   50    23    24    25	 9 ;       HGA2      CG321      NG311     CG2D1O
   26    24    25    27	 9 ;     HGPAM1      NG311     CG2D1O       FGA1
   26    24    25    20	 9 ;     HGPAM1      NG311     CG2D1O     CG2DC1
   23    24    25    27	 9 ;      CG321      NG311     CG2D1O       FGA1
   23    24    25    20	 9 ;      CG321      NG311     CG2D1O     CG2DC1
    9    31    32    47	 9 ;     CG2R61      OG301      CG331       HGA3
    9    31    32    48	 9 ;     CG2R61      OG301      CG331       HGA3
    9    31    32    49	 9 ;     CG2R61      OG301      CG331       HGA3

[ dihedrals ]
;	ai	  aj	ak	  al funct			  c0			c1			  c2			c3
   25    20    24    27	 2

