Glycine aRginine prOline Methionine Alanine Cystine Serine
   50
    1LIG     C1    1  -1.224   0.314  -1.465
    1LIG     C2    2  -1.345   0.343  -1.531
    1LIG     C3    3  -1.387   0.475  -1.556
    1LIG     C4    4  -1.306   0.581  -1.515
    1LIG     O1    5  -1.336   0.713  -1.534
    1LIG     C5    6  -1.447   0.745  -1.606
    1LIG     C6    7  -1.537   0.650  -1.656
    1LIG     C7    8  -1.648   0.696  -1.727
    1LIG     C8    9  -1.673   0.832  -1.747
    1LIG     C9   10  -1.581   0.925  -1.699
    1LIG    C10   11  -1.468   0.881  -1.628
    1LIG    C11   12  -1.516   0.502  -1.631
    1LIG     N1   13  -1.511   0.428  -1.760
    1LIG    HN3   14  -1.440   0.434  -1.833
    1LIG    C12   15  -1.617   0.354  -1.760
    1LIG     O2   16  -1.703   0.360  -1.657
    1LIG    C13   17  -1.638   0.441  -1.558
    1LIG    C14   18  -1.186   0.555  -1.450
    1LIG    C15   19  -1.145   0.424  -1.426
    1LIG    C16   20  -1.183   0.175  -1.438
    1LIG    C17   21  -1.224   0.107  -1.322
    1LIG    C18   22  -1.183  -0.024  -1.298
    1LIG    C19   23  -1.101  -0.085  -1.391
    1LIG     N2   24  -1.059  -0.025  -1.504
    1LIG    C20   25  -1.100   0.102  -1.524
    1LIG    HN4   26  -0.998  -0.074  -1.571
    1LIG      F   27  -1.052   0.160  -1.636
    1LIG     N3   28  -1.651   0.267  -1.857
    1LIG     H1   29  -1.747   0.237  -1.849
    1LIG     H2   30  -1.585   0.191  -1.870
    1LIG     O3   31  -1.781   0.882  -1.812
    1LIG    C21   32  -1.814   1.016  -1.778
    1LIG     HC   33  -1.407   0.262  -1.564
    1LIG    HC1   34  -1.717   0.624  -1.768
    1LIG    HC2   35  -1.596   1.030  -1.716
    1LIG    HC3   36  -1.397   0.953  -1.590
    1LIG    HN2   37  -1.563   0.502  -1.804
    1LIG    HC4   38  -1.561   0.275  -1.709
    1LIG    HC5   39  -1.705   0.519  -1.523
    1LIG    HC6   40  -1.605   0.379  -1.475
    1LIG    HC7   41  -1.124   0.637  -1.417
    1LIG    HC8   42  -1.051   0.406  -1.377
    1LIG    HC9   43  -1.288   0.157  -1.251
    1LIG   HC10   44  -1.214  -0.076  -1.209
    1LIG   HC11   45  -1.070  -0.187  -1.372
    1LIG    HN1   46  -1.647   0.321  -1.943
    1LIG   HC12   47  -1.913   1.041  -1.817
    1LIG   HC13   48  -1.740   1.084  -1.821
    1LIG   HC14   49  -1.814   1.027  -1.669
    1LIG    H22   50  -1.189  -0.122  -1.444
   0.00000   0.00000   0.00000
