; Created by cgenff_charmm2gmx.py

[ moleculetype ]
; Name			   nrexcl
LIG				 3

[ atoms ]
;	 nr		  type	resnr residue  atom   cgnr	   charge		mass  typeB    chargeB		massB
; residue	 1 LIG rtp LIG q	qsum
     1      NG2S1      1    LIG     N1      1     -0.331     14.007   ;
     2      CG2O1      1    LIG     C1      2      0.342     12.011   ;
     3      OG2D1      1    LIG     O1      3     -0.527     15.999   ;
     4       HGP1      1    LIG     H1      4      0.232      1.008   ;
     5      CG311      1    LIG     C2      5     -0.018     12.011   ;
     6      CG311      1    LIG     C3      6      0.094     12.011   ;
     7      CG324      1    LIG     C4      7      0.178     12.011   ;
     8      NG3P2      1    LIG     N2      8     -0.444     14.007   ;
     9       HGP2      1    LIG     H2      9      0.348      1.008   ;
    10       HGP2      1    LIG     H3     10      0.348      1.008   ;
    11      CG324      1    LIG     C5     11      0.171     12.011   ;
    12     CG2R61      1    LIG     C6     12      0.036     12.011   ;
    13     CG2R61      1    LIG     C7     13     -0.124     12.011   ;
    14     CG2R61      1    LIG     C8     14      0.216     12.011   ;
    15     CG2R61      1    LIG     C9     15     -0.121     12.011   ;
    16     CG2R61      1    LIG    C10     16     -0.108     12.011   ;
    17     CG2R61      1    LIG    C11     17     -0.119     12.011   ;
    18      OG301      1    LIG     O2     18     -0.383     15.999   ;
    19      CG331      1    LIG    C12     19     -0.094     12.011   ;
    20      OG311      1    LIG     O3     20     -0.625     15.999   ;
    21       HGP1      1    LIG     H4     21      0.415      1.008   ;
    22      CG321      1    LIG    C13     22     -0.111     12.011   ;
    23     CG2R61      1    LIG    C14     23     -0.019     12.011   ;
    24     CG2R61      1    LIG    C15     24     -0.123     12.011   ;
    25     CG2R61      1    LIG    C16     25     -0.112     12.011   ;
    26     CG2R61      1    LIG    C17     26     -0.116     12.011   ;
    27     CG2R61      1    LIG    C18     27     -0.112     12.011   ;
    28     CG2R61      1    LIG    C19     28     -0.123     12.011   ;
    29     CG2DC1      1    LIG    C20     29      0.132     12.011   ;
    30     CG2DC2      1    LIG    C21     30      0.126     12.011   ;
    31     CG2DC2      1    LIG    C22     31      0.051     12.011   ;
    32      CG311      1    LIG    C23     32      0.249     12.011   ;
    33      NG301      1    LIG     N3     33     -0.450     14.007   ;
    34      CG331      1    LIG    C24     34     -0.292     12.011   ;
    35     CG2D1O      1    LIG    C25     35      0.203     12.011   ;
    36      CG331      1    LIG    C26     36     -0.285     12.011   ;
    37      CG321      1    LIG    C27     37     -0.140     12.011   ;
    38      CG321      1    LIG    C28     38     -0.158     12.011   ;
    39      CG331      1    LIG    C29     39     -0.270     12.011   ;
    40      CG2O5      1    LIG    C30     40     -0.028     12.011   ;
    41      OG2D3      1    LIG     O4     41     -0.375     15.999   ;
    42      CG331      1    LIG    C31     42     -0.223     12.011   ;
    43      CG321      1    LIG    C32     43     -0.110     12.011   ;
    44      CG2O2      1    LIG    C33     44      0.901     12.011   ;
    45      OG2D1      1    LIG     O5     45     -0.615     15.999   ;
    46      OG302      1    LIG     O6     46     -0.479     15.999   ;
    47      CG311      1    LIG    C34     47      0.165     12.011   ;
    48      CG331      1    LIG    C35     48     -0.273     12.011   ;
    49      CG331      1    LIG    C36     49     -0.273     12.011   ;
    50       HGA1      1    LIG     H5     50      0.090      1.008   ;
    51       HGA1      1    LIG     H6     51      0.090      1.008   ;
    52       HGA2      1    LIG     H7     52      0.090      1.008   ;
    53       HGA2      1    LIG     H8     53      0.090      1.008   ;
    54       HGA2      1    LIG     H9     54      0.090      1.008   ;
    55       HGA2      1    LIG    H10     55      0.090      1.008   ;
    56      HGR61      1    LIG    H11     56      0.116      1.008   ;
    57      HGR61      1    LIG    H12     57      0.116      1.008   ;
    58      HGR61      1    LIG    H13     58      0.116      1.008   ;
    59      HGR61      1    LIG    H14     59      0.116      1.008   ;
    60       HGA3      1    LIG    H15     60      0.090      1.008   ;
    61       HGA3      1    LIG    H16     61      0.090      1.008   ;
    62       HGA3      1    LIG    H17     62      0.090      1.008   ;
    63       HGA2      1    LIG    H18     63      0.090      1.008   ;
    64       HGA2      1    LIG    H19     64      0.090      1.008   ;
    65      HGR61      1    LIG    H20     65      0.116      1.008   ;
    66      HGR61      1    LIG    H21     66      0.116      1.008   ;
    67      HGR61      1    LIG    H22     67      0.116      1.008   ;
    68      HGR61      1    LIG    H23     68      0.116      1.008   ;
    69      HGR61      1    LIG    H24     69      0.116      1.008   ;
    70       HGA1      1    LIG    H25     70      0.090      1.008   ;
    71       HGA3      1    LIG    H26     71      0.090      1.008   ;
    72       HGA3      1    LIG    H27     72      0.090      1.008   ;
    73       HGA3      1    LIG    H28     73      0.090      1.008   ;
    74       HGA3      1    LIG    H29     74      0.090      1.008   ;
    75       HGA3      1    LIG    H30     75      0.090      1.008   ;
    76       HGA3      1    LIG    H31     76      0.090      1.008   ;
    77       HGA2      1    LIG    H32     77      0.090      1.008   ;
    78       HGA2      1    LIG    H33     78      0.090      1.008   ;
    79       HGA2      1    LIG    H34     79      0.090      1.008   ;
    80       HGA2      1    LIG    H35     80      0.090      1.008   ;
    81       HGA3      1    LIG    H36     81      0.090      1.008   ;
    82       HGA3      1    LIG    H37     82      0.090      1.008   ;
    83       HGA3      1    LIG    H38     83      0.090      1.008   ;
    84       HGA3      1    LIG    H39     84      0.090      1.008   ;
    85       HGA3      1    LIG    H40     85      0.090      1.008   ;
    86       HGA3      1    LIG    H41     86      0.090      1.008   ;
    87       HGA2      1    LIG    H42     87      0.090      1.008   ;
    88       HGA2      1    LIG    H43     88      0.090      1.008   ;
    89       HGA1      1    LIG    H44     89      0.090      1.008   ;
    90       HGA3      1    LIG    H45     90      0.090      1.008   ;
    91       HGA3      1    LIG    H46     91      0.090      1.008   ;
    92       HGA3      1    LIG    H47     92      0.090      1.008   ;
    93       HGA3      1    LIG    H48     93      0.090      1.008   ;
    94       HGA3      1    LIG    H49     94      0.090      1.008   ;
    95       HGA3      1    LIG    H50     95      0.090      1.008   ;

[ bonds ]
;	ai	  aj funct			  c0			c1			  c2			c3
    1     5	 1 ;       NG2S1      CG311
    1     4	 1 ;       NG2S1       HGP1
    1     2	 1 ;       NG2S1      CG2O1
    2     3	 1 ;       CG2O1      OG2D1
    2    29	 1 ;       CG2O1     CG2DC1
    5     6	 1 ;       CG311      CG311
    5    22	 1 ;       CG311      CG321
    5    50	 1 ;       CG311       HGA1
    6    20	 1 ;       CG311      OG311
    6     7	 1 ;       CG311      CG324
    6    51	 1 ;       CG311       HGA1
    7     8	 1 ;       CG324      NG3P2
    7    52	 1 ;       CG324       HGA2
    7    53	 1 ;       CG324       HGA2
    8    10	 1 ;       NG3P2       HGP2
    8     9	 1 ;       NG3P2       HGP2
    8    11	 1 ;       NG3P2      CG324
   11    12	 1 ;       CG324     CG2R61
   11    54	 1 ;       CG324       HGA2
   11    55	 1 ;       CG324       HGA2
   12    17	 1 ;      CG2R61     CG2R61
   12    13	 1 ;      CG2R61     CG2R61
   13    14	 1 ;      CG2R61     CG2R61
   13    56	 1 ;      CG2R61      HGR61
   14    15	 1 ;      CG2R61     CG2R61
   14    18	 1 ;      CG2R61      OG301
   15    16	 1 ;      CG2R61     CG2R61
   15    57	 1 ;      CG2R61      HGR61
   16    17	 1 ;      CG2R61     CG2R61
   16    58	 1 ;      CG2R61      HGR61
   17    59	 1 ;      CG2R61      HGR61
   18    19	 1 ;       OG301      CG331
   19    60	 1 ;       CG331       HGA3
   19    61	 1 ;       CG331       HGA3
   19    62	 1 ;       CG331       HGA3
   20    21	 1 ;       OG311       HGP1
   22    23	 1 ;       CG321     CG2R61
   22    63	 1 ;       CG321       HGA2
   22    64	 1 ;       CG321       HGA2
   23    28	 1 ;      CG2R61     CG2R61
   23    24	 1 ;      CG2R61     CG2R61
   24    25	 1 ;      CG2R61     CG2R61
   24    65	 1 ;      CG2R61      HGR61
   25    26	 1 ;      CG2R61     CG2R61
   25    66	 1 ;      CG2R61      HGR61
   26    27	 1 ;      CG2R61     CG2R61
   26    67	 1 ;      CG2R61      HGR61
   27    28	 1 ;      CG2R61     CG2R61
   27    68	 1 ;      CG2R61      HGR61
   28    69	 1 ;      CG2R61      HGR61
   29    35	 1 ;      CG2DC1     CG2D1O
   29    30	 1 ;      CG2DC1     CG2DC2
   30    37	 1 ;      CG2DC2      CG321
   30    31	 1 ;      CG2DC2     CG2DC2
   31    32	 1 ;      CG2DC2      CG311
   31    40	 1 ;      CG2DC2      CG2O5
   32    33	 1 ;       CG311      NG301
   32    34	 1 ;       CG311      CG331
   32    70	 1 ;       CG311       HGA1
   33    35	 1 ;       NG301     CG2D1O
   33    43	 1 ;       NG301      CG321
   34    71	 1 ;       CG331       HGA3
   34    72	 1 ;       CG331       HGA3
   34    73	 1 ;       CG331       HGA3
   35    36	 1 ;      CG2D1O      CG331
   36    74	 1 ;       CG331       HGA3
   36    75	 1 ;       CG331       HGA3
   36    76	 1 ;       CG331       HGA3
   37    38	 1 ;       CG321      CG321
   37    77	 1 ;       CG321       HGA2
   37    78	 1 ;       CG321       HGA2
   38    39	 1 ;       CG321      CG331
   38    79	 1 ;       CG321       HGA2
   38    80	 1 ;       CG321       HGA2
   39    81	 1 ;       CG331       HGA3
   39    82	 1 ;       CG331       HGA3
   39    83	 1 ;       CG331       HGA3
   40    41	 1 ;       CG2O5      OG2D3
   40    42	 1 ;       CG2O5      CG331
   42    84	 1 ;       CG331       HGA3
   42    85	 1 ;       CG331       HGA3
   42    86	 1 ;       CG331       HGA3
   43    44	 1 ;       CG321      CG2O2
   43    87	 1 ;       CG321       HGA2
   43    88	 1 ;       CG321       HGA2
   44    45	 1 ;       CG2O2      OG2D1
   44    46	 1 ;       CG2O2      OG302
   46    47	 1 ;       OG302      CG311
   47    49	 1 ;       CG311      CG331
   47    48	 1 ;       CG311      CG331
   47    89	 1 ;       CG311       HGA1
   48    90	 1 ;       CG331       HGA3
   48    91	 1 ;       CG331       HGA3
   48    92	 1 ;       CG331       HGA3
   49    93	 1 ;       CG331       HGA3
   49    94	 1 ;       CG331       HGA3
   49    95	 1 ;       CG331       HGA3

[ pairs ]
;	ai	  aj funct			  c0			c1			  c2			c3
    1    35	 1
    1    30	 1
    1    20	 1
    1     7	 1
    1    51	 1
    1    23	 1
    1    63	 1
    1    64	 1
    2     6	 1
    2    22	 1
    2    50	 1
    2    36	 1
    2    33	 1
    2    37	 1
    2    31	 1
    3     5	 1
    3     4	 1
    3    35	 1
    3    30	 1
    4     6	 1
    4    22	 1
    4    50	 1
    4    29	 1
    5    29	 1
    5    21	 1
    5     8	 1
    5    52	 1
    5    53	 1
    5    28	 1
    5    24	 1
    6    23	 1
    6    63	 1
    6    64	 1
    6    10	 1
    6     9	 1
    6    11	 1
    7    22	 1
    7    50	 1
    7    21	 1
    7    12	 1
    7    54	 1
    7    55	 1
    8    20	 1
    8    51	 1
    8    17	 1
    8    13	 1
    9    52	 1
    9    53	 1
    9    12	 1
    9    54	 1
    9    55	 1
   10    52	 1
   10    53	 1
   10    12	 1
   10    54	 1
   10    55	 1
   11    52	 1
   11    53	 1
   11    16	 1
   11    59	 1
   11    14	 1
   11    56	 1
   12    15	 1
   12    18	 1
   12    58	 1
   13    54	 1
   13    55	 1
   13    16	 1
   13    59	 1
   13    57	 1
   13    19	 1
   14    17	 1
   14    58	 1
   14    60	 1
   14    61	 1
   14    62	 1
   15    56	 1
   15    19	 1
   15    59	 1
   16    18	 1
   17    54	 1
   17    55	 1
   17    56	 1
   17    57	 1
   18    56	 1
   18    57	 1
   20    22	 1
   20    50	 1
   20    52	 1
   20    53	 1
   21    51	 1
   22    51	 1
   22    27	 1
   22    69	 1
   22    25	 1
   22    65	 1
   23    50	 1
   23    26	 1
   23    66	 1
   23    68	 1
   24    63	 1
   24    64	 1
   24    27	 1
   24    69	 1
   24    67	 1
   25    28	 1
   25    68	 1
   26    65	 1
   26    69	 1
   27    66	 1
   28    63	 1
   28    64	 1
   28    65	 1
   28    67	 1
   29    38	 1
   29    77	 1
   29    78	 1
   29    32	 1
   29    40	 1
   29    43	 1
   29    74	 1
   29    75	 1
   29    76	 1
   30    36	 1
   30    33	 1
   30    34	 1
   30    70	 1
   30    41	 1
   30    42	 1
   30    39	 1
   30    79	 1
   30    80	 1
   31    35	 1
   31    38	 1
   31    77	 1
   31    78	 1
   31    43	 1
   31    71	 1
   31    72	 1
   31    73	 1
   31    84	 1
   31    85	 1
   31    86	 1
   32    37	 1
   32    41	 1
   32    42	 1
   32    36	 1
   32    44	 1
   32    87	 1
   32    88	 1
   33    40	 1
   33    71	 1
   33    72	 1
   33    73	 1
   33    74	 1
   33    75	 1
   33    76	 1
   33    45	 1
   33    46	 1
   34    40	 1
   34    35	 1
   34    43	 1
   35    37	 1
   35    70	 1
   35    44	 1
   35    87	 1
   35    88	 1
   36    43	 1
   37    40	 1
   37    81	 1
   37    82	 1
   37    83	 1
   39    77	 1
   39    78	 1
   40    70	 1
   41    84	 1
   41    85	 1
   41    86	 1
   43    70	 1
   43    47	 1
   44    49	 1
   44    48	 1
   44    89	 1
   45    87	 1
   45    88	 1
   45    47	 1
   46    87	 1
   46    88	 1
   46    93	 1
   46    94	 1
   46    95	 1
   46    90	 1
   46    91	 1
   46    92	 1
   48    93	 1
   48    94	 1
   48    95	 1
   49    90	 1
   49    91	 1
   49    92	 1
   50    51	 1
   50    63	 1
   50    64	 1
   51    52	 1
   51    53	 1
   57    58	 1
   58    59	 1
   65    66	 1
   66    67	 1
   67    68	 1
   68    69	 1
   70    71	 1
   70    72	 1
   70    73	 1
   77    79	 1
   77    80	 1
   78    79	 1
   78    80	 1
   79    81	 1
   79    82	 1
   79    83	 1
   80    81	 1
   80    82	 1
   80    83	 1
   89    93	 1
   89    94	 1
   89    95	 1
   89    90	 1
   89    91	 1
   89    92	 1

[ angles ]
;	ai	  aj	ak funct			c0			  c1			c2			  c3
    5     1     4	5 ;      CG311      NG2S1       HGP1
    5     1     2	5 ;      CG311      NG2S1      CG2O1
    4     1     2	5 ;       HGP1      NG2S1      CG2O1
    3     2     1	5 ;      OG2D1      CG2O1      NG2S1
    3     2    29	5 ;      OG2D1      CG2O1     CG2DC1
    1     2    29	5 ;      NG2S1      CG2O1     CG2DC1
    6     5    22	5 ;      CG311      CG311      CG321
    6     5     1	5 ;      CG311      CG311      NG2S1
    6     5    50	5 ;      CG311      CG311       HGA1
   22     5     1	5 ;      CG321      CG311      NG2S1
   22     5    50	5 ;      CG321      CG311       HGA1
    1     5    50	5 ;      NG2S1      CG311       HGA1
   20     6     5	5 ;      OG311      CG311      CG311
   20     6     7	5 ;      OG311      CG311      CG324
   20     6    51	5 ;      OG311      CG311       HGA1
    5     6     7	5 ;      CG311      CG311      CG324
    5     6    51	5 ;      CG311      CG311       HGA1
    7     6    51	5 ;      CG324      CG311       HGA1
    6     7     8	5 ;      CG311      CG324      NG3P2
    6     7    52	5 ;      CG311      CG324       HGA2
    6     7    53	5 ;      CG311      CG324       HGA2
    8     7    52	5 ;      NG3P2      CG324       HGA2
    8     7    53	5 ;      NG3P2      CG324       HGA2
   52     7    53	5 ;       HGA2      CG324       HGA2
   10     8     9	5 ;       HGP2      NG3P2       HGP2
   10     8    11	5 ;       HGP2      NG3P2      CG324
   10     8     7	5 ;       HGP2      NG3P2      CG324
    9     8    11	5 ;       HGP2      NG3P2      CG324
    9     8     7	5 ;       HGP2      NG3P2      CG324
   11     8     7	5 ;      CG324      NG3P2      CG324
    8    11    12	5 ;      NG3P2      CG324     CG2R61
    8    11    54	5 ;      NG3P2      CG324       HGA2
    8    11    55	5 ;      NG3P2      CG324       HGA2
   12    11    54	5 ;     CG2R61      CG324       HGA2
   12    11    55	5 ;     CG2R61      CG324       HGA2
   54    11    55	5 ;       HGA2      CG324       HGA2
   11    12    17	5 ;      CG324     CG2R61     CG2R61
   11    12    13	5 ;      CG324     CG2R61     CG2R61
   17    12    13	5 ;     CG2R61     CG2R61     CG2R61
   12    13    14	5 ;     CG2R61     CG2R61     CG2R61
   12    13    56	5 ;     CG2R61     CG2R61      HGR61
   14    13    56	5 ;     CG2R61     CG2R61      HGR61
   13    14    15	5 ;     CG2R61     CG2R61     CG2R61
   13    14    18	5 ;     CG2R61     CG2R61      OG301
   15    14    18	5 ;     CG2R61     CG2R61      OG301
   16    15    14	5 ;     CG2R61     CG2R61     CG2R61
   16    15    57	5 ;     CG2R61     CG2R61      HGR61
   14    15    57	5 ;     CG2R61     CG2R61      HGR61
   17    16    15	5 ;     CG2R61     CG2R61     CG2R61
   17    16    58	5 ;     CG2R61     CG2R61      HGR61
   15    16    58	5 ;     CG2R61     CG2R61      HGR61
   12    17    16	5 ;     CG2R61     CG2R61     CG2R61
   12    17    59	5 ;     CG2R61     CG2R61      HGR61
   16    17    59	5 ;     CG2R61     CG2R61      HGR61
   14    18    19	5 ;     CG2R61      OG301      CG331
   18    19    60	5 ;      OG301      CG331       HGA3
   18    19    61	5 ;      OG301      CG331       HGA3
   18    19    62	5 ;      OG301      CG331       HGA3
   60    19    61	5 ;       HGA3      CG331       HGA3
   60    19    62	5 ;       HGA3      CG331       HGA3
   61    19    62	5 ;       HGA3      CG331       HGA3
   21    20     6	5 ;       HGP1      OG311      CG311
   23    22     5	5 ;     CG2R61      CG321      CG311
   23    22    63	5 ;     CG2R61      CG321       HGA2
   23    22    64	5 ;     CG2R61      CG321       HGA2
    5    22    63	5 ;      CG311      CG321       HGA2
    5    22    64	5 ;      CG311      CG321       HGA2
   63    22    64	5 ;       HGA2      CG321       HGA2
   28    23    22	5 ;     CG2R61     CG2R61      CG321
   28    23    24	5 ;     CG2R61     CG2R61     CG2R61
   22    23    24	5 ;      CG321     CG2R61     CG2R61
   23    24    25	5 ;     CG2R61     CG2R61     CG2R61
   23    24    65	5 ;     CG2R61     CG2R61      HGR61
   25    24    65	5 ;     CG2R61     CG2R61      HGR61
   26    25    24	5 ;     CG2R61     CG2R61     CG2R61
   26    25    66	5 ;     CG2R61     CG2R61      HGR61
   24    25    66	5 ;     CG2R61     CG2R61      HGR61
   27    26    25	5 ;     CG2R61     CG2R61     CG2R61
   27    26    67	5 ;     CG2R61     CG2R61      HGR61
   25    26    67	5 ;     CG2R61     CG2R61      HGR61
   28    27    26	5 ;     CG2R61     CG2R61     CG2R61
   28    27    68	5 ;     CG2R61     CG2R61      HGR61
   26    27    68	5 ;     CG2R61     CG2R61      HGR61
   27    28    23	5 ;     CG2R61     CG2R61     CG2R61
   27    28    69	5 ;     CG2R61     CG2R61      HGR61
   23    28    69	5 ;     CG2R61     CG2R61      HGR61
    2    29    35	5 ;      CG2O1     CG2DC1     CG2D1O
    2    29    30	5 ;      CG2O1     CG2DC1     CG2DC2
   35    29    30	5 ;     CG2D1O     CG2DC1     CG2DC2
   29    30    37	5 ;     CG2DC1     CG2DC2      CG321
   29    30    31	5 ;     CG2DC1     CG2DC2     CG2DC2
   37    30    31	5 ;      CG321     CG2DC2     CG2DC2
   30    31    32	5 ;     CG2DC2     CG2DC2      CG311
   30    31    40	5 ;     CG2DC2     CG2DC2      CG2O5
   32    31    40	5 ;      CG311     CG2DC2      CG2O5
   33    32    31	5 ;      NG301      CG311     CG2DC2
   33    32    34	5 ;      NG301      CG311      CG331
   33    32    70	5 ;      NG301      CG311       HGA1
   31    32    34	5 ;     CG2DC2      CG311      CG331
   31    32    70	5 ;     CG2DC2      CG311       HGA1
   34    32    70	5 ;      CG331      CG311       HGA1
   35    33    43	5 ;     CG2D1O      NG301      CG321
   35    33    32	5 ;     CG2D1O      NG301      CG311
   43    33    32	5 ;      CG321      NG301      CG311
   32    34    71	5 ;      CG311      CG331       HGA3
   32    34    72	5 ;      CG311      CG331       HGA3
   32    34    73	5 ;      CG311      CG331       HGA3
   71    34    72	5 ;       HGA3      CG331       HGA3
   71    34    73	5 ;       HGA3      CG331       HGA3
   72    34    73	5 ;       HGA3      CG331       HGA3
   36    35    29	5 ;      CG331     CG2D1O     CG2DC1
   36    35    33	5 ;      CG331     CG2D1O      NG301
   29    35    33	5 ;     CG2DC1     CG2D1O      NG301
   35    36    74	5 ;     CG2D1O      CG331       HGA3
   35    36    75	5 ;     CG2D1O      CG331       HGA3
   35    36    76	5 ;     CG2D1O      CG331       HGA3
   74    36    75	5 ;       HGA3      CG331       HGA3
   74    36    76	5 ;       HGA3      CG331       HGA3
   75    36    76	5 ;       HGA3      CG331       HGA3
   38    37    30	5 ;      CG321      CG321     CG2DC2
   38    37    77	5 ;      CG321      CG321       HGA2
   38    37    78	5 ;      CG321      CG321       HGA2
   30    37    77	5 ;     CG2DC2      CG321       HGA2
   30    37    78	5 ;     CG2DC2      CG321       HGA2
   77    37    78	5 ;       HGA2      CG321       HGA2
   39    38    37	5 ;      CG331      CG321      CG321
   39    38    79	5 ;      CG331      CG321       HGA2
   39    38    80	5 ;      CG331      CG321       HGA2
   37    38    79	5 ;      CG321      CG321       HGA2
   37    38    80	5 ;      CG321      CG321       HGA2
   79    38    80	5 ;       HGA2      CG321       HGA2
   38    39    81	5 ;      CG321      CG331       HGA3
   38    39    82	5 ;      CG321      CG331       HGA3
   38    39    83	5 ;      CG321      CG331       HGA3
   81    39    82	5 ;       HGA3      CG331       HGA3
   81    39    83	5 ;       HGA3      CG331       HGA3
   82    39    83	5 ;       HGA3      CG331       HGA3
   31    40    41	5 ;     CG2DC2      CG2O5      OG2D3
   31    40    42	5 ;     CG2DC2      CG2O5      CG331
   41    40    42	5 ;      OG2D3      CG2O5      CG331
   40    42    84	5 ;      CG2O5      CG331       HGA3
   40    42    85	5 ;      CG2O5      CG331       HGA3
   40    42    86	5 ;      CG2O5      CG331       HGA3
   84    42    85	5 ;       HGA3      CG331       HGA3
   84    42    86	5 ;       HGA3      CG331       HGA3
   85    42    86	5 ;       HGA3      CG331       HGA3
   33    43    44	5 ;      NG301      CG321      CG2O2
   33    43    87	5 ;      NG301      CG321       HGA2
   33    43    88	5 ;      NG301      CG321       HGA2
   44    43    87	5 ;      CG2O2      CG321       HGA2
   44    43    88	5 ;      CG2O2      CG321       HGA2
   87    43    88	5 ;       HGA2      CG321       HGA2
   45    44    43	5 ;      OG2D1      CG2O2      CG321
   45    44    46	5 ;      OG2D1      CG2O2      OG302
   43    44    46	5 ;      CG321      CG2O2      OG302
   47    46    44	5 ;      CG311      OG302      CG2O2
   49    47    48	5 ;      CG331      CG311      CG331
   49    47    46	5 ;      CG331      CG311      OG302
   49    47    89	5 ;      CG331      CG311       HGA1
   48    47    46	5 ;      CG331      CG311      OG302
   48    47    89	5 ;      CG331      CG311       HGA1
   46    47    89	5 ;      OG302      CG311       HGA1
   47    48    90	5 ;      CG311      CG331       HGA3
   47    48    91	5 ;      CG311      CG331       HGA3
   47    48    92	5 ;      CG311      CG331       HGA3
   90    48    91	5 ;       HGA3      CG331       HGA3
   90    48    92	5 ;       HGA3      CG331       HGA3
   91    48    92	5 ;       HGA3      CG331       HGA3
   47    49    93	5 ;      CG311      CG331       HGA3
   47    49    94	5 ;      CG311      CG331       HGA3
   47    49    95	5 ;      CG311      CG331       HGA3
   93    49    94	5 ;       HGA3      CG331       HGA3
   93    49    95	5 ;       HGA3      CG331       HGA3
   94    49    95	5 ;       HGA3      CG331       HGA3

[ dihedrals ]
;	ai	  aj	ak	  al funct			  c0			c1			  c2			c3			  c4			c5
    4     1     5     6	 9 ;       HGP1      NG2S1      CG311      CG311
    4     1     5    22	 9 ;       HGP1      NG2S1      CG311      CG321
    4     1     5    50	 9 ;       HGP1      NG2S1      CG311       HGA1
    2     1     5     6	 9 ;      CG2O1      NG2S1      CG311      CG311
    2     1     5    22	 9 ;      CG2O1      NG2S1      CG311      CG321
    2     1     5    50	 9 ;      CG2O1      NG2S1      CG311       HGA1
    5     1     2     3	 9 ;      CG311      NG2S1      CG2O1      OG2D1
    5     1     2    29	 9 ;      CG311      NG2S1      CG2O1     CG2DC1
    4     1     2     3	 9 ;       HGP1      NG2S1      CG2O1      OG2D1
    4     1     2    29	 9 ;       HGP1      NG2S1      CG2O1     CG2DC1
    3     2    29    35	 9 ;      OG2D1      CG2O1     CG2DC1     CG2D1O
    3     2    29    30	 9 ;      OG2D1      CG2O1     CG2DC1     CG2DC2
    1     2    29    35	 9 ;      NG2S1      CG2O1     CG2DC1     CG2D1O
    1     2    29    30	 9 ;      NG2S1      CG2O1     CG2DC1     CG2DC2
   22     5     6    20	 9 ;      CG321      CG311      CG311      OG311
   22     5     6     7	 9 ;      CG321      CG311      CG311      CG324
   22     5     6    51	 9 ;      CG321      CG311      CG311       HGA1
    1     5     6    20	 9 ;      NG2S1      CG311      CG311      OG311
    1     5     6     7	 9 ;      NG2S1      CG311      CG311      CG324
    1     5     6    51	 9 ;      NG2S1      CG311      CG311       HGA1
   50     5     6    20	 9 ;       HGA1      CG311      CG311      OG311
   50     5     6     7	 9 ;       HGA1      CG311      CG311      CG324
   50     5     6    51	 9 ;       HGA1      CG311      CG311       HGA1
    6     5    22    23	 9 ;      CG311      CG311      CG321     CG2R61
    6     5    22    63	 9 ;      CG311      CG311      CG321       HGA2
    6     5    22    64	 9 ;      CG311      CG311      CG321       HGA2
    1     5    22    23	 9 ;      NG2S1      CG311      CG321     CG2R61
    1     5    22    63	 9 ;      NG2S1      CG311      CG321       HGA2
    1     5    22    64	 9 ;      NG2S1      CG311      CG321       HGA2
   50     5    22    23	 9 ;       HGA1      CG311      CG321     CG2R61
   50     5    22    63	 9 ;       HGA1      CG311      CG321       HGA2
   50     5    22    64	 9 ;       HGA1      CG311      CG321       HGA2
    5     6    20    21	 9 ;      CG311      CG311      OG311       HGP1
    7     6    20    21	 9 ;      CG324      CG311      OG311       HGP1
   51     6    20    21	 9 ;       HGA1      CG311      OG311       HGP1
   20     6     7     8	 9 ;      OG311      CG311      CG324      NG3P2
   20     6     7    52	 9 ;      OG311      CG311      CG324       HGA2
   20     6     7    53	 9 ;      OG311      CG311      CG324       HGA2
    5     6     7     8	 9 ;      CG311      CG311      CG324      NG3P2
    5     6     7    52	 9 ;      CG311      CG311      CG324       HGA2
    5     6     7    53	 9 ;      CG311      CG311      CG324       HGA2
   51     6     7     8	 9 ;       HGA1      CG311      CG324      NG3P2
   51     6     7    52	 9 ;       HGA1      CG311      CG324       HGA2
   51     6     7    53	 9 ;       HGA1      CG311      CG324       HGA2
    6     7     8    10	 9 ;      CG311      CG324      NG3P2       HGP2
    6     7     8     9	 9 ;      CG311      CG324      NG3P2       HGP2
    6     7     8    11	 9 ;      CG311      CG324      NG3P2      CG324
   52     7     8    10	 9 ;       HGA2      CG324      NG3P2       HGP2
   52     7     8     9	 9 ;       HGA2      CG324      NG3P2       HGP2
   52     7     8    11	 9 ;       HGA2      CG324      NG3P2      CG324
   53     7     8    10	 9 ;       HGA2      CG324      NG3P2       HGP2
   53     7     8     9	 9 ;       HGA2      CG324      NG3P2       HGP2
   53     7     8    11	 9 ;       HGA2      CG324      NG3P2      CG324
   10     8    11    12	 9 ;       HGP2      NG3P2      CG324     CG2R61
   10     8    11    54	 9 ;       HGP2      NG3P2      CG324       HGA2
   10     8    11    55	 9 ;       HGP2      NG3P2      CG324       HGA2
    9     8    11    12	 9 ;       HGP2      NG3P2      CG324     CG2R61
    9     8    11    54	 9 ;       HGP2      NG3P2      CG324       HGA2
    9     8    11    55	 9 ;       HGP2      NG3P2      CG324       HGA2
    7     8    11    12	 9 ;      CG324      NG3P2      CG324     CG2R61
    7     8    11    54	 9 ;      CG324      NG3P2      CG324       HGA2
    7     8    11    55	 9 ;      CG324      NG3P2      CG324       HGA2
    8    11    12    17	 9 ;      NG3P2      CG324     CG2R61     CG2R61
    8    11    12    13	 9 ;      NG3P2      CG324     CG2R61     CG2R61
   54    11    12    17	 9 ;       HGA2      CG324     CG2R61     CG2R61
   54    11    12    13	 9 ;       HGA2      CG324     CG2R61     CG2R61
   55    11    12    17	 9 ;       HGA2      CG324     CG2R61     CG2R61
   55    11    12    13	 9 ;       HGA2      CG324     CG2R61     CG2R61
   11    12    17    16	 9 ;      CG324     CG2R61     CG2R61     CG2R61
   11    12    17    59	 9 ;      CG324     CG2R61     CG2R61      HGR61
   13    12    17    16	 9 ;     CG2R61     CG2R61     CG2R61     CG2R61
   13    12    17    59	 9 ;     CG2R61     CG2R61     CG2R61      HGR61
   11    12    13    14	 9 ;      CG324     CG2R61     CG2R61     CG2R61
   11    12    13    56	 9 ;      CG324     CG2R61     CG2R61      HGR61
   17    12    13    14	 9 ;     CG2R61     CG2R61     CG2R61     CG2R61
   17    12    13    56	 9 ;     CG2R61     CG2R61     CG2R61      HGR61
   12    13    14    15	 9 ;     CG2R61     CG2R61     CG2R61     CG2R61
   12    13    14    18	 9 ;     CG2R61     CG2R61     CG2R61      OG301
   56    13    14    15	 9 ;      HGR61     CG2R61     CG2R61     CG2R61
   56    13    14    18	 9 ;      HGR61     CG2R61     CG2R61      OG301
   13    14    15    16	 9 ;     CG2R61     CG2R61     CG2R61     CG2R61
   13    14    15    57	 9 ;     CG2R61     CG2R61     CG2R61      HGR61
   18    14    15    16	 9 ;      OG301     CG2R61     CG2R61     CG2R61
   18    14    15    57	 9 ;      OG301     CG2R61     CG2R61      HGR61
   13    14    18    19	 9 ;     CG2R61     CG2R61      OG301      CG331
   15    14    18    19	 9 ;     CG2R61     CG2R61      OG301      CG331
   14    15    16    17	 9 ;     CG2R61     CG2R61     CG2R61     CG2R61
   14    15    16    58	 9 ;     CG2R61     CG2R61     CG2R61      HGR61
   57    15    16    17	 9 ;      HGR61     CG2R61     CG2R61     CG2R61
   57    15    16    58	 9 ;      HGR61     CG2R61     CG2R61      HGR61
   15    16    17    12	 9 ;     CG2R61     CG2R61     CG2R61     CG2R61
   15    16    17    59	 9 ;     CG2R61     CG2R61     CG2R61      HGR61
   58    16    17    12	 9 ;      HGR61     CG2R61     CG2R61     CG2R61
   58    16    17    59	 9 ;      HGR61     CG2R61     CG2R61      HGR61
   14    18    19    60	 9 ;     CG2R61      OG301      CG331       HGA3
   14    18    19    61	 9 ;     CG2R61      OG301      CG331       HGA3
   14    18    19    62	 9 ;     CG2R61      OG301      CG331       HGA3
    5    22    23    28	 9 ;      CG311      CG321     CG2R61     CG2R61
    5    22    23    24	 9 ;      CG311      CG321     CG2R61     CG2R61
   63    22    23    28	 9 ;       HGA2      CG321     CG2R61     CG2R61
   63    22    23    24	 9 ;       HGA2      CG321     CG2R61     CG2R61
   64    22    23    28	 9 ;       HGA2      CG321     CG2R61     CG2R61
   64    22    23    24	 9 ;       HGA2      CG321     CG2R61     CG2R61
   22    23    28    27	 9 ;      CG321     CG2R61     CG2R61     CG2R61
   22    23    28    69	 9 ;      CG321     CG2R61     CG2R61      HGR61
   24    23    28    27	 9 ;     CG2R61     CG2R61     CG2R61     CG2R61
   24    23    28    69	 9 ;     CG2R61     CG2R61     CG2R61      HGR61
   28    23    24    25	 9 ;     CG2R61     CG2R61     CG2R61     CG2R61
   28    23    24    65	 9 ;     CG2R61     CG2R61     CG2R61      HGR61
   22    23    24    25	 9 ;      CG321     CG2R61     CG2R61     CG2R61
   22    23    24    65	 9 ;      CG321     CG2R61     CG2R61      HGR61
   23    24    25    26	 9 ;     CG2R61     CG2R61     CG2R61     CG2R61
   23    24    25    66	 9 ;     CG2R61     CG2R61     CG2R61      HGR61
   65    24    25    26	 9 ;      HGR61     CG2R61     CG2R61     CG2R61
   65    24    25    66	 9 ;      HGR61     CG2R61     CG2R61      HGR61
   24    25    26    27	 9 ;     CG2R61     CG2R61     CG2R61     CG2R61
   24    25    26    67	 9 ;     CG2R61     CG2R61     CG2R61      HGR61
   66    25    26    27	 9 ;      HGR61     CG2R61     CG2R61     CG2R61
   66    25    26    67	 9 ;      HGR61     CG2R61     CG2R61      HGR61
   25    26    27    28	 9 ;     CG2R61     CG2R61     CG2R61     CG2R61
   25    26    27    68	 9 ;     CG2R61     CG2R61     CG2R61      HGR61
   67    26    27    28	 9 ;      HGR61     CG2R61     CG2R61     CG2R61
   67    26    27    68	 9 ;      HGR61     CG2R61     CG2R61      HGR61
   26    27    28    23	 9 ;     CG2R61     CG2R61     CG2R61     CG2R61
   26    27    28    69	 9 ;     CG2R61     CG2R61     CG2R61      HGR61
   68    27    28    23	 9 ;      HGR61     CG2R61     CG2R61     CG2R61
   68    27    28    69	 9 ;      HGR61     CG2R61     CG2R61      HGR61
    2    29    35    36	 9 ;      CG2O1     CG2DC1     CG2D1O      CG331
    2    29    35    33	 9 ;      CG2O1     CG2DC1     CG2D1O      NG301
   30    29    35    36	 9 ;     CG2DC2     CG2DC1     CG2D1O      CG331
   30    29    35    33	 9 ;     CG2DC2     CG2DC1     CG2D1O      NG301
    2    29    30    37	 9 ;      CG2O1     CG2DC1     CG2DC2      CG321
    2    29    30    31	 9 ;      CG2O1     CG2DC1     CG2DC2     CG2DC2
   35    29    30    37	 9 ;     CG2D1O     CG2DC1     CG2DC2      CG321
   35    29    30    31	 9 ;     CG2D1O     CG2DC1     CG2DC2     CG2DC2
   29    30    37    38	 9 ;     CG2DC1     CG2DC2      CG321      CG321
   29    30    37    77	 9 ;     CG2DC1     CG2DC2      CG321       HGA2
   29    30    37    78	 9 ;     CG2DC1     CG2DC2      CG321       HGA2
   31    30    37    38	 9 ;     CG2DC2     CG2DC2      CG321      CG321
   31    30    37    77	 9 ;     CG2DC2     CG2DC2      CG321       HGA2
   31    30    37    78	 9 ;     CG2DC2     CG2DC2      CG321       HGA2
   29    30    31    32	 9 ;     CG2DC1     CG2DC2     CG2DC2      CG311
   29    30    31    40	 9 ;     CG2DC1     CG2DC2     CG2DC2      CG2O5
   37    30    31    32	 9 ;      CG321     CG2DC2     CG2DC2      CG311
   37    30    31    40	 9 ;      CG321     CG2DC2     CG2DC2      CG2O5
   30    31    32    33	 9 ;     CG2DC2     CG2DC2      CG311      NG301
   30    31    32    34	 9 ;     CG2DC2     CG2DC2      CG311      CG331
   30    31    32    70	 9 ;     CG2DC2     CG2DC2      CG311       HGA1
   40    31    32    33	 9 ;      CG2O5     CG2DC2      CG311      NG301
   40    31    32    34	 9 ;      CG2O5     CG2DC2      CG311      CG331
   40    31    32    70	 9 ;      CG2O5     CG2DC2      CG311       HGA1
   30    31    40    41	 9 ;     CG2DC2     CG2DC2      CG2O5      OG2D3
   30    31    40    42	 9 ;     CG2DC2     CG2DC2      CG2O5      CG331
   32    31    40    41	 9 ;      CG311     CG2DC2      CG2O5      OG2D3
   32    31    40    42	 9 ;      CG311     CG2DC2      CG2O5      CG331
   31    32    33    35	 9 ;     CG2DC2      CG311      NG301     CG2D1O
   31    32    33    43	 9 ;     CG2DC2      CG311      NG301      CG321
   34    32    33    35	 9 ;      CG331      CG311      NG301     CG2D1O
   34    32    33    43	 9 ;      CG331      CG311      NG301      CG321
   70    32    33    35	 9 ;       HGA1      CG311      NG301     CG2D1O
   70    32    33    43	 9 ;       HGA1      CG311      NG301      CG321
   33    32    34    71	 9 ;      NG301      CG311      CG331       HGA3
   33    32    34    72	 9 ;      NG301      CG311      CG331       HGA3
   33    32    34    73	 9 ;      NG301      CG311      CG331       HGA3
   31    32    34    71	 9 ;     CG2DC2      CG311      CG331       HGA3
   31    32    34    72	 9 ;     CG2DC2      CG311      CG331       HGA3
   31    32    34    73	 9 ;     CG2DC2      CG311      CG331       HGA3
   70    32    34    71	 9 ;       HGA1      CG311      CG331       HGA3
   70    32    34    72	 9 ;       HGA1      CG311      CG331       HGA3
   70    32    34    73	 9 ;       HGA1      CG311      CG331       HGA3
   43    33    35    36	 9 ;      CG321      NG301     CG2D1O      CG331
   43    33    35    29	 9 ;      CG321      NG301     CG2D1O     CG2DC1
   32    33    35    36	 9 ;      CG311      NG301     CG2D1O      CG331
   32    33    35    29	 9 ;      CG311      NG301     CG2D1O     CG2DC1
   35    33    43    44	 9 ;     CG2D1O      NG301      CG321      CG2O2
   35    33    43    87	 9 ;     CG2D1O      NG301      CG321       HGA2
   35    33    43    88	 9 ;     CG2D1O      NG301      CG321       HGA2
   32    33    43    44	 9 ;      CG311      NG301      CG321      CG2O2
   32    33    43    87	 9 ;      CG311      NG301      CG321       HGA2
   32    33    43    88	 9 ;      CG311      NG301      CG321       HGA2
   29    35    36    74	 9 ;     CG2DC1     CG2D1O      CG331       HGA3
   29    35    36    75	 9 ;     CG2DC1     CG2D1O      CG331       HGA3
   29    35    36    76	 9 ;     CG2DC1     CG2D1O      CG331       HGA3
   33    35    36    74	 9 ;      NG301     CG2D1O      CG331       HGA3
   33    35    36    75	 9 ;      NG301     CG2D1O      CG331       HGA3
   33    35    36    76	 9 ;      NG301     CG2D1O      CG331       HGA3
   30    37    38    39	 9 ;     CG2DC2      CG321      CG321      CG331
   30    37    38    79	 9 ;     CG2DC2      CG321      CG321       HGA2
   30    37    38    80	 9 ;     CG2DC2      CG321      CG321       HGA2
   77    37    38    39	 9 ;       HGA2      CG321      CG321      CG331
   77    37    38    79	 9 ;       HGA2      CG321      CG321       HGA2
   77    37    38    80	 9 ;       HGA2      CG321      CG321       HGA2
   78    37    38    39	 9 ;       HGA2      CG321      CG321      CG331
   78    37    38    79	 9 ;       HGA2      CG321      CG321       HGA2
   78    37    38    80	 9 ;       HGA2      CG321      CG321       HGA2
   37    38    39    81	 9 ;      CG321      CG321      CG331       HGA3
   37    38    39    82	 9 ;      CG321      CG321      CG331       HGA3
   37    38    39    83	 9 ;      CG321      CG321      CG331       HGA3
   79    38    39    81	 9 ;       HGA2      CG321      CG331       HGA3
   79    38    39    82	 9 ;       HGA2      CG321      CG331       HGA3
   79    38    39    83	 9 ;       HGA2      CG321      CG331       HGA3
   80    38    39    81	 9 ;       HGA2      CG321      CG331       HGA3
   80    38    39    82	 9 ;       HGA2      CG321      CG331       HGA3
   80    38    39    83	 9 ;       HGA2      CG321      CG331       HGA3
   31    40    42    84	 9 ;     CG2DC2      CG2O5      CG331       HGA3
   31    40    42    85	 9 ;     CG2DC2      CG2O5      CG331       HGA3
   31    40    42    86	 9 ;     CG2DC2      CG2O5      CG331       HGA3
   41    40    42    84	 9 ;      OG2D3      CG2O5      CG331       HGA3
   41    40    42    85	 9 ;      OG2D3      CG2O5      CG331       HGA3
   41    40    42    86	 9 ;      OG2D3      CG2O5      CG331       HGA3
   33    43    44    45	 9 ;      NG301      CG321      CG2O2      OG2D1
   33    43    44    46	 9 ;      NG301      CG321      CG2O2      OG302
   87    43    44    45	 9 ;       HGA2      CG321      CG2O2      OG2D1
   87    43    44    46	 9 ;       HGA2      CG321      CG2O2      OG302
   88    43    44    45	 9 ;       HGA2      CG321      CG2O2      OG2D1
   88    43    44    46	 9 ;       HGA2      CG321      CG2O2      OG302
   45    44    46    47	 9 ;      OG2D1      CG2O2      OG302      CG311
   43    44    46    47	 9 ;      CG321      CG2O2      OG302      CG311
   44    46    47    49	 9 ;      CG2O2      OG302      CG311      CG331
   44    46    47    48	 9 ;      CG2O2      OG302      CG311      CG331
   44    46    47    89	 9 ;      CG2O2      OG302      CG311       HGA1
   48    47    49    93	 9 ;      CG331      CG311      CG331       HGA3
   48    47    49    94	 9 ;      CG331      CG311      CG331       HGA3
   48    47    49    95	 9 ;      CG331      CG311      CG331       HGA3
   46    47    49    93	 9 ;      OG302      CG311      CG331       HGA3
   46    47    49    94	 9 ;      OG302      CG311      CG331       HGA3
   46    47    49    95	 9 ;      OG302      CG311      CG331       HGA3
   89    47    49    93	 9 ;       HGA1      CG311      CG331       HGA3
   89    47    49    94	 9 ;       HGA1      CG311      CG331       HGA3
   89    47    49    95	 9 ;       HGA1      CG311      CG331       HGA3
   49    47    48    90	 9 ;      CG331      CG311      CG331       HGA3
   49    47    48    91	 9 ;      CG331      CG311      CG331       HGA3
   49    47    48    92	 9 ;      CG331      CG311      CG331       HGA3
   46    47    48    90	 9 ;      OG302      CG311      CG331       HGA3
   46    47    48    91	 9 ;      OG302      CG311      CG331       HGA3
   46    47    48    92	 9 ;      OG302      CG311      CG331       HGA3
   89    47    48    90	 9 ;       HGA1      CG311      CG331       HGA3
   89    47    48    91	 9 ;       HGA1      CG311      CG331       HGA3
   89    47    48    92	 9 ;       HGA1      CG311      CG331       HGA3

[ dihedrals ]
;	ai	  aj	ak	  al funct			  c0			c1			  c2			c3
    2    29     1     3	 2
   35    29    36    33	 2
   40    31    42    41	 2
   44    43    45    46	 2

