GROtesk MACabre and Sinister
   95
    1LIG     N1    1  -1.673   0.553  -1.770
    1LIG     C1    2  -1.772   0.479  -1.711
    1LIG     O1    3  -1.839   0.407  -1.784
    1LIG     H1    4  -1.607   0.603  -1.712
    1LIG     C2    5  -1.651   0.559  -1.915
    1LIG     C3    6  -1.583   0.434  -1.977
    1LIG     C4    7  -1.503   0.343  -1.882
    1LIG     N2    8  -1.362   0.331  -1.934
    1LIG     H2    9  -1.311   0.413  -1.899
    1LIG     H3   10  -1.363   0.341  -2.036
    1LIG     C5   11  -1.287   0.206  -1.898
    1LIG     C6   12  -1.190   0.234  -1.789
    1LIG     C7   13  -1.135   0.126  -1.717
    1LIG     C8   14  -1.055   0.150  -1.605
    1LIG     C9   15  -1.032   0.281  -1.565
    1LIG    C10   16  -1.083   0.389  -1.638
    1LIG    C11   17  -1.161   0.365  -1.751
    1LIG     O2   18  -0.997   0.053  -1.528
    1LIG    C12   19  -0.964  -0.070  -1.591
    1LIG     O3   20  -1.671   0.350  -2.052
    1LIG     H4   21  -1.658   0.257  -2.022
    1LIG    C13   22  -1.584   0.691  -1.966
    1LIG    C14   23  -1.432   0.695  -1.955
    1LIG    C15   24  -1.367   0.713  -1.832
    1LIG    C16   25  -1.228   0.713  -1.824
    1LIG    C17   26  -1.151   0.692  -1.938
    1LIG    C18   27  -1.213   0.673  -2.061
    1LIG    C19   28  -1.353   0.674  -2.069
    1LIG    C20   29  -1.796   0.496  -1.562
    1LIG    C21   30  -1.693   0.446  -1.456
    1LIG    C22   31  -1.742   0.463  -1.310
    1LIG    C23   32  -1.854   0.539  -1.282
    1LIG     N3   33  -1.925   0.604  -1.388
    1LIG    C24   34  -1.915   0.558  -1.144
    1LIG    C25   35  -1.907   0.566  -1.522
    1LIG    C26   36  -2.021   0.608  -1.615
    1LIG    C27   37  -1.644   0.303  -1.493
    1LIG    C28   38  -1.495   0.287  -1.523
    1LIG    C29   39  -1.425   0.422  -1.510
    1LIG    C30   40  -1.669   0.394  -1.194
    1LIG     O4   41  -1.709   0.286  -1.148
    1LIG    C31   42  -1.546   0.455  -1.130
    1LIG    C32   43  -1.990   0.738  -1.358
    1LIG    C33   44  -1.906   0.865  -1.380
    1LIG     O5   45  -1.958   0.973  -1.408
    1LIG     O6   46  -1.775   0.847  -1.353
    1LIG    C34   47  -1.673   0.868  -1.454
    1LIG    C35   48  -1.549   0.781  -1.440
    1LIG    C36   49  -1.729   0.866  -1.597
    1LIG     H5   50  -1.752   0.560  -1.953
    1LIG     H6   51  -1.512   0.483  -2.040
    1LIG     H7   52  -1.549   0.246  -1.878
    1LIG     H8   53  -1.503   0.384  -1.783
    1LIG     H9   54  -1.234   0.171  -1.985
    1LIG    H10   55  -1.357   0.132  -1.866
    1LIG    H11   56  -1.153   0.030  -1.747
    1LIG    H12   57  -0.976   0.299  -1.480
    1LIG    H13   58  -1.063   0.485  -1.609
    1LIG    H14   59  -1.197   0.444  -1.806
    1LIG    H15   60  -0.920  -0.136  -1.520
    1LIG    H16   61  -0.895  -0.051  -1.671
    1LIG    H17   62  -1.053  -0.114  -1.631
    1LIG    H18   63  -1.610   0.703  -2.069
    1LIG    H19   64  -1.620   0.769  -1.903
    1LIG    H20   65  -1.423   0.727  -1.747
    1LIG    H21   66  -1.182   0.728  -1.732
    1LIG    H22   67  -1.048   0.691  -1.932
    1LIG    H23   68  -1.156   0.658  -2.145
    1LIG    H24   69  -1.399   0.659  -2.161
    1LIG    H25   70  -1.756   0.509  -1.250
    1LIG    H26   71  -2.017   0.589  -1.154
    1LIG    H27   72  -1.860   0.633  -1.091
    1LIG    H28   73  -1.911   0.466  -1.090
    1LIG    H29   74  -1.999   0.575  -1.715
    1LIG    H30   75  -2.031   0.714  -1.613
    1LIG    H31   76  -2.112   0.563  -1.582
    1LIG    H32   77  -1.667   0.238  -1.410
    1LIG    H33   78  -1.694   0.278  -1.584
    1LIG    H34   79  -1.452   0.218  -1.453
    1LIG    H35   80  -1.483   0.250  -1.623
    1LIG    H36   81  -1.437   0.459  -1.411
    1LIG    H37   82  -1.468   0.491  -1.580
    1LIG    H38   83  -1.321   0.410  -1.532
    1LIG    H39   84  -1.522   0.547  -1.179
    1LIG    H40   85  -1.464   0.387  -1.141
    1LIG    H41   86  -1.564   0.472  -1.026
    1LIG    H42   87  -2.021   0.736  -1.256
    1LIG    H43   88  -2.070   0.745  -1.430
    1LIG    H44   89  -1.639   0.968  -1.436
    1LIG    H45   90  -1.575   0.679  -1.457
    1LIG    H46   91  -1.510   0.792  -1.341
    1LIG    H47   92  -1.475   0.811  -1.511
    1LIG    H48   93  -1.764   0.768  -1.620
    1LIG    H49   94  -1.651   0.893  -1.666
    1LIG    H50   95  -1.809   0.936  -1.605
   0.00000   0.00000   0.00000
