; Created by cgenff_charmm2gmx.py

[ moleculetype ]
; Name			   nrexcl
LIG				 3

[ atoms ]
;	 nr		  type	resnr residue  atom   cgnr	   charge		mass  typeB    chargeB		massB
; residue	 1 LIG rtp LIG q	qsum
     1     CG3C50      1    LIG     C1      1      0.952     12.011   ;
     2     NG3C51      1    LIG     N1      2     -0.942     14.007   ;
     3     CG3C51      1    LIG     C2      3      0.310     12.011   ;
     4     NG3C51      1    LIG     N2      4     -0.975     14.007   ;
     5     CG3RC1      1    LIG     C3      5      0.331     12.011   ;
     6      NG311      1    LIG     N3      6     -0.833     14.007   ;
     7     HGPAM1      1    LIG    HN1      7      0.404      1.008   ;
     8      CG321      1    LIG     C4      8      0.060     12.011   ;
     9      CG321      1    LIG     C5      9     -0.219     12.011   ;
    10      CG321      1    LIG     C6     10      0.333     12.011   ;
    11      NG321      1    LIG     N4     11     -0.868     14.007   ;
    12       HGP1      1    LIG     H1     12      0.206      1.008   ;
    13     HGPAM2      1    LIG     H2     13      0.349      1.008   ;
    14     HGPAM2      1    LIG     H3     14      0.349      1.008   ;
    15     CG2R61      1    LIG     C7     15     -0.001     12.011   ;
    16     CG2R61      1    LIG     C8     16     -0.182     12.011   ;
    17     CG2R61      1    LIG     C9     17     -0.137     12.011   ;
    18     CG2R61      1    LIG    C10     18     -0.117     12.011   ;
    19     CG2R61      1    LIG    C11     19     -0.102     12.011   ;
    20     CG2R61      1    LIG    C12     20     -0.181     12.011   ;
    21     CG2DC1      1    LIG    C13     21      0.053     12.011   ;
    22     CG2DC2      1    LIG    C14     22     -0.246     12.011   ;
    23     CG2DC2      1    LIG    C15     23     -0.181     12.011   ;
    24      CG321      1    LIG    C16     24     -0.037     12.011   ;
    25      NG311      1    LIG     N5     25     -0.466     14.007   ;
    26     CG2D1O      1    LIG    C17     26      0.321     12.011   ;
    27     HGPAM1      1    LIG    HN2     27      0.324      1.008   ;
    28       FGA1      1    LIG     F1     28     -0.107     18.998   ;
    29     CG2R61      1    LIG    C18     29     -0.004     12.011   ;
    30     CG2R61      1    LIG    C19     30     -0.178     12.011   ;
    31     CG2R61      1    LIG    C20     31     -0.108     12.011   ;
    32     CG2R61      1    LIG    C21     32      0.217     12.011   ;
    33     CG2R61      1    LIG    C22     33     -0.108     12.011   ;
    34     CG2R61      1    LIG    C23     34     -0.178     12.011   ;
    35      OG301      1    LIG      O     35     -0.303     15.999   ;
    36      CG302      1    LIG    C24     36      0.464     12.011   ;
    37       FGA3      1    LIG     F2     37     -0.126     18.998   ;
    38       FGA3      1    LIG     F3     38     -0.126     18.998   ;
    39       FGA3      1    LIG     F4     39     -0.126     18.998   ;
    40       HGA1      1    LIG     H4     40      0.137      1.008   ;
    41       HGA1      1    LIG     H5     41      0.090      1.008   ;
    42       HGA2      1    LIG     H6     42      0.090      1.008   ;
    43       HGA2      1    LIG     H7     43      0.090      1.008   ;
    44       HGA2      1    LIG     H8     44      0.090      1.008   ;
    45       HGA2      1    LIG     H9     45      0.090      1.008   ;
    46       HGA2      1    LIG    H10     46      0.090      1.008   ;
    47       HGA2      1    LIG    H11     47      0.090      1.008   ;
    48      HGR61      1    LIG    H12     48      0.116      1.008   ;
    49      HGR61      1    LIG    H13     49      0.116      1.008   ;
    50      HGR61      1    LIG    H14     50      0.116      1.008   ;
    51      HGR61      1    LIG    H15     51      0.116      1.008   ;
    52       HGA4      1    LIG    H16     52      0.153      1.008   ;
    53       HGA4      1    LIG    H17     53      0.150      1.008   ;
    54       HGA2      1    LIG    H18     54      0.090      1.008   ;
    55       HGA2      1    LIG    H19     55      0.090      1.008   ;
    56      HGR61      1    LIG    H20     56      0.116      1.008   ;
    57      HGR61      1    LIG    H21     57      0.116      1.008   ;
    58      HGR61      1    LIG    H22     58      0.116      1.008   ;
    59      HGR61      1    LIG    H23     59      0.116      1.008   ;

[ bonds ]
;	ai	  aj funct			  c0			c1			  c2			c3
    1     5	 1 ;      CG3C50     CG3RC1
    1     2	 1 ;      CG3C50     NG3C51
    1    29	 1 ;      CG3C50     CG2R61
    1    15	 1 ;      CG3C50     CG2R61
    2     3	 1 ;      NG3C51     CG3C51
    2    12	 1 ;      NG3C51       HGP1
    3    11	 1 ;      CG3C51      NG321
    3     4	 1 ;      CG3C51     NG3C51
    3    40	 1 ;      CG3C51       HGA1
    4    10	 1 ;      NG3C51      CG321
    4     5	 1 ;      NG3C51     CG3RC1
    5     6	 1 ;      CG3RC1      NG311
    5    41	 1 ;      CG3RC1       HGA1
    6     8	 1 ;       NG311      CG321
    6     7	 1 ;       NG311     HGPAM1
    8     9	 1 ;       CG321      CG321
    8    42	 1 ;       CG321       HGA2
    8    43	 1 ;       CG321       HGA2
    9    10	 1 ;       CG321      CG321
    9    44	 1 ;       CG321       HGA2
    9    45	 1 ;       CG321       HGA2
   10    46	 1 ;       CG321       HGA2
   10    47	 1 ;       CG321       HGA2
   11    14	 1 ;       NG321     HGPAM2
   11    13	 1 ;       NG321     HGPAM2
   15    20	 1 ;      CG2R61     CG2R61
   15    16	 1 ;      CG2R61     CG2R61
   16    17	 1 ;      CG2R61     CG2R61
   16    48	 1 ;      CG2R61      HGR61
   17    18	 1 ;      CG2R61     CG2R61
   17    21	 1 ;      CG2R61     CG2DC1
   18    19	 1 ;      CG2R61     CG2R61
   18    49	 1 ;      CG2R61      HGR61
   19    20	 1 ;      CG2R61     CG2R61
   19    50	 1 ;      CG2R61      HGR61
   20    51	 1 ;      CG2R61      HGR61
   21    22	 1 ;      CG2DC1     CG2DC2
   21    26	 1 ;      CG2DC1     CG2D1O
   22    23	 1 ;      CG2DC2     CG2DC2
   22    52	 1 ;      CG2DC2       HGA4
   23    24	 1 ;      CG2DC2      CG321
   23    53	 1 ;      CG2DC2       HGA4
   24    25	 1 ;       CG321      NG311
   24    54	 1 ;       CG321       HGA2
   24    55	 1 ;       CG321       HGA2
   25    26	 1 ;       NG311     CG2D1O
   25    27	 1 ;       NG311     HGPAM1
   26    28	 1 ;      CG2D1O       FGA1
   29    30	 1 ;      CG2R61     CG2R61
   29    34	 1 ;      CG2R61     CG2R61
   30    31	 1 ;      CG2R61     CG2R61
   30    56	 1 ;      CG2R61      HGR61
   31    32	 1 ;      CG2R61     CG2R61
   31    57	 1 ;      CG2R61      HGR61
   32    33	 1 ;      CG2R61     CG2R61
   32    35	 1 ;      CG2R61      OG301
   33    34	 1 ;      CG2R61     CG2R61
   33    58	 1 ;      CG2R61      HGR61
   34    59	 1 ;      CG2R61      HGR61
   35    36	 1 ;       OG301      CG302
   36    38	 1 ;       CG302       FGA3
   36    37	 1 ;       CG302       FGA3
   36    39	 1 ;       CG302       FGA3

[ pairs ]
;	ai	  aj funct			  c0			c1			  c2			c3
    1    11	 1
    1    40	 1
    1    10	 1
    1     8	 1
    1     7	 1
    1    19	 1
    1    51	 1
    1    17	 1
    1    48	 1
    1    31	 1
    1    56	 1
    1    33	 1
    1    59	 1
    2     6	 1
    2    41	 1
    2    30	 1
    2    34	 1
    2    20	 1
    2    16	 1
    2    14	 1
    2    13	 1
    2    10	 1
    3    29	 1
    3    15	 1
    3     9	 1
    3    46	 1
    3    47	 1
    3     6	 1
    3    41	 1
    4    29	 1
    4    15	 1
    4    12	 1
    4    14	 1
    4    13	 1
    4     8	 1
    4     7	 1
    4    44	 1
    4    45	 1
    5    12	 1
    5    30	 1
    5    34	 1
    5    20	 1
    5    16	 1
    5    11	 1
    5    40	 1
    5     9	 1
    5    46	 1
    5    47	 1
    5    42	 1
    5    43	 1
    6    29	 1
    6    15	 1
    6    10	 1
    6    44	 1
    6    45	 1
    7    41	 1
    7     9	 1
    7    42	 1
    7    43	 1
    8    41	 1
    8    46	 1
    8    47	 1
   10    11	 1
   10    40	 1
   10    41	 1
   10    42	 1
   10    43	 1
   11    12	 1
   12    29	 1
   12    15	 1
   12    40	 1
   13    40	 1
   14    40	 1
   15    41	 1
   15    30	 1
   15    34	 1
   15    18	 1
   15    21	 1
   15    50	 1
   16    29	 1
   16    19	 1
   16    51	 1
   16    49	 1
   16    22	 1
   16    26	 1
   17    20	 1
   17    50	 1
   17    23	 1
   17    52	 1
   17    28	 1
   17    25	 1
   18    48	 1
   18    22	 1
   18    26	 1
   18    51	 1
   19    21	 1
   20    29	 1
   20    48	 1
   20    49	 1
   21    48	 1
   21    49	 1
   21    24	 1
   21    53	 1
   21    27	 1
   22    28	 1
   22    25	 1
   22    54	 1
   22    55	 1
   23    26	 1
   23    27	 1
   24    52	 1
   24    28	 1
   25    53	 1
   26    52	 1
   26    54	 1
   26    55	 1
   27    54	 1
   27    55	 1
   27    28	 1
   29    41	 1
   29    32	 1
   29    57	 1
   29    58	 1
   30    33	 1
   30    59	 1
   30    35	 1
   31    34	 1
   31    58	 1
   31    36	 1
   32    56	 1
   32    59	 1
   32    38	 1
   32    37	 1
   32    39	 1
   33    57	 1
   33    36	 1
   34    56	 1
   34    35	 1
   35    57	 1
   35    58	 1
   42    44	 1
   42    45	 1
   43    44	 1
   43    45	 1
   44    46	 1
   44    47	 1
   45    46	 1
   45    47	 1
   49    50	 1
   50    51	 1
   52    53	 1
   53    54	 1
   53    55	 1
   56    57	 1
   58    59	 1

[ angles ]
;	ai	  aj	ak funct			c0			  c1			c2			  c3
    5     1     2	5 ;     CG3RC1     CG3C50     NG3C51
    5     1    29	5 ;     CG3RC1     CG3C50     CG2R61
    5     1    15	5 ;     CG3RC1     CG3C50     CG2R61
    2     1    29	5 ;     NG3C51     CG3C50     CG2R61
    2     1    15	5 ;     NG3C51     CG3C50     CG2R61
   29     1    15	5 ;     CG2R61     CG3C50     CG2R61
    3     2    12	5 ;     CG3C51     NG3C51       HGP1
    3     2     1	5 ;     CG3C51     NG3C51     CG3C50
   12     2     1	5 ;       HGP1     NG3C51     CG3C50
   11     3     4	5 ;      NG321     CG3C51     NG3C51
   11     3     2	5 ;      NG321     CG3C51     NG3C51
   11     3    40	5 ;      NG321     CG3C51       HGA1
    4     3     2	5 ;     NG3C51     CG3C51     NG3C51
    4     3    40	5 ;     NG3C51     CG3C51       HGA1
    2     3    40	5 ;     NG3C51     CG3C51       HGA1
   10     4     3	5 ;      CG321     NG3C51     CG3C51
   10     4     5	5 ;      CG321     NG3C51     CG3RC1
    3     4     5	5 ;     CG3C51     NG3C51     CG3RC1
    4     5     6	5 ;     NG3C51     CG3RC1      NG311
    4     5     1	5 ;     NG3C51     CG3RC1     CG3C50
    4     5    41	5 ;     NG3C51     CG3RC1       HGA1
    6     5     1	5 ;      NG311     CG3RC1     CG3C50
    6     5    41	5 ;      NG311     CG3RC1       HGA1
    1     5    41	5 ;     CG3C50     CG3RC1       HGA1
    8     6     5	5 ;      CG321      NG311     CG3RC1
    8     6     7	5 ;      CG321      NG311     HGPAM1
    5     6     7	5 ;     CG3RC1      NG311     HGPAM1
    9     8     6	5 ;      CG321      CG321      NG311
    9     8    42	5 ;      CG321      CG321       HGA2
    9     8    43	5 ;      CG321      CG321       HGA2
    6     8    42	5 ;      NG311      CG321       HGA2
    6     8    43	5 ;      NG311      CG321       HGA2
   42     8    43	5 ;       HGA2      CG321       HGA2
   10     9     8	5 ;      CG321      CG321      CG321
   10     9    44	5 ;      CG321      CG321       HGA2
   10     9    45	5 ;      CG321      CG321       HGA2
    8     9    44	5 ;      CG321      CG321       HGA2
    8     9    45	5 ;      CG321      CG321       HGA2
   44     9    45	5 ;       HGA2      CG321       HGA2
    4    10     9	5 ;     NG3C51      CG321      CG321
    4    10    46	5 ;     NG3C51      CG321       HGA2
    4    10    47	5 ;     NG3C51      CG321       HGA2
    9    10    46	5 ;      CG321      CG321       HGA2
    9    10    47	5 ;      CG321      CG321       HGA2
   46    10    47	5 ;       HGA2      CG321       HGA2
   14    11    13	5 ;     HGPAM2      NG321     HGPAM2
   14    11     3	5 ;     HGPAM2      NG321     CG3C51
   13    11     3	5 ;     HGPAM2      NG321     CG3C51
    1    15    20	5 ;     CG3C50     CG2R61     CG2R61
    1    15    16	5 ;     CG3C50     CG2R61     CG2R61
   20    15    16	5 ;     CG2R61     CG2R61     CG2R61
   15    16    17	5 ;     CG2R61     CG2R61     CG2R61
   15    16    48	5 ;     CG2R61     CG2R61      HGR61
   17    16    48	5 ;     CG2R61     CG2R61      HGR61
   16    17    18	5 ;     CG2R61     CG2R61     CG2R61
   16    17    21	5 ;     CG2R61     CG2R61     CG2DC1
   18    17    21	5 ;     CG2R61     CG2R61     CG2DC1
   19    18    17	5 ;     CG2R61     CG2R61     CG2R61
   19    18    49	5 ;     CG2R61     CG2R61      HGR61
   17    18    49	5 ;     CG2R61     CG2R61      HGR61
   20    19    18	5 ;     CG2R61     CG2R61     CG2R61
   20    19    50	5 ;     CG2R61     CG2R61      HGR61
   18    19    50	5 ;     CG2R61     CG2R61      HGR61
   15    20    19	5 ;     CG2R61     CG2R61     CG2R61
   15    20    51	5 ;     CG2R61     CG2R61      HGR61
   19    20    51	5 ;     CG2R61     CG2R61      HGR61
   17    21    22	5 ;     CG2R61     CG2DC1     CG2DC2
   17    21    26	5 ;     CG2R61     CG2DC1     CG2D1O
   22    21    26	5 ;     CG2DC2     CG2DC1     CG2D1O
   21    22    23	5 ;     CG2DC1     CG2DC2     CG2DC2
   21    22    52	5 ;     CG2DC1     CG2DC2       HGA4
   23    22    52	5 ;     CG2DC2     CG2DC2       HGA4
   22    23    24	5 ;     CG2DC2     CG2DC2      CG321
   22    23    53	5 ;     CG2DC2     CG2DC2       HGA4
   24    23    53	5 ;      CG321     CG2DC2       HGA4
   23    24    25	5 ;     CG2DC2      CG321      NG311
   23    24    54	5 ;     CG2DC2      CG321       HGA2
   23    24    55	5 ;     CG2DC2      CG321       HGA2
   25    24    54	5 ;      NG311      CG321       HGA2
   25    24    55	5 ;      NG311      CG321       HGA2
   54    24    55	5 ;       HGA2      CG321       HGA2
   26    25    24	5 ;     CG2D1O      NG311      CG321
   26    25    27	5 ;     CG2D1O      NG311     HGPAM1
   24    25    27	5 ;      CG321      NG311     HGPAM1
   21    26    28	5 ;     CG2DC1     CG2D1O       FGA1
   21    26    25	5 ;     CG2DC1     CG2D1O      NG311
   28    26    25	5 ;       FGA1     CG2D1O      NG311
    1    29    30	5 ;     CG3C50     CG2R61     CG2R61
    1    29    34	5 ;     CG3C50     CG2R61     CG2R61
   30    29    34	5 ;     CG2R61     CG2R61     CG2R61
   29    30    31	5 ;     CG2R61     CG2R61     CG2R61
   29    30    56	5 ;     CG2R61     CG2R61      HGR61
   31    30    56	5 ;     CG2R61     CG2R61      HGR61
   30    31    32	5 ;     CG2R61     CG2R61     CG2R61
   30    31    57	5 ;     CG2R61     CG2R61      HGR61
   32    31    57	5 ;     CG2R61     CG2R61      HGR61
   31    32    33	5 ;     CG2R61     CG2R61     CG2R61
   31    32    35	5 ;     CG2R61     CG2R61      OG301
   33    32    35	5 ;     CG2R61     CG2R61      OG301
   34    33    32	5 ;     CG2R61     CG2R61     CG2R61
   34    33    58	5 ;     CG2R61     CG2R61      HGR61
   32    33    58	5 ;     CG2R61     CG2R61      HGR61
   29    34    33	5 ;     CG2R61     CG2R61     CG2R61
   29    34    59	5 ;     CG2R61     CG2R61      HGR61
   33    34    59	5 ;     CG2R61     CG2R61      HGR61
   36    35    32	5 ;      CG302      OG301     CG2R61
   38    36    37	5 ;       FGA3      CG302       FGA3
   38    36    39	5 ;       FGA3      CG302       FGA3
   38    36    35	5 ;       FGA3      CG302      OG301
   37    36    39	5 ;       FGA3      CG302       FGA3
   37    36    35	5 ;       FGA3      CG302      OG301
   39    36    35	5 ;       FGA3      CG302      OG301

[ dihedrals ]
;	ai	  aj	ak	  al funct			  c0			c1			  c2			c3			  c4			c5
    2     1     5     4	 9 ;     NG3C51     CG3C50     CG3RC1     NG3C51
    2     1     5     6	 9 ;     NG3C51     CG3C50     CG3RC1      NG311
    2     1     5    41	 9 ;     NG3C51     CG3C50     CG3RC1       HGA1
   29     1     5     4	 9 ;     CG2R61     CG3C50     CG3RC1     NG3C51
   29     1     5     6	 9 ;     CG2R61     CG3C50     CG3RC1      NG311
   29     1     5    41	 9 ;     CG2R61     CG3C50     CG3RC1       HGA1
   15     1     5     4	 9 ;     CG2R61     CG3C50     CG3RC1     NG3C51
   15     1     5     6	 9 ;     CG2R61     CG3C50     CG3RC1      NG311
   15     1     5    41	 9 ;     CG2R61     CG3C50     CG3RC1       HGA1
    5     1     2     3	 9 ;     CG3RC1     CG3C50     NG3C51     CG3C51
    5     1     2    12	 9 ;     CG3RC1     CG3C50     NG3C51       HGP1
   29     1     2     3	 9 ;     CG2R61     CG3C50     NG3C51     CG3C51
   29     1     2    12	 9 ;     CG2R61     CG3C50     NG3C51       HGP1
   15     1     2     3	 9 ;     CG2R61     CG3C50     NG3C51     CG3C51
   15     1     2    12	 9 ;     CG2R61     CG3C50     NG3C51       HGP1
    5     1    29    30	 9 ;     CG3RC1     CG3C50     CG2R61     CG2R61
    5     1    29    34	 9 ;     CG3RC1     CG3C50     CG2R61     CG2R61
    2     1    29    30	 9 ;     NG3C51     CG3C50     CG2R61     CG2R61
    2     1    29    34	 9 ;     NG3C51     CG3C50     CG2R61     CG2R61
   15     1    29    30	 9 ;     CG2R61     CG3C50     CG2R61     CG2R61
   15     1    29    34	 9 ;     CG2R61     CG3C50     CG2R61     CG2R61
    5     1    15    20	 9 ;     CG3RC1     CG3C50     CG2R61     CG2R61
    5     1    15    16	 9 ;     CG3RC1     CG3C50     CG2R61     CG2R61
    2     1    15    20	 9 ;     NG3C51     CG3C50     CG2R61     CG2R61
    2     1    15    16	 9 ;     NG3C51     CG3C50     CG2R61     CG2R61
   29     1    15    20	 9 ;     CG2R61     CG3C50     CG2R61     CG2R61
   29     1    15    16	 9 ;     CG2R61     CG3C50     CG2R61     CG2R61
   12     2     3    11	 9 ;       HGP1     NG3C51     CG3C51      NG321
   12     2     3     4	 9 ;       HGP1     NG3C51     CG3C51     NG3C51
   12     2     3    40	 9 ;       HGP1     NG3C51     CG3C51       HGA1
    1     2     3    11	 9 ;     CG3C50     NG3C51     CG3C51      NG321
    1     2     3     4	 9 ;     CG3C50     NG3C51     CG3C51     NG3C51
    1     2     3    40	 9 ;     CG3C50     NG3C51     CG3C51       HGA1
    4     3    11    14	 9 ;     NG3C51     CG3C51      NG321     HGPAM2
    4     3    11    13	 9 ;     NG3C51     CG3C51      NG321     HGPAM2
    2     3    11    14	 9 ;     NG3C51     CG3C51      NG321     HGPAM2
    2     3    11    13	 9 ;     NG3C51     CG3C51      NG321     HGPAM2
   40     3    11    14	 9 ;       HGA1     CG3C51      NG321     HGPAM2
   40     3    11    13	 9 ;       HGA1     CG3C51      NG321     HGPAM2
   11     3     4    10	 9 ;      NG321     CG3C51     NG3C51      CG321
   11     3     4     5	 9 ;      NG321     CG3C51     NG3C51     CG3RC1
    2     3     4    10	 9 ;     NG3C51     CG3C51     NG3C51      CG321
    2     3     4     5	 9 ;     NG3C51     CG3C51     NG3C51     CG3RC1
   40     3     4    10	 9 ;       HGA1     CG3C51     NG3C51      CG321
   40     3     4     5	 9 ;       HGA1     CG3C51     NG3C51     CG3RC1
    3     4    10     9	 9 ;     CG3C51     NG3C51      CG321      CG321
    3     4    10    46	 9 ;     CG3C51     NG3C51      CG321       HGA2
    3     4    10    47	 9 ;     CG3C51     NG3C51      CG321       HGA2
    5     4    10     9	 9 ;     CG3RC1     NG3C51      CG321      CG321
    5     4    10    46	 9 ;     CG3RC1     NG3C51      CG321       HGA2
    5     4    10    47	 9 ;     CG3RC1     NG3C51      CG321       HGA2
   10     4     5     6	 9 ;      CG321     NG3C51     CG3RC1      NG311
   10     4     5     1	 9 ;      CG321     NG3C51     CG3RC1     CG3C50
   10     4     5    41	 9 ;      CG321     NG3C51     CG3RC1       HGA1
    3     4     5     6	 9 ;     CG3C51     NG3C51     CG3RC1      NG311
    3     4     5     1	 9 ;     CG3C51     NG3C51     CG3RC1     CG3C50
    3     4     5    41	 9 ;     CG3C51     NG3C51     CG3RC1       HGA1
    4     5     6     8	 9 ;     NG3C51     CG3RC1      NG311      CG321
    4     5     6     7	 9 ;     NG3C51     CG3RC1      NG311     HGPAM1
    1     5     6     8	 9 ;     CG3C50     CG3RC1      NG311      CG321
    1     5     6     7	 9 ;     CG3C50     CG3RC1      NG311     HGPAM1
   41     5     6     8	 9 ;       HGA1     CG3RC1      NG311      CG321
   41     5     6     7	 9 ;       HGA1     CG3RC1      NG311     HGPAM1
    5     6     8     9	 9 ;     CG3RC1      NG311      CG321      CG321
    5     6     8    42	 9 ;     CG3RC1      NG311      CG321       HGA2
    5     6     8    43	 9 ;     CG3RC1      NG311      CG321       HGA2
    7     6     8     9	 9 ;     HGPAM1      NG311      CG321      CG321
    7     6     8    42	 9 ;     HGPAM1      NG311      CG321       HGA2
    7     6     8    43	 9 ;     HGPAM1      NG311      CG321       HGA2
    6     8     9    10	 9 ;      NG311      CG321      CG321      CG321
    6     8     9    44	 9 ;      NG311      CG321      CG321       HGA2
    6     8     9    45	 9 ;      NG311      CG321      CG321       HGA2
   42     8     9    10	 9 ;       HGA2      CG321      CG321      CG321
   42     8     9    44	 9 ;       HGA2      CG321      CG321       HGA2
   42     8     9    45	 9 ;       HGA2      CG321      CG321       HGA2
   43     8     9    10	 9 ;       HGA2      CG321      CG321      CG321
   43     8     9    44	 9 ;       HGA2      CG321      CG321       HGA2
   43     8     9    45	 9 ;       HGA2      CG321      CG321       HGA2
    8     9    10     4	 9 ;      CG321      CG321      CG321     NG3C51
    8     9    10    46	 9 ;      CG321      CG321      CG321       HGA2
    8     9    10    47	 9 ;      CG321      CG321      CG321       HGA2
   44     9    10     4	 9 ;       HGA2      CG321      CG321     NG3C51
   44     9    10    46	 9 ;       HGA2      CG321      CG321       HGA2
   44     9    10    47	 9 ;       HGA2      CG321      CG321       HGA2
   45     9    10     4	 9 ;       HGA2      CG321      CG321     NG3C51
   45     9    10    46	 9 ;       HGA2      CG321      CG321       HGA2
   45     9    10    47	 9 ;       HGA2      CG321      CG321       HGA2
    1    15    20    19	 9 ;     CG3C50     CG2R61     CG2R61     CG2R61
    1    15    20    51	 9 ;     CG3C50     CG2R61     CG2R61      HGR61
   16    15    20    19	 9 ;     CG2R61     CG2R61     CG2R61     CG2R61
   16    15    20    51	 9 ;     CG2R61     CG2R61     CG2R61      HGR61
    1    15    16    17	 9 ;     CG3C50     CG2R61     CG2R61     CG2R61
    1    15    16    48	 9 ;     CG3C50     CG2R61     CG2R61      HGR61
   20    15    16    17	 9 ;     CG2R61     CG2R61     CG2R61     CG2R61
   20    15    16    48	 9 ;     CG2R61     CG2R61     CG2R61      HGR61
   15    16    17    18	 9 ;     CG2R61     CG2R61     CG2R61     CG2R61
   15    16    17    21	 9 ;     CG2R61     CG2R61     CG2R61     CG2DC1
   48    16    17    18	 9 ;      HGR61     CG2R61     CG2R61     CG2R61
   48    16    17    21	 9 ;      HGR61     CG2R61     CG2R61     CG2DC1
   16    17    18    19	 9 ;     CG2R61     CG2R61     CG2R61     CG2R61
   16    17    18    49	 9 ;     CG2R61     CG2R61     CG2R61      HGR61
   21    17    18    19	 9 ;     CG2DC1     CG2R61     CG2R61     CG2R61
   21    17    18    49	 9 ;     CG2DC1     CG2R61     CG2R61      HGR61
   16    17    21    22	 9 ;     CG2R61     CG2R61     CG2DC1     CG2DC2
   16    17    21    26	 9 ;     CG2R61     CG2R61     CG2DC1     CG2D1O
   18    17    21    22	 9 ;     CG2R61     CG2R61     CG2DC1     CG2DC2
   18    17    21    26	 9 ;     CG2R61     CG2R61     CG2DC1     CG2D1O
   17    18    19    20	 9 ;     CG2R61     CG2R61     CG2R61     CG2R61
   17    18    19    50	 9 ;     CG2R61     CG2R61     CG2R61      HGR61
   49    18    19    20	 9 ;      HGR61     CG2R61     CG2R61     CG2R61
   49    18    19    50	 9 ;      HGR61     CG2R61     CG2R61      HGR61
   18    19    20    15	 9 ;     CG2R61     CG2R61     CG2R61     CG2R61
   18    19    20    51	 9 ;     CG2R61     CG2R61     CG2R61      HGR61
   50    19    20    15	 9 ;      HGR61     CG2R61     CG2R61     CG2R61
   50    19    20    51	 9 ;      HGR61     CG2R61     CG2R61      HGR61
   17    21    22    23	 9 ;     CG2R61     CG2DC1     CG2DC2     CG2DC2
   17    21    22    52	 9 ;     CG2R61     CG2DC1     CG2DC2       HGA4
   26    21    22    23	 9 ;     CG2D1O     CG2DC1     CG2DC2     CG2DC2
   26    21    22    52	 9 ;     CG2D1O     CG2DC1     CG2DC2       HGA4
   17    21    26    28	 9 ;     CG2R61     CG2DC1     CG2D1O       FGA1
   17    21    26    25	 9 ;     CG2R61     CG2DC1     CG2D1O      NG311
   22    21    26    28	 9 ;     CG2DC2     CG2DC1     CG2D1O       FGA1
   22    21    26    25	 9 ;     CG2DC2     CG2DC1     CG2D1O      NG311
   21    22    23    24	 9 ;     CG2DC1     CG2DC2     CG2DC2      CG321
   21    22    23    53	 9 ;     CG2DC1     CG2DC2     CG2DC2       HGA4
   52    22    23    24	 9 ;       HGA4     CG2DC2     CG2DC2      CG321
   52    22    23    53	 9 ;       HGA4     CG2DC2     CG2DC2       HGA4
   22    23    24    25	 9 ;     CG2DC2     CG2DC2      CG321      NG311
   22    23    24    54	 9 ;     CG2DC2     CG2DC2      CG321       HGA2
   22    23    24    55	 9 ;     CG2DC2     CG2DC2      CG321       HGA2
   53    23    24    25	 9 ;       HGA4     CG2DC2      CG321      NG311
   53    23    24    54	 9 ;       HGA4     CG2DC2      CG321       HGA2
   53    23    24    55	 9 ;       HGA4     CG2DC2      CG321       HGA2
   23    24    25    26	 9 ;     CG2DC2      CG321      NG311     CG2D1O
   23    24    25    27	 9 ;     CG2DC2      CG321      NG311     HGPAM1
   54    24    25    26	 9 ;       HGA2      CG321      NG311     CG2D1O
   54    24    25    27	 9 ;       HGA2      CG321      NG311     HGPAM1
   55    24    25    26	 9 ;       HGA2      CG321      NG311     CG2D1O
   55    24    25    27	 9 ;       HGA2      CG321      NG311     HGPAM1
   24    25    26    21	 9 ;      CG321      NG311     CG2D1O     CG2DC1
   24    25    26    28	 9 ;      CG321      NG311     CG2D1O       FGA1
   27    25    26    21	 9 ;     HGPAM1      NG311     CG2D1O     CG2DC1
   27    25    26    28	 9 ;     HGPAM1      NG311     CG2D1O       FGA1
    1    29    30    31	 9 ;     CG3C50     CG2R61     CG2R61     CG2R61
    1    29    30    56	 9 ;     CG3C50     CG2R61     CG2R61      HGR61
   34    29    30    31	 9 ;     CG2R61     CG2R61     CG2R61     CG2R61
   34    29    30    56	 9 ;     CG2R61     CG2R61     CG2R61      HGR61
    1    29    34    33	 9 ;     CG3C50     CG2R61     CG2R61     CG2R61
    1    29    34    59	 9 ;     CG3C50     CG2R61     CG2R61      HGR61
   30    29    34    33	 9 ;     CG2R61     CG2R61     CG2R61     CG2R61
   30    29    34    59	 9 ;     CG2R61     CG2R61     CG2R61      HGR61
   29    30    31    32	 9 ;     CG2R61     CG2R61     CG2R61     CG2R61
   29    30    31    57	 9 ;     CG2R61     CG2R61     CG2R61      HGR61
   56    30    31    32	 9 ;      HGR61     CG2R61     CG2R61     CG2R61
   56    30    31    57	 9 ;      HGR61     CG2R61     CG2R61      HGR61
   30    31    32    33	 9 ;     CG2R61     CG2R61     CG2R61     CG2R61
   30    31    32    35	 9 ;     CG2R61     CG2R61     CG2R61      OG301
   57    31    32    33	 9 ;      HGR61     CG2R61     CG2R61     CG2R61
   57    31    32    35	 9 ;      HGR61     CG2R61     CG2R61      OG301
   31    32    33    34	 9 ;     CG2R61     CG2R61     CG2R61     CG2R61
   31    32    33    58	 9 ;     CG2R61     CG2R61     CG2R61      HGR61
   35    32    33    34	 9 ;      OG301     CG2R61     CG2R61     CG2R61
   35    32    33    58	 9 ;      OG301     CG2R61     CG2R61      HGR61
   31    32    35    36	 9 ;     CG2R61     CG2R61      OG301      CG302
   33    32    35    36	 9 ;     CG2R61     CG2R61      OG301      CG302
   32    33    34    29	 9 ;     CG2R61     CG2R61     CG2R61     CG2R61
   32    33    34    59	 9 ;     CG2R61     CG2R61     CG2R61      HGR61
   58    33    34    29	 9 ;      HGR61     CG2R61     CG2R61     CG2R61
   58    33    34    59	 9 ;      HGR61     CG2R61     CG2R61      HGR61
   32    35    36    38	 9 ;     CG2R61      OG301      CG302       FGA3
   32    35    36    37	 9 ;     CG2R61      OG301      CG302       FGA3
   32    35    36    39	 9 ;     CG2R61      OG301      CG302       FGA3

[ dihedrals ]
;	ai	  aj	ak	  al funct			  c0			c1			  c2			c3
   26    21    25    28	 2

