Glycine aRginine prOline Methionine Alanine Cystine Serine
   59
    1LIG     C1    1  -1.408   0.394  -1.703
    1LIG     N1    2  -1.516   0.331  -1.785
    1LIG     C2    3  -1.537   0.404  -1.899
    1LIG     N2    4  -1.450   0.504  -1.911
    1LIG     C3    5  -1.352   0.492  -1.809
    1LIG     N3    6  -1.247   0.565  -1.797
    1LIG    HN1    7  -1.171   0.540  -1.733
    1LIG     C4    8  -1.242   0.685  -1.880
    1LIG     C5    9  -1.383   0.736  -1.907
    1LIG     C6   10  -1.459   0.629  -1.985
    1LIG     N4   11  -1.635   0.375  -1.985
    1LIG     H1   12  -1.567   0.248  -1.760
    1LIG     H2   13  -1.700   0.299  -1.969
    1LIG     H3   14  -1.642   0.424  -2.073
    1LIG     C7   15  -1.477   0.481  -1.594
    1LIG     C8   16  -1.515   0.424  -1.469
    1LIG     C9   17  -1.570   0.498  -1.364
    1LIG    C10   18  -1.591   0.635  -1.388
    1LIG    C11   19  -1.558   0.693  -1.511
    1LIG    C12   20  -1.501   0.617  -1.613
    1LIG    C13   21  -1.607   0.436  -1.234
    1LIG    C14   22  -1.726   0.363  -1.220
    1LIG    C15   23  -1.762   0.306  -1.098
    1LIG    C16   24  -1.676   0.323  -0.991
    1LIG     N5   25  -1.560   0.391  -0.998
    1LIG    C17   26  -1.530   0.446  -1.118
    1LIG    HN2   27  -1.499   0.401  -0.917
    1LIG     F1   28  -1.414   0.514  -1.122
    1LIG    C18   29  -1.306   0.294  -1.654
    1LIG    C19   30  -1.318   0.157  -1.679
    1LIG    C20   31  -1.216   0.068  -1.642
    1LIG    C21   32  -1.098   0.116  -1.585
    1LIG    C22   33  -1.088   0.252  -1.555
    1LIG    C23   34  -1.190   0.340  -1.589
    1LIG      O   35  -0.988   0.044  -1.553
    1LIG    C24   36  -0.946  -0.061  -1.639
    1LIG     F2   37  -1.050  -0.125  -1.698
    1LIG     F3   38  -0.871  -0.007  -1.737
    1LIG     F4   39  -0.872  -0.149  -1.570
    1LIG     H4   40  -1.606   0.404  -1.982
    1LIG     H5   41  -1.248   0.485  -1.837
    1LIG     H6   42  -1.186   0.761  -1.829
    1LIG     H7   43  -1.195   0.661  -1.973
    1LIG     H8   44  -1.433   0.756  -1.814
    1LIG     H9   45  -1.379   0.827  -1.964
    1LIG    H10   46  -1.561   0.658  -1.996
    1LIG    H11   47  -1.416   0.618  -2.083
    1LIG    H12   48  -1.500   0.323  -1.455
    1LIG    H13   49  -1.632   0.694  -1.314
    1LIG    H14   50  -1.575   0.794  -1.526
    1LIG    H15   51  -1.477   0.661  -1.703
    1LIG    H16   52  -1.788   0.351  -1.302
    1LIG    H17   53  -1.850   0.253  -1.088
    1LIG    H18   54  -1.650   0.224  -0.959
    1LIG    H19   55  -1.734   0.387  -0.928
    1LIG    H20   56  -1.403   0.120  -1.725
    1LIG    H21   57  -1.228  -0.033  -1.657
    1LIG    H22   58  -1.003   0.287  -1.508
    1LIG    H23   59  -1.180   0.440  -1.567
   0.00000   0.00000   0.00000
