Gallium Rubidium Oxygen Manganese Argon Carbon Silicon
   64
    1LIG     C1    1  -1.455   0.520  -1.573
    1LIG     C2    2  -1.324   0.470  -1.643
    1LIG     C3    3  -1.231   0.379  -1.562
    1LIG     C4    4  -1.123   0.312  -1.647
    1LIG     C5    5  -1.071   0.187  -1.580
    1LIG     C6    6  -1.144   0.067  -1.581
    1LIG     C7    7  -1.103  -0.041  -1.503
    1LIG     F1    8  -1.178  -0.152  -1.501
    1LIG     C8    9  -0.988  -0.034  -1.426
    1LIG     C9   10  -0.912   0.082  -1.431
    1LIG    C10   11  -0.952   0.191  -1.507
    1LIG     F2   12  -0.801   0.091  -1.357
    1LIG     N1   13  -1.169   0.454  -1.451
    1LIG    C11   14  -1.169   0.400  -1.322
    1LIG     O1   15  -1.225   0.296  -1.298
    1LIG    C12   16  -1.099   0.480  -1.217
    1LIG     H1   17  -1.130   0.545  -1.465
    1LIG     O2   18  -1.352   0.414  -1.771
    1LIG     H2   19  -1.294   0.331  -1.777
    1LIG     N2   20  -1.586   0.458  -1.605
    1LIG     H3   21  -1.643   0.508  -1.535
    1LIG     H4   22  -1.620   0.500  -1.694
    1LIG    C13   23  -1.652   0.322  -1.592
    1LIG    C14   24  -1.575   0.195  -1.620
    1LIG    C15   25  -1.692   0.232  -1.706
    1LIG    C16   26  -1.737   0.323  -1.465
    1LIG    C17   27  -1.850   0.239  -1.459
    1LIG    C18   28  -1.912   0.205  -1.339
    1LIG    C19   29  -1.865   0.265  -1.222
    1LIG    C20   30  -1.763   0.360  -1.227
    1LIG    C21   31  -1.699   0.389  -1.347
    1LIG    C22   32  -2.017   0.094  -1.339
    1LIG     O3   33  -2.122   0.123  -1.435
    1LIG    C23   34  -2.216   0.220  -1.385
    1LIG    C24   35  -2.270   0.182  -1.247
    1LIG     O4   36  -2.164   0.158  -1.154
    1LIG    C25   37  -2.079   0.054  -1.204
    1LIG    HC2   38  -1.464   0.626  -1.596
    1LIG    HC3   39  -1.440   0.510  -1.465
    1LIG     HC   40  -1.266   0.560  -1.662
    1LIG    HC1   41  -1.292   0.300  -1.518
    1LIG    HC4   42  -1.040   0.382  -1.661
    1LIG    HC5   43  -1.164   0.286  -1.744
    1LIG    HC6   44  -1.233   0.058  -1.642
    1LIG    HC7   45  -0.959  -0.117  -1.364
    1LIG    HC8   46  -0.890   0.280  -1.511
    1LIG    HC9   47  -1.106   0.429  -1.121
    1LIG   HC10   48  -1.147   0.578  -1.209
    1LIG   HC11   49  -0.995   0.494  -1.245
    1LIG   HC12   50  -1.474   0.200  -1.661
    1LIG   HC13   51  -1.593   0.114  -1.550
    1LIG   HC14   52  -1.676   0.264  -1.809
    1LIG   HC15   53  -1.783   0.174  -1.689
    1LIG   HC16   54  -1.890   0.199  -1.551
    1LIG   HC17   55  -1.908   0.238  -1.126
    1LIG   HC18   56  -1.733   0.412  -1.137
    1LIG   HC19   57  -1.620   0.462  -1.350
    1LIG   HC20   58  -1.967   0.005  -1.377
    1LIG   HC21   59  -2.299   0.227  -1.455
    1LIG   HC22   60  -2.166   0.317  -1.378
    1LIG   HC23   61  -2.332   0.264  -1.210
    1LIG   HC24   62  -2.331   0.092  -1.256
    1LIG   HC25   63  -1.999   0.035  -1.133
    1LIG   HC26   64  -2.138  -0.037  -1.217
   0.00000   0.00000   0.00000
