; Created by cgenff_charmm2gmx.py

[ moleculetype ]
; Name			   nrexcl
LIG				 3

[ atoms ]
;	 nr		  type	resnr residue  atom   cgnr	   charge		mass  typeB    chargeB		massB
; residue	 1 LIG rtp LIG q	qsum
     1     CG2R51      1    LIG     C1      1     -0.204     12.011   ;
     2     NG2R51      1    LIG     N1      2     -0.093     14.007   ;
     3     CG2R51      1    LIG     C2      3     -0.202     12.011   ;
     4     CG2R51      1    LIG     C3      4     -0.231     12.011   ;
     5     CG2R51      1    LIG     C4      5     -0.231     12.011   ;
     6     CG2R61      1    LIG     C5      6      0.129     12.011   ;
     7     CG2R61      1    LIG     C6      7     -0.118     12.011   ;
     8     CG2R61      1    LIG     C7      8     -0.118     12.011   ;
     9     CG2R61      1    LIG     C8      9      0.218     12.011   ;
    10     CG2R61      1    LIG     C9     10     -0.118     12.011   ;
    11     CG2R61      1    LIG    C10     11     -0.118     12.011   ;
    12      OG301      1    LIG      O     12     -0.436     15.999   ;
    13     CG2R61      1    LIG    C11     13      0.218     12.011   ;
    14     CG2R61      1    LIG    C12     14     -0.119     12.011   ;
    15     CG2R61      1    LIG    C13     15     -0.113     12.011   ;
    16     CG2R61      1    LIG    C14     16     -0.116     12.011   ;
    17     CG2R61      1    LIG    C15     17     -0.113     12.011   ;
    18     CG2R61      1    LIG    C16     18     -0.119     12.011   ;
    19      CG321      1    LIG    C17     19      0.137     12.011   ;
    20      CG311      1    LIG    C18     20      0.189     12.011   ;
    21      NG311      1    LIG     N2     21     -0.486     14.007   ;
    22     CG2D1O      1    LIG    C19     22      0.215     12.011   ;
    23     HGPAM1      1    LIG     HN     23      0.358      1.008   ;
    24     CG2DC1      1    LIG    C20     24     -0.435     12.011   ;
    25     CG2DC2      1    LIG    C21     25     -0.142     12.011   ;
    26     CG2DC2      1    LIG    C22     26     -0.306     12.011   ;
    27      NG321      1    LIG     N3     27     -0.745     14.007   ;
    28     HGPAM2      1    LIG     H1     28      0.404      1.008   ;
    29     HGPAM2      1    LIG     H2     29      0.404      1.008   ;
    30     CG2R61      1    LIG    C23     30      0.182     12.011   ;
    31     CG2R61      1    LIG    C24     31     -0.118     12.011   ;
    32     CG2R61      1    LIG    C25     32     -0.111     12.011   ;
    33     CG2R61      1    LIG    C26     33     -0.116     12.011   ;
    34     CG2R61      1    LIG    C27     34     -0.104     12.011   ;
    35     CG2R61      1    LIG    C28     35      0.032     12.011   ;
    36      CLGR1      1    LIG     CL     36     -0.190     35.453   ;
    37      HGR51      1    LIG     HC     37      0.202      1.008   ;
    38      HGR51      1    LIG    HC1     38      0.202      1.008   ;
    39      HGR61      1    LIG    HC2     39      0.116      1.008   ;
    40      HGR61      1    LIG    HC3     40      0.116      1.008   ;
    41      HGR61      1    LIG    HC4     41      0.116      1.008   ;
    42      HGR61      1    LIG    HC5     42      0.116      1.008   ;
    43      HGR61      1    LIG    HC6     43      0.116      1.008   ;
    44      HGR61      1    LIG    HC7     44      0.116      1.008   ;
    45      HGR61      1    LIG    HC8     45      0.116      1.008   ;
    46      HGR61      1    LIG    HC9     46      0.116      1.008   ;
    47      HGR61      1    LIG   HC10     47      0.116      1.008   ;
    48       HGA2      1    LIG   HC11     48      0.090      1.008   ;
    49       HGA2      1    LIG   HC12     49      0.090      1.008   ;
    50       HGA4      1    LIG   HC13     50      0.150      1.008   ;
    51       HGA4      1    LIG   HC14     51      0.150      1.008   ;
    52       HGA4      1    LIG   HC15     52      0.150      1.008   ;
    53      HGR61      1    LIG   HC16     53      0.116      1.008   ;
    54      HGR61      1    LIG   HC17     54      0.116      1.008   ;
    55      HGR61      1    LIG   HC18     55      0.116      1.008   ;
    56      HGR62      1    LIG   HC19     56      0.150      1.008   ;
    57       HGA1      1    LIG    H24     57      0.090      1.008   ;
    58        LPH      1    LIG    LP1     58      0.050      0.000   ;

[ bonds ]
;	ai	  aj funct			  c0			c1			  c2			c3
    1     2	 1 ;      CG2R51     NG2R51
    1     5	 1 ;      CG2R51     CG2R51
    1    30	 1 ;      CG2R51     CG2R61
    2     3	 1 ;      NG2R51     CG2R51
    2    19	 1 ;      NG2R51      CG321
    3     6	 1 ;      CG2R51     CG2R61
    3     4	 1 ;      CG2R51     CG2R51
    4     5	 1 ;      CG2R51     CG2R51
    4    37	 1 ;      CG2R51      HGR51
    5    38	 1 ;      CG2R51      HGR51
    6    11	 1 ;      CG2R61     CG2R61
    6     7	 1 ;      CG2R61     CG2R61
    7     8	 1 ;      CG2R61     CG2R61
    7    39	 1 ;      CG2R61      HGR61
    8     9	 1 ;      CG2R61     CG2R61
    8    40	 1 ;      CG2R61      HGR61
    9    12	 1 ;      CG2R61      OG301
    9    10	 1 ;      CG2R61     CG2R61
   10    11	 1 ;      CG2R61     CG2R61
   10    41	 1 ;      CG2R61      HGR61
   11    42	 1 ;      CG2R61      HGR61
   12    13	 1 ;       OG301     CG2R61
   13    14	 1 ;      CG2R61     CG2R61
   13    18	 1 ;      CG2R61     CG2R61
   14    15	 1 ;      CG2R61     CG2R61
   14    43	 1 ;      CG2R61      HGR61
   15    16	 1 ;      CG2R61     CG2R61
   15    44	 1 ;      CG2R61      HGR61
   16    17	 1 ;      CG2R61     CG2R61
   16    45	 1 ;      CG2R61      HGR61
   17    18	 1 ;      CG2R61     CG2R61
   17    46	 1 ;      CG2R61      HGR61
   18    47	 1 ;      CG2R61      HGR61
   19    20	 1 ;       CG321      CG311
   19    48	 1 ;       CG321       HGA2
   19    49	 1 ;       CG321       HGA2
   20    26	 1 ;       CG311     CG2DC2
   20    21	 1 ;       CG311      NG311
   20    57	 1 ;       CG311       HGA1
   21    22	 1 ;       NG311     CG2D1O
   21    23	 1 ;       NG311     HGPAM1
   22    24	 1 ;      CG2D1O     CG2DC1
   22    27	 1 ;      CG2D1O      NG321
   24    25	 1 ;      CG2DC1     CG2DC2
   24    50	 1 ;      CG2DC1       HGA4
   25    26	 1 ;      CG2DC2     CG2DC2
   25    51	 1 ;      CG2DC2       HGA4
   26    52	 1 ;      CG2DC2       HGA4
   27    28	 1 ;       NG321     HGPAM2
   27    29	 1 ;       NG321     HGPAM2
   30    31	 1 ;      CG2R61     CG2R61
   30    35	 1 ;      CG2R61     CG2R61
   31    32	 1 ;      CG2R61     CG2R61
   31    53	 1 ;      CG2R61      HGR61
   32    33	 1 ;      CG2R61     CG2R61
   32    54	 1 ;      CG2R61      HGR61
   33    34	 1 ;      CG2R61     CG2R61
   33    55	 1 ;      CG2R61      HGR61
   34    35	 1 ;      CG2R61     CG2R61
   34    56	 1 ;      CG2R61      HGR62
   35    36	 1 ;      CG2R61      CLGR1

[ pairs ]
;	ai	  aj funct			  c0			c1			  c2			c3
    1     6	 1
    1    20	 1
    1    48	 1
    1    49	 1
    1    37	 1
    1    32	 1
    1    53	 1
    1    36	 1
   58     1	 1
    1    34	 1
    2    38	 1
    2    31	 1
    2    35	 1
    2    11	 1
    2     7	 1
    2    37	 1
    2    26	 1
    2    21	 1
    2    57	 1
    3    30	 1
    3    20	 1
    3    48	 1
    3    49	 1
    3    38	 1
    3    10	 1
    3    42	 1
    3     8	 1
    3    39	 1
    4    30	 1
    4    19	 1
    4    11	 1
    4     7	 1
    5    19	 1
    5    31	 1
    5    35	 1
    5     6	 1
    6    19	 1
    6    37	 1
    6     9	 1
    6    40	 1
    6    41	 1
    7    10	 1
    7    42	 1
    7    12	 1
    8    11	 1
    8    13	 1
    8    41	 1
    9    39	 1
    9    42	 1
    9    14	 1
    9    18	 1
   10    40	 1
   10    13	 1
   11    39	 1
   11    12	 1
   12    40	 1
   12    41	 1
   12    15	 1
   12    43	 1
   12    17	 1
   12    47	 1
   13    16	 1
   13    44	 1
   13    46	 1
   14    17	 1
   14    47	 1
   14    45	 1
   15    18	 1
   15    46	 1
   16    43	 1
   16    47	 1
   17    44	 1
   18    43	 1
   18    45	 1
   19    30	 1
   19    25	 1
   19    52	 1
   19    22	 1
   19    23	 1
   20    24	 1
   20    27	 1
   20    51	 1
   21    48	 1
   21    49	 1
   21    25	 1
   21    52	 1
   21    50	 1
   21    28	 1
   21    29	 1
   22    26	 1
   22    57	 1
   22    51	 1
   23    26	 1
   23    57	 1
   23    24	 1
   23    27	 1
   24    28	 1
   24    29	 1
   24    52	 1
   25    57	 1
   25    27	 1
   26    48	 1
   26    49	 1
   26    50	 1
   27    50	 1
   30    38	 1
   30    33	 1
   30    54	 1
   30    56	 1
   31    36	 1
   58    31	 1
   31    34	 1
   31    55	 1
   32    35	 1
   32    56	 1
   33    53	 1
   33    36	 1
   58    33	 1
   34    54	 1
   35    53	 1
   35    55	 1
   36    56	 1
   58    56	 1
   37    38	 1
   39    40	 1
   41    42	 1
   43    44	 1
   44    45	 1
   45    46	 1
   46    47	 1
   48    57	 1
   49    57	 1
   50    51	 1
   51    52	 1
   52    57	 1
   53    54	 1
   54    55	 1
   55    56	 1

[ angles ]
;	ai	  aj	ak funct			c0			  c1			c2			  c3
    2     1     5	5 ;     NG2R51     CG2R51     CG2R51
    2     1    30	5 ;     NG2R51     CG2R51     CG2R61
    5     1    30	5 ;     CG2R51     CG2R51     CG2R61
    3     2    19	5 ;     CG2R51     NG2R51      CG321
    3     2     1	5 ;     CG2R51     NG2R51     CG2R51
   19     2     1	5 ;      CG321     NG2R51     CG2R51
    6     3     4	5 ;     CG2R61     CG2R51     CG2R51
    6     3     2	5 ;     CG2R61     CG2R51     NG2R51
    4     3     2	5 ;     CG2R51     CG2R51     NG2R51
    3     4     5	5 ;     CG2R51     CG2R51     CG2R51
    3     4    37	5 ;     CG2R51     CG2R51      HGR51
    5     4    37	5 ;     CG2R51     CG2R51      HGR51
    4     5     1	5 ;     CG2R51     CG2R51     CG2R51
    4     5    38	5 ;     CG2R51     CG2R51      HGR51
    1     5    38	5 ;     CG2R51     CG2R51      HGR51
   11     6     7	5 ;     CG2R61     CG2R61     CG2R61
   11     6     3	5 ;     CG2R61     CG2R61     CG2R51
    7     6     3	5 ;     CG2R61     CG2R61     CG2R51
    8     7     6	5 ;     CG2R61     CG2R61     CG2R61
    8     7    39	5 ;     CG2R61     CG2R61      HGR61
    6     7    39	5 ;     CG2R61     CG2R61      HGR61
    9     8     7	5 ;     CG2R61     CG2R61     CG2R61
    9     8    40	5 ;     CG2R61     CG2R61      HGR61
    7     8    40	5 ;     CG2R61     CG2R61      HGR61
   12     9    10	5 ;      OG301     CG2R61     CG2R61
   12     9     8	5 ;      OG301     CG2R61     CG2R61
   10     9     8	5 ;     CG2R61     CG2R61     CG2R61
    9    10    11	5 ;     CG2R61     CG2R61     CG2R61
    9    10    41	5 ;     CG2R61     CG2R61      HGR61
   11    10    41	5 ;     CG2R61     CG2R61      HGR61
   10    11     6	5 ;     CG2R61     CG2R61     CG2R61
   10    11    42	5 ;     CG2R61     CG2R61      HGR61
    6    11    42	5 ;     CG2R61     CG2R61      HGR61
   13    12     9	5 ;     CG2R61      OG301     CG2R61
   12    13    14	5 ;      OG301     CG2R61     CG2R61
   12    13    18	5 ;      OG301     CG2R61     CG2R61
   14    13    18	5 ;     CG2R61     CG2R61     CG2R61
   13    14    15	5 ;     CG2R61     CG2R61     CG2R61
   13    14    43	5 ;     CG2R61     CG2R61      HGR61
   15    14    43	5 ;     CG2R61     CG2R61      HGR61
   14    15    16	5 ;     CG2R61     CG2R61     CG2R61
   14    15    44	5 ;     CG2R61     CG2R61      HGR61
   16    15    44	5 ;     CG2R61     CG2R61      HGR61
   15    16    17	5 ;     CG2R61     CG2R61     CG2R61
   15    16    45	5 ;     CG2R61     CG2R61      HGR61
   17    16    45	5 ;     CG2R61     CG2R61      HGR61
   18    17    16	5 ;     CG2R61     CG2R61     CG2R61
   18    17    46	5 ;     CG2R61     CG2R61      HGR61
   16    17    46	5 ;     CG2R61     CG2R61      HGR61
   13    18    17	5 ;     CG2R61     CG2R61     CG2R61
   13    18    47	5 ;     CG2R61     CG2R61      HGR61
   17    18    47	5 ;     CG2R61     CG2R61      HGR61
   20    19     2	5 ;      CG311      CG321     NG2R51
   20    19    48	5 ;      CG311      CG321       HGA2
   20    19    49	5 ;      CG311      CG321       HGA2
    2    19    48	5 ;     NG2R51      CG321       HGA2
    2    19    49	5 ;     NG2R51      CG321       HGA2
   48    19    49	5 ;       HGA2      CG321       HGA2
   26    20    21	5 ;     CG2DC2      CG311      NG311
   26    20    19	5 ;     CG2DC2      CG311      CG321
   26    20    57	5 ;     CG2DC2      CG311       HGA1
   21    20    19	5 ;      NG311      CG311      CG321
   21    20    57	5 ;      NG311      CG311       HGA1
   19    20    57	5 ;      CG321      CG311       HGA1
   22    21    20	5 ;     CG2D1O      NG311      CG311
   22    21    23	5 ;     CG2D1O      NG311     HGPAM1
   20    21    23	5 ;      CG311      NG311     HGPAM1
   24    22    27	5 ;     CG2DC1     CG2D1O      NG321
   24    22    21	5 ;     CG2DC1     CG2D1O      NG311
   27    22    21	5 ;      NG321     CG2D1O      NG311
   25    24    22	5 ;     CG2DC2     CG2DC1     CG2D1O
   25    24    50	5 ;     CG2DC2     CG2DC1       HGA4
   22    24    50	5 ;     CG2D1O     CG2DC1       HGA4
   24    25    26	5 ;     CG2DC1     CG2DC2     CG2DC2
   24    25    51	5 ;     CG2DC1     CG2DC2       HGA4
   26    25    51	5 ;     CG2DC2     CG2DC2       HGA4
   25    26    20	5 ;     CG2DC2     CG2DC2      CG311
   25    26    52	5 ;     CG2DC2     CG2DC2       HGA4
   20    26    52	5 ;      CG311     CG2DC2       HGA4
   28    27    29	5 ;     HGPAM2      NG321     HGPAM2
   28    27    22	5 ;     HGPAM2      NG321     CG2D1O
   29    27    22	5 ;     HGPAM2      NG321     CG2D1O
    1    30    31	5 ;     CG2R51     CG2R61     CG2R61
    1    30    35	5 ;     CG2R51     CG2R61     CG2R61
   31    30    35	5 ;     CG2R61     CG2R61     CG2R61
   30    31    32	5 ;     CG2R61     CG2R61     CG2R61
   30    31    53	5 ;     CG2R61     CG2R61      HGR61
   32    31    53	5 ;     CG2R61     CG2R61      HGR61
   31    32    33	5 ;     CG2R61     CG2R61     CG2R61
   31    32    54	5 ;     CG2R61     CG2R61      HGR61
   33    32    54	5 ;     CG2R61     CG2R61      HGR61
   32    33    34	5 ;     CG2R61     CG2R61     CG2R61
   32    33    55	5 ;     CG2R61     CG2R61      HGR61
   34    33    55	5 ;     CG2R61     CG2R61      HGR61
   35    34    33	5 ;     CG2R61     CG2R61     CG2R61
   35    34    56	5 ;     CG2R61     CG2R61      HGR62
   33    34    56	5 ;     CG2R61     CG2R61      HGR62
   30    35    36	5 ;     CG2R61     CG2R61      CLGR1
   30    35    34	5 ;     CG2R61     CG2R61     CG2R61
   36    35    34	5 ;      CLGR1     CG2R61     CG2R61

[ dihedrals ]
;	ai	  aj	ak	  al funct			  c0			c1			  c2			c3			  c4			c5
    5     1     2     3	 9 ;     CG2R51     CG2R51     NG2R51     CG2R51
    5     1     2    19	 9 ;     CG2R51     CG2R51     NG2R51      CG321
   30     1     2     3	 9 ;     CG2R61     CG2R51     NG2R51     CG2R51
   30     1     2    19	 9 ;     CG2R61     CG2R51     NG2R51      CG321
    2     1     5     4	 9 ;     NG2R51     CG2R51     CG2R51     CG2R51
    2     1     5    38	 9 ;     NG2R51     CG2R51     CG2R51      HGR51
   30     1     5     4	 9 ;     CG2R61     CG2R51     CG2R51     CG2R51
   30     1     5    38	 9 ;     CG2R61     CG2R51     CG2R51      HGR51
    2     1    30    31	 9 ;     NG2R51     CG2R51     CG2R61     CG2R61
    2     1    30    35	 9 ;     NG2R51     CG2R51     CG2R61     CG2R61
    5     1    30    31	 9 ;     CG2R51     CG2R51     CG2R61     CG2R61
    5     1    30    35	 9 ;     CG2R51     CG2R51     CG2R61     CG2R61
   19     2     3     6	 9 ;      CG321     NG2R51     CG2R51     CG2R61
   19     2     3     4	 9 ;      CG321     NG2R51     CG2R51     CG2R51
    1     2     3     6	 9 ;     CG2R51     NG2R51     CG2R51     CG2R61
    1     2     3     4	 9 ;     CG2R51     NG2R51     CG2R51     CG2R51
    3     2    19    20	 9 ;     CG2R51     NG2R51      CG321      CG311
    3     2    19    48	 9 ;     CG2R51     NG2R51      CG321       HGA2
    3     2    19    49	 9 ;     CG2R51     NG2R51      CG321       HGA2
    1     2    19    20	 9 ;     CG2R51     NG2R51      CG321      CG311
    1     2    19    48	 9 ;     CG2R51     NG2R51      CG321       HGA2
    1     2    19    49	 9 ;     CG2R51     NG2R51      CG321       HGA2
    4     3     6    11	 9 ;     CG2R51     CG2R51     CG2R61     CG2R61
    4     3     6     7	 9 ;     CG2R51     CG2R51     CG2R61     CG2R61
    2     3     6    11	 9 ;     NG2R51     CG2R51     CG2R61     CG2R61
    2     3     6     7	 9 ;     NG2R51     CG2R51     CG2R61     CG2R61
    6     3     4     5	 9 ;     CG2R61     CG2R51     CG2R51     CG2R51
    6     3     4    37	 9 ;     CG2R61     CG2R51     CG2R51      HGR51
    2     3     4     5	 9 ;     NG2R51     CG2R51     CG2R51     CG2R51
    2     3     4    37	 9 ;     NG2R51     CG2R51     CG2R51      HGR51
    3     4     5     1	 9 ;     CG2R51     CG2R51     CG2R51     CG2R51
    3     4     5    38	 9 ;     CG2R51     CG2R51     CG2R51      HGR51
   37     4     5     1	 9 ;      HGR51     CG2R51     CG2R51     CG2R51
   37     4     5    38	 9 ;      HGR51     CG2R51     CG2R51      HGR51
    7     6    11    10	 9 ;     CG2R61     CG2R61     CG2R61     CG2R61
    7     6    11    42	 9 ;     CG2R61     CG2R61     CG2R61      HGR61
    3     6    11    10	 9 ;     CG2R51     CG2R61     CG2R61     CG2R61
    3     6    11    42	 9 ;     CG2R51     CG2R61     CG2R61      HGR61
   11     6     7     8	 9 ;     CG2R61     CG2R61     CG2R61     CG2R61
   11     6     7    39	 9 ;     CG2R61     CG2R61     CG2R61      HGR61
    3     6     7     8	 9 ;     CG2R51     CG2R61     CG2R61     CG2R61
    3     6     7    39	 9 ;     CG2R51     CG2R61     CG2R61      HGR61
    6     7     8     9	 9 ;     CG2R61     CG2R61     CG2R61     CG2R61
    6     7     8    40	 9 ;     CG2R61     CG2R61     CG2R61      HGR61
   39     7     8     9	 9 ;      HGR61     CG2R61     CG2R61     CG2R61
   39     7     8    40	 9 ;      HGR61     CG2R61     CG2R61      HGR61
    7     8     9    12	 9 ;     CG2R61     CG2R61     CG2R61      OG301
    7     8     9    10	 9 ;     CG2R61     CG2R61     CG2R61     CG2R61
   40     8     9    12	 9 ;      HGR61     CG2R61     CG2R61      OG301
   40     8     9    10	 9 ;      HGR61     CG2R61     CG2R61     CG2R61
   10     9    12    13	 9 ;     CG2R61     CG2R61      OG301     CG2R61
    8     9    12    13	 9 ;     CG2R61     CG2R61      OG301     CG2R61
   12     9    10    11	 9 ;      OG301     CG2R61     CG2R61     CG2R61
   12     9    10    41	 9 ;      OG301     CG2R61     CG2R61      HGR61
    8     9    10    11	 9 ;     CG2R61     CG2R61     CG2R61     CG2R61
    8     9    10    41	 9 ;     CG2R61     CG2R61     CG2R61      HGR61
    9    10    11     6	 9 ;     CG2R61     CG2R61     CG2R61     CG2R61
    9    10    11    42	 9 ;     CG2R61     CG2R61     CG2R61      HGR61
   41    10    11     6	 9 ;      HGR61     CG2R61     CG2R61     CG2R61
   41    10    11    42	 9 ;      HGR61     CG2R61     CG2R61      HGR61
    9    12    13    14	 9 ;     CG2R61      OG301     CG2R61     CG2R61
    9    12    13    18	 9 ;     CG2R61      OG301     CG2R61     CG2R61
   12    13    14    15	 9 ;      OG301     CG2R61     CG2R61     CG2R61
   12    13    14    43	 9 ;      OG301     CG2R61     CG2R61      HGR61
   18    13    14    15	 9 ;     CG2R61     CG2R61     CG2R61     CG2R61
   18    13    14    43	 9 ;     CG2R61     CG2R61     CG2R61      HGR61
   12    13    18    17	 9 ;      OG301     CG2R61     CG2R61     CG2R61
   12    13    18    47	 9 ;      OG301     CG2R61     CG2R61      HGR61
   14    13    18    17	 9 ;     CG2R61     CG2R61     CG2R61     CG2R61
   14    13    18    47	 9 ;     CG2R61     CG2R61     CG2R61      HGR61
   13    14    15    16	 9 ;     CG2R61     CG2R61     CG2R61     CG2R61
   13    14    15    44	 9 ;     CG2R61     CG2R61     CG2R61      HGR61
   43    14    15    16	 9 ;      HGR61     CG2R61     CG2R61     CG2R61
   43    14    15    44	 9 ;      HGR61     CG2R61     CG2R61      HGR61
   14    15    16    17	 9 ;     CG2R61     CG2R61     CG2R61     CG2R61
   14    15    16    45	 9 ;     CG2R61     CG2R61     CG2R61      HGR61
   44    15    16    17	 9 ;      HGR61     CG2R61     CG2R61     CG2R61
   44    15    16    45	 9 ;      HGR61     CG2R61     CG2R61      HGR61
   15    16    17    18	 9 ;     CG2R61     CG2R61     CG2R61     CG2R61
   15    16    17    46	 9 ;     CG2R61     CG2R61     CG2R61      HGR61
   45    16    17    18	 9 ;      HGR61     CG2R61     CG2R61     CG2R61
   45    16    17    46	 9 ;      HGR61     CG2R61     CG2R61      HGR61
   16    17    18    13	 9 ;     CG2R61     CG2R61     CG2R61     CG2R61
   16    17    18    47	 9 ;     CG2R61     CG2R61     CG2R61      HGR61
   46    17    18    13	 9 ;      HGR61     CG2R61     CG2R61     CG2R61
   46    17    18    47	 9 ;      HGR61     CG2R61     CG2R61      HGR61
    2    19    20    26	 9 ;     NG2R51      CG321      CG311     CG2DC2
    2    19    20    21	 9 ;     NG2R51      CG321      CG311      NG311
    2    19    20    57	 9 ;     NG2R51      CG321      CG311       HGA1
   48    19    20    26	 9 ;       HGA2      CG321      CG311     CG2DC2
   48    19    20    21	 9 ;       HGA2      CG321      CG311      NG311
   48    19    20    57	 9 ;       HGA2      CG321      CG311       HGA1
   49    19    20    26	 9 ;       HGA2      CG321      CG311     CG2DC2
   49    19    20    21	 9 ;       HGA2      CG321      CG311      NG311
   49    19    20    57	 9 ;       HGA2      CG321      CG311       HGA1
   21    20    26    25	 9 ;      NG311      CG311     CG2DC2     CG2DC2
   21    20    26    52	 9 ;      NG311      CG311     CG2DC2       HGA4
   19    20    26    25	 9 ;      CG321      CG311     CG2DC2     CG2DC2
   19    20    26    52	 9 ;      CG321      CG311     CG2DC2       HGA4
   57    20    26    25	 9 ;       HGA1      CG311     CG2DC2     CG2DC2
   57    20    26    52	 9 ;       HGA1      CG311     CG2DC2       HGA4
   26    20    21    22	 9 ;     CG2DC2      CG311      NG311     CG2D1O
   26    20    21    23	 9 ;     CG2DC2      CG311      NG311     HGPAM1
   19    20    21    22	 9 ;      CG321      CG311      NG311     CG2D1O
   19    20    21    23	 9 ;      CG321      CG311      NG311     HGPAM1
   57    20    21    22	 9 ;       HGA1      CG311      NG311     CG2D1O
   57    20    21    23	 9 ;       HGA1      CG311      NG311     HGPAM1
   20    21    22    24	 9 ;      CG311      NG311     CG2D1O     CG2DC1
   20    21    22    27	 9 ;      CG311      NG311     CG2D1O      NG321
   23    21    22    24	 9 ;     HGPAM1      NG311     CG2D1O     CG2DC1
   23    21    22    27	 9 ;     HGPAM1      NG311     CG2D1O      NG321
   27    22    24    25	 9 ;      NG321     CG2D1O     CG2DC1     CG2DC2
   27    22    24    50	 9 ;      NG321     CG2D1O     CG2DC1       HGA4
   21    22    24    25	 9 ;      NG311     CG2D1O     CG2DC1     CG2DC2
   21    22    24    50	 9 ;      NG311     CG2D1O     CG2DC1       HGA4
   24    22    27    28	 9 ;     CG2DC1     CG2D1O      NG321     HGPAM2
   24    22    27    29	 9 ;     CG2DC1     CG2D1O      NG321     HGPAM2
   21    22    27    28	 9 ;      NG311     CG2D1O      NG321     HGPAM2
   21    22    27    29	 9 ;      NG311     CG2D1O      NG321     HGPAM2
   22    24    25    26	 9 ;     CG2D1O     CG2DC1     CG2DC2     CG2DC2
   22    24    25    51	 9 ;     CG2D1O     CG2DC1     CG2DC2       HGA4
   50    24    25    26	 9 ;       HGA4     CG2DC1     CG2DC2     CG2DC2
   50    24    25    51	 9 ;       HGA4     CG2DC1     CG2DC2       HGA4
   24    25    26    20	 9 ;     CG2DC1     CG2DC2     CG2DC2      CG311
   24    25    26    52	 9 ;     CG2DC1     CG2DC2     CG2DC2       HGA4
   51    25    26    20	 9 ;       HGA4     CG2DC2     CG2DC2      CG311
   51    25    26    52	 9 ;       HGA4     CG2DC2     CG2DC2       HGA4
    1    30    31    32	 9 ;     CG2R51     CG2R61     CG2R61     CG2R61
    1    30    31    53	 9 ;     CG2R51     CG2R61     CG2R61      HGR61
   35    30    31    32	 9 ;     CG2R61     CG2R61     CG2R61     CG2R61
   35    30    31    53	 9 ;     CG2R61     CG2R61     CG2R61      HGR61
    1    30    35    36	 9 ;     CG2R51     CG2R61     CG2R61      CLGR1
    1    30    35    34	 9 ;     CG2R51     CG2R61     CG2R61     CG2R61
   31    30    35    36	 9 ;     CG2R61     CG2R61     CG2R61      CLGR1
   31    30    35    34	 9 ;     CG2R61     CG2R61     CG2R61     CG2R61
   30    31    32    33	 9 ;     CG2R61     CG2R61     CG2R61     CG2R61
   30    31    32    54	 9 ;     CG2R61     CG2R61     CG2R61      HGR61
   53    31    32    33	 9 ;      HGR61     CG2R61     CG2R61     CG2R61
   53    31    32    54	 9 ;      HGR61     CG2R61     CG2R61      HGR61
   31    32    33    34	 9 ;     CG2R61     CG2R61     CG2R61     CG2R61
   31    32    33    55	 9 ;     CG2R61     CG2R61     CG2R61      HGR61
   54    32    33    34	 9 ;      HGR61     CG2R61     CG2R61     CG2R61
   54    32    33    55	 9 ;      HGR61     CG2R61     CG2R61      HGR61
   32    33    34    35	 9 ;     CG2R61     CG2R61     CG2R61     CG2R61
   32    33    34    56	 9 ;     CG2R61     CG2R61     CG2R61      HGR62
   55    33    34    35	 9 ;      HGR61     CG2R61     CG2R61     CG2R61
   55    33    34    56	 9 ;      HGR61     CG2R61     CG2R61      HGR62
   33    34    35    30	 9 ;     CG2R61     CG2R61     CG2R61     CG2R61
   33    34    35    36	 9 ;     CG2R61     CG2R61     CG2R61      CLGR1
   56    34    35    30	 9 ;      HGR62     CG2R61     CG2R61     CG2R61
   56    34    35    36	 9 ;      HGR62     CG2R61     CG2R61      CLGR1

[ dihedrals ]
;	ai	  aj	ak	  al funct			  c0			c1			  c2			c3
   22    24    21    27	 2

[ virtual_sites2 ]
; Site   from				funct a
   58    36    35     2   -0.164

[ exclusions ]
;	ai	  aj
   36    58
   58    35
   58    30
   58    34
   58     1
   58    31
   58    33
   58    56

