Gallium Rubidium Oxygen Manganese Argon Carbon Silicon
   58
    1LIG     C1    1  -1.940   0.439  -1.633
    1LIG     N1    2  -1.805   0.460  -1.599
    1LIG     C2    3  -1.728   0.351  -1.641
    1LIG     C3    4  -1.814   0.266  -1.708
    1LIG     C4    5  -1.942   0.321  -1.706
    1LIG     C5    6  -1.585   0.327  -1.616
    1LIG     C6    7  -1.535   0.338  -1.485
    1LIG     C7    8  -1.400   0.315  -1.457
    1LIG     C8    9  -1.314   0.277  -1.559
    1LIG     C9   10  -1.360   0.269  -1.690
    1LIG    C10   11  -1.495   0.290  -1.717
    1LIG      O   12  -1.179   0.252  -1.542
    1LIG    C11   13  -1.140   0.137  -1.477
    1LIG    C12   14  -1.042   0.132  -1.378
    1LIG    C13   15  -1.008   0.009  -1.321
    1LIG    C14   16  -1.074  -0.108  -1.360
    1LIG    C15   17  -1.176  -0.101  -1.455
    1LIG    C16   18  -1.209   0.022  -1.514
    1LIG    C17   19  -1.755   0.567  -1.512
    1LIG    C18   20  -1.719   0.696  -1.584
    1LIG     N2   21  -1.732   0.816  -1.521
    1LIG    C19   22  -1.684   0.926  -1.580
    1LIG     HN   23  -1.777   0.822  -1.430
    1LIG    C20   24  -1.622   0.924  -1.704
    1LIG    C21   25  -1.615   0.803  -1.772
    1LIG    C22   26  -1.665   0.688  -1.713
    1LIG     N3   27  -1.692   1.046  -1.508
    1LIG     H1   28  -1.696   1.121  -1.577
    1LIG     H2   29  -1.616   1.057  -1.443
    1LIG    C23   30  -2.057   0.527  -1.605
    1LIG    C24   31  -2.095   0.627  -1.697
    1LIG    C25   32  -2.210   0.704  -1.682
    1LIG    C26   33  -2.296   0.680  -1.576
    1LIG    C27   34  -2.263   0.582  -1.483
    1LIG    C28   35  -2.144   0.509  -1.495
    1LIG     CL   36  -2.110   0.399  -1.364
    1LIG     HC   37  -1.786   0.172  -1.755
    1LIG    HC1   38  -2.030   0.279  -1.754
    1LIG    HC2   39  -1.602   0.365  -1.405
    1LIG    HC3   40  -1.363   0.327  -1.356
    1LIG    HC4   41  -1.292   0.245  -1.770
    1LIG    HC5   42  -1.532   0.278  -1.818
    1LIG    HC6   43  -0.993   0.222  -1.345
    1LIG    HC7   44  -0.929   0.003  -1.247
    1LIG    HC8   45  -1.047  -0.203  -1.316
    1LIG    HC9   46  -1.230  -0.190  -1.483
    1LIG   HC10   47  -1.287   0.026  -1.588
    1LIG   HC11   48  -1.832   0.590  -1.438
    1LIG   HC12   49  -1.666   0.531  -1.460
    1LIG   HC13   50  -1.581   1.014  -1.747
    1LIG   HC14   51  -1.571   0.799  -1.871
    1LIG   HC15   52  -1.662   0.594  -1.765
    1LIG   HC16   53  -2.032   0.644  -1.783
    1LIG   HC17   54  -2.233   0.783  -1.752
    1LIG   HC18   55  -2.388   0.736  -1.566
    1LIG   HC19   56  -2.330   0.562  -1.400
    1LIG    H24   57  -1.820   0.704  -1.625
    1LIG    LP1   58  -2.079   0.296  -1.241
   0.00000   0.00000   0.00000
