Gromacs Runs On Most of All Computer Systems
   57
    1LIG      S    1  -1.180   0.597  -1.574
    1LIG     O1    2  -1.235   0.569  -1.442
    1LIG     O2    3  -1.064   0.682  -1.590
    1LIG     C1    4  -1.152   0.442  -1.658
    1LIG     C2    5  -1.279   0.356  -1.667
    1LIG     C3    6  -1.397   0.436  -1.730
    1LIG     C4    7  -1.433   0.573  -1.666
    1LIG     C5    8  -1.313   0.668  -1.664
    1LIG      N    9  -1.500   0.555  -1.531
    1LIG     H1   10  -1.472   0.465  -1.491
    1LIG     H2   11  -1.471   0.629  -1.465
    1LIG     C6   12  -1.650   0.561  -1.524
    1LIG     C7   13  -1.709   0.427  -1.491
    1LIG     C8   14  -1.771   0.408  -1.367
    1LIG     C9   15  -1.843   0.290  -1.343
    1LIG    C10   16  -1.852   0.194  -1.444
    1LIG    C11   17  -1.784   0.210  -1.564
    1LIG    C12   18  -1.710   0.325  -1.587
    1LIG    C13   19  -1.905   0.267  -1.206
    1LIG    C14   20  -2.017   0.367  -1.179
    1LIG    C15   21  -1.954   0.123  -1.194
    1LIG     O3   22  -1.360   0.465  -1.865
    1LIG     H3   23  -1.314   0.551  -1.869
    1LIG    C16   24  -1.316   0.285  -1.535
    1LIG    C17   25  -1.213   0.187  -1.485
    1LIG    C18   26  -1.160   0.200  -1.355
    1LIG    C19   27  -1.064   0.110  -1.308
    1LIG    C20   28  -1.022   0.005  -1.389
    1LIG    C21   29  -1.075  -0.010  -1.517
    1LIG    C22   30  -1.171   0.080  -1.565
    1LIG    HC2   31  -1.076   0.387  -1.604
    1LIG    HC3   32  -1.116   0.463  -1.759
    1LIG     HC   33  -1.256   0.277  -1.738
    1LIG    HC1   34  -1.486   0.373  -1.730
    1LIG    HC4   35  -1.507   0.619  -1.731
    1LIG    HC5   36  -1.342   0.762  -1.618
    1LIG    HC6   37  -1.281   0.687  -1.767
    1LIG    HC7   38  -1.679   0.632  -1.446
    1LIG    HC8   39  -1.689   0.595  -1.620
    1LIG    HC9   40  -1.763   0.483  -1.291
    1LIG   HC10   41  -1.913   0.106  -1.429
    1LIG   HC11   42  -1.789   0.133  -1.640
    1LIG   HC12   43  -1.654   0.336  -1.679
    1LIG   HC13   44  -1.828   0.283  -1.131
    1LIG   HC14   45  -1.979   0.469  -1.189
    1LIG   HC15   46  -2.098   0.352  -1.250
    1LIG   HC16   47  -2.055   0.352  -1.078
    1LIG   HC17   48  -1.992   0.106  -1.093
    1LIG   HC18   49  -1.872   0.055  -1.214
    1LIG   HC19   50  -2.034   0.105  -1.266
    1LIG   HC20   51  -1.409   0.231  -1.550
    1LIG   HC21   52  -1.332   0.361  -1.458
    1LIG   HC22   53  -1.192   0.282  -1.292
    1LIG   HC23   54  -1.024   0.121  -1.209
    1LIG   HC24   55  -0.948  -0.065  -1.353
    1LIG   HC25   56  -1.042  -0.091  -1.580
    1LIG   HC26   57  -1.212   0.067  -1.663
   0.00000   0.00000   0.00000
