; Created by cgenff_charmm2gmx.py

[ moleculetype ]
; Name			   nrexcl
LIG				 3

[ atoms ]
;	 nr		  type	resnr residue  atom   cgnr	   charge		mass  typeB    chargeB		massB
; residue	 1 LIG rtp LIG q	qsum
     1      SG3O2      1    LIG      S      1      0.113     32.060   ;
     2      OG2P1      1    LIG     O1      2     -0.300     15.999   ;
     3      OG2P1      1    LIG     O2      3     -0.300     15.999   ;
     4      CG321      1    LIG     C1      4      0.180     12.011   ;
     5      CG311      1    LIG     C2      5     -0.145     12.011   ;
     6      CG311      1    LIG     C3      6      0.100     12.011   ;
     7      CG314      1    LIG     C4      7     -0.043     12.011   ;
     8      CG321      1    LIG     C5      8      0.224     12.011   ;
     9      NG3P2      1    LIG      N      9     -0.444     14.007   ;
    10       HGP2      1    LIG     H1     10      0.346      1.008   ;
    11       HGP2      1    LIG     H2     11      0.346      1.008   ;
    12      CG324      1    LIG     C6     12      0.178     12.011   ;
    13     CG2R61      1    LIG     C7     13      0.035     12.011   ;
    14     CG2R61      1    LIG     C8     14     -0.117     12.011   ;
    15     CG2R61      1    LIG     C9     15     -0.017     12.011   ;
    16     CG2R61      1    LIG    C10     16     -0.114     12.011   ;
    17     CG2R61      1    LIG    C11     17     -0.109     12.011   ;
    18     CG2R61      1    LIG    C12     18     -0.119     12.011   ;
    19      CG311      1    LIG    C13     19     -0.088     12.011   ;
    20      CG331      1    LIG    C14     20     -0.264     12.011   ;
    21      CG331      1    LIG    C15     21     -0.264     12.011   ;
    22      OG311      1    LIG     O3     22     -0.595     15.999   ;
    23       HGP1      1    LIG     H3     23      0.422      1.008   ;
    24      CG321      1    LIG    C16     24     -0.087     12.011   ;
    25     CG2R61      1    LIG    C17     25     -0.035     12.011   ;
    26     CG2R61      1    LIG    C18     26     -0.123     12.011   ;
    27     CG2R61      1    LIG    C19     27     -0.112     12.011   ;
    28     CG2R61      1    LIG    C20     28     -0.116     12.011   ;
    29     CG2R61      1    LIG    C21     29     -0.112     12.011   ;
    30     CG2R61      1    LIG    C22     30     -0.123     12.011   ;
    31       HGA2      1    LIG    HC2     31      0.090      1.008   ;
    32       HGA2      1    LIG    HC3     32      0.090      1.008   ;
    33       HGA1      1    LIG     HC     33      0.090      1.008   ;
    34       HGA1      1    LIG    HC1     34      0.090      1.008   ;
    35       HGA1      1    LIG    HC4     35      0.109      1.008   ;
    36       HGA2      1    LIG    HC5     36      0.090      1.008   ;
    37       HGA2      1    LIG    HC6     37      0.090      1.008   ;
    38       HGA2      1    LIG    HC7     38      0.090      1.008   ;
    39       HGA2      1    LIG    HC8     39      0.090      1.008   ;
    40      HGR61      1    LIG    HC9     40      0.116      1.008   ;
    41      HGR61      1    LIG   HC10     41      0.116      1.008   ;
    42      HGR61      1    LIG   HC11     42      0.116      1.008   ;
    43      HGR61      1    LIG   HC12     43      0.116      1.008   ;
    44       HGA1      1    LIG   HC13     44      0.090      1.008   ;
    45       HGA3      1    LIG   HC14     45      0.090      1.008   ;
    46       HGA3      1    LIG   HC15     46      0.090      1.008   ;
    47       HGA3      1    LIG   HC16     47      0.090      1.008   ;
    48       HGA3      1    LIG   HC17     48      0.090      1.008   ;
    49       HGA3      1    LIG   HC18     49      0.090      1.008   ;
    50       HGA3      1    LIG   HC19     50      0.090      1.008   ;
    51       HGA2      1    LIG   HC20     51      0.090      1.008   ;
    52       HGA2      1    LIG   HC21     52      0.090      1.008   ;
    53      HGR61      1    LIG   HC22     53      0.116      1.008   ;
    54      HGR61      1    LIG   HC23     54      0.116      1.008   ;
    55      HGR61      1    LIG   HC24     55      0.116      1.008   ;
    56      HGR61      1    LIG   HC25     56      0.116      1.008   ;
    57      HGR61      1    LIG   HC26     57      0.116      1.008   ;

[ bonds ]
;	ai	  aj funct			  c0			c1			  c2			c3
    1     3	 1 ;       SG3O2      OG2P1
    1     4	 1 ;       SG3O2      CG321
    1     8	 1 ;       SG3O2      CG321
    1     2	 1 ;       SG3O2      OG2P1
    4     5	 1 ;       CG321      CG311
    4    31	 1 ;       CG321       HGA2
    4    32	 1 ;       CG321       HGA2
    5     6	 1 ;       CG311      CG311
    5    24	 1 ;       CG311      CG321
    5    33	 1 ;       CG311       HGA1
    6    22	 1 ;       CG311      OG311
    6     7	 1 ;       CG311      CG314
    6    34	 1 ;       CG311       HGA1
    7     8	 1 ;       CG314      CG321
    7     9	 1 ;       CG314      NG3P2
    7    35	 1 ;       CG314       HGA1
    8    36	 1 ;       CG321       HGA2
    8    37	 1 ;       CG321       HGA2
    9    11	 1 ;       NG3P2       HGP2
    9    10	 1 ;       NG3P2       HGP2
    9    12	 1 ;       NG3P2      CG324
   12    13	 1 ;       CG324     CG2R61
   12    38	 1 ;       CG324       HGA2
   12    39	 1 ;       CG324       HGA2
   13    18	 1 ;      CG2R61     CG2R61
   13    14	 1 ;      CG2R61     CG2R61
   14    15	 1 ;      CG2R61     CG2R61
   14    40	 1 ;      CG2R61      HGR61
   15    16	 1 ;      CG2R61     CG2R61
   15    19	 1 ;      CG2R61      CG311
   16    17	 1 ;      CG2R61     CG2R61
   16    41	 1 ;      CG2R61      HGR61
   17    18	 1 ;      CG2R61     CG2R61
   17    42	 1 ;      CG2R61      HGR61
   18    43	 1 ;      CG2R61      HGR61
   19    20	 1 ;       CG311      CG331
   19    21	 1 ;       CG311      CG331
   19    44	 1 ;       CG311       HGA1
   20    45	 1 ;       CG331       HGA3
   20    46	 1 ;       CG331       HGA3
   20    47	 1 ;       CG331       HGA3
   21    48	 1 ;       CG331       HGA3
   21    49	 1 ;       CG331       HGA3
   21    50	 1 ;       CG331       HGA3
   22    23	 1 ;       OG311       HGP1
   24    25	 1 ;       CG321     CG2R61
   24    51	 1 ;       CG321       HGA2
   24    52	 1 ;       CG321       HGA2
   25    30	 1 ;      CG2R61     CG2R61
   25    26	 1 ;      CG2R61     CG2R61
   26    27	 1 ;      CG2R61     CG2R61
   26    53	 1 ;      CG2R61      HGR61
   27    28	 1 ;      CG2R61     CG2R61
   27    54	 1 ;      CG2R61      HGR61
   28    29	 1 ;      CG2R61     CG2R61
   28    55	 1 ;      CG2R61      HGR61
   29    30	 1 ;      CG2R61     CG2R61
   29    56	 1 ;      CG2R61      HGR61
   30    57	 1 ;      CG2R61      HGR61

[ pairs ]
;	ai	  aj funct			  c0			c1			  c2			c3
    1     6	 1
    1    24	 1
    1    33	 1
    1     9	 1
    1    35	 1
    2     5	 1
    2    31	 1
    2    32	 1
    2     7	 1
    2    36	 1
    2    37	 1
    3     5	 1
    3    31	 1
    3    32	 1
    3     7	 1
    3    36	 1
    3    37	 1
    4     7	 1
    4    36	 1
    4    37	 1
    4    22	 1
    4    34	 1
    4    25	 1
    4    51	 1
    4    52	 1
    5     8	 1
    5    23	 1
    5     9	 1
    5    35	 1
    5    30	 1
    5    26	 1
    6    31	 1
    6    32	 1
    6    25	 1
    6    51	 1
    6    52	 1
    6    36	 1
    6    37	 1
    6    11	 1
    6    10	 1
    6    12	 1
    7    24	 1
    7    33	 1
    7    23	 1
    7    13	 1
    7    38	 1
    7    39	 1
    8    31	 1
    8    32	 1
    8    22	 1
    8    34	 1
    8    11	 1
    8    10	 1
    8    12	 1
    9    22	 1
    9    34	 1
    9    36	 1
    9    37	 1
    9    18	 1
    9    14	 1
   10    35	 1
   10    13	 1
   10    38	 1
   10    39	 1
   11    35	 1
   11    13	 1
   11    38	 1
   11    39	 1
   12    35	 1
   12    17	 1
   12    43	 1
   12    15	 1
   12    40	 1
   13    16	 1
   13    19	 1
   13    42	 1
   14    38	 1
   14    39	 1
   14    17	 1
   14    43	 1
   14    41	 1
   14    20	 1
   14    21	 1
   14    44	 1
   15    18	 1
   15    42	 1
   15    45	 1
   15    46	 1
   15    47	 1
   15    48	 1
   15    49	 1
   15    50	 1
   16    40	 1
   16    20	 1
   16    21	 1
   16    44	 1
   16    43	 1
   17    19	 1
   18    38	 1
   18    39	 1
   18    40	 1
   18    41	 1
   19    40	 1
   19    41	 1
   20    48	 1
   20    49	 1
   20    50	 1
   21    45	 1
   21    46	 1
   21    47	 1
   22    24	 1
   22    33	 1
   22    35	 1
   23    34	 1
   24    31	 1
   24    32	 1
   24    34	 1
   24    29	 1
   24    57	 1
   24    27	 1
   24    53	 1
   25    33	 1
   25    28	 1
   25    54	 1
   25    56	 1
   26    51	 1
   26    52	 1
   26    29	 1
   26    57	 1
   26    55	 1
   27    30	 1
   27    56	 1
   28    53	 1
   28    57	 1
   29    54	 1
   30    51	 1
   30    52	 1
   30    53	 1
   30    55	 1
   31    33	 1
   32    33	 1
   33    34	 1
   33    51	 1
   33    52	 1
   34    35	 1
   35    36	 1
   35    37	 1
   41    42	 1
   42    43	 1
   44    45	 1
   44    46	 1
   44    47	 1
   44    48	 1
   44    49	 1
   44    50	 1
   53    54	 1
   54    55	 1
   55    56	 1
   56    57	 1

[ angles ]
;	ai	  aj	ak funct			c0			  c1			c2			  c3
    3     1     4	5 ;      OG2P1      SG3O2      CG321
    3     1     8	5 ;      OG2P1      SG3O2      CG321
    3     1     2	5 ;      OG2P1      SG3O2      OG2P1
    4     1     8	5 ;      CG321      SG3O2      CG321
    4     1     2	5 ;      CG321      SG3O2      OG2P1
    8     1     2	5 ;      CG321      SG3O2      OG2P1
    1     4     5	5 ;      SG3O2      CG321      CG311
    1     4    31	5 ;      SG3O2      CG321       HGA2
    1     4    32	5 ;      SG3O2      CG321       HGA2
    5     4    31	5 ;      CG311      CG321       HGA2
    5     4    32	5 ;      CG311      CG321       HGA2
   31     4    32	5 ;       HGA2      CG321       HGA2
    4     5     6	5 ;      CG321      CG311      CG311
    4     5    24	5 ;      CG321      CG311      CG321
    4     5    33	5 ;      CG321      CG311       HGA1
    6     5    24	5 ;      CG311      CG311      CG321
    6     5    33	5 ;      CG311      CG311       HGA1
   24     5    33	5 ;      CG321      CG311       HGA1
   22     6     5	5 ;      OG311      CG311      CG311
   22     6     7	5 ;      OG311      CG311      CG314
   22     6    34	5 ;      OG311      CG311       HGA1
    5     6     7	5 ;      CG311      CG311      CG314
    5     6    34	5 ;      CG311      CG311       HGA1
    7     6    34	5 ;      CG314      CG311       HGA1
    8     7     6	5 ;      CG321      CG314      CG311
    8     7     9	5 ;      CG321      CG314      NG3P2
    8     7    35	5 ;      CG321      CG314       HGA1
    6     7     9	5 ;      CG311      CG314      NG3P2
    6     7    35	5 ;      CG311      CG314       HGA1
    9     7    35	5 ;      NG3P2      CG314       HGA1
    1     8     7	5 ;      SG3O2      CG321      CG314
    1     8    36	5 ;      SG3O2      CG321       HGA2
    1     8    37	5 ;      SG3O2      CG321       HGA2
    7     8    36	5 ;      CG314      CG321       HGA2
    7     8    37	5 ;      CG314      CG321       HGA2
   36     8    37	5 ;       HGA2      CG321       HGA2
    7     9    11	5 ;      CG314      NG3P2       HGP2
    7     9    10	5 ;      CG314      NG3P2       HGP2
    7     9    12	5 ;      CG314      NG3P2      CG324
   11     9    10	5 ;       HGP2      NG3P2       HGP2
   11     9    12	5 ;       HGP2      NG3P2      CG324
   10     9    12	5 ;       HGP2      NG3P2      CG324
    9    12    13	5 ;      NG3P2      CG324     CG2R61
    9    12    38	5 ;      NG3P2      CG324       HGA2
    9    12    39	5 ;      NG3P2      CG324       HGA2
   13    12    38	5 ;     CG2R61      CG324       HGA2
   13    12    39	5 ;     CG2R61      CG324       HGA2
   38    12    39	5 ;       HGA2      CG324       HGA2
   12    13    18	5 ;      CG324     CG2R61     CG2R61
   12    13    14	5 ;      CG324     CG2R61     CG2R61
   18    13    14	5 ;     CG2R61     CG2R61     CG2R61
   13    14    15	5 ;     CG2R61     CG2R61     CG2R61
   13    14    40	5 ;     CG2R61     CG2R61      HGR61
   15    14    40	5 ;     CG2R61     CG2R61      HGR61
   14    15    16	5 ;     CG2R61     CG2R61     CG2R61
   14    15    19	5 ;     CG2R61     CG2R61      CG311
   16    15    19	5 ;     CG2R61     CG2R61      CG311
   17    16    15	5 ;     CG2R61     CG2R61     CG2R61
   17    16    41	5 ;     CG2R61     CG2R61      HGR61
   15    16    41	5 ;     CG2R61     CG2R61      HGR61
   18    17    16	5 ;     CG2R61     CG2R61     CG2R61
   18    17    42	5 ;     CG2R61     CG2R61      HGR61
   16    17    42	5 ;     CG2R61     CG2R61      HGR61
   13    18    17	5 ;     CG2R61     CG2R61     CG2R61
   13    18    43	5 ;     CG2R61     CG2R61      HGR61
   17    18    43	5 ;     CG2R61     CG2R61      HGR61
   15    19    20	5 ;     CG2R61      CG311      CG331
   15    19    21	5 ;     CG2R61      CG311      CG331
   15    19    44	5 ;     CG2R61      CG311       HGA1
   20    19    21	5 ;      CG331      CG311      CG331
   20    19    44	5 ;      CG331      CG311       HGA1
   21    19    44	5 ;      CG331      CG311       HGA1
   19    20    45	5 ;      CG311      CG331       HGA3
   19    20    46	5 ;      CG311      CG331       HGA3
   19    20    47	5 ;      CG311      CG331       HGA3
   45    20    46	5 ;       HGA3      CG331       HGA3
   45    20    47	5 ;       HGA3      CG331       HGA3
   46    20    47	5 ;       HGA3      CG331       HGA3
   19    21    48	5 ;      CG311      CG331       HGA3
   19    21    49	5 ;      CG311      CG331       HGA3
   19    21    50	5 ;      CG311      CG331       HGA3
   48    21    49	5 ;       HGA3      CG331       HGA3
   48    21    50	5 ;       HGA3      CG331       HGA3
   49    21    50	5 ;       HGA3      CG331       HGA3
   23    22     6	5 ;       HGP1      OG311      CG311
    5    24    25	5 ;      CG311      CG321     CG2R61
    5    24    51	5 ;      CG311      CG321       HGA2
    5    24    52	5 ;      CG311      CG321       HGA2
   25    24    51	5 ;     CG2R61      CG321       HGA2
   25    24    52	5 ;     CG2R61      CG321       HGA2
   51    24    52	5 ;       HGA2      CG321       HGA2
   30    25    24	5 ;     CG2R61     CG2R61      CG321
   30    25    26	5 ;     CG2R61     CG2R61     CG2R61
   24    25    26	5 ;      CG321     CG2R61     CG2R61
   25    26    27	5 ;     CG2R61     CG2R61     CG2R61
   25    26    53	5 ;     CG2R61     CG2R61      HGR61
   27    26    53	5 ;     CG2R61     CG2R61      HGR61
   28    27    26	5 ;     CG2R61     CG2R61     CG2R61
   28    27    54	5 ;     CG2R61     CG2R61      HGR61
   26    27    54	5 ;     CG2R61     CG2R61      HGR61
   29    28    27	5 ;     CG2R61     CG2R61     CG2R61
   29    28    55	5 ;     CG2R61     CG2R61      HGR61
   27    28    55	5 ;     CG2R61     CG2R61      HGR61
   30    29    28	5 ;     CG2R61     CG2R61     CG2R61
   30    29    56	5 ;     CG2R61     CG2R61      HGR61
   28    29    56	5 ;     CG2R61     CG2R61      HGR61
   29    30    25	5 ;     CG2R61     CG2R61     CG2R61
   29    30    57	5 ;     CG2R61     CG2R61      HGR61
   25    30    57	5 ;     CG2R61     CG2R61      HGR61

[ dihedrals ]
;	ai	  aj	ak	  al funct			  c0			c1			  c2			c3			  c4			c5
    3     1     4     5	 9 ;      OG2P1      SG3O2      CG321      CG311
    3     1     4    31	 9 ;      OG2P1      SG3O2      CG321       HGA2
    3     1     4    32	 9 ;      OG2P1      SG3O2      CG321       HGA2
    8     1     4     5	 9 ;      CG321      SG3O2      CG321      CG311
    8     1     4    31	 9 ;      CG321      SG3O2      CG321       HGA2
    8     1     4    32	 9 ;      CG321      SG3O2      CG321       HGA2
    2     1     4     5	 9 ;      OG2P1      SG3O2      CG321      CG311
    2     1     4    31	 9 ;      OG2P1      SG3O2      CG321       HGA2
    2     1     4    32	 9 ;      OG2P1      SG3O2      CG321       HGA2
    3     1     8     7	 9 ;      OG2P1      SG3O2      CG321      CG314
    3     1     8    36	 9 ;      OG2P1      SG3O2      CG321       HGA2
    3     1     8    37	 9 ;      OG2P1      SG3O2      CG321       HGA2
    4     1     8     7	 9 ;      CG321      SG3O2      CG321      CG314
    4     1     8    36	 9 ;      CG321      SG3O2      CG321       HGA2
    4     1     8    37	 9 ;      CG321      SG3O2      CG321       HGA2
    2     1     8     7	 9 ;      OG2P1      SG3O2      CG321      CG314
    2     1     8    36	 9 ;      OG2P1      SG3O2      CG321       HGA2
    2     1     8    37	 9 ;      OG2P1      SG3O2      CG321       HGA2
    1     4     5     6	 9 ;      SG3O2      CG321      CG311      CG311
    1     4     5    24	 9 ;      SG3O2      CG321      CG311      CG321
    1     4     5    33	 9 ;      SG3O2      CG321      CG311       HGA1
   31     4     5     6	 9 ;       HGA2      CG321      CG311      CG311
   31     4     5    24	 9 ;       HGA2      CG321      CG311      CG321
   31     4     5    33	 9 ;       HGA2      CG321      CG311       HGA1
   32     4     5     6	 9 ;       HGA2      CG321      CG311      CG311
   32     4     5    24	 9 ;       HGA2      CG321      CG311      CG321
   32     4     5    33	 9 ;       HGA2      CG321      CG311       HGA1
    4     5     6    22	 9 ;      CG321      CG311      CG311      OG311
    4     5     6     7	 9 ;      CG321      CG311      CG311      CG314
    4     5     6    34	 9 ;      CG321      CG311      CG311       HGA1
   24     5     6    22	 9 ;      CG321      CG311      CG311      OG311
   24     5     6     7	 9 ;      CG321      CG311      CG311      CG314
   24     5     6    34	 9 ;      CG321      CG311      CG311       HGA1
   33     5     6    22	 9 ;       HGA1      CG311      CG311      OG311
   33     5     6     7	 9 ;       HGA1      CG311      CG311      CG314
   33     5     6    34	 9 ;       HGA1      CG311      CG311       HGA1
    4     5    24    25	 9 ;      CG321      CG311      CG321     CG2R61
    4     5    24    51	 9 ;      CG321      CG311      CG321       HGA2
    4     5    24    52	 9 ;      CG321      CG311      CG321       HGA2
    6     5    24    25	 9 ;      CG311      CG311      CG321     CG2R61
    6     5    24    51	 9 ;      CG311      CG311      CG321       HGA2
    6     5    24    52	 9 ;      CG311      CG311      CG321       HGA2
   33     5    24    25	 9 ;       HGA1      CG311      CG321     CG2R61
   33     5    24    51	 9 ;       HGA1      CG311      CG321       HGA2
   33     5    24    52	 9 ;       HGA1      CG311      CG321       HGA2
    5     6    22    23	 9 ;      CG311      CG311      OG311       HGP1
    7     6    22    23	 9 ;      CG314      CG311      OG311       HGP1
   34     6    22    23	 9 ;       HGA1      CG311      OG311       HGP1
   22     6     7     8	 9 ;      OG311      CG311      CG314      CG321
   22     6     7     9	 9 ;      OG311      CG311      CG314      NG3P2
   22     6     7    35	 9 ;      OG311      CG311      CG314       HGA1
    5     6     7     8	 9 ;      CG311      CG311      CG314      CG321
    5     6     7     9	 9 ;      CG311      CG311      CG314      NG3P2
    5     6     7    35	 9 ;      CG311      CG311      CG314       HGA1
   34     6     7     8	 9 ;       HGA1      CG311      CG314      CG321
   34     6     7     9	 9 ;       HGA1      CG311      CG314      NG3P2
   34     6     7    35	 9 ;       HGA1      CG311      CG314       HGA1
    6     7     8     1	 9 ;      CG311      CG314      CG321      SG3O2
    6     7     8    36	 9 ;      CG311      CG314      CG321       HGA2
    6     7     8    37	 9 ;      CG311      CG314      CG321       HGA2
    9     7     8     1	 9 ;      NG3P2      CG314      CG321      SG3O2
    9     7     8    36	 9 ;      NG3P2      CG314      CG321       HGA2
    9     7     8    37	 9 ;      NG3P2      CG314      CG321       HGA2
   35     7     8     1	 9 ;       HGA1      CG314      CG321      SG3O2
   35     7     8    36	 9 ;       HGA1      CG314      CG321       HGA2
   35     7     8    37	 9 ;       HGA1      CG314      CG321       HGA2
    8     7     9    11	 9 ;      CG321      CG314      NG3P2       HGP2
    8     7     9    10	 9 ;      CG321      CG314      NG3P2       HGP2
    8     7     9    12	 9 ;      CG321      CG314      NG3P2      CG324
    6     7     9    11	 9 ;      CG311      CG314      NG3P2       HGP2
    6     7     9    10	 9 ;      CG311      CG314      NG3P2       HGP2
    6     7     9    12	 9 ;      CG311      CG314      NG3P2      CG324
   35     7     9    11	 9 ;       HGA1      CG314      NG3P2       HGP2
   35     7     9    10	 9 ;       HGA1      CG314      NG3P2       HGP2
   35     7     9    12	 9 ;       HGA1      CG314      NG3P2      CG324
    7     9    12    13	 9 ;      CG314      NG3P2      CG324     CG2R61
    7     9    12    38	 9 ;      CG314      NG3P2      CG324       HGA2
    7     9    12    39	 9 ;      CG314      NG3P2      CG324       HGA2
   11     9    12    13	 9 ;       HGP2      NG3P2      CG324     CG2R61
   11     9    12    38	 9 ;       HGP2      NG3P2      CG324       HGA2
   11     9    12    39	 9 ;       HGP2      NG3P2      CG324       HGA2
   10     9    12    13	 9 ;       HGP2      NG3P2      CG324     CG2R61
   10     9    12    38	 9 ;       HGP2      NG3P2      CG324       HGA2
   10     9    12    39	 9 ;       HGP2      NG3P2      CG324       HGA2
    9    12    13    18	 9 ;      NG3P2      CG324     CG2R61     CG2R61
    9    12    13    14	 9 ;      NG3P2      CG324     CG2R61     CG2R61
   38    12    13    18	 9 ;       HGA2      CG324     CG2R61     CG2R61
   38    12    13    14	 9 ;       HGA2      CG324     CG2R61     CG2R61
   39    12    13    18	 9 ;       HGA2      CG324     CG2R61     CG2R61
   39    12    13    14	 9 ;       HGA2      CG324     CG2R61     CG2R61
   12    13    18    17	 9 ;      CG324     CG2R61     CG2R61     CG2R61
   12    13    18    43	 9 ;      CG324     CG2R61     CG2R61      HGR61
   14    13    18    17	 9 ;     CG2R61     CG2R61     CG2R61     CG2R61
   14    13    18    43	 9 ;     CG2R61     CG2R61     CG2R61      HGR61
   12    13    14    15	 9 ;      CG324     CG2R61     CG2R61     CG2R61
   12    13    14    40	 9 ;      CG324     CG2R61     CG2R61      HGR61
   18    13    14    15	 9 ;     CG2R61     CG2R61     CG2R61     CG2R61
   18    13    14    40	 9 ;     CG2R61     CG2R61     CG2R61      HGR61
   13    14    15    16	 9 ;     CG2R61     CG2R61     CG2R61     CG2R61
   13    14    15    19	 9 ;     CG2R61     CG2R61     CG2R61      CG311
   40    14    15    16	 9 ;      HGR61     CG2R61     CG2R61     CG2R61
   40    14    15    19	 9 ;      HGR61     CG2R61     CG2R61      CG311
   14    15    16    17	 9 ;     CG2R61     CG2R61     CG2R61     CG2R61
   14    15    16    41	 9 ;     CG2R61     CG2R61     CG2R61      HGR61
   19    15    16    17	 9 ;      CG311     CG2R61     CG2R61     CG2R61
   19    15    16    41	 9 ;      CG311     CG2R61     CG2R61      HGR61
   14    15    19    20	 9 ;     CG2R61     CG2R61      CG311      CG331
   14    15    19    21	 9 ;     CG2R61     CG2R61      CG311      CG331
   14    15    19    44	 9 ;     CG2R61     CG2R61      CG311       HGA1
   16    15    19    20	 9 ;     CG2R61     CG2R61      CG311      CG331
   16    15    19    21	 9 ;     CG2R61     CG2R61      CG311      CG331
   16    15    19    44	 9 ;     CG2R61     CG2R61      CG311       HGA1
   15    16    17    18	 9 ;     CG2R61     CG2R61     CG2R61     CG2R61
   15    16    17    42	 9 ;     CG2R61     CG2R61     CG2R61      HGR61
   41    16    17    18	 9 ;      HGR61     CG2R61     CG2R61     CG2R61
   41    16    17    42	 9 ;      HGR61     CG2R61     CG2R61      HGR61
   16    17    18    13	 9 ;     CG2R61     CG2R61     CG2R61     CG2R61
   16    17    18    43	 9 ;     CG2R61     CG2R61     CG2R61      HGR61
   42    17    18    13	 9 ;      HGR61     CG2R61     CG2R61     CG2R61
   42    17    18    43	 9 ;      HGR61     CG2R61     CG2R61      HGR61
   15    19    20    45	 9 ;     CG2R61      CG311      CG331       HGA3
   15    19    20    46	 9 ;     CG2R61      CG311      CG331       HGA3
   15    19    20    47	 9 ;     CG2R61      CG311      CG331       HGA3
   21    19    20    45	 9 ;      CG331      CG311      CG331       HGA3
   21    19    20    46	 9 ;      CG331      CG311      CG331       HGA3
   21    19    20    47	 9 ;      CG331      CG311      CG331       HGA3
   44    19    20    45	 9 ;       HGA1      CG311      CG331       HGA3
   44    19    20    46	 9 ;       HGA1      CG311      CG331       HGA3
   44    19    20    47	 9 ;       HGA1      CG311      CG331       HGA3
   15    19    21    48	 9 ;     CG2R61      CG311      CG331       HGA3
   15    19    21    49	 9 ;     CG2R61      CG311      CG331       HGA3
   15    19    21    50	 9 ;     CG2R61      CG311      CG331       HGA3
   20    19    21    48	 9 ;      CG331      CG311      CG331       HGA3
   20    19    21    49	 9 ;      CG331      CG311      CG331       HGA3
   20    19    21    50	 9 ;      CG331      CG311      CG331       HGA3
   44    19    21    48	 9 ;       HGA1      CG311      CG331       HGA3
   44    19    21    49	 9 ;       HGA1      CG311      CG331       HGA3
   44    19    21    50	 9 ;       HGA1      CG311      CG331       HGA3
    5    24    25    30	 9 ;      CG311      CG321     CG2R61     CG2R61
    5    24    25    26	 9 ;      CG311      CG321     CG2R61     CG2R61
   51    24    25    30	 9 ;       HGA2      CG321     CG2R61     CG2R61
   51    24    25    26	 9 ;       HGA2      CG321     CG2R61     CG2R61
   52    24    25    30	 9 ;       HGA2      CG321     CG2R61     CG2R61
   52    24    25    26	 9 ;       HGA2      CG321     CG2R61     CG2R61
   24    25    30    29	 9 ;      CG321     CG2R61     CG2R61     CG2R61
   24    25    30    57	 9 ;      CG321     CG2R61     CG2R61      HGR61
   26    25    30    29	 9 ;     CG2R61     CG2R61     CG2R61     CG2R61
   26    25    30    57	 9 ;     CG2R61     CG2R61     CG2R61      HGR61
   30    25    26    27	 9 ;     CG2R61     CG2R61     CG2R61     CG2R61
   30    25    26    53	 9 ;     CG2R61     CG2R61     CG2R61      HGR61
   24    25    26    27	 9 ;      CG321     CG2R61     CG2R61     CG2R61
   24    25    26    53	 9 ;      CG321     CG2R61     CG2R61      HGR61
   25    26    27    28	 9 ;     CG2R61     CG2R61     CG2R61     CG2R61
   25    26    27    54	 9 ;     CG2R61     CG2R61     CG2R61      HGR61
   53    26    27    28	 9 ;      HGR61     CG2R61     CG2R61     CG2R61
   53    26    27    54	 9 ;      HGR61     CG2R61     CG2R61      HGR61
   26    27    28    29	 9 ;     CG2R61     CG2R61     CG2R61     CG2R61
   26    27    28    55	 9 ;     CG2R61     CG2R61     CG2R61      HGR61
   54    27    28    29	 9 ;      HGR61     CG2R61     CG2R61     CG2R61
   54    27    28    55	 9 ;      HGR61     CG2R61     CG2R61      HGR61
   27    28    29    30	 9 ;     CG2R61     CG2R61     CG2R61     CG2R61
   27    28    29    56	 9 ;     CG2R61     CG2R61     CG2R61      HGR61
   55    28    29    30	 9 ;      HGR61     CG2R61     CG2R61     CG2R61
   55    28    29    56	 9 ;      HGR61     CG2R61     CG2R61      HGR61
   28    29    30    25	 9 ;     CG2R61     CG2R61     CG2R61     CG2R61
   28    29    30    57	 9 ;     CG2R61     CG2R61     CG2R61      HGR61
   56    29    30    25	 9 ;      HGR61     CG2R61     CG2R61     CG2R61
   56    29    30    57	 9 ;      HGR61     CG2R61     CG2R61      HGR61

