GROningen Mixture of Alchemy and Childrens' Stories
   55
    1LIG     N1    1  -1.648   0.346  -1.691
    1LIG     C1    2  -1.537   0.343  -1.771
    1LIG     N2    3  -1.547   0.344  -1.904
    1LIG     N3    4  -1.413   0.338  -1.714
    1LIG     C2    5  -1.287   0.340  -1.784
    1LIG     O1    6  -1.287   0.331  -1.906
    1LIG     H1    7  -1.632   0.350  -1.591
    1LIG     H2    8  -1.462   0.338  -1.961
    1LIG     H3    9  -1.634   0.357  -1.954
    1LIG     H4   10  -1.407   0.340  -1.612
    1LIG     C3   11  -1.790   0.326  -1.732
    1LIG     C4   12  -1.890   0.389  -1.635
    1LIG     C5   13  -2.022   0.411  -1.668
    1LIG     C6   14  -2.113   0.470  -1.577
    1LIG    CL1   15  -2.275   0.492  -1.633
    1LIG     C7   16  -2.076   0.507  -1.445
    1LIG     C8   17  -1.942   0.486  -1.411
    1LIG     C9   18  -1.852   0.425  -1.503
    1LIG    CL2   19  -1.869   0.546  -1.267
    1LIG     N4   20  -2.182   0.563  -1.366
    1LIG    C10   21  -2.198   0.690  -1.315
    1LIG     O2   22  -2.127   0.787  -1.336
    1LIG    C11   23  -2.313   0.698  -1.216
    1LIG     H5   24  -2.241   0.493  -1.321
    1LIG    C12   25  -1.160   0.352  -1.703
    1LIG     N5   26  -1.181   0.371  -1.560
    1LIG    C13   27  -1.207   0.274  -1.465
    1LIG    C14   28  -1.195   0.336  -1.340
    1LIG    C15   29  -1.239   0.138  -1.475
    1LIG    C16   30  -1.208   0.259  -1.223
    1LIG    C17   31  -1.176   0.475  -1.364
    1LIG    C18   32  -1.235   0.122  -1.232
    1LIG    C19   33  -1.251   0.063  -1.357
    1LIG    C20   34  -1.173   0.494  -1.500
    1LIG     O3   35  -1.246   0.058  -1.111
    1LIG    C21   36  -1.229  -0.084  -1.110
    1LIG    HC2   37  -1.805   0.372  -1.830
    1LIG    HC3   38  -1.810   0.220  -1.739
    1LIG     HC   39  -2.057   0.384  -1.767
    1LIG    HC1   40  -1.750   0.406  -1.471
    1LIG    HC4   41  -1.102   0.261  -1.717
    1LIG    HC5   42  -1.102   0.436  -1.741
    1LIG    HC6   43  -1.254   0.091  -1.571
    1LIG    HC7   44  -1.197   0.305  -1.126
    1LIG    HC8   45  -1.166   0.552  -1.288
    1LIG    HC9   46  -1.272  -0.043  -1.363
    1LIG   HC10   47  -1.166   0.589  -1.551
    1LIG   HC11   48  -1.223  -0.119  -1.007
    1LIG   HC12   49  -1.138  -0.110  -1.163
    1LIG   HC13   50  -1.314  -0.131  -1.160
    1LIG   HC14   51  -2.321   0.800  -1.178
    1LIG   HC15   52  -2.294   0.630  -1.133
    1LIG   HC16   53  -2.406   0.670  -1.266
    1LIG    LP1   54  -2.429   0.513  -1.687
    1LIG    LP2   55  -1.799   0.603  -1.130
   0.00000   0.00000   0.00000
