Good ROcking Metal Altar for Chronical Sinners
   74
    1LIG     N1    1  -1.581   0.588  -1.747
    1LIG     H1    2  -1.554   0.572  -1.846
    1LIG     H2    3  -1.517   0.659  -1.713
    1LIG     C1    4  -1.720   0.653  -1.757
    1LIG     C2    5  -1.692   0.803  -1.729
    1LIG     O1    6  -1.824   0.857  -1.707
    1LIG     H3    7  -1.883   0.784  -1.678
    1LIG     C3    8  -1.591   0.849  -1.618
    1LIG     C4    9  -1.459   0.900  -1.681
    1LIG     C5   10  -1.337   0.820  -1.642
    1LIG     C6   11  -1.331   0.749  -1.521
    1LIG     C7   12  -1.216   0.679  -1.486
    1LIG     F1   13  -1.213   0.613  -1.369
    1LIG     C8   14  -1.105   0.675  -1.570
    1LIG     C9   15  -1.112   0.741  -1.691
    1LIG    C10   16  -1.226   0.812  -1.729
    1LIG     F2   17  -1.007   0.736  -1.775
    1LIG     N2   18  -1.653   0.959  -1.537
    1LIG    C11   19  -1.743   0.943  -1.435
    1LIG     O2   20  -1.780   0.831  -1.399
    1LIG    C12   21  -1.796   1.072  -1.374
    1LIG     H4   22  -1.631   1.056  -1.564
    1LIG    C13   23  -1.556   0.460  -1.667
    1LIG    C14   24  -1.653   0.353  -1.725
    1LIG    C15   25  -1.654   0.225  -1.641
    1LIG    C16   26  -1.697   0.253  -1.497
    1LIG    C17   27  -1.617   0.365  -1.433
    1LIG    C18   28  -1.604   0.489  -1.522
    1LIG    C19   29  -1.409   0.417  -1.684
    1LIG    C20   30  -1.346   0.332  -1.592
    1LIG    C21   31  -1.212   0.288  -1.606
    1LIG    C22   32  -1.139   0.333  -1.715
    1LIG    C23   33  -1.199   0.417  -1.809
    1LIG    C24   34  -1.332   0.456  -1.795
    1LIG     N3   35  -1.157   0.195  -1.512
    1LIG    C25   36  -1.135   0.056  -1.551
    1LIG    C26   37  -1.022  -0.008  -1.471
    1LIG    C27   38  -1.045   0.015  -1.324
    1LIG     N4   39  -1.090   0.149  -1.293
    1LIG    C28   40  -1.169   0.223  -1.376
    1LIG     H5   41  -1.103   0.172  -1.196
    1LIG     O3   42  -1.240   0.312  -1.329
    1LIG    HC2   43  -1.763   0.640  -1.857
    1LIG    HC3   44  -1.787   0.612  -1.681
    1LIG     HC   45  -1.656   0.846  -1.823
    1LIG    HC1   46  -1.569   0.765  -1.553
    1LIG    HC4   47  -1.443   1.003  -1.649
    1LIG    HC5   48  -1.469   0.898  -1.790
    1LIG    HC6   49  -1.416   0.750  -1.455
    1LIG    HC7   50  -1.016   0.621  -1.541
    1LIG    HC8   51  -1.229   0.862  -1.825
    1LIG    HC9   52  -1.866   1.048  -1.294
    1LIG   HC10   53  -1.712   1.129  -1.333
    1LIG   HC11   54  -1.846   1.130  -1.451
    1LIG   HC12   55  -1.621   0.328  -1.826
    1LIG   HC13   56  -1.754   0.394  -1.728
    1LIG   HC14   57  -1.724   0.153  -1.686
    1LIG   HC15   58  -1.554   0.181  -1.640
    1LIG   HC16   59  -1.684   0.162  -1.439
    1LIG   HC17   60  -1.803   0.280  -1.497
    1LIG   HC18   61  -1.666   0.394  -1.340
    1LIG   HC19   62  -1.517   0.327  -1.410
    1LIG   HC20   63  -1.532   0.557  -1.475
    1LIG   HC21   64  -1.701   0.539  -1.526
    1LIG   HC22   65  -1.403   0.299  -1.506
    1LIG   HC23   66  -1.036   0.303  -1.727
    1LIG   HC24   67  -1.141   0.451  -1.894
    1LIG   HC25   68  -1.377   0.518  -1.871
    1LIG   HC26   69  -1.109   0.053  -1.657
    1LIG   HC27   70  -1.227  -0.000  -1.535
    1LIG   HC28   71  -1.020  -0.115  -1.492
    1LIG   HC29   72  -0.927   0.037  -1.501
    1LIG   HC30   73  -0.951  -0.002  -1.271
    1LIG   HC31   74  -1.120  -0.056  -1.288
   0.00000   0.00000   0.00000
