GRowing Old MAkes el Chrono Sweat
   45
    1LIG     C2    1   2.108   3.886  -1.624
    1LIG     O5    2   2.181   3.732  -1.840
    1LIG     C4    3   2.411   3.777  -1.811
    1LIG     C5    4   2.511   3.841  -1.735
    1LIG     C6    5   2.447   3.692  -1.916
    1LIG     C7    6   2.647   3.815  -1.763
    1LIG     C8    7   2.581   3.669  -1.946
    1LIG     C9    8   2.680   3.730  -1.869
    1LIG    C10    9   2.232   3.897  -1.676
    1LIG    C11   10   2.338   3.998  -1.645
    1LIG    C12   11   2.267   3.796  -1.781
    1LIG    C13   12   2.472   3.931  -1.620
    1LIG     N1   13   2.064   3.917  -1.393
    1LIG     O4   14   2.000   4.081  -1.541
    1LIG     C3   15   2.052   3.973  -1.518
    1LIG     H5   16   2.073   3.816  -1.394
    1LIG    C14   17   1.995   3.977  -1.277
    1LIG    C16   18   2.092   4.037  -1.172
    1LIG    C17   19   2.233   4.062  -1.225
    1LIG    C18   20   2.038   4.169  -1.115
    1LIG     O2   21   1.800   3.880  -1.164
    1LIG    C15   22   1.912   3.866  -1.211
    1LIG     O3   23   1.980   3.748  -1.202
    1LIG     H4   24   1.942   3.689  -1.133
    1LIG     C1   25   2.828   3.970  -1.743
    1LIG     O1   26   2.738   3.878  -1.683
    1LIG     H1   27   2.047   3.811  -1.661
    1LIG     H2   28   2.373   3.646  -1.972
    1LIG     H3   29   2.606   3.607  -2.024
    1LIG     H6   30   2.780   3.712  -1.891
    1LIG     H7   31   2.309   4.053  -1.557
    1LIG     H8   32   2.348   4.064  -1.729
    1LIG     H9   33   2.547   4.006  -1.607
    1LIG    H10   34   2.463   3.870  -1.532
    1LIG     HA   35   1.935   4.059  -1.312
    1LIG     HB   36   2.098   3.963  -1.095
    1LIG   HG11   37   2.230   4.136  -1.303
    1LIG   HG12   38   2.273   3.971  -1.265
    1LIG   HG13   39   2.296   4.096  -1.146
    1LIG   HG21   40   2.033   4.242  -1.194
    1LIG   HG22   41   2.104   4.205  -1.039
    1LIG   HG23   42   1.941   4.154  -1.075
    1LIG    H11   43   2.893   4.011  -1.668
    1LIG    H12   44   2.772   4.049  -1.789
    1LIG    H13   45   2.886   3.919  -1.817
   0.00000   0.00000   0.00000
