GROningen MAchine for Chemical Simulation
   50
    1LIG     C1    1  -1.879   0.283  -1.697
    1LIG     C2    2  -1.967   0.403  -1.718
    1LIG     C3    3  -1.980   0.325  -1.591
    1LIG     C4    4  -1.734   0.285  -1.659
    1LIG     C5    5  -1.694   0.362  -1.548
    1LIG     C6    6  -1.564   0.357  -1.498
    1LIG     C7    7  -1.466   0.275  -1.556
    1LIG     C8    8  -1.503   0.204  -1.671
    1LIG     C9    9  -1.634   0.210  -1.722
    1LIG    C10   10  -1.332   0.264  -1.494
    1LIG    C11   11  -1.250   0.152  -1.520
    1LIG    C12   12  -1.126   0.134  -1.458
    1LIG    C13   13  -1.079   0.234  -1.372
    1LIG    C14   14  -1.155   0.348  -1.348
    1LIG    C15   15  -1.280   0.363  -1.408
    1LIG     O1   16  -1.043   0.026  -1.472
    1LIG    C16   17  -1.058  -0.079  -1.377
    1LIG    C17   18  -2.087   0.229  -1.560
    1LIG     N1   19  -2.191   0.237  -1.650
    1LIG    C18   20  -2.288   0.151  -1.643
    1LIG     HN   21  -2.192   0.310  -1.721
    1LIG     N2   22  -2.294   0.052  -1.547
    1LIG    C19   23  -2.396  -0.051  -1.544
    1LIG    C20   24  -2.195   0.043  -1.451
    1LIG     O2   25  -2.193  -0.041  -1.361
    1LIG    C21   26  -2.084   0.139  -1.462
    1LIG     N3   27  -2.385   0.163  -1.737
    1LIG     H1   28  -2.386   0.095  -1.812
    1LIG     H2   29  -2.477   0.174  -1.694
    1LIG     HC   30  -1.909   0.196  -1.754
    1LIG    HC2   31  -1.923   0.503  -1.716
    1LIG    HC3   32  -2.048   0.390  -1.789
    1LIG    HC1   33  -1.936   0.373  -1.503
    1LIG    HC4   34  -1.767   0.426  -1.500
    1LIG    HC5   35  -1.538   0.419  -1.413
    1LIG    HC6   36  -1.429   0.144  -1.722
    1LIG    HC7   37  -1.659   0.154  -1.811
    1LIG    HC8   38  -1.285   0.076  -1.589
    1LIG    HC9   39  -0.983   0.222  -1.324
    1LIG   HC10   40  -1.117   0.425  -1.283
    1LIG   HC11   41  -1.339   0.451  -1.388
    1LIG   HC12   42  -0.987  -0.158  -1.400
    1LIG   HC13   43  -1.159  -0.119  -1.383
    1LIG   HC14   44  -1.039  -0.041  -1.277
    1LIG   HC15   45  -2.233   0.083  -1.709
    1LIG   HC16   46  -2.379  -0.116  -1.458
    1LIG   HC17   47  -2.494  -0.004  -1.535
    1LIG   HC18   48  -2.392  -0.109  -1.636
    1LIG   HC19   49  -2.002   0.136  -1.391
    1LIG    HN1   50  -2.367   0.251  -1.782
   0.00000   0.00000   0.00000
