GROningen Mixture of Alchemy and Childrens' Stories
   67
    1LIG     C1    1  -1.819   0.455  -1.489
    1LIG     C2    2  -1.860   0.334  -1.429
    1LIG     C3    3  -1.997   0.308  -1.405
    1LIG     C4    4  -2.051   0.178  -1.380
    1LIG     C5    5  -2.189   0.151  -1.384
    1LIG     C6    6  -2.272   0.261  -1.403
    1LIG     C7    7  -2.221   0.390  -1.416
    1LIG     C8    8  -2.085   0.414  -1.422
    1LIG     N1    9  -2.044   0.536  -1.458
    1LIG     HN   10  -2.108   0.615  -1.453
    1LIG     C9   11  -1.917   0.553  -1.500
    1LIG    C10   12  -1.680   0.461  -1.553
    1LIG    C11   13  -1.586   0.341  -1.589
    1LIG    C12   14  -1.601   0.285  -1.732
    1LIG    C13   15  -1.439   0.355  -1.541
    1LIG     N2   16  -1.377   0.240  -1.499
    1LIG     H1   17  -1.428   0.153  -1.508
    1LIG     O1   18  -1.381   0.463  -1.538
    1LIG    C14   19  -1.255   0.240  -1.416
    1LIG    C15   20  -1.123   0.283  -1.482
    1LIG    C16   21  -1.081   0.183  -1.587
    1LIG     O2   22  -1.057   0.056  -1.526
    1LIG    C17   23  -1.167   0.002  -1.451
    1LIG    C18   24  -1.228   0.104  -1.352
    1LIG    C19   25  -1.273  -0.054  -1.547
    1LIG    C20   26  -1.109  -0.113  -1.367
    1LIG     N3   27  -1.902   0.668  -1.573
    1LIG     H2   28  -1.888   0.644  -1.670
    1LIG     H3   29  -1.981   0.731  -1.567
    1LIG    C21   30  -2.242   0.007  -1.377
    1LIG    C22   31  -2.331  -0.036  -1.478
    1LIG    C23   32  -2.381  -0.167  -1.485
    1LIG    C24   33  -2.345  -0.259  -1.390
    1LIG    C25   34  -2.262  -0.221  -1.286
    1LIG    C26   35  -2.211  -0.089  -1.276
    1LIG    C27   36  -2.133  -0.060  -1.150
    1LIG     HC   37  -1.786   0.261  -1.400
    1LIG    HC1   38  -1.983   0.097  -1.357
    1LIG    HC2   39  -2.379   0.246  -1.409
    1LIG    HC3   40  -2.289   0.474  -1.422
    1LIG    HC4   41  -1.621   0.523  -1.486
    1LIG    HC5   42  -1.691   0.518  -1.645
    1LIG    HC6   43  -1.625   0.260  -1.527
    1LIG    HC7   44  -1.532   0.203  -1.746
    1LIG    HC8   45  -1.703   0.250  -1.747
    1LIG    HC9   46  -1.579   0.364  -1.804
    1LIG   HC10   47  -1.274   0.310  -1.334
    1LIG   HC11   48  -1.137   0.380  -1.528
    1LIG   HC12   49  -1.046   0.290  -1.406
    1LIG   HC13   50  -0.990   0.217  -1.636
    1LIG   HC14   51  -1.160   0.173  -1.661
    1LIG   HC15   52  -1.322   0.064  -1.315
    1LIG   HC16   53  -1.160   0.117  -1.269
    1LIG   HC17   54  -1.315   0.028  -1.606
    1LIG   HC18   55  -1.227  -0.127  -1.613
    1LIG   HC19   56  -1.353  -0.101  -1.490
    1LIG   HC20   57  -1.065  -0.188  -1.433
    1LIG   HC21   58  -1.033  -0.074  -1.300
    1LIG   HC22   59  -1.189  -0.159  -1.309
    1LIG   HC23   60  -2.362   0.036  -1.553
    1LIG   HC24   61  -2.448  -0.195  -1.565
    1LIG   HC25   62  -2.381  -0.361  -1.396
    1LIG   HC26   63  -2.235  -0.293  -1.210
    1LIG   HC27   64  -2.098   0.043  -1.151
    1LIG   HC28   65  -2.047  -0.127  -1.144
    1LIG   HC29   66  -2.197  -0.076  -1.063
    1LIG    H35   67  -2.081   0.440  -1.316
   0.00000   0.00000   0.00000
