; Created by cgenff_charmm2gmx.py

[ moleculetype ]
; Name			   nrexcl
LIG				 3

[ atoms ]
;	 nr		  type	resnr residue  atom   cgnr	   charge		mass  typeB    chargeB		massB
; residue	 1 LIG rtp LIG q	qsum
     1     CG2DC1      1    LIG     C1      1     -0.110     12.011   ;
     2     CG2DC2      1    LIG     C2      2     -0.265     12.011   ;
     3     CG2DC2      1    LIG     C3      3      0.147     12.011   ;
     4     CG2DC1      1    LIG     C4      4     -0.139     12.011   ;
     5     CG2DC1      1    LIG     C5      5      0.124     12.011   ;
     6     CG2DC2      1    LIG     C6      6     -0.282     12.011   ;
     7     CG2DC2      1    LIG     C7      7     -0.253     12.011   ;
     8      CG311      1    LIG     C8      8      0.369     12.011   ;
     9      NG311      1    LIG     N1      9     -0.634     14.007   ;
    10     HGPAM1      1    LIG     HN     10      0.328      1.008   ;
    11     CG2D1O      1    LIG     C9     11      0.152     12.011   ;
    12      CG321      1    LIG    C10     12     -0.204     12.011   ;
    13      CG311      1    LIG    C11     13     -0.041     12.011   ;
    14      CG331      1    LIG    C12     14     -0.265     12.011   ;
    15      CG2O1      1    LIG    C13     15      0.498     12.011   ;
    16      NG2S1      1    LIG     N2     16     -0.333     14.007   ;
    17       HGP1      1    LIG     H1     17      0.316      1.008   ;
    18      OG2D1      1    LIG     O1     18     -0.510     15.999   ;
    19      CG311      1    LIG    C14     19     -0.152     12.011   ;
    20      CG321      1    LIG    C15     20     -0.167     12.011   ;
    21      CG321      1    LIG    C16     21      0.021     12.011   ;
    22     OG3C61      1    LIG     O2     22     -0.360     15.999   ;
    23      CG301      1    LIG    C17     23      0.150     12.011   ;
    24      CG321      1    LIG    C18     24     -0.138     12.011   ;
    25      CG331      1    LIG    C19     25     -0.263     12.011   ;
    26      CG331      1    LIG    C20     26     -0.263     12.011   ;
    27      NG321      1    LIG     N3     27     -0.754     14.007   ;
    28     HGPAM2      1    LIG     H2     28      0.404      1.008   ;
    29     HGPAM2      1    LIG     H3     29      0.404      1.008   ;
    30     CG2R61      1    LIG    C21     30     -0.151     12.011   ;
    31     CG2R61      1    LIG    C22     31     -0.132     12.011   ;
    32     CG2R61      1    LIG    C23     32     -0.113     12.011   ;
    33     CG2R61      1    LIG    C24     33     -0.131     12.011   ;
    34     CG2R61      1    LIG    C25     34     -0.118     12.011   ;
    35     CG2R61      1    LIG    C26     35      0.056     12.011   ;
    36      CG331      1    LIG    C27     36     -0.279     12.011   ;
    37       HGA4      1    LIG     HC     37      0.150      1.008   ;
    38       HGA4      1    LIG    HC1     38      0.117      1.008   ;
    39       HGA4      1    LIG    HC2     39      0.153      1.008   ;
    40       HGA4      1    LIG    HC3     40      0.134      1.008   ;
    41       HGA2      1    LIG    HC4     41      0.090      1.008   ;
    42       HGA2      1    LIG    HC5     42      0.090      1.008   ;
    43       HGA1      1    LIG    HC6     43      0.090      1.008   ;
    44       HGA3      1    LIG    HC7     44      0.090      1.008   ;
    45       HGA3      1    LIG    HC8     45      0.090      1.008   ;
    46       HGA3      1    LIG    HC9     46      0.090      1.008   ;
    47       HGA1      1    LIG   HC10     47      0.090      1.008   ;
    48       HGA2      1    LIG   HC11     48      0.090      1.008   ;
    49       HGA2      1    LIG   HC12     49      0.090      1.008   ;
    50       HGA2      1    LIG   HC13     50      0.090      1.008   ;
    51       HGA2      1    LIG   HC14     51      0.090      1.008   ;
    52       HGA2      1    LIG   HC15     52      0.090      1.008   ;
    53       HGA2      1    LIG   HC16     53      0.090      1.008   ;
    54       HGA3      1    LIG   HC17     54      0.090      1.008   ;
    55       HGA3      1    LIG   HC18     55      0.090      1.008   ;
    56       HGA3      1    LIG   HC19     56      0.090      1.008   ;
    57       HGA3      1    LIG   HC20     57      0.090      1.008   ;
    58       HGA3      1    LIG   HC21     58      0.090      1.008   ;
    59       HGA3      1    LIG   HC22     59      0.090      1.008   ;
    60      HGR61      1    LIG   HC23     60      0.116      1.008   ;
    61      HGR61      1    LIG   HC24     61      0.116      1.008   ;
    62      HGR61      1    LIG   HC25     62      0.116      1.008   ;
    63      HGR61      1    LIG   HC26     63      0.116      1.008   ;
    64       HGA3      1    LIG   HC27     64      0.090      1.008   ;
    65       HGA3      1    LIG   HC28     65      0.090      1.008   ;
    66       HGA3      1    LIG   HC29     66      0.090      1.008   ;
    67       HGA1      1    LIG    H35     67      0.090      1.008   ;

[ bonds ]
;	ai	  aj funct			  c0			c1			  c2			c3
    1    12	 1 ;      CG2DC1      CG321
    1    11	 1 ;      CG2DC1     CG2D1O
    1     2	 1 ;      CG2DC1     CG2DC2
    2     3	 1 ;      CG2DC2     CG2DC2
    2    37	 1 ;      CG2DC2       HGA4
    3     8	 1 ;      CG2DC2      CG311
    3     4	 1 ;      CG2DC2     CG2DC1
    4     5	 1 ;      CG2DC1     CG2DC1
    4    38	 1 ;      CG2DC1       HGA4
    5     6	 1 ;      CG2DC1     CG2DC2
    5    30	 1 ;      CG2DC1     CG2R61
    6     7	 1 ;      CG2DC2     CG2DC2
    6    39	 1 ;      CG2DC2       HGA4
    7     8	 1 ;      CG2DC2      CG311
    7    40	 1 ;      CG2DC2       HGA4
    8     9	 1 ;       CG311      NG311
    8    67	 1 ;       CG311       HGA1
    9    11	 1 ;       NG311     CG2D1O
    9    10	 1 ;       NG311     HGPAM1
   11    27	 1 ;      CG2D1O      NG321
   12    13	 1 ;       CG321      CG311
   12    41	 1 ;       CG321       HGA2
   12    42	 1 ;       CG321       HGA2
   13    15	 1 ;       CG311      CG2O1
   13    14	 1 ;       CG311      CG331
   13    43	 1 ;       CG311       HGA1
   14    44	 1 ;       CG331       HGA3
   14    45	 1 ;       CG331       HGA3
   14    46	 1 ;       CG331       HGA3
   15    18	 1 ;       CG2O1      OG2D1
   15    16	 1 ;       CG2O1      NG2S1
   16    19	 1 ;       NG2S1      CG311
   16    17	 1 ;       NG2S1       HGP1
   19    20	 1 ;       CG311      CG321
   19    24	 1 ;       CG311      CG321
   19    47	 1 ;       CG311       HGA1
   20    21	 1 ;       CG321      CG321
   20    48	 1 ;       CG321       HGA2
   20    49	 1 ;       CG321       HGA2
   21    22	 1 ;       CG321     OG3C61
   21    50	 1 ;       CG321       HGA2
   21    51	 1 ;       CG321       HGA2
   22    23	 1 ;      OG3C61      CG301
   23    26	 1 ;       CG301      CG331
   23    25	 1 ;       CG301      CG331
   23    24	 1 ;       CG301      CG321
   24    52	 1 ;       CG321       HGA2
   24    53	 1 ;       CG321       HGA2
   25    54	 1 ;       CG331       HGA3
   25    55	 1 ;       CG331       HGA3
   25    56	 1 ;       CG331       HGA3
   26    57	 1 ;       CG331       HGA3
   26    58	 1 ;       CG331       HGA3
   26    59	 1 ;       CG331       HGA3
   27    28	 1 ;       NG321     HGPAM2
   27    29	 1 ;       NG321     HGPAM2
   30    31	 1 ;      CG2R61     CG2R61
   30    35	 1 ;      CG2R61     CG2R61
   31    32	 1 ;      CG2R61     CG2R61
   31    60	 1 ;      CG2R61      HGR61
   32    33	 1 ;      CG2R61     CG2R61
   32    61	 1 ;      CG2R61      HGR61
   33    34	 1 ;      CG2R61     CG2R61
   33    62	 1 ;      CG2R61      HGR61
   34    35	 1 ;      CG2R61     CG2R61
   34    63	 1 ;      CG2R61      HGR61
   35    36	 1 ;      CG2R61      CG331
   36    64	 1 ;       CG331       HGA3
   36    65	 1 ;       CG331       HGA3
   36    66	 1 ;       CG331       HGA3

[ pairs ]
;	ai	  aj funct			  c0			c1			  c2			c3
    1     8	 1
    1     4	 1
    1    10	 1
    1    28	 1
    1    29	 1
    1    15	 1
    1    14	 1
    1    43	 1
    2    13	 1
    2    41	 1
    2    42	 1
    2    27	 1
    2     9	 1
    2     7	 1
    2    67	 1
    2     5	 1
    2    38	 1
    3    12	 1
    3    11	 1
    3     6	 1
    3    30	 1
    3    40	 1
    3    10	 1
    4    37	 1
    4     9	 1
    4     7	 1
    4    67	 1
    4    39	 1
    4    31	 1
    4    35	 1
    5     8	 1
    5    40	 1
    5    32	 1
    5    60	 1
    5    36	 1
    5    34	 1
    6    38	 1
    6    31	 1
    6    35	 1
    6     9	 1
    6    67	 1
    7    30	 1
    7    11	 1
    7    10	 1
    8    37	 1
    8    38	 1
    8    39	 1
    8    27	 1
    9    12	 1
    9    40	 1
    9    28	 1
    9    29	 1
   10    67	 1
   10    27	 1
   11    13	 1
   11    41	 1
   11    42	 1
   11    37	 1
   11    67	 1
   12    27	 1
   12    37	 1
   12    18	 1
   12    16	 1
   12    44	 1
   12    45	 1
   12    46	 1
   13    19	 1
   13    17	 1
   14    41	 1
   14    42	 1
   14    18	 1
   14    16	 1
   15    41	 1
   15    42	 1
   15    44	 1
   15    45	 1
   15    46	 1
   15    20	 1
   15    24	 1
   15    47	 1
   16    43	 1
   16    21	 1
   16    48	 1
   16    49	 1
   16    23	 1
   16    52	 1
   16    53	 1
   17    18	 1
   17    20	 1
   17    24	 1
   17    47	 1
   18    43	 1
   18    19	 1
   19    22	 1
   19    50	 1
   19    51	 1
   19    26	 1
   19    25	 1
   20    23	 1
   20    52	 1
   20    53	 1
   21    24	 1
   21    47	 1
   21    26	 1
   21    25	 1
   22    48	 1
   22    49	 1
   22    57	 1
   22    58	 1
   22    59	 1
   22    54	 1
   22    55	 1
   22    56	 1
   22    52	 1
   22    53	 1
   23    47	 1
   23    50	 1
   23    51	 1
   24    48	 1
   24    49	 1
   24    57	 1
   24    58	 1
   24    59	 1
   24    54	 1
   24    55	 1
   24    56	 1
   25    57	 1
   25    58	 1
   25    59	 1
   25    52	 1
   25    53	 1
   26    54	 1
   26    55	 1
   26    56	 1
   26    52	 1
   26    53	 1
   30    38	 1
   30    39	 1
   30    33	 1
   30    61	 1
   30    63	 1
   30    64	 1
   30    65	 1
   30    66	 1
   31    36	 1
   31    34	 1
   31    62	 1
   32    35	 1
   32    63	 1
   33    60	 1
   33    36	 1
   34    61	 1
   34    64	 1
   34    65	 1
   34    66	 1
   35    60	 1
   35    62	 1
   36    63	 1
   39    40	 1
   40    67	 1
   41    43	 1
   42    43	 1
   43    44	 1
   43    45	 1
   43    46	 1
   47    48	 1
   47    49	 1
   47    52	 1
   47    53	 1
   48    50	 1
   48    51	 1
   49    50	 1
   49    51	 1
   60    61	 1
   61    62	 1
   62    63	 1

[ angles ]
;	ai	  aj	ak funct			c0			  c1			c2			  c3
   12     1    11	5 ;      CG321     CG2DC1     CG2D1O
   12     1     2	5 ;      CG321     CG2DC1     CG2DC2
   11     1     2	5 ;     CG2D1O     CG2DC1     CG2DC2
    1     2     3	5 ;     CG2DC1     CG2DC2     CG2DC2
    1     2    37	5 ;     CG2DC1     CG2DC2       HGA4
    3     2    37	5 ;     CG2DC2     CG2DC2       HGA4
    2     3     8	5 ;     CG2DC2     CG2DC2      CG311
    2     3     4	5 ;     CG2DC2     CG2DC2     CG2DC1
    8     3     4	5 ;      CG311     CG2DC2     CG2DC1
    3     4     5	5 ;     CG2DC2     CG2DC1     CG2DC1
    3     4    38	5 ;     CG2DC2     CG2DC1       HGA4
    5     4    38	5 ;     CG2DC1     CG2DC1       HGA4
    4     5     6	5 ;     CG2DC1     CG2DC1     CG2DC2
    4     5    30	5 ;     CG2DC1     CG2DC1     CG2R61
    6     5    30	5 ;     CG2DC2     CG2DC1     CG2R61
    7     6     5	5 ;     CG2DC2     CG2DC2     CG2DC1
    7     6    39	5 ;     CG2DC2     CG2DC2       HGA4
    5     6    39	5 ;     CG2DC1     CG2DC2       HGA4
    8     7     6	5 ;      CG311     CG2DC2     CG2DC2
    8     7    40	5 ;      CG311     CG2DC2       HGA4
    6     7    40	5 ;     CG2DC2     CG2DC2       HGA4
    9     8     3	5 ;      NG311      CG311     CG2DC2
    9     8     7	5 ;      NG311      CG311     CG2DC2
    9     8    67	5 ;      NG311      CG311       HGA1
    3     8     7	5 ;     CG2DC2      CG311     CG2DC2
    3     8    67	5 ;     CG2DC2      CG311       HGA1
    7     8    67	5 ;     CG2DC2      CG311       HGA1
   11     9    10	5 ;     CG2D1O      NG311     HGPAM1
   11     9     8	5 ;     CG2D1O      NG311      CG311
   10     9     8	5 ;     HGPAM1      NG311      CG311
   27    11     1	5 ;      NG321     CG2D1O     CG2DC1
   27    11     9	5 ;      NG321     CG2D1O      NG311
    1    11     9	5 ;     CG2DC1     CG2D1O      NG311
   13    12     1	5 ;      CG311      CG321     CG2DC1
   13    12    41	5 ;      CG311      CG321       HGA2
   13    12    42	5 ;      CG311      CG321       HGA2
    1    12    41	5 ;     CG2DC1      CG321       HGA2
    1    12    42	5 ;     CG2DC1      CG321       HGA2
   41    12    42	5 ;       HGA2      CG321       HGA2
   15    13    14	5 ;      CG2O1      CG311      CG331
   15    13    12	5 ;      CG2O1      CG311      CG321
   15    13    43	5 ;      CG2O1      CG311       HGA1
   14    13    12	5 ;      CG331      CG311      CG321
   14    13    43	5 ;      CG331      CG311       HGA1
   12    13    43	5 ;      CG321      CG311       HGA1
   13    14    44	5 ;      CG311      CG331       HGA3
   13    14    45	5 ;      CG311      CG331       HGA3
   13    14    46	5 ;      CG311      CG331       HGA3
   44    14    45	5 ;       HGA3      CG331       HGA3
   44    14    46	5 ;       HGA3      CG331       HGA3
   45    14    46	5 ;       HGA3      CG331       HGA3
   18    15    16	5 ;      OG2D1      CG2O1      NG2S1
   18    15    13	5 ;      OG2D1      CG2O1      CG311
   16    15    13	5 ;      NG2S1      CG2O1      CG311
   19    16    15	5 ;      CG311      NG2S1      CG2O1
   19    16    17	5 ;      CG311      NG2S1       HGP1
   15    16    17	5 ;      CG2O1      NG2S1       HGP1
   20    19    24	5 ;      CG321      CG311      CG321
   20    19    16	5 ;      CG321      CG311      NG2S1
   20    19    47	5 ;      CG321      CG311       HGA1
   24    19    16	5 ;      CG321      CG311      NG2S1
   24    19    47	5 ;      CG321      CG311       HGA1
   16    19    47	5 ;      NG2S1      CG311       HGA1
   21    20    19	5 ;      CG321      CG321      CG311
   21    20    48	5 ;      CG321      CG321       HGA2
   21    20    49	5 ;      CG321      CG321       HGA2
   19    20    48	5 ;      CG311      CG321       HGA2
   19    20    49	5 ;      CG311      CG321       HGA2
   48    20    49	5 ;       HGA2      CG321       HGA2
   22    21    20	5 ;     OG3C61      CG321      CG321
   22    21    50	5 ;     OG3C61      CG321       HGA2
   22    21    51	5 ;     OG3C61      CG321       HGA2
   20    21    50	5 ;      CG321      CG321       HGA2
   20    21    51	5 ;      CG321      CG321       HGA2
   50    21    51	5 ;       HGA2      CG321       HGA2
   21    22    23	5 ;      CG321     OG3C61      CG301
   22    23    26	5 ;     OG3C61      CG301      CG331
   22    23    25	5 ;     OG3C61      CG301      CG331
   22    23    24	5 ;     OG3C61      CG301      CG321
   26    23    25	5 ;      CG331      CG301      CG331
   26    23    24	5 ;      CG331      CG301      CG321
   25    23    24	5 ;      CG331      CG301      CG321
   23    24    19	5 ;      CG301      CG321      CG311
   23    24    52	5 ;      CG301      CG321       HGA2
   23    24    53	5 ;      CG301      CG321       HGA2
   19    24    52	5 ;      CG311      CG321       HGA2
   19    24    53	5 ;      CG311      CG321       HGA2
   52    24    53	5 ;       HGA2      CG321       HGA2
   23    25    54	5 ;      CG301      CG331       HGA3
   23    25    55	5 ;      CG301      CG331       HGA3
   23    25    56	5 ;      CG301      CG331       HGA3
   54    25    55	5 ;       HGA3      CG331       HGA3
   54    25    56	5 ;       HGA3      CG331       HGA3
   55    25    56	5 ;       HGA3      CG331       HGA3
   23    26    57	5 ;      CG301      CG331       HGA3
   23    26    58	5 ;      CG301      CG331       HGA3
   23    26    59	5 ;      CG301      CG331       HGA3
   57    26    58	5 ;       HGA3      CG331       HGA3
   57    26    59	5 ;       HGA3      CG331       HGA3
   58    26    59	5 ;       HGA3      CG331       HGA3
   28    27    29	5 ;     HGPAM2      NG321     HGPAM2
   28    27    11	5 ;     HGPAM2      NG321     CG2D1O
   29    27    11	5 ;     HGPAM2      NG321     CG2D1O
    5    30    31	5 ;     CG2DC1     CG2R61     CG2R61
    5    30    35	5 ;     CG2DC1     CG2R61     CG2R61
   31    30    35	5 ;     CG2R61     CG2R61     CG2R61
   30    31    32	5 ;     CG2R61     CG2R61     CG2R61
   30    31    60	5 ;     CG2R61     CG2R61      HGR61
   32    31    60	5 ;     CG2R61     CG2R61      HGR61
   31    32    33	5 ;     CG2R61     CG2R61     CG2R61
   31    32    61	5 ;     CG2R61     CG2R61      HGR61
   33    32    61	5 ;     CG2R61     CG2R61      HGR61
   32    33    34	5 ;     CG2R61     CG2R61     CG2R61
   32    33    62	5 ;     CG2R61     CG2R61      HGR61
   34    33    62	5 ;     CG2R61     CG2R61      HGR61
   35    34    33	5 ;     CG2R61     CG2R61     CG2R61
   35    34    63	5 ;     CG2R61     CG2R61      HGR61
   33    34    63	5 ;     CG2R61     CG2R61      HGR61
   30    35    36	5 ;     CG2R61     CG2R61      CG331
   30    35    34	5 ;     CG2R61     CG2R61     CG2R61
   36    35    34	5 ;      CG331     CG2R61     CG2R61
   35    36    64	5 ;     CG2R61      CG331       HGA3
   35    36    65	5 ;     CG2R61      CG331       HGA3
   35    36    66	5 ;     CG2R61      CG331       HGA3
   64    36    65	5 ;       HGA3      CG331       HGA3
   64    36    66	5 ;       HGA3      CG331       HGA3
   65    36    66	5 ;       HGA3      CG331       HGA3

[ dihedrals ]
;	ai	  aj	ak	  al funct			  c0			c1			  c2			c3			  c4			c5
   11     1    12    13	 9 ;     CG2D1O     CG2DC1      CG321      CG311
   11     1    12    41	 9 ;     CG2D1O     CG2DC1      CG321       HGA2
   11     1    12    42	 9 ;     CG2D1O     CG2DC1      CG321       HGA2
    2     1    12    13	 9 ;     CG2DC2     CG2DC1      CG321      CG311
    2     1    12    41	 9 ;     CG2DC2     CG2DC1      CG321       HGA2
    2     1    12    42	 9 ;     CG2DC2     CG2DC1      CG321       HGA2
   12     1    11    27	 9 ;      CG321     CG2DC1     CG2D1O      NG321
   12     1    11     9	 9 ;      CG321     CG2DC1     CG2D1O      NG311
    2     1    11    27	 9 ;     CG2DC2     CG2DC1     CG2D1O      NG321
    2     1    11     9	 9 ;     CG2DC2     CG2DC1     CG2D1O      NG311
   12     1     2     3	 9 ;      CG321     CG2DC1     CG2DC2     CG2DC2
   12     1     2    37	 9 ;      CG321     CG2DC1     CG2DC2       HGA4
   11     1     2     3	 9 ;     CG2D1O     CG2DC1     CG2DC2     CG2DC2
   11     1     2    37	 9 ;     CG2D1O     CG2DC1     CG2DC2       HGA4
    1     2     3     8	 9 ;     CG2DC1     CG2DC2     CG2DC2      CG311
    1     2     3     4	 9 ;     CG2DC1     CG2DC2     CG2DC2     CG2DC1
   37     2     3     8	 9 ;       HGA4     CG2DC2     CG2DC2      CG311
   37     2     3     4	 9 ;       HGA4     CG2DC2     CG2DC2     CG2DC1
    2     3     8     9	 9 ;     CG2DC2     CG2DC2      CG311      NG311
    2     3     8     7	 9 ;     CG2DC2     CG2DC2      CG311     CG2DC2
    2     3     8    67	 9 ;     CG2DC2     CG2DC2      CG311       HGA1
    4     3     8     9	 9 ;     CG2DC1     CG2DC2      CG311      NG311
    4     3     8     7	 9 ;     CG2DC1     CG2DC2      CG311     CG2DC2
    4     3     8    67	 9 ;     CG2DC1     CG2DC2      CG311       HGA1
    2     3     4     5	 9 ;     CG2DC2     CG2DC2     CG2DC1     CG2DC1
    2     3     4    38	 9 ;     CG2DC2     CG2DC2     CG2DC1       HGA4
    8     3     4     5	 9 ;      CG311     CG2DC2     CG2DC1     CG2DC1
    8     3     4    38	 9 ;      CG311     CG2DC2     CG2DC1       HGA4
    3     4     5     6	 9 ;     CG2DC2     CG2DC1     CG2DC1     CG2DC2
    3     4     5    30	 9 ;     CG2DC2     CG2DC1     CG2DC1     CG2R61
   38     4     5     6	 9 ;       HGA4     CG2DC1     CG2DC1     CG2DC2
   38     4     5    30	 9 ;       HGA4     CG2DC1     CG2DC1     CG2R61
    4     5     6     7	 9 ;     CG2DC1     CG2DC1     CG2DC2     CG2DC2
    4     5     6    39	 9 ;     CG2DC1     CG2DC1     CG2DC2       HGA4
   30     5     6     7	 9 ;     CG2R61     CG2DC1     CG2DC2     CG2DC2
   30     5     6    39	 9 ;     CG2R61     CG2DC1     CG2DC2       HGA4
    4     5    30    31	 9 ;     CG2DC1     CG2DC1     CG2R61     CG2R61
    4     5    30    35	 9 ;     CG2DC1     CG2DC1     CG2R61     CG2R61
    6     5    30    31	 9 ;     CG2DC2     CG2DC1     CG2R61     CG2R61
    6     5    30    35	 9 ;     CG2DC2     CG2DC1     CG2R61     CG2R61
    5     6     7     8	 9 ;     CG2DC1     CG2DC2     CG2DC2      CG311
    5     6     7    40	 9 ;     CG2DC1     CG2DC2     CG2DC2       HGA4
   39     6     7     8	 9 ;       HGA4     CG2DC2     CG2DC2      CG311
   39     6     7    40	 9 ;       HGA4     CG2DC2     CG2DC2       HGA4
    6     7     8     9	 9 ;     CG2DC2     CG2DC2      CG311      NG311
    6     7     8     3	 9 ;     CG2DC2     CG2DC2      CG311     CG2DC2
    6     7     8    67	 9 ;     CG2DC2     CG2DC2      CG311       HGA1
   40     7     8     9	 9 ;       HGA4     CG2DC2      CG311      NG311
   40     7     8     3	 9 ;       HGA4     CG2DC2      CG311     CG2DC2
   40     7     8    67	 9 ;       HGA4     CG2DC2      CG311       HGA1
    3     8     9    11	 9 ;     CG2DC2      CG311      NG311     CG2D1O
    3     8     9    10	 9 ;     CG2DC2      CG311      NG311     HGPAM1
    7     8     9    11	 9 ;     CG2DC2      CG311      NG311     CG2D1O
    7     8     9    10	 9 ;     CG2DC2      CG311      NG311     HGPAM1
   67     8     9    11	 9 ;       HGA1      CG311      NG311     CG2D1O
   67     8     9    10	 9 ;       HGA1      CG311      NG311     HGPAM1
   10     9    11    27	 9 ;     HGPAM1      NG311     CG2D1O      NG321
   10     9    11     1	 9 ;     HGPAM1      NG311     CG2D1O     CG2DC1
    8     9    11    27	 9 ;      CG311      NG311     CG2D1O      NG321
    8     9    11     1	 9 ;      CG311      NG311     CG2D1O     CG2DC1
    1    11    27    28	 9 ;     CG2DC1     CG2D1O      NG321     HGPAM2
    1    11    27    29	 9 ;     CG2DC1     CG2D1O      NG321     HGPAM2
    9    11    27    28	 9 ;      NG311     CG2D1O      NG321     HGPAM2
    9    11    27    29	 9 ;      NG311     CG2D1O      NG321     HGPAM2
    1    12    13    15	 9 ;     CG2DC1      CG321      CG311      CG2O1
    1    12    13    14	 9 ;     CG2DC1      CG321      CG311      CG331
    1    12    13    43	 9 ;     CG2DC1      CG321      CG311       HGA1
   41    12    13    15	 9 ;       HGA2      CG321      CG311      CG2O1
   41    12    13    14	 9 ;       HGA2      CG321      CG311      CG331
   41    12    13    43	 9 ;       HGA2      CG321      CG311       HGA1
   42    12    13    15	 9 ;       HGA2      CG321      CG311      CG2O1
   42    12    13    14	 9 ;       HGA2      CG321      CG311      CG331
   42    12    13    43	 9 ;       HGA2      CG321      CG311       HGA1
   14    13    15    18	 9 ;      CG331      CG311      CG2O1      OG2D1
   14    13    15    16	 9 ;      CG331      CG311      CG2O1      NG2S1
   12    13    15    18	 9 ;      CG321      CG311      CG2O1      OG2D1
   12    13    15    16	 9 ;      CG321      CG311      CG2O1      NG2S1
   43    13    15    18	 9 ;       HGA1      CG311      CG2O1      OG2D1
   43    13    15    16	 9 ;       HGA1      CG311      CG2O1      NG2S1
   15    13    14    44	 9 ;      CG2O1      CG311      CG331       HGA3
   15    13    14    45	 9 ;      CG2O1      CG311      CG331       HGA3
   15    13    14    46	 9 ;      CG2O1      CG311      CG331       HGA3
   12    13    14    44	 9 ;      CG321      CG311      CG331       HGA3
   12    13    14    45	 9 ;      CG321      CG311      CG331       HGA3
   12    13    14    46	 9 ;      CG321      CG311      CG331       HGA3
   43    13    14    44	 9 ;       HGA1      CG311      CG331       HGA3
   43    13    14    45	 9 ;       HGA1      CG311      CG331       HGA3
   43    13    14    46	 9 ;       HGA1      CG311      CG331       HGA3
   18    15    16    19	 9 ;      OG2D1      CG2O1      NG2S1      CG311
   18    15    16    17	 9 ;      OG2D1      CG2O1      NG2S1       HGP1
   13    15    16    19	 9 ;      CG311      CG2O1      NG2S1      CG311
   13    15    16    17	 9 ;      CG311      CG2O1      NG2S1       HGP1
   15    16    19    20	 9 ;      CG2O1      NG2S1      CG311      CG321
   15    16    19    24	 9 ;      CG2O1      NG2S1      CG311      CG321
   15    16    19    47	 9 ;      CG2O1      NG2S1      CG311       HGA1
   17    16    19    20	 9 ;       HGP1      NG2S1      CG311      CG321
   17    16    19    24	 9 ;       HGP1      NG2S1      CG311      CG321
   17    16    19    47	 9 ;       HGP1      NG2S1      CG311       HGA1
   24    19    20    21	 9 ;      CG321      CG311      CG321      CG321
   24    19    20    48	 9 ;      CG321      CG311      CG321       HGA2
   24    19    20    49	 9 ;      CG321      CG311      CG321       HGA2
   16    19    20    21	 9 ;      NG2S1      CG311      CG321      CG321
   16    19    20    48	 9 ;      NG2S1      CG311      CG321       HGA2
   16    19    20    49	 9 ;      NG2S1      CG311      CG321       HGA2
   47    19    20    21	 9 ;       HGA1      CG311      CG321      CG321
   47    19    20    48	 9 ;       HGA1      CG311      CG321       HGA2
   47    19    20    49	 9 ;       HGA1      CG311      CG321       HGA2
   20    19    24    23	 9 ;      CG321      CG311      CG321      CG301
   20    19    24    52	 9 ;      CG321      CG311      CG321       HGA2
   20    19    24    53	 9 ;      CG321      CG311      CG321       HGA2
   16    19    24    23	 9 ;      NG2S1      CG311      CG321      CG301
   16    19    24    52	 9 ;      NG2S1      CG311      CG321       HGA2
   16    19    24    53	 9 ;      NG2S1      CG311      CG321       HGA2
   47    19    24    23	 9 ;       HGA1      CG311      CG321      CG301
   47    19    24    52	 9 ;       HGA1      CG311      CG321       HGA2
   47    19    24    53	 9 ;       HGA1      CG311      CG321       HGA2
   19    20    21    22	 9 ;      CG311      CG321      CG321     OG3C61
   19    20    21    50	 9 ;      CG311      CG321      CG321       HGA2
   19    20    21    51	 9 ;      CG311      CG321      CG321       HGA2
   48    20    21    22	 9 ;       HGA2      CG321      CG321     OG3C61
   48    20    21    50	 9 ;       HGA2      CG321      CG321       HGA2
   48    20    21    51	 9 ;       HGA2      CG321      CG321       HGA2
   49    20    21    22	 9 ;       HGA2      CG321      CG321     OG3C61
   49    20    21    50	 9 ;       HGA2      CG321      CG321       HGA2
   49    20    21    51	 9 ;       HGA2      CG321      CG321       HGA2
   20    21    22    23	 9 ;      CG321      CG321     OG3C61      CG301
   50    21    22    23	 9 ;       HGA2      CG321     OG3C61      CG301
   51    21    22    23	 9 ;       HGA2      CG321     OG3C61      CG301
   21    22    23    26	 9 ;      CG321     OG3C61      CG301      CG331
   21    22    23    25	 9 ;      CG321     OG3C61      CG301      CG331
   21    22    23    24	 9 ;      CG321     OG3C61      CG301      CG321
   22    23    26    57	 9 ;     OG3C61      CG301      CG331       HGA3
   22    23    26    58	 9 ;     OG3C61      CG301      CG331       HGA3
   22    23    26    59	 9 ;     OG3C61      CG301      CG331       HGA3
   25    23    26    57	 9 ;      CG331      CG301      CG331       HGA3
   25    23    26    58	 9 ;      CG331      CG301      CG331       HGA3
   25    23    26    59	 9 ;      CG331      CG301      CG331       HGA3
   24    23    26    57	 9 ;      CG321      CG301      CG331       HGA3
   24    23    26    58	 9 ;      CG321      CG301      CG331       HGA3
   24    23    26    59	 9 ;      CG321      CG301      CG331       HGA3
   22    23    25    54	 9 ;     OG3C61      CG301      CG331       HGA3
   22    23    25    55	 9 ;     OG3C61      CG301      CG331       HGA3
   22    23    25    56	 9 ;     OG3C61      CG301      CG331       HGA3
   26    23    25    54	 9 ;      CG331      CG301      CG331       HGA3
   26    23    25    55	 9 ;      CG331      CG301      CG331       HGA3
   26    23    25    56	 9 ;      CG331      CG301      CG331       HGA3
   24    23    25    54	 9 ;      CG321      CG301      CG331       HGA3
   24    23    25    55	 9 ;      CG321      CG301      CG331       HGA3
   24    23    25    56	 9 ;      CG321      CG301      CG331       HGA3
   22    23    24    19	 9 ;     OG3C61      CG301      CG321      CG311
   22    23    24    52	 9 ;     OG3C61      CG301      CG321       HGA2
   22    23    24    53	 9 ;     OG3C61      CG301      CG321       HGA2
   26    23    24    19	 9 ;      CG331      CG301      CG321      CG311
   26    23    24    52	 9 ;      CG331      CG301      CG321       HGA2
   26    23    24    53	 9 ;      CG331      CG301      CG321       HGA2
   25    23    24    19	 9 ;      CG331      CG301      CG321      CG311
   25    23    24    52	 9 ;      CG331      CG301      CG321       HGA2
   25    23    24    53	 9 ;      CG331      CG301      CG321       HGA2
    5    30    31    32	 9 ;     CG2DC1     CG2R61     CG2R61     CG2R61
    5    30    31    60	 9 ;     CG2DC1     CG2R61     CG2R61      HGR61
   35    30    31    32	 9 ;     CG2R61     CG2R61     CG2R61     CG2R61
   35    30    31    60	 9 ;     CG2R61     CG2R61     CG2R61      HGR61
    5    30    35    36	 9 ;     CG2DC1     CG2R61     CG2R61      CG331
    5    30    35    34	 9 ;     CG2DC1     CG2R61     CG2R61     CG2R61
   31    30    35    36	 9 ;     CG2R61     CG2R61     CG2R61      CG331
   31    30    35    34	 9 ;     CG2R61     CG2R61     CG2R61     CG2R61
   30    31    32    33	 9 ;     CG2R61     CG2R61     CG2R61     CG2R61
   30    31    32    61	 9 ;     CG2R61     CG2R61     CG2R61      HGR61
   60    31    32    33	 9 ;      HGR61     CG2R61     CG2R61     CG2R61
   60    31    32    61	 9 ;      HGR61     CG2R61     CG2R61      HGR61
   31    32    33    34	 9 ;     CG2R61     CG2R61     CG2R61     CG2R61
   31    32    33    62	 9 ;     CG2R61     CG2R61     CG2R61      HGR61
   61    32    33    34	 9 ;      HGR61     CG2R61     CG2R61     CG2R61
   61    32    33    62	 9 ;      HGR61     CG2R61     CG2R61      HGR61
   32    33    34    35	 9 ;     CG2R61     CG2R61     CG2R61     CG2R61
   32    33    34    63	 9 ;     CG2R61     CG2R61     CG2R61      HGR61
   62    33    34    35	 9 ;      HGR61     CG2R61     CG2R61     CG2R61
   62    33    34    63	 9 ;      HGR61     CG2R61     CG2R61      HGR61
   33    34    35    30	 9 ;     CG2R61     CG2R61     CG2R61     CG2R61
   33    34    35    36	 9 ;     CG2R61     CG2R61     CG2R61      CG331
   63    34    35    30	 9 ;      HGR61     CG2R61     CG2R61     CG2R61
   63    34    35    36	 9 ;      HGR61     CG2R61     CG2R61      CG331
   30    35    36    64	 9 ;     CG2R61     CG2R61      CG331       HGA3
   30    35    36    65	 9 ;     CG2R61     CG2R61      CG331       HGA3
   30    35    36    66	 9 ;     CG2R61     CG2R61      CG331       HGA3
   34    35    36    64	 9 ;     CG2R61     CG2R61      CG331       HGA3
   34    35    36    65	 9 ;     CG2R61     CG2R61      CG331       HGA3
   34    35    36    66	 9 ;     CG2R61     CG2R61      CG331       HGA3

[ dihedrals ]
;	ai	  aj	ak	  al funct			  c0			c1			  c2			c3
   11     1     9    27	 2
   15    13    16    18	 2

