God Rules Over Mankind, Animals, Cosmos and Such
   80
    1LIG     N1    1  -1.290   0.488  -1.532
    1LIG     H1    2  -1.353   0.537  -1.466
    1LIG     H2    3  -1.328   0.514  -1.624
    1LIG     C1    4  -1.156   0.557  -1.514
    1LIG     C2    5  -1.182   0.708  -1.540
    1LIG     O1    6  -1.132   0.776  -1.423
    1LIG     H3    7  -1.145   0.872  -1.433
    1LIG     C3    8  -1.123   0.759  -1.674
    1LIG     N2    9  -0.990   0.701  -1.696
    1LIG     C4   10  -0.876   0.755  -1.642
    1LIG     O2   11  -0.877   0.851  -1.566
    1LIG     C5   12  -0.751   0.678  -1.676
    1LIG     H4   13  -0.979   0.629  -1.767
    1LIG     C6   14  -1.215   0.730  -1.797
    1LIG     C7   15  -1.362   0.754  -1.772
    1LIG     C8   16  -1.456   0.652  -1.788
    1LIG     C9   17  -1.593   0.679  -1.776
    1LIG     F1   18  -1.681   0.580  -1.799
    1LIG    C10   19  -1.638   0.806  -1.746
    1LIG    C11   20  -1.545   0.906  -1.724
    1LIG    C12   21  -1.408   0.882  -1.736
    1LIG     F2   22  -1.587   1.030  -1.695
    1LIG    C13   23  -1.310   0.338  -1.518
    1LIG    C14   24  -1.299   0.299  -1.368
    1LIG    C15   25  -1.306   0.147  -1.351
    1LIG    C16   26  -1.192   0.075  -1.424
    1LIG    C17   27  -1.189   0.115  -1.573
    1LIG    C18   28  -1.195   0.267  -1.595
    1LIG    C19   29  -1.054   0.097  -1.360
    1LIG    C20   30  -0.987  -0.031  -1.312
    1LIG     O3   31  -1.086  -0.118  -1.260
    1LIG     H5   32  -1.173  -0.086  -1.290
    1LIG    C21   33  -1.452   0.309  -1.572
    1LIG    C22   34  -1.564   0.370  -1.510
    1LIG    C23   35  -1.696   0.355  -1.557
    1LIG    C24   36  -1.716   0.268  -1.665
    1LIG    C25   37  -1.608   0.206  -1.728
    1LIG    C26   38  -1.478   0.229  -1.684
    1LIG    C27   39  -1.813   0.438  -1.502
    1LIG    C28   40  -1.779   0.588  -1.481
    1LIG    C29   41  -1.928   0.432  -1.606
    1LIG    C30   42  -1.864   0.384  -1.367
    1LIG    HC2   43  -1.120   0.542  -1.412
    1LIG    HC3   44  -1.084   0.519  -1.586
    1LIG     HC   45  -1.290   0.723  -1.543
    1LIG    HC1   46  -1.112   0.867  -1.666
    1LIG    HC4   47  -0.665   0.726  -1.631
    1LIG    HC5   48  -0.738   0.675  -1.785
    1LIG    HC6   49  -0.760   0.576  -1.638
    1LIG    HC7   50  -1.183   0.795  -1.879
    1LIG    HC8   51  -1.201   0.626  -1.827
    1LIG    HC9   52  -1.423   0.551  -1.810
    1LIG   HC10   53  -1.744   0.826  -1.739
    1LIG   HC11   54  -1.338   0.961  -1.718
    1LIG   HC12   55  -1.381   0.345  -1.314
    1LIG   HC13   56  -1.204   0.336  -1.329
    1LIG   HC14   57  -1.300   0.124  -1.245
    1LIG   HC15   58  -1.401   0.112  -1.390
    1LIG   HC16   59  -1.213  -0.032  -1.420
    1LIG   HC17   60  -1.097   0.078  -1.617
    1LIG   HC18   61  -1.274   0.069  -1.623
    1LIG   HC19   62  -1.209   0.286  -1.702
    1LIG   HC20   63  -1.100   0.311  -1.565
    1LIG   HC21   64  -1.066   0.163  -1.274
    1LIG   HC22   65  -0.989   0.146  -1.433
    1LIG   HC23   66  -0.914  -0.008  -1.235
    1LIG   HC24   67  -0.936  -0.080  -1.396
    1LIG   HC25   68  -1.547   0.432  -1.423
    1LIG   HC26   69  -1.816   0.249  -1.700
    1LIG   HC27   70  -1.626   0.139  -1.811
    1LIG   HC28   71  -1.395   0.184  -1.737
    1LIG   HC29   72  -1.742   0.630  -1.574
    1LIG   HC30   73  -1.702   0.597  -1.405
    1LIG   HC31   74  -1.868   0.641  -1.449
    1LIG   HC32   75  -2.008   0.499  -1.576
    1LIG   HC33   76  -1.890   0.462  -1.704
    1LIG   HC34   77  -1.966   0.330  -1.611
    1LIG   HC35   78  -1.890   0.279  -1.377
    1LIG   HC36   79  -1.786   0.395  -1.292
    1LIG   HC37   80  -1.953   0.440  -1.336
   0.00000   0.00000   0.00000
