; Created by cgenff_charmm2gmx.py

[ moleculetype ]
; Name			   nrexcl
LIG				 3

[ atoms ]
;	 nr		  type	resnr residue  atom   cgnr	   charge		mass  typeB    chargeB		massB
; residue	 1 LIG rtp LIG q	qsum
     1      NG3P2      1    LIG     N1      1     -0.450     14.007   ;
     2       HGP2      1    LIG     H1      2      0.341      1.008   ;
     3       HGP2      1    LIG     H2      3      0.341      1.008   ;
     4      CG324      1    LIG     C1      4      0.208     12.011   ;
     5      CG311      1    LIG     C2      5      0.089     12.011   ;
     6      OG311      1    LIG     O1      6     -0.625     15.999   ;
     7       HGP1      1    LIG     H3      7      0.415      1.008   ;
     8      CG311      1    LIG     C3      8     -0.007     12.011   ;
     9      NG2S1      1    LIG     N2      9     -0.339     14.007   ;
    10      CG2O1      1    LIG     C4     10      0.488     12.011   ;
    11      OG2D1      1    LIG     O2     11     -0.509     15.999   ;
    12      CG331      1    LIG     C5     12     -0.270     12.011   ;
    13       HGP1      1    LIG     H4     13      0.261      1.008   ;
    14      CG321      1    LIG     C6     14     -0.153     12.011   ;
    15     CG2R61      1    LIG     C7     15      0.057     12.011   ;
    16     CG2R61      1    LIG     C8     16     -0.218     12.011   ;
    17     CG2R66      1    LIG     C9     17      0.261     12.011   ;
    18       FGR1      1    LIG     F1     18     -0.210     18.998   ;
    19     CG2R61      1    LIG    C10     19     -0.240     12.011   ;
    20     CG2R66      1    LIG    C11     20      0.261     12.011   ;
    21     CG2R61      1    LIG    C12     21     -0.218     12.011   ;
    22       FGR1      1    LIG     F2     22     -0.210     18.998   ;
    23      CG301      1    LIG    C13     23      0.289     12.011   ;
    24      CG321      1    LIG    C14     24     -0.149     12.011   ;
    25      CG321      1    LIG    C15     25     -0.208     12.011   ;
    26      CG311      1    LIG    C16     26     -0.047     12.011   ;
    27      CG321      1    LIG    C17     27     -0.208     12.011   ;
    28      CG321      1    LIG    C18     28     -0.149     12.011   ;
    29      CG321      1    LIG    C19     29     -0.198     12.011   ;
    30      CG321      1    LIG    C20     30      0.052     12.011   ;
    31      OG311      1    LIG     O3     31     -0.648     15.999   ;
    32       HGP1      1    LIG     H5     32      0.417      1.008   ;
    33     CG2R61      1    LIG    C21     33      0.085     12.011   ;
    34     CG2R61      1    LIG    C22     34     -0.134     12.011   ;
    35     CG2R61      1    LIG    C23     35      0.082     12.011   ;
    36     CG2R61      1    LIG    C24     36     -0.121     12.011   ;
    37     CG2R61      1    LIG    C25     37     -0.110     12.011   ;
    38     CG2R61      1    LIG    C26     38     -0.129     12.011   ;
    39      CG301      1    LIG    C27     39     -0.018     12.011   ;
    40      CG331      1    LIG    C28     40     -0.289     12.011   ;
    41      CG331      1    LIG    C29     41     -0.289     12.011   ;
    42      CG331      1    LIG    C30     42     -0.289     12.011   ;
    43       HGA2      1    LIG    HC2     43      0.090      1.008   ;
    44       HGA2      1    LIG    HC3     44      0.090      1.008   ;
    45       HGA1      1    LIG     HC     45      0.090      1.008   ;
    46       HGA1      1    LIG    HC1     46      0.090      1.008   ;
    47       HGA3      1    LIG    HC4     47      0.090      1.008   ;
    48       HGA3      1    LIG    HC5     48      0.090      1.008   ;
    49       HGA3      1    LIG    HC6     49      0.090      1.008   ;
    50       HGA2      1    LIG    HC7     50      0.090      1.008   ;
    51       HGA2      1    LIG    HC8     51      0.090      1.008   ;
    52      HGR62      1    LIG    HC9     52      0.174      1.008   ;
    53      HGR62      1    LIG   HC10     53      0.186      1.008   ;
    54      HGR62      1    LIG   HC11     54      0.174      1.008   ;
    55       HGA2      1    LIG   HC12     55      0.090      1.008   ;
    56       HGA2      1    LIG   HC13     56      0.090      1.008   ;
    57       HGA2      1    LIG   HC14     57      0.090      1.008   ;
    58       HGA2      1    LIG   HC15     58      0.090      1.008   ;
    59       HGA1      1    LIG   HC16     59      0.090      1.008   ;
    60       HGA2      1    LIG   HC17     60      0.090      1.008   ;
    61       HGA2      1    LIG   HC18     61      0.090      1.008   ;
    62       HGA2      1    LIG   HC19     62      0.090      1.008   ;
    63       HGA2      1    LIG   HC20     63      0.090      1.008   ;
    64       HGA2      1    LIG   HC21     64      0.090      1.008   ;
    65       HGA2      1    LIG   HC22     65      0.090      1.008   ;
    66       HGA2      1    LIG   HC23     66      0.090      1.008   ;
    67       HGA2      1    LIG   HC24     67      0.090      1.008   ;
    68      HGR61      1    LIG   HC25     68      0.116      1.008   ;
    69      HGR61      1    LIG   HC26     69      0.116      1.008   ;
    70      HGR61      1    LIG   HC27     70      0.116      1.008   ;
    71      HGR61      1    LIG   HC28     71      0.116      1.008   ;
    72       HGA3      1    LIG   HC29     72      0.090      1.008   ;
    73       HGA3      1    LIG   HC30     73      0.090      1.008   ;
    74       HGA3      1    LIG   HC31     74      0.090      1.008   ;
    75       HGA3      1    LIG   HC32     75      0.090      1.008   ;
    76       HGA3      1    LIG   HC33     76      0.090      1.008   ;
    77       HGA3      1    LIG   HC34     77      0.090      1.008   ;
    78       HGA3      1    LIG   HC35     78      0.090      1.008   ;
    79       HGA3      1    LIG   HC36     79      0.090      1.008   ;
    80       HGA3      1    LIG   HC37     80      0.090      1.008   ;

[ bonds ]
;	ai	  aj funct			  c0			c1			  c2			c3
    1     4	 1 ;       NG3P2      CG324
    1     3	 1 ;       NG3P2       HGP2
    1    23	 1 ;       NG3P2      CG301
    1     2	 1 ;       NG3P2       HGP2
    4     5	 1 ;       CG324      CG311
    4    43	 1 ;       CG324       HGA2
    4    44	 1 ;       CG324       HGA2
    5     8	 1 ;       CG311      CG311
    5     6	 1 ;       CG311      OG311
    5    45	 1 ;       CG311       HGA1
    6     7	 1 ;       OG311       HGP1
    8     9	 1 ;       CG311      NG2S1
    8    14	 1 ;       CG311      CG321
    8    46	 1 ;       CG311       HGA1
    9    10	 1 ;       NG2S1      CG2O1
    9    13	 1 ;       NG2S1       HGP1
   10    12	 1 ;       CG2O1      CG331
   10    11	 1 ;       CG2O1      OG2D1
   12    47	 1 ;       CG331       HGA3
   12    48	 1 ;       CG331       HGA3
   12    49	 1 ;       CG331       HGA3
   14    15	 1 ;       CG321     CG2R61
   14    50	 1 ;       CG321       HGA2
   14    51	 1 ;       CG321       HGA2
   15    21	 1 ;      CG2R61     CG2R61
   15    16	 1 ;      CG2R61     CG2R61
   16    17	 1 ;      CG2R61     CG2R66
   16    52	 1 ;      CG2R61      HGR62
   17    19	 1 ;      CG2R66     CG2R61
   17    18	 1 ;      CG2R66       FGR1
   19    20	 1 ;      CG2R61     CG2R66
   19    53	 1 ;      CG2R61      HGR62
   20    21	 1 ;      CG2R66     CG2R61
   20    22	 1 ;      CG2R66       FGR1
   21    54	 1 ;      CG2R61      HGR62
   23    28	 1 ;       CG301      CG321
   23    24	 1 ;       CG301      CG321
   23    33	 1 ;       CG301     CG2R61
   24    25	 1 ;       CG321      CG321
   24    55	 1 ;       CG321       HGA2
   24    56	 1 ;       CG321       HGA2
   25    26	 1 ;       CG321      CG311
   25    57	 1 ;       CG321       HGA2
   25    58	 1 ;       CG321       HGA2
   26    27	 1 ;       CG311      CG321
   26    29	 1 ;       CG311      CG321
   26    59	 1 ;       CG311       HGA1
   27    28	 1 ;       CG321      CG321
   27    60	 1 ;       CG321       HGA2
   27    61	 1 ;       CG321       HGA2
   28    62	 1 ;       CG321       HGA2
   28    63	 1 ;       CG321       HGA2
   29    30	 1 ;       CG321      CG321
   29    64	 1 ;       CG321       HGA2
   29    65	 1 ;       CG321       HGA2
   30    31	 1 ;       CG321      OG311
   30    66	 1 ;       CG321       HGA2
   30    67	 1 ;       CG321       HGA2
   31    32	 1 ;       OG311       HGP1
   33    38	 1 ;      CG2R61     CG2R61
   33    34	 1 ;      CG2R61     CG2R61
   34    35	 1 ;      CG2R61     CG2R61
   34    68	 1 ;      CG2R61      HGR61
   35    36	 1 ;      CG2R61     CG2R61
   35    39	 1 ;      CG2R61      CG301
   36    37	 1 ;      CG2R61     CG2R61
   36    69	 1 ;      CG2R61      HGR61
   37    38	 1 ;      CG2R61     CG2R61
   37    70	 1 ;      CG2R61      HGR61
   38    71	 1 ;      CG2R61      HGR61
   39    40	 1 ;       CG301      CG331
   39    41	 1 ;       CG301      CG331
   39    42	 1 ;       CG301      CG331
   40    72	 1 ;       CG331       HGA3
   40    73	 1 ;       CG331       HGA3
   40    74	 1 ;       CG331       HGA3
   41    75	 1 ;       CG331       HGA3
   41    76	 1 ;       CG331       HGA3
   41    77	 1 ;       CG331       HGA3
   42    78	 1 ;       CG331       HGA3
   42    79	 1 ;       CG331       HGA3
   42    80	 1 ;       CG331       HGA3

[ pairs ]
;	ai	  aj funct			  c0			c1			  c2			c3
    1     8	 1
    1     6	 1
    1    45	 1
    1    27	 1
    1    62	 1
    1    63	 1
    1    25	 1
    1    55	 1
    1    56	 1
    1    38	 1
    1    34	 1
    2     5	 1
    2    43	 1
    2    44	 1
    2    28	 1
    2    24	 1
    2    33	 1
    3     5	 1
    3    43	 1
    3    44	 1
    3    28	 1
    3    24	 1
    3    33	 1
    4    28	 1
    4    24	 1
    4    33	 1
    4     9	 1
    4    14	 1
    4    46	 1
    4     7	 1
    5    23	 1
    5    10	 1
    5    13	 1
    5    15	 1
    5    50	 1
    5    51	 1
    6    43	 1
    6    44	 1
    6     9	 1
    6    14	 1
    6    46	 1
    7     8	 1
    7    45	 1
    8    43	 1
    8    44	 1
    8    12	 1
    8    11	 1
    8    21	 1
    8    16	 1
    9    45	 1
    9    15	 1
    9    50	 1
    9    51	 1
    9    47	 1
    9    48	 1
    9    49	 1
   10    14	 1
   10    46	 1
   11    13	 1
   11    47	 1
   11    48	 1
   11    49	 1
   12    13	 1
   13    14	 1
   13    46	 1
   14    45	 1
   14    20	 1
   14    54	 1
   14    17	 1
   14    52	 1
   15    46	 1
   15    19	 1
   15    18	 1
   15    22	 1
   16    50	 1
   16    51	 1
   16    20	 1
   16    54	 1
   16    53	 1
   17    21	 1
   17    22	 1
   18    52	 1
   18    20	 1
   18    53	 1
   19    52	 1
   19    54	 1
   21    50	 1
   21    51	 1
   21    52	 1
   21    53	 1
   22    53	 1
   22    54	 1
   23    43	 1
   23    44	 1
   23    26	 1
   23    57	 1
   23    58	 1
   23    60	 1
   23    61	 1
   23    37	 1
   23    71	 1
   23    35	 1
   23    68	 1
   24    27	 1
   24    62	 1
   24    63	 1
   24    38	 1
   24    34	 1
   24    29	 1
   24    59	 1
   25    28	 1
   25    33	 1
   25    60	 1
   25    61	 1
   25    30	 1
   25    64	 1
   25    65	 1
   26    55	 1
   26    56	 1
   26    62	 1
   26    63	 1
   26    31	 1
   26    66	 1
   26    67	 1
   27    33	 1
   27    57	 1
   27    58	 1
   27    30	 1
   27    64	 1
   27    65	 1
   28    55	 1
   28    56	 1
   28    38	 1
   28    34	 1
   28    29	 1
   28    59	 1
   29    57	 1
   29    58	 1
   29    60	 1
   29    61	 1
   29    32	 1
   30    59	 1
   31    64	 1
   31    65	 1
   32    66	 1
   32    67	 1
   33    62	 1
   33    63	 1
   33    55	 1
   33    56	 1
   33    36	 1
   33    39	 1
   33    70	 1
   34    37	 1
   34    71	 1
   34    69	 1
   34    40	 1
   34    41	 1
   34    42	 1
   35    38	 1
   35    70	 1
   35    72	 1
   35    73	 1
   35    74	 1
   35    75	 1
   35    76	 1
   35    77	 1
   35    78	 1
   35    79	 1
   35    80	 1
   36    68	 1
   36    40	 1
   36    41	 1
   36    42	 1
   36    71	 1
   37    39	 1
   38    68	 1
   38    69	 1
   39    68	 1
   39    69	 1
   40    75	 1
   40    76	 1
   40    77	 1
   40    78	 1
   40    79	 1
   40    80	 1
   41    72	 1
   41    73	 1
   41    74	 1
   41    78	 1
   41    79	 1
   41    80	 1
   42    72	 1
   42    73	 1
   42    74	 1
   42    75	 1
   42    76	 1
   42    77	 1
   43    45	 1
   44    45	 1
   45    46	 1
   46    50	 1
   46    51	 1
   55    57	 1
   55    58	 1
   56    57	 1
   56    58	 1
   57    59	 1
   58    59	 1
   59    60	 1
   59    61	 1
   59    64	 1
   59    65	 1
   60    62	 1
   60    63	 1
   61    62	 1
   61    63	 1
   64    66	 1
   64    67	 1
   65    66	 1
   65    67	 1
   69    70	 1
   70    71	 1

[ angles ]
;	ai	  aj	ak funct			c0			  c1			c2			  c3
    4     1     3	5 ;      CG324      NG3P2       HGP2
    4     1    23	5 ;      CG324      NG3P2      CG301
    4     1     2	5 ;      CG324      NG3P2       HGP2
    3     1    23	5 ;       HGP2      NG3P2      CG301
    3     1     2	5 ;       HGP2      NG3P2       HGP2
   23     1     2	5 ;      CG301      NG3P2       HGP2
    5     4     1	5 ;      CG311      CG324      NG3P2
    5     4    43	5 ;      CG311      CG324       HGA2
    5     4    44	5 ;      CG311      CG324       HGA2
    1     4    43	5 ;      NG3P2      CG324       HGA2
    1     4    44	5 ;      NG3P2      CG324       HGA2
   43     4    44	5 ;       HGA2      CG324       HGA2
    8     5     6	5 ;      CG311      CG311      OG311
    8     5     4	5 ;      CG311      CG311      CG324
    8     5    45	5 ;      CG311      CG311       HGA1
    6     5     4	5 ;      OG311      CG311      CG324
    6     5    45	5 ;      OG311      CG311       HGA1
    4     5    45	5 ;      CG324      CG311       HGA1
    7     6     5	5 ;       HGP1      OG311      CG311
    9     8    14	5 ;      NG2S1      CG311      CG321
    9     8     5	5 ;      NG2S1      CG311      CG311
    9     8    46	5 ;      NG2S1      CG311       HGA1
   14     8     5	5 ;      CG321      CG311      CG311
   14     8    46	5 ;      CG321      CG311       HGA1
    5     8    46	5 ;      CG311      CG311       HGA1
   10     9    13	5 ;      CG2O1      NG2S1       HGP1
   10     9     8	5 ;      CG2O1      NG2S1      CG311
   13     9     8	5 ;       HGP1      NG2S1      CG311
   12    10    11	5 ;      CG331      CG2O1      OG2D1
   12    10     9	5 ;      CG331      CG2O1      NG2S1
   11    10     9	5 ;      OG2D1      CG2O1      NG2S1
   10    12    47	5 ;      CG2O1      CG331       HGA3
   10    12    48	5 ;      CG2O1      CG331       HGA3
   10    12    49	5 ;      CG2O1      CG331       HGA3
   47    12    48	5 ;       HGA3      CG331       HGA3
   47    12    49	5 ;       HGA3      CG331       HGA3
   48    12    49	5 ;       HGA3      CG331       HGA3
    8    14    15	5 ;      CG311      CG321     CG2R61
    8    14    50	5 ;      CG311      CG321       HGA2
    8    14    51	5 ;      CG311      CG321       HGA2
   15    14    50	5 ;     CG2R61      CG321       HGA2
   15    14    51	5 ;     CG2R61      CG321       HGA2
   50    14    51	5 ;       HGA2      CG321       HGA2
   14    15    21	5 ;      CG321     CG2R61     CG2R61
   14    15    16	5 ;      CG321     CG2R61     CG2R61
   21    15    16	5 ;     CG2R61     CG2R61     CG2R61
   15    16    17	5 ;     CG2R61     CG2R61     CG2R66
   15    16    52	5 ;     CG2R61     CG2R61      HGR62
   17    16    52	5 ;     CG2R66     CG2R61      HGR62
   16    17    19	5 ;     CG2R61     CG2R66     CG2R61
   16    17    18	5 ;     CG2R61     CG2R66       FGR1
   19    17    18	5 ;     CG2R61     CG2R66       FGR1
   20    19    17	5 ;     CG2R66     CG2R61     CG2R66
   20    19    53	5 ;     CG2R66     CG2R61      HGR62
   17    19    53	5 ;     CG2R66     CG2R61      HGR62
   21    20    22	5 ;     CG2R61     CG2R66       FGR1
   21    20    19	5 ;     CG2R61     CG2R66     CG2R61
   22    20    19	5 ;       FGR1     CG2R66     CG2R61
   15    21    20	5 ;     CG2R61     CG2R61     CG2R66
   15    21    54	5 ;     CG2R61     CG2R61      HGR62
   20    21    54	5 ;     CG2R66     CG2R61      HGR62
   28    23     1	5 ;      CG321      CG301      NG3P2
   28    23    24	5 ;      CG321      CG301      CG321
   28    23    33	5 ;      CG321      CG301     CG2R61
    1    23    24	5 ;      NG3P2      CG301      CG321
    1    23    33	5 ;      NG3P2      CG301     CG2R61
   24    23    33	5 ;      CG321      CG301     CG2R61
   23    24    25	5 ;      CG301      CG321      CG321
   23    24    55	5 ;      CG301      CG321       HGA2
   23    24    56	5 ;      CG301      CG321       HGA2
   25    24    55	5 ;      CG321      CG321       HGA2
   25    24    56	5 ;      CG321      CG321       HGA2
   55    24    56	5 ;       HGA2      CG321       HGA2
   26    25    24	5 ;      CG311      CG321      CG321
   26    25    57	5 ;      CG311      CG321       HGA2
   26    25    58	5 ;      CG311      CG321       HGA2
   24    25    57	5 ;      CG321      CG321       HGA2
   24    25    58	5 ;      CG321      CG321       HGA2
   57    25    58	5 ;       HGA2      CG321       HGA2
   27    26    29	5 ;      CG321      CG311      CG321
   27    26    25	5 ;      CG321      CG311      CG321
   27    26    59	5 ;      CG321      CG311       HGA1
   29    26    25	5 ;      CG321      CG311      CG321
   29    26    59	5 ;      CG321      CG311       HGA1
   25    26    59	5 ;      CG321      CG311       HGA1
   28    27    26	5 ;      CG321      CG321      CG311
   28    27    60	5 ;      CG321      CG321       HGA2
   28    27    61	5 ;      CG321      CG321       HGA2
   26    27    60	5 ;      CG311      CG321       HGA2
   26    27    61	5 ;      CG311      CG321       HGA2
   60    27    61	5 ;       HGA2      CG321       HGA2
   27    28    23	5 ;      CG321      CG321      CG301
   27    28    62	5 ;      CG321      CG321       HGA2
   27    28    63	5 ;      CG321      CG321       HGA2
   23    28    62	5 ;      CG301      CG321       HGA2
   23    28    63	5 ;      CG301      CG321       HGA2
   62    28    63	5 ;       HGA2      CG321       HGA2
   30    29    26	5 ;      CG321      CG321      CG311
   30    29    64	5 ;      CG321      CG321       HGA2
   30    29    65	5 ;      CG321      CG321       HGA2
   26    29    64	5 ;      CG311      CG321       HGA2
   26    29    65	5 ;      CG311      CG321       HGA2
   64    29    65	5 ;       HGA2      CG321       HGA2
   29    30    31	5 ;      CG321      CG321      OG311
   29    30    66	5 ;      CG321      CG321       HGA2
   29    30    67	5 ;      CG321      CG321       HGA2
   31    30    66	5 ;      OG311      CG321       HGA2
   31    30    67	5 ;      OG311      CG321       HGA2
   66    30    67	5 ;       HGA2      CG321       HGA2
   30    31    32	5 ;      CG321      OG311       HGP1
   23    33    38	5 ;      CG301     CG2R61     CG2R61
   23    33    34	5 ;      CG301     CG2R61     CG2R61
   38    33    34	5 ;     CG2R61     CG2R61     CG2R61
   33    34    35	5 ;     CG2R61     CG2R61     CG2R61
   33    34    68	5 ;     CG2R61     CG2R61      HGR61
   35    34    68	5 ;     CG2R61     CG2R61      HGR61
   34    35    36	5 ;     CG2R61     CG2R61     CG2R61
   34    35    39	5 ;     CG2R61     CG2R61      CG301
   36    35    39	5 ;     CG2R61     CG2R61      CG301
   37    36    35	5 ;     CG2R61     CG2R61     CG2R61
   37    36    69	5 ;     CG2R61     CG2R61      HGR61
   35    36    69	5 ;     CG2R61     CG2R61      HGR61
   38    37    36	5 ;     CG2R61     CG2R61     CG2R61
   38    37    70	5 ;     CG2R61     CG2R61      HGR61
   36    37    70	5 ;     CG2R61     CG2R61      HGR61
   33    38    37	5 ;     CG2R61     CG2R61     CG2R61
   33    38    71	5 ;     CG2R61     CG2R61      HGR61
   37    38    71	5 ;     CG2R61     CG2R61      HGR61
   35    39    40	5 ;     CG2R61      CG301      CG331
   35    39    41	5 ;     CG2R61      CG301      CG331
   35    39    42	5 ;     CG2R61      CG301      CG331
   40    39    41	5 ;      CG331      CG301      CG331
   40    39    42	5 ;      CG331      CG301      CG331
   41    39    42	5 ;      CG331      CG301      CG331
   39    40    72	5 ;      CG301      CG331       HGA3
   39    40    73	5 ;      CG301      CG331       HGA3
   39    40    74	5 ;      CG301      CG331       HGA3
   72    40    73	5 ;       HGA3      CG331       HGA3
   72    40    74	5 ;       HGA3      CG331       HGA3
   73    40    74	5 ;       HGA3      CG331       HGA3
   39    41    75	5 ;      CG301      CG331       HGA3
   39    41    76	5 ;      CG301      CG331       HGA3
   39    41    77	5 ;      CG301      CG331       HGA3
   75    41    76	5 ;       HGA3      CG331       HGA3
   75    41    77	5 ;       HGA3      CG331       HGA3
   76    41    77	5 ;       HGA3      CG331       HGA3
   39    42    78	5 ;      CG301      CG331       HGA3
   39    42    79	5 ;      CG301      CG331       HGA3
   39    42    80	5 ;      CG301      CG331       HGA3
   78    42    79	5 ;       HGA3      CG331       HGA3
   78    42    80	5 ;       HGA3      CG331       HGA3
   79    42    80	5 ;       HGA3      CG331       HGA3

[ dihedrals ]
;	ai	  aj	ak	  al funct			  c0			c1			  c2			c3			  c4			c5
    3     1     4     5	 9 ;       HGP2      NG3P2      CG324      CG311
    3     1     4    43	 9 ;       HGP2      NG3P2      CG324       HGA2
    3     1     4    44	 9 ;       HGP2      NG3P2      CG324       HGA2
   23     1     4     5	 9 ;      CG301      NG3P2      CG324      CG311
   23     1     4    43	 9 ;      CG301      NG3P2      CG324       HGA2
   23     1     4    44	 9 ;      CG301      NG3P2      CG324       HGA2
    2     1     4     5	 9 ;       HGP2      NG3P2      CG324      CG311
    2     1     4    43	 9 ;       HGP2      NG3P2      CG324       HGA2
    2     1     4    44	 9 ;       HGP2      NG3P2      CG324       HGA2
    4     1    23    28	 9 ;      CG324      NG3P2      CG301      CG321
    4     1    23    24	 9 ;      CG324      NG3P2      CG301      CG321
    4     1    23    33	 9 ;      CG324      NG3P2      CG301     CG2R61
    3     1    23    28	 9 ;       HGP2      NG3P2      CG301      CG321
    3     1    23    24	 9 ;       HGP2      NG3P2      CG301      CG321
    3     1    23    33	 9 ;       HGP2      NG3P2      CG301     CG2R61
    2     1    23    28	 9 ;       HGP2      NG3P2      CG301      CG321
    2     1    23    24	 9 ;       HGP2      NG3P2      CG301      CG321
    2     1    23    33	 9 ;       HGP2      NG3P2      CG301     CG2R61
    1     4     5     8	 9 ;      NG3P2      CG324      CG311      CG311
    1     4     5     6	 9 ;      NG3P2      CG324      CG311      OG311
    1     4     5    45	 9 ;      NG3P2      CG324      CG311       HGA1
   43     4     5     8	 9 ;       HGA2      CG324      CG311      CG311
   43     4     5     6	 9 ;       HGA2      CG324      CG311      OG311
   43     4     5    45	 9 ;       HGA2      CG324      CG311       HGA1
   44     4     5     8	 9 ;       HGA2      CG324      CG311      CG311
   44     4     5     6	 9 ;       HGA2      CG324      CG311      OG311
   44     4     5    45	 9 ;       HGA2      CG324      CG311       HGA1
    6     5     8     9	 9 ;      OG311      CG311      CG311      NG2S1
    6     5     8    14	 9 ;      OG311      CG311      CG311      CG321
    6     5     8    46	 9 ;      OG311      CG311      CG311       HGA1
    4     5     8     9	 9 ;      CG324      CG311      CG311      NG2S1
    4     5     8    14	 9 ;      CG324      CG311      CG311      CG321
    4     5     8    46	 9 ;      CG324      CG311      CG311       HGA1
   45     5     8     9	 9 ;       HGA1      CG311      CG311      NG2S1
   45     5     8    14	 9 ;       HGA1      CG311      CG311      CG321
   45     5     8    46	 9 ;       HGA1      CG311      CG311       HGA1
    8     5     6     7	 9 ;      CG311      CG311      OG311       HGP1
    4     5     6     7	 9 ;      CG324      CG311      OG311       HGP1
   45     5     6     7	 9 ;       HGA1      CG311      OG311       HGP1
   14     8     9    10	 9 ;      CG321      CG311      NG2S1      CG2O1
   14     8     9    13	 9 ;      CG321      CG311      NG2S1       HGP1
    5     8     9    10	 9 ;      CG311      CG311      NG2S1      CG2O1
    5     8     9    13	 9 ;      CG311      CG311      NG2S1       HGP1
   46     8     9    10	 9 ;       HGA1      CG311      NG2S1      CG2O1
   46     8     9    13	 9 ;       HGA1      CG311      NG2S1       HGP1
    9     8    14    15	 9 ;      NG2S1      CG311      CG321     CG2R61
    9     8    14    50	 9 ;      NG2S1      CG311      CG321       HGA2
    9     8    14    51	 9 ;      NG2S1      CG311      CG321       HGA2
    5     8    14    15	 9 ;      CG311      CG311      CG321     CG2R61
    5     8    14    50	 9 ;      CG311      CG311      CG321       HGA2
    5     8    14    51	 9 ;      CG311      CG311      CG321       HGA2
   46     8    14    15	 9 ;       HGA1      CG311      CG321     CG2R61
   46     8    14    50	 9 ;       HGA1      CG311      CG321       HGA2
   46     8    14    51	 9 ;       HGA1      CG311      CG321       HGA2
   13     9    10    12	 9 ;       HGP1      NG2S1      CG2O1      CG331
   13     9    10    11	 9 ;       HGP1      NG2S1      CG2O1      OG2D1
    8     9    10    12	 9 ;      CG311      NG2S1      CG2O1      CG331
    8     9    10    11	 9 ;      CG311      NG2S1      CG2O1      OG2D1
   11    10    12    47	 9 ;      OG2D1      CG2O1      CG331       HGA3
   11    10    12    48	 9 ;      OG2D1      CG2O1      CG331       HGA3
   11    10    12    49	 9 ;      OG2D1      CG2O1      CG331       HGA3
    9    10    12    47	 9 ;      NG2S1      CG2O1      CG331       HGA3
    9    10    12    48	 9 ;      NG2S1      CG2O1      CG331       HGA3
    9    10    12    49	 9 ;      NG2S1      CG2O1      CG331       HGA3
    8    14    15    21	 9 ;      CG311      CG321     CG2R61     CG2R61
    8    14    15    16	 9 ;      CG311      CG321     CG2R61     CG2R61
   50    14    15    21	 9 ;       HGA2      CG321     CG2R61     CG2R61
   50    14    15    16	 9 ;       HGA2      CG321     CG2R61     CG2R61
   51    14    15    21	 9 ;       HGA2      CG321     CG2R61     CG2R61
   51    14    15    16	 9 ;       HGA2      CG321     CG2R61     CG2R61
   14    15    21    20	 9 ;      CG321     CG2R61     CG2R61     CG2R66
   14    15    21    54	 9 ;      CG321     CG2R61     CG2R61      HGR62
   16    15    21    20	 9 ;     CG2R61     CG2R61     CG2R61     CG2R66
   16    15    21    54	 9 ;     CG2R61     CG2R61     CG2R61      HGR62
   14    15    16    17	 9 ;      CG321     CG2R61     CG2R61     CG2R66
   14    15    16    52	 9 ;      CG321     CG2R61     CG2R61      HGR62
   21    15    16    17	 9 ;     CG2R61     CG2R61     CG2R61     CG2R66
   21    15    16    52	 9 ;     CG2R61     CG2R61     CG2R61      HGR62
   15    16    17    19	 9 ;     CG2R61     CG2R61     CG2R66     CG2R61
   15    16    17    18	 9 ;     CG2R61     CG2R61     CG2R66       FGR1
   52    16    17    19	 9 ;      HGR62     CG2R61     CG2R66     CG2R61
   52    16    17    18	 9 ;      HGR62     CG2R61     CG2R66       FGR1
   16    17    19    20	 9 ;     CG2R61     CG2R66     CG2R61     CG2R66
   16    17    19    53	 9 ;     CG2R61     CG2R66     CG2R61      HGR62
   18    17    19    20	 9 ;       FGR1     CG2R66     CG2R61     CG2R66
   18    17    19    53	 9 ;       FGR1     CG2R66     CG2R61      HGR62
   17    19    20    21	 9 ;     CG2R66     CG2R61     CG2R66     CG2R61
   17    19    20    22	 9 ;     CG2R66     CG2R61     CG2R66       FGR1
   53    19    20    21	 9 ;      HGR62     CG2R61     CG2R66     CG2R61
   53    19    20    22	 9 ;      HGR62     CG2R61     CG2R66       FGR1
   22    20    21    15	 9 ;       FGR1     CG2R66     CG2R61     CG2R61
   22    20    21    54	 9 ;       FGR1     CG2R66     CG2R61      HGR62
   19    20    21    15	 9 ;     CG2R61     CG2R66     CG2R61     CG2R61
   19    20    21    54	 9 ;     CG2R61     CG2R66     CG2R61      HGR62
    1    23    28    27	 9 ;      NG3P2      CG301      CG321      CG321
    1    23    28    62	 9 ;      NG3P2      CG301      CG321       HGA2
    1    23    28    63	 9 ;      NG3P2      CG301      CG321       HGA2
   24    23    28    27	 9 ;      CG321      CG301      CG321      CG321
   24    23    28    62	 9 ;      CG321      CG301      CG321       HGA2
   24    23    28    63	 9 ;      CG321      CG301      CG321       HGA2
   33    23    28    27	 9 ;     CG2R61      CG301      CG321      CG321
   33    23    28    62	 9 ;     CG2R61      CG301      CG321       HGA2
   33    23    28    63	 9 ;     CG2R61      CG301      CG321       HGA2
   28    23    24    25	 9 ;      CG321      CG301      CG321      CG321
   28    23    24    55	 9 ;      CG321      CG301      CG321       HGA2
   28    23    24    56	 9 ;      CG321      CG301      CG321       HGA2
    1    23    24    25	 9 ;      NG3P2      CG301      CG321      CG321
    1    23    24    55	 9 ;      NG3P2      CG301      CG321       HGA2
    1    23    24    56	 9 ;      NG3P2      CG301      CG321       HGA2
   33    23    24    25	 9 ;     CG2R61      CG301      CG321      CG321
   33    23    24    55	 9 ;     CG2R61      CG301      CG321       HGA2
   33    23    24    56	 9 ;     CG2R61      CG301      CG321       HGA2
   28    23    33    38	 9 ;      CG321      CG301     CG2R61     CG2R61
   28    23    33    34	 9 ;      CG321      CG301     CG2R61     CG2R61
    1    23    33    38	 9 ;      NG3P2      CG301     CG2R61     CG2R61
    1    23    33    34	 9 ;      NG3P2      CG301     CG2R61     CG2R61
   24    23    33    38	 9 ;      CG321      CG301     CG2R61     CG2R61
   24    23    33    34	 9 ;      CG321      CG301     CG2R61     CG2R61
   23    24    25    26	 9 ;      CG301      CG321      CG321      CG311
   23    24    25    57	 9 ;      CG301      CG321      CG321       HGA2
   23    24    25    58	 9 ;      CG301      CG321      CG321       HGA2
   55    24    25    26	 9 ;       HGA2      CG321      CG321      CG311
   55    24    25    57	 9 ;       HGA2      CG321      CG321       HGA2
   55    24    25    58	 9 ;       HGA2      CG321      CG321       HGA2
   56    24    25    26	 9 ;       HGA2      CG321      CG321      CG311
   56    24    25    57	 9 ;       HGA2      CG321      CG321       HGA2
   56    24    25    58	 9 ;       HGA2      CG321      CG321       HGA2
   24    25    26    27	 9 ;      CG321      CG321      CG311      CG321
   24    25    26    29	 9 ;      CG321      CG321      CG311      CG321
   24    25    26    59	 9 ;      CG321      CG321      CG311       HGA1
   57    25    26    27	 9 ;       HGA2      CG321      CG311      CG321
   57    25    26    29	 9 ;       HGA2      CG321      CG311      CG321
   57    25    26    59	 9 ;       HGA2      CG321      CG311       HGA1
   58    25    26    27	 9 ;       HGA2      CG321      CG311      CG321
   58    25    26    29	 9 ;       HGA2      CG321      CG311      CG321
   58    25    26    59	 9 ;       HGA2      CG321      CG311       HGA1
   29    26    27    28	 9 ;      CG321      CG311      CG321      CG321
   29    26    27    60	 9 ;      CG321      CG311      CG321       HGA2
   29    26    27    61	 9 ;      CG321      CG311      CG321       HGA2
   25    26    27    28	 9 ;      CG321      CG311      CG321      CG321
   25    26    27    60	 9 ;      CG321      CG311      CG321       HGA2
   25    26    27    61	 9 ;      CG321      CG311      CG321       HGA2
   59    26    27    28	 9 ;       HGA1      CG311      CG321      CG321
   59    26    27    60	 9 ;       HGA1      CG311      CG321       HGA2
   59    26    27    61	 9 ;       HGA1      CG311      CG321       HGA2
   27    26    29    30	 9 ;      CG321      CG311      CG321      CG321
   27    26    29    64	 9 ;      CG321      CG311      CG321       HGA2
   27    26    29    65	 9 ;      CG321      CG311      CG321       HGA2
   25    26    29    30	 9 ;      CG321      CG311      CG321      CG321
   25    26    29    64	 9 ;      CG321      CG311      CG321       HGA2
   25    26    29    65	 9 ;      CG321      CG311      CG321       HGA2
   59    26    29    30	 9 ;       HGA1      CG311      CG321      CG321
   59    26    29    64	 9 ;       HGA1      CG311      CG321       HGA2
   59    26    29    65	 9 ;       HGA1      CG311      CG321       HGA2
   26    27    28    23	 9 ;      CG311      CG321      CG321      CG301
   26    27    28    62	 9 ;      CG311      CG321      CG321       HGA2
   26    27    28    63	 9 ;      CG311      CG321      CG321       HGA2
   60    27    28    23	 9 ;       HGA2      CG321      CG321      CG301
   60    27    28    62	 9 ;       HGA2      CG321      CG321       HGA2
   60    27    28    63	 9 ;       HGA2      CG321      CG321       HGA2
   61    27    28    23	 9 ;       HGA2      CG321      CG321      CG301
   61    27    28    62	 9 ;       HGA2      CG321      CG321       HGA2
   61    27    28    63	 9 ;       HGA2      CG321      CG321       HGA2
   26    29    30    31	 9 ;      CG311      CG321      CG321      OG311
   26    29    30    66	 9 ;      CG311      CG321      CG321       HGA2
   26    29    30    67	 9 ;      CG311      CG321      CG321       HGA2
   64    29    30    31	 9 ;       HGA2      CG321      CG321      OG311
   64    29    30    66	 9 ;       HGA2      CG321      CG321       HGA2
   64    29    30    67	 9 ;       HGA2      CG321      CG321       HGA2
   65    29    30    31	 9 ;       HGA2      CG321      CG321      OG311
   65    29    30    66	 9 ;       HGA2      CG321      CG321       HGA2
   65    29    30    67	 9 ;       HGA2      CG321      CG321       HGA2
   29    30    31    32	 9 ;      CG321      CG321      OG311       HGP1
   66    30    31    32	 9 ;       HGA2      CG321      OG311       HGP1
   67    30    31    32	 9 ;       HGA2      CG321      OG311       HGP1
   23    33    38    37	 9 ;      CG301     CG2R61     CG2R61     CG2R61
   23    33    38    71	 9 ;      CG301     CG2R61     CG2R61      HGR61
   34    33    38    37	 9 ;     CG2R61     CG2R61     CG2R61     CG2R61
   34    33    38    71	 9 ;     CG2R61     CG2R61     CG2R61      HGR61
   23    33    34    35	 9 ;      CG301     CG2R61     CG2R61     CG2R61
   23    33    34    68	 9 ;      CG301     CG2R61     CG2R61      HGR61
   38    33    34    35	 9 ;     CG2R61     CG2R61     CG2R61     CG2R61
   38    33    34    68	 9 ;     CG2R61     CG2R61     CG2R61      HGR61
   33    34    35    36	 9 ;     CG2R61     CG2R61     CG2R61     CG2R61
   33    34    35    39	 9 ;     CG2R61     CG2R61     CG2R61      CG301
   68    34    35    36	 9 ;      HGR61     CG2R61     CG2R61     CG2R61
   68    34    35    39	 9 ;      HGR61     CG2R61     CG2R61      CG301
   34    35    36    37	 9 ;     CG2R61     CG2R61     CG2R61     CG2R61
   34    35    36    69	 9 ;     CG2R61     CG2R61     CG2R61      HGR61
   39    35    36    37	 9 ;      CG301     CG2R61     CG2R61     CG2R61
   39    35    36    69	 9 ;      CG301     CG2R61     CG2R61      HGR61
   34    35    39    40	 9 ;     CG2R61     CG2R61      CG301      CG331
   34    35    39    41	 9 ;     CG2R61     CG2R61      CG301      CG331
   34    35    39    42	 9 ;     CG2R61     CG2R61      CG301      CG331
   36    35    39    40	 9 ;     CG2R61     CG2R61      CG301      CG331
   36    35    39    41	 9 ;     CG2R61     CG2R61      CG301      CG331
   36    35    39    42	 9 ;     CG2R61     CG2R61      CG301      CG331
   35    36    37    38	 9 ;     CG2R61     CG2R61     CG2R61     CG2R61
   35    36    37    70	 9 ;     CG2R61     CG2R61     CG2R61      HGR61
   69    36    37    38	 9 ;      HGR61     CG2R61     CG2R61     CG2R61
   69    36    37    70	 9 ;      HGR61     CG2R61     CG2R61      HGR61
   36    37    38    33	 9 ;     CG2R61     CG2R61     CG2R61     CG2R61
   36    37    38    71	 9 ;     CG2R61     CG2R61     CG2R61      HGR61
   70    37    38    33	 9 ;      HGR61     CG2R61     CG2R61     CG2R61
   70    37    38    71	 9 ;      HGR61     CG2R61     CG2R61      HGR61
   35    39    40    72	 9 ;     CG2R61      CG301      CG331       HGA3
   35    39    40    73	 9 ;     CG2R61      CG301      CG331       HGA3
   35    39    40    74	 9 ;     CG2R61      CG301      CG331       HGA3
   41    39    40    72	 9 ;      CG331      CG301      CG331       HGA3
   41    39    40    73	 9 ;      CG331      CG301      CG331       HGA3
   41    39    40    74	 9 ;      CG331      CG301      CG331       HGA3
   42    39    40    72	 9 ;      CG331      CG301      CG331       HGA3
   42    39    40    73	 9 ;      CG331      CG301      CG331       HGA3
   42    39    40    74	 9 ;      CG331      CG301      CG331       HGA3
   35    39    41    75	 9 ;     CG2R61      CG301      CG331       HGA3
   35    39    41    76	 9 ;     CG2R61      CG301      CG331       HGA3
   35    39    41    77	 9 ;     CG2R61      CG301      CG331       HGA3
   40    39    41    75	 9 ;      CG331      CG301      CG331       HGA3
   40    39    41    76	 9 ;      CG331      CG301      CG331       HGA3
   40    39    41    77	 9 ;      CG331      CG301      CG331       HGA3
   42    39    41    75	 9 ;      CG331      CG301      CG331       HGA3
   42    39    41    76	 9 ;      CG331      CG301      CG331       HGA3
   42    39    41    77	 9 ;      CG331      CG301      CG331       HGA3
   35    39    42    78	 9 ;     CG2R61      CG301      CG331       HGA3
   35    39    42    79	 9 ;     CG2R61      CG301      CG331       HGA3
   35    39    42    80	 9 ;     CG2R61      CG301      CG331       HGA3
   40    39    42    78	 9 ;      CG331      CG301      CG331       HGA3
   40    39    42    79	 9 ;      CG331      CG301      CG331       HGA3
   40    39    42    80	 9 ;      CG331      CG301      CG331       HGA3
   41    39    42    78	 9 ;      CG331      CG301      CG331       HGA3
   41    39    42    79	 9 ;      CG331      CG301      CG331       HGA3
   41    39    42    80	 9 ;      CG331      CG301      CG331       HGA3

[ dihedrals ]
;	ai	  aj	ak	  al funct			  c0			c1			  c2			c3
   10    12     9    11	 2

