Guyana Rwanda Oman Macau Angola Cameroon Senegal
   52
    1LIG     C1    1  -1.378   0.386  -1.638
    1LIG     N1    2  -1.447   0.340  -1.764
    1LIG     HN    3  -1.544   0.311  -1.774
    1LIG     C2    4  -1.358   0.347  -1.858
    1LIG     N2    5  -1.239   0.401  -1.825
    1LIG     C3    6  -1.120   0.407  -1.906
    1LIG     C4    7  -1.244   0.440  -1.694
    1LIG     O1    8  -1.156   0.501  -1.635
    1LIG     C5    9  -1.465   0.491  -1.565
    1LIG     C6   10  -1.455   0.628  -1.592
    1LIG     C7   11  -1.534   0.722  -1.525
    1LIG     C8   12  -1.624   0.679  -1.428
    1LIG     F1   13  -1.701   0.771  -1.366
    1LIG     C9   14  -1.636   0.544  -1.396
    1LIG    C10   15  -1.556   0.451  -1.463
    1LIG    C11   16  -1.731   0.502  -1.297
    1LIG    C12   17  -1.818   0.468  -1.206
    1LIG    C13   18  -1.920   0.429  -1.100
    1LIG     O2   19  -2.015   0.534  -1.086
    1LIG    C14   20  -1.956   0.651  -1.032
    1LIG    C15   21  -1.344   0.264  -1.548
    1LIG    C16   22  -1.391   0.135  -1.580
    1LIG    C17   23  -1.350   0.024  -1.507
    1LIG    C18   24  -1.262   0.037  -1.400
    1LIG    C19   25  -1.217   0.164  -1.364
    1LIG    C20   26  -1.257   0.276  -1.438
    1LIG     O3   27  -1.228  -0.080  -1.338
    1LIG    C21   28  -1.208  -0.191  -1.423
    1LIG     F2   29  -1.080  -0.191  -1.467
    1LIG     F3   30  -1.224  -0.303  -1.347
    1LIG     N3   31  -1.384   0.302  -1.983
    1LIG     H1   32  -1.474   0.333  -2.019
    1LIG     H2   33  -1.309   0.307  -2.051
    1LIG    HN2   34  -1.420   0.245  -1.745
    1LIG     HC   35  -1.321   0.248  -1.830
    1LIG    HC1   36  -1.385   0.663  -1.667
    1LIG    HC2   37  -1.525   0.827  -1.548
    1LIG    HC3   38  -1.563   0.346  -1.437
    1LIG    HC4   39  -1.971   0.338  -1.130
    1LIG    HC5   40  -1.869   0.413  -1.005
    1LIG    HC6   41  -1.459   0.122  -1.663
    1LIG    HC7   42  -1.387  -0.074  -1.533
    1LIG    HC8   43  -1.151   0.177  -1.279
    1LIG    HC9   44  -1.221   0.374  -1.410
    1LIG   HC10   45  -1.278  -0.190  -1.507
    1LIG    HN1   46  -1.397   0.203  -1.970
    1LIG   HC11   47  -1.041   0.457  -1.851
    1LIG   HC12   48  -1.141   0.463  -1.997
    1LIG   HC13   49  -1.088   0.306  -1.932
    1LIG   HC14   50  -2.031   0.729  -1.023
    1LIG   HC15   51  -1.876   0.686  -1.098
    1LIG   HC16   52  -1.914   0.629  -0.934
   0.00000   0.00000   0.00000
