; Created by cgenff_charmm2gmx.py

[ moleculetype ]
; Name			   nrexcl
LIG				 3

[ atoms ]
;	 nr		  type	resnr residue  atom   cgnr	   charge		mass  typeB    chargeB		massB
; residue	 1 LIG rtp LIG q	qsum
     1      CG311      1    LIG     C1      1     -0.042     12.011   ;
     2      CG321      1    LIG     C2      2     -0.101     12.011   ;
     3      CG311      1    LIG     C3      3     -0.109     12.011   ;
     4      CG331      1    LIG     C4      4     -0.268     12.011   ;
     5      CG331      1    LIG     C5      5     -0.268     12.011   ;
     6      CG311      1    LIG     C6      6      0.119     12.011   ;
     7      OG311      1    LIG     O1      7     -0.648     15.999   ;
     8       HGP1      1    LIG     H1      8      0.421      1.008   ;
     9      CG321      1    LIG     C7      9     -0.187     12.011   ;
    10      CG311      1    LIG     C8     10     -0.032     12.011   ;
    11      CG331      1    LIG     C9     11     -0.266     12.011   ;
    12      CG2O1      1    LIG    C10     12      0.483     12.011   ;
    13      OG2D1      1    LIG     O2     13     -0.510     15.999   ;
    14      NG2S1      1    LIG     N1     14     -0.435     14.007   ;
    15       HGP1      1    LIG     H2     15      0.269      1.008   ;
    16      CG311      1    LIG    C11     16      0.069     12.011   ;
    17      CG2O1      1    LIG    C12     17      0.531     12.011   ;
    18      OG2D1      1    LIG     O3     18     -0.514     15.999   ;
    19      NG2S1      1    LIG     N2     19     -0.491     14.007   ;
    20       HGP1      1    LIG     H3     20      0.310      1.008   ;
    21      CG321      1    LIG    C13     21     -0.007     12.011   ;
    22      CG311      1    LIG    C14     22     -0.133     12.011   ;
    23      CG331      1    LIG    C15     23     -0.258     12.011   ;
    24      CG331      1    LIG    C16     24     -0.258     12.011   ;
    25      CG311      1    LIG    C17     25     -0.078     12.011   ;
    26      CG331      1    LIG    C18     26     -0.269     12.011   ;
    27      CG331      1    LIG    C19     27     -0.269     12.011   ;
    28      NG2S1      1    LIG     N3     28     -0.401     14.007   ;
    29      CG2O1      1    LIG    C20     29      0.511     12.011   ;
    30      OG2D1      1    LIG     O4     30     -0.509     15.999   ;
    31       HGP1      1    LIG     H4     31      0.269      1.008   ;
    32      CG311      1    LIG    C21     32      0.142     12.011   ;
    33      NG2S1      1    LIG     N4     33     -0.317     14.007   ;
    34      CG2O6      1    LIG    C22     34      0.212     12.011   ;
    35      OG2D1      1    LIG     O5     35     -0.395     15.999   ;
    36       HGP1      1    LIG     H5     36      0.329      1.008   ;
    37      OG302      1    LIG     O6     37     -0.295     15.999   ;
    38      CG321      1    LIG    C23     38      0.363     12.011   ;
    39     NG3C51      1    LIG     N5     39     -0.220     14.007   ;
    40     NG3C51      1    LIG     N6     40     -0.449     14.007   ;
    41     CG3C51      1    LIG    C24     41      0.069     12.011   ;
    42       HGP1      1    LIG     HN     42      0.320      1.008   ;
    43     CG2R51      1    LIG    C25     43     -0.389     12.011   ;
    44      CG331      1    LIG    C26     44     -0.253     12.011   ;
    45     CG2R51      1    LIG    C27     45     -0.288     12.011   ;
    46      CG331      1    LIG    C28     46      0.036     12.011   ;
    47      CG321      1    LIG    C29     47      0.028     12.011   ;
    48      SG3O2      1    LIG      S     48      0.204     32.060   ;
    49      OG2P1      1    LIG     O7     49     -0.381     15.999   ;
    50      OG2P1      1    LIG     O8     50     -0.381     15.999   ;
    51      CG331      1    LIG    C30     51      0.027     12.011   ;
    52       HGA1      1    LIG     H6     52      0.090      1.008   ;
    53       HGA2      1    LIG     H7     53      0.090      1.008   ;
    54       HGA2      1    LIG     H8     54      0.090      1.008   ;
    55       HGA1      1    LIG     H9     55      0.090      1.008   ;
    56       HGA3      1    LIG    H10     56      0.090      1.008   ;
    57       HGA3      1    LIG    H11     57      0.090      1.008   ;
    58       HGA3      1    LIG    H12     58      0.090      1.008   ;
    59       HGA3      1    LIG    H13     59      0.090      1.008   ;
    60       HGA3      1    LIG    H14     60      0.090      1.008   ;
    61       HGA3      1    LIG    H15     61      0.090      1.008   ;
    62       HGA1      1    LIG    H16     62      0.090      1.008   ;
    63       HGA2      1    LIG    H17     63      0.090      1.008   ;
    64       HGA2      1    LIG    H18     64      0.090      1.008   ;
    65       HGA1      1    LIG    H19     65      0.090      1.008   ;
    66       HGA3      1    LIG    H20     66      0.090      1.008   ;
    67       HGA3      1    LIG    H21     67      0.090      1.008   ;
    68       HGA3      1    LIG    H22     68      0.090      1.008   ;
    69       HGA1      1    LIG    H23     69      0.090      1.008   ;
    70       HGA2      1    LIG    H24     70      0.090      1.008   ;
    71       HGA2      1    LIG    H25     71      0.090      1.008   ;
    72       HGA1      1    LIG    H26     72      0.090      1.008   ;
    73       HGA3      1    LIG    H27     73      0.090      1.008   ;
    74       HGA3      1    LIG    H28     74      0.090      1.008   ;
    75       HGA3      1    LIG    H29     75      0.090      1.008   ;
    76       HGA3      1    LIG    H30     76      0.090      1.008   ;
    77       HGA3      1    LIG    H31     77      0.090      1.008   ;
    78       HGA3      1    LIG    H32     78      0.090      1.008   ;
    79       HGA1      1    LIG    H33     79      0.090      1.008   ;
    80       HGA3      1    LIG    H34     80      0.090      1.008   ;
    81       HGA3      1    LIG    H35     81      0.090      1.008   ;
    82       HGA3      1    LIG    H36     82      0.090      1.008   ;
    83       HGA3      1    LIG    H37     83      0.090      1.008   ;
    84       HGA3      1    LIG    H38     84      0.090      1.008   ;
    85       HGA3      1    LIG    H39     85      0.090      1.008   ;
    86       HGA1      1    LIG    H40     86      0.090      1.008   ;
    87       HGA2      1    LIG    H41     87      0.090      1.008   ;
    88       HGA2      1    LIG    H42     88      0.090      1.008   ;
    89       HGA1      1    LIG    H43     89      0.116      1.008   ;
    90      HGR51      1    LIG    H44     90      0.273      1.008   ;
    91       HGA3      1    LIG    H45     91      0.090      1.008   ;
    92       HGA3      1    LIG    H46     92      0.090      1.008   ;
    93       HGA3      1    LIG    H47     93      0.090      1.008   ;
    94       HGA3      1    LIG    H48     94      0.090      1.008   ;
    95       HGA3      1    LIG    H49     95      0.090      1.008   ;
    96       HGA3      1    LIG    H50     96      0.090      1.008   ;
    97       HGA2      1    LIG    H51     97      0.090      1.008   ;
    98       HGA2      1    LIG    H52     98      0.090      1.008   ;
    99       HGA3      1    LIG    H53     99      0.090      1.008   ;
   100       HGA3      1    LIG    H54    100      0.090      1.008   ;
   101       HGA3      1    LIG    H55    101      0.090      1.008   ;

[ bonds ]
;	ai	  aj funct			  c0			c1			  c2			c3
    1    28	 1 ;       CG311      NG2S1
    1     6	 1 ;       CG311      CG311
    1     2	 1 ;       CG311      CG321
    1    52	 1 ;       CG311       HGA1
    2     3	 1 ;       CG321      CG311
    2    53	 1 ;       CG321       HGA2
    2    54	 1 ;       CG321       HGA2
    3     5	 1 ;       CG311      CG331
    3     4	 1 ;       CG311      CG331
    3    55	 1 ;       CG311       HGA1
    4    56	 1 ;       CG331       HGA3
    4    57	 1 ;       CG331       HGA3
    4    58	 1 ;       CG331       HGA3
    5    59	 1 ;       CG331       HGA3
    5    60	 1 ;       CG331       HGA3
    5    61	 1 ;       CG331       HGA3
    6     7	 1 ;       CG311      OG311
    6     9	 1 ;       CG311      CG321
    6    62	 1 ;       CG311       HGA1
    7     8	 1 ;       OG311       HGP1
    9    10	 1 ;       CG321      CG311
    9    63	 1 ;       CG321       HGA2
    9    64	 1 ;       CG321       HGA2
   10    11	 1 ;       CG311      CG331
   10    12	 1 ;       CG311      CG2O1
   10    65	 1 ;       CG311       HGA1
   11    66	 1 ;       CG331       HGA3
   11    67	 1 ;       CG331       HGA3
   11    68	 1 ;       CG331       HGA3
   12    13	 1 ;       CG2O1      OG2D1
   12    14	 1 ;       CG2O1      NG2S1
   14    16	 1 ;       NG2S1      CG311
   14    15	 1 ;       NG2S1       HGP1
   16    25	 1 ;       CG311      CG311
   16    17	 1 ;       CG311      CG2O1
   16    69	 1 ;       CG311       HGA1
   17    19	 1 ;       CG2O1      NG2S1
   17    18	 1 ;       CG2O1      OG2D1
   19    20	 1 ;       NG2S1       HGP1
   19    21	 1 ;       NG2S1      CG321
   21    22	 1 ;       CG321      CG311
   21    70	 1 ;       CG321       HGA2
   21    71	 1 ;       CG321       HGA2
   22    24	 1 ;       CG311      CG331
   22    23	 1 ;       CG311      CG331
   22    72	 1 ;       CG311       HGA1
   23    73	 1 ;       CG331       HGA3
   23    74	 1 ;       CG331       HGA3
   23    75	 1 ;       CG331       HGA3
   24    76	 1 ;       CG331       HGA3
   24    77	 1 ;       CG331       HGA3
   24    78	 1 ;       CG331       HGA3
   25    27	 1 ;       CG311      CG331
   25    26	 1 ;       CG311      CG331
   25    79	 1 ;       CG311       HGA1
   26    80	 1 ;       CG331       HGA3
   26    81	 1 ;       CG331       HGA3
   26    82	 1 ;       CG331       HGA3
   27    83	 1 ;       CG331       HGA3
   27    84	 1 ;       CG331       HGA3
   27    85	 1 ;       CG331       HGA3
   28    29	 1 ;       NG2S1      CG2O1
   28    31	 1 ;       NG2S1       HGP1
   29    32	 1 ;       CG2O1      CG311
   29    30	 1 ;       CG2O1      OG2D1
   32    33	 1 ;       CG311      NG2S1
   32    47	 1 ;       CG311      CG321
   32    86	 1 ;       CG311       HGA1
   33    36	 1 ;       NG2S1       HGP1
   33    34	 1 ;       NG2S1      CG2O6
   34    35	 1 ;       CG2O6      OG2D1
   34    37	 1 ;       CG2O6      OG302
   37    38	 1 ;       OG302      CG321
   38    39	 1 ;       CG321     NG3C51
   38    87	 1 ;       CG321       HGA2
   38    88	 1 ;       CG321       HGA2
   39    40	 1 ;      NG3C51     NG3C51
   39    45	 1 ;      NG3C51     CG2R51
   40    42	 1 ;      NG3C51       HGP1
   40    41	 1 ;      NG3C51     CG3C51
   41    44	 1 ;      CG3C51      CG331
   41    43	 1 ;      CG3C51     CG2R51
   41    89	 1 ;      CG3C51       HGA1
   43    45	 1 ;      CG2R51     CG2R51
   43    90	 1 ;      CG2R51      HGR51
   44    91	 1 ;       CG331       HGA3
   44    92	 1 ;       CG331       HGA3
   44    93	 1 ;       CG331       HGA3
   45    46	 1 ;      CG2R51      CG331
   46    94	 1 ;       CG331       HGA3
   46    95	 1 ;       CG331       HGA3
   46    96	 1 ;       CG331       HGA3
   47    48	 1 ;       CG321      SG3O2
   47    97	 1 ;       CG321       HGA2
   47    98	 1 ;       CG321       HGA2
   48    50	 1 ;       SG3O2      OG2P1
   48    49	 1 ;       SG3O2      OG2P1
   48    51	 1 ;       SG3O2      CG331
   51    99	 1 ;       CG331       HGA3
   51   100	 1 ;       CG331       HGA3
   51   101	 1 ;       CG331       HGA3

[ pairs ]
;	ai	  aj funct			  c0			c1			  c2			c3
    1     5	 1
    1     4	 1
    1    55	 1
    1     8	 1
    1    10	 1
    1    63	 1
    1    64	 1
    1    32	 1
    1    30	 1
    2    29	 1
    2    31	 1
    2     7	 1
    2     9	 1
    2    62	 1
    2    59	 1
    2    60	 1
    2    61	 1
    2    56	 1
    2    57	 1
    2    58	 1
    3    28	 1
    3     6	 1
    3    52	 1
    4    53	 1
    4    54	 1
    4    59	 1
    4    60	 1
    4    61	 1
    5    53	 1
    5    54	 1
    5    56	 1
    5    57	 1
    5    58	 1
    6    29	 1
    6    31	 1
    6    53	 1
    6    54	 1
    6    11	 1
    6    12	 1
    6    65	 1
    7    28	 1
    7    52	 1
    7    10	 1
    7    63	 1
    7    64	 1
    8     9	 1
    8    62	 1
    9    28	 1
    9    52	 1
    9    66	 1
    9    67	 1
    9    68	 1
    9    13	 1
    9    14	 1
   10    62	 1
   10    16	 1
   10    15	 1
   11    63	 1
   11    64	 1
   11    13	 1
   11    14	 1
   12    63	 1
   12    64	 1
   12    66	 1
   12    67	 1
   12    68	 1
   12    25	 1
   12    17	 1
   12    69	 1
   13    65	 1
   13    16	 1
   13    15	 1
   14    65	 1
   14    27	 1
   14    26	 1
   14    79	 1
   14    19	 1
   14    18	 1
   15    25	 1
   15    17	 1
   15    69	 1
   16    20	 1
   16    21	 1
   16    83	 1
   16    84	 1
   16    85	 1
   16    80	 1
   16    81	 1
   16    82	 1
   17    27	 1
   17    26	 1
   17    79	 1
   17    22	 1
   17    70	 1
   17    71	 1
   18    25	 1
   18    69	 1
   18    20	 1
   18    21	 1
   19    25	 1
   19    69	 1
   19    24	 1
   19    23	 1
   19    72	 1
   20    22	 1
   20    70	 1
   20    71	 1
   21    76	 1
   21    77	 1
   21    78	 1
   21    73	 1
   21    74	 1
   21    75	 1
   23    70	 1
   23    71	 1
   23    76	 1
   23    77	 1
   23    78	 1
   24    70	 1
   24    71	 1
   24    73	 1
   24    74	 1
   24    75	 1
   26    69	 1
   26    83	 1
   26    84	 1
   26    85	 1
   27    69	 1
   27    80	 1
   27    81	 1
   27    82	 1
   28    62	 1
   28    53	 1
   28    54	 1
   28    33	 1
   28    47	 1
   28    86	 1
   29    52	 1
   29    36	 1
   29    34	 1
   29    48	 1
   29    97	 1
   29    98	 1
   30    31	 1
   30    33	 1
   30    47	 1
   30    86	 1
   31    52	 1
   31    32	 1
   32    35	 1
   32    37	 1
   32    50	 1
   32    49	 1
   32    51	 1
   33    48	 1
   33    97	 1
   33    98	 1
   33    38	 1
   34    47	 1
   34    86	 1
   34    39	 1
   34    87	 1
   34    88	 1
   35    36	 1
   35    38	 1
   36    47	 1
   36    86	 1
   36    37	 1
   37    40	 1
   37    45	 1
   38    42	 1
   38    41	 1
   38    46	 1
   38    43	 1
   39    44	 1
   39    89	 1
   39    90	 1
   39    94	 1
   39    95	 1
   39    96	 1
   40    87	 1
   40    88	 1
   40    46	 1
   40    91	 1
   40    92	 1
   40    93	 1
   40    90	 1
   41    46	 1
   42    45	 1
   42    44	 1
   42    43	 1
   42    89	 1
   43    91	 1
   43    92	 1
   43    93	 1
   43    94	 1
   43    95	 1
   43    96	 1
   44    45	 1
   44    90	 1
   45    87	 1
   45    88	 1
   45    89	 1
   46    90	 1
   47    99	 1
   47   100	 1
   47   101	 1
   48    86	 1
   49    97	 1
   49    98	 1
   49    99	 1
   49   100	 1
   49   101	 1
   50    97	 1
   50    98	 1
   50    99	 1
   50   100	 1
   50   101	 1
   51    97	 1
   51    98	 1
   52    62	 1
   52    53	 1
   52    54	 1
   53    55	 1
   54    55	 1
   55    59	 1
   55    60	 1
   55    61	 1
   55    56	 1
   55    57	 1
   55    58	 1
   62    63	 1
   62    64	 1
   63    65	 1
   64    65	 1
   65    66	 1
   65    67	 1
   65    68	 1
   69    79	 1
   70    72	 1
   71    72	 1
   72    76	 1
   72    77	 1
   72    78	 1
   72    73	 1
   72    74	 1
   72    75	 1
   79    83	 1
   79    84	 1
   79    85	 1
   79    80	 1
   79    81	 1
   79    82	 1
   86    97	 1
   86    98	 1
   89    91	 1
   89    92	 1
   89    93	 1
   89    90	 1

[ angles ]
;	ai	  aj	ak funct			c0			  c1			c2			  c3
   28     1     6	5 ;      NG2S1      CG311      CG311
   28     1     2	5 ;      NG2S1      CG311      CG321
   28     1    52	5 ;      NG2S1      CG311       HGA1
    6     1     2	5 ;      CG311      CG311      CG321
    6     1    52	5 ;      CG311      CG311       HGA1
    2     1    52	5 ;      CG321      CG311       HGA1
    1     2     3	5 ;      CG311      CG321      CG311
    1     2    53	5 ;      CG311      CG321       HGA2
    1     2    54	5 ;      CG311      CG321       HGA2
    3     2    53	5 ;      CG311      CG321       HGA2
    3     2    54	5 ;      CG311      CG321       HGA2
   53     2    54	5 ;       HGA2      CG321       HGA2
    2     3     5	5 ;      CG321      CG311      CG331
    2     3     4	5 ;      CG321      CG311      CG331
    2     3    55	5 ;      CG321      CG311       HGA1
    5     3     4	5 ;      CG331      CG311      CG331
    5     3    55	5 ;      CG331      CG311       HGA1
    4     3    55	5 ;      CG331      CG311       HGA1
    3     4    56	5 ;      CG311      CG331       HGA3
    3     4    57	5 ;      CG311      CG331       HGA3
    3     4    58	5 ;      CG311      CG331       HGA3
   56     4    57	5 ;       HGA3      CG331       HGA3
   56     4    58	5 ;       HGA3      CG331       HGA3
   57     4    58	5 ;       HGA3      CG331       HGA3
    3     5    59	5 ;      CG311      CG331       HGA3
    3     5    60	5 ;      CG311      CG331       HGA3
    3     5    61	5 ;      CG311      CG331       HGA3
   59     5    60	5 ;       HGA3      CG331       HGA3
   59     5    61	5 ;       HGA3      CG331       HGA3
   60     5    61	5 ;       HGA3      CG331       HGA3
    1     6     7	5 ;      CG311      CG311      OG311
    1     6     9	5 ;      CG311      CG311      CG321
    1     6    62	5 ;      CG311      CG311       HGA1
    7     6     9	5 ;      OG311      CG311      CG321
    7     6    62	5 ;      OG311      CG311       HGA1
    9     6    62	5 ;      CG321      CG311       HGA1
    8     7     6	5 ;       HGP1      OG311      CG311
    6     9    10	5 ;      CG311      CG321      CG311
    6     9    63	5 ;      CG311      CG321       HGA2
    6     9    64	5 ;      CG311      CG321       HGA2
   10     9    63	5 ;      CG311      CG321       HGA2
   10     9    64	5 ;      CG311      CG321       HGA2
   63     9    64	5 ;       HGA2      CG321       HGA2
    9    10    11	5 ;      CG321      CG311      CG331
    9    10    12	5 ;      CG321      CG311      CG2O1
    9    10    65	5 ;      CG321      CG311       HGA1
   11    10    12	5 ;      CG331      CG311      CG2O1
   11    10    65	5 ;      CG331      CG311       HGA1
   12    10    65	5 ;      CG2O1      CG311       HGA1
   10    11    66	5 ;      CG311      CG331       HGA3
   10    11    67	5 ;      CG311      CG331       HGA3
   10    11    68	5 ;      CG311      CG331       HGA3
   66    11    67	5 ;       HGA3      CG331       HGA3
   66    11    68	5 ;       HGA3      CG331       HGA3
   67    11    68	5 ;       HGA3      CG331       HGA3
   10    12    13	5 ;      CG311      CG2O1      OG2D1
   10    12    14	5 ;      CG311      CG2O1      NG2S1
   13    12    14	5 ;      OG2D1      CG2O1      NG2S1
   12    14    16	5 ;      CG2O1      NG2S1      CG311
   12    14    15	5 ;      CG2O1      NG2S1       HGP1
   16    14    15	5 ;      CG311      NG2S1       HGP1
   25    16    14	5 ;      CG311      CG311      NG2S1
   25    16    17	5 ;      CG311      CG311      CG2O1
   25    16    69	5 ;      CG311      CG311       HGA1
   14    16    17	5 ;      NG2S1      CG311      CG2O1
   14    16    69	5 ;      NG2S1      CG311       HGA1
   17    16    69	5 ;      CG2O1      CG311       HGA1
   16    17    19	5 ;      CG311      CG2O1      NG2S1
   16    17    18	5 ;      CG311      CG2O1      OG2D1
   19    17    18	5 ;      NG2S1      CG2O1      OG2D1
   20    19    17	5 ;       HGP1      NG2S1      CG2O1
   20    19    21	5 ;       HGP1      NG2S1      CG321
   17    19    21	5 ;      CG2O1      NG2S1      CG321
   19    21    22	5 ;      NG2S1      CG321      CG311
   19    21    70	5 ;      NG2S1      CG321       HGA2
   19    21    71	5 ;      NG2S1      CG321       HGA2
   22    21    70	5 ;      CG311      CG321       HGA2
   22    21    71	5 ;      CG311      CG321       HGA2
   70    21    71	5 ;       HGA2      CG321       HGA2
   21    22    24	5 ;      CG321      CG311      CG331
   21    22    23	5 ;      CG321      CG311      CG331
   21    22    72	5 ;      CG321      CG311       HGA1
   24    22    23	5 ;      CG331      CG311      CG331
   24    22    72	5 ;      CG331      CG311       HGA1
   23    22    72	5 ;      CG331      CG311       HGA1
   22    23    73	5 ;      CG311      CG331       HGA3
   22    23    74	5 ;      CG311      CG331       HGA3
   22    23    75	5 ;      CG311      CG331       HGA3
   73    23    74	5 ;       HGA3      CG331       HGA3
   73    23    75	5 ;       HGA3      CG331       HGA3
   74    23    75	5 ;       HGA3      CG331       HGA3
   22    24    76	5 ;      CG311      CG331       HGA3
   22    24    77	5 ;      CG311      CG331       HGA3
   22    24    78	5 ;      CG311      CG331       HGA3
   76    24    77	5 ;       HGA3      CG331       HGA3
   76    24    78	5 ;       HGA3      CG331       HGA3
   77    24    78	5 ;       HGA3      CG331       HGA3
   27    25    26	5 ;      CG331      CG311      CG331
   27    25    16	5 ;      CG331      CG311      CG311
   27    25    79	5 ;      CG331      CG311       HGA1
   26    25    16	5 ;      CG331      CG311      CG311
   26    25    79	5 ;      CG331      CG311       HGA1
   16    25    79	5 ;      CG311      CG311       HGA1
   25    26    80	5 ;      CG311      CG331       HGA3
   25    26    81	5 ;      CG311      CG331       HGA3
   25    26    82	5 ;      CG311      CG331       HGA3
   80    26    81	5 ;       HGA3      CG331       HGA3
   80    26    82	5 ;       HGA3      CG331       HGA3
   81    26    82	5 ;       HGA3      CG331       HGA3
   25    27    83	5 ;      CG311      CG331       HGA3
   25    27    84	5 ;      CG311      CG331       HGA3
   25    27    85	5 ;      CG311      CG331       HGA3
   83    27    84	5 ;       HGA3      CG331       HGA3
   83    27    85	5 ;       HGA3      CG331       HGA3
   84    27    85	5 ;       HGA3      CG331       HGA3
   29    28    31	5 ;      CG2O1      NG2S1       HGP1
   29    28     1	5 ;      CG2O1      NG2S1      CG311
   31    28     1	5 ;       HGP1      NG2S1      CG311
   32    29    30	5 ;      CG311      CG2O1      OG2D1
   32    29    28	5 ;      CG311      CG2O1      NG2S1
   30    29    28	5 ;      OG2D1      CG2O1      NG2S1
   33    32    47	5 ;      NG2S1      CG311      CG321
   33    32    29	5 ;      NG2S1      CG311      CG2O1
   33    32    86	5 ;      NG2S1      CG311       HGA1
   47    32    29	5 ;      CG321      CG311      CG2O1
   47    32    86	5 ;      CG321      CG311       HGA1
   29    32    86	5 ;      CG2O1      CG311       HGA1
   36    33    34	5 ;       HGP1      NG2S1      CG2O6
   36    33    32	5 ;       HGP1      NG2S1      CG311
   34    33    32	5 ;      CG2O6      NG2S1      CG311
   35    34    33	5 ;      OG2D1      CG2O6      NG2S1
   35    34    37	5 ;      OG2D1      CG2O6      OG302
   33    34    37	5 ;      NG2S1      CG2O6      OG302
   34    37    38	5 ;      CG2O6      OG302      CG321
   37    38    39	5 ;      OG302      CG321     NG3C51
   37    38    87	5 ;      OG302      CG321       HGA2
   37    38    88	5 ;      OG302      CG321       HGA2
   39    38    87	5 ;     NG3C51      CG321       HGA2
   39    38    88	5 ;     NG3C51      CG321       HGA2
   87    38    88	5 ;       HGA2      CG321       HGA2
   38    39    40	5 ;      CG321     NG3C51     NG3C51
   38    39    45	5 ;      CG321     NG3C51     CG2R51
   40    39    45	5 ;     NG3C51     NG3C51     CG2R51
   42    40    39	5 ;       HGP1     NG3C51     NG3C51
   42    40    41	5 ;       HGP1     NG3C51     CG3C51
   39    40    41	5 ;     NG3C51     NG3C51     CG3C51
   40    41    44	5 ;     NG3C51     CG3C51      CG331
   40    41    43	5 ;     NG3C51     CG3C51     CG2R51
   40    41    89	5 ;     NG3C51     CG3C51       HGA1
   44    41    43	5 ;      CG331     CG3C51     CG2R51
   44    41    89	5 ;      CG331     CG3C51       HGA1
   43    41    89	5 ;     CG2R51     CG3C51       HGA1
   45    43    41	5 ;     CG2R51     CG2R51     CG3C51
   45    43    90	5 ;     CG2R51     CG2R51      HGR51
   41    43    90	5 ;     CG3C51     CG2R51      HGR51
   41    44    91	5 ;     CG3C51      CG331       HGA3
   41    44    92	5 ;     CG3C51      CG331       HGA3
   41    44    93	5 ;     CG3C51      CG331       HGA3
   91    44    92	5 ;       HGA3      CG331       HGA3
   91    44    93	5 ;       HGA3      CG331       HGA3
   92    44    93	5 ;       HGA3      CG331       HGA3
   39    45    46	5 ;     NG3C51     CG2R51      CG331
   39    45    43	5 ;     NG3C51     CG2R51     CG2R51
   46    45    43	5 ;      CG331     CG2R51     CG2R51
   45    46    94	5 ;     CG2R51      CG331       HGA3
   45    46    95	5 ;     CG2R51      CG331       HGA3
   45    46    96	5 ;     CG2R51      CG331       HGA3
   94    46    95	5 ;       HGA3      CG331       HGA3
   94    46    96	5 ;       HGA3      CG331       HGA3
   95    46    96	5 ;       HGA3      CG331       HGA3
   48    47    32	5 ;      SG3O2      CG321      CG311
   48    47    97	5 ;      SG3O2      CG321       HGA2
   48    47    98	5 ;      SG3O2      CG321       HGA2
   32    47    97	5 ;      CG311      CG321       HGA2
   32    47    98	5 ;      CG311      CG321       HGA2
   97    47    98	5 ;       HGA2      CG321       HGA2
   50    48    49	5 ;      OG2P1      SG3O2      OG2P1
   50    48    51	5 ;      OG2P1      SG3O2      CG331
   50    48    47	5 ;      OG2P1      SG3O2      CG321
   49    48    51	5 ;      OG2P1      SG3O2      CG331
   49    48    47	5 ;      OG2P1      SG3O2      CG321
   51    48    47	5 ;      CG331      SG3O2      CG321
   48    51    99	5 ;      SG3O2      CG331       HGA3
   48    51   100	5 ;      SG3O2      CG331       HGA3
   48    51   101	5 ;      SG3O2      CG331       HGA3
   99    51   100	5 ;       HGA3      CG331       HGA3
   99    51   101	5 ;       HGA3      CG331       HGA3
  100    51   101	5 ;       HGA3      CG331       HGA3

[ dihedrals ]
;	ai	  aj	ak	  al funct			  c0			c1			  c2			c3			  c4			c5
    6     1    28    29	 9 ;      CG311      CG311      NG2S1      CG2O1
    6     1    28    31	 9 ;      CG311      CG311      NG2S1       HGP1
    2     1    28    29	 9 ;      CG321      CG311      NG2S1      CG2O1
    2     1    28    31	 9 ;      CG321      CG311      NG2S1       HGP1
   52     1    28    29	 9 ;       HGA1      CG311      NG2S1      CG2O1
   52     1    28    31	 9 ;       HGA1      CG311      NG2S1       HGP1
   28     1     6     7	 9 ;      NG2S1      CG311      CG311      OG311
   28     1     6     9	 9 ;      NG2S1      CG311      CG311      CG321
   28     1     6    62	 9 ;      NG2S1      CG311      CG311       HGA1
    2     1     6     7	 9 ;      CG321      CG311      CG311      OG311
    2     1     6     9	 9 ;      CG321      CG311      CG311      CG321
    2     1     6    62	 9 ;      CG321      CG311      CG311       HGA1
   52     1     6     7	 9 ;       HGA1      CG311      CG311      OG311
   52     1     6     9	 9 ;       HGA1      CG311      CG311      CG321
   52     1     6    62	 9 ;       HGA1      CG311      CG311       HGA1
   28     1     2     3	 9 ;      NG2S1      CG311      CG321      CG311
   28     1     2    53	 9 ;      NG2S1      CG311      CG321       HGA2
   28     1     2    54	 9 ;      NG2S1      CG311      CG321       HGA2
    6     1     2     3	 9 ;      CG311      CG311      CG321      CG311
    6     1     2    53	 9 ;      CG311      CG311      CG321       HGA2
    6     1     2    54	 9 ;      CG311      CG311      CG321       HGA2
   52     1     2     3	 9 ;       HGA1      CG311      CG321      CG311
   52     1     2    53	 9 ;       HGA1      CG311      CG321       HGA2
   52     1     2    54	 9 ;       HGA1      CG311      CG321       HGA2
    1     2     3     5	 9 ;      CG311      CG321      CG311      CG331
    1     2     3     4	 9 ;      CG311      CG321      CG311      CG331
    1     2     3    55	 9 ;      CG311      CG321      CG311       HGA1
   53     2     3     5	 9 ;       HGA2      CG321      CG311      CG331
   53     2     3     4	 9 ;       HGA2      CG321      CG311      CG331
   53     2     3    55	 9 ;       HGA2      CG321      CG311       HGA1
   54     2     3     5	 9 ;       HGA2      CG321      CG311      CG331
   54     2     3     4	 9 ;       HGA2      CG321      CG311      CG331
   54     2     3    55	 9 ;       HGA2      CG321      CG311       HGA1
    2     3     5    59	 9 ;      CG321      CG311      CG331       HGA3
    2     3     5    60	 9 ;      CG321      CG311      CG331       HGA3
    2     3     5    61	 9 ;      CG321      CG311      CG331       HGA3
    4     3     5    59	 9 ;      CG331      CG311      CG331       HGA3
    4     3     5    60	 9 ;      CG331      CG311      CG331       HGA3
    4     3     5    61	 9 ;      CG331      CG311      CG331       HGA3
   55     3     5    59	 9 ;       HGA1      CG311      CG331       HGA3
   55     3     5    60	 9 ;       HGA1      CG311      CG331       HGA3
   55     3     5    61	 9 ;       HGA1      CG311      CG331       HGA3
    2     3     4    56	 9 ;      CG321      CG311      CG331       HGA3
    2     3     4    57	 9 ;      CG321      CG311      CG331       HGA3
    2     3     4    58	 9 ;      CG321      CG311      CG331       HGA3
    5     3     4    56	 9 ;      CG331      CG311      CG331       HGA3
    5     3     4    57	 9 ;      CG331      CG311      CG331       HGA3
    5     3     4    58	 9 ;      CG331      CG311      CG331       HGA3
   55     3     4    56	 9 ;       HGA1      CG311      CG331       HGA3
   55     3     4    57	 9 ;       HGA1      CG311      CG331       HGA3
   55     3     4    58	 9 ;       HGA1      CG311      CG331       HGA3
    1     6     7     8	 9 ;      CG311      CG311      OG311       HGP1
    9     6     7     8	 9 ;      CG321      CG311      OG311       HGP1
   62     6     7     8	 9 ;       HGA1      CG311      OG311       HGP1
    1     6     9    10	 9 ;      CG311      CG311      CG321      CG311
    1     6     9    63	 9 ;      CG311      CG311      CG321       HGA2
    1     6     9    64	 9 ;      CG311      CG311      CG321       HGA2
    7     6     9    10	 9 ;      OG311      CG311      CG321      CG311
    7     6     9    63	 9 ;      OG311      CG311      CG321       HGA2
    7     6     9    64	 9 ;      OG311      CG311      CG321       HGA2
   62     6     9    10	 9 ;       HGA1      CG311      CG321      CG311
   62     6     9    63	 9 ;       HGA1      CG311      CG321       HGA2
   62     6     9    64	 9 ;       HGA1      CG311      CG321       HGA2
    6     9    10    11	 9 ;      CG311      CG321      CG311      CG331
    6     9    10    12	 9 ;      CG311      CG321      CG311      CG2O1
    6     9    10    65	 9 ;      CG311      CG321      CG311       HGA1
   63     9    10    11	 9 ;       HGA2      CG321      CG311      CG331
   63     9    10    12	 9 ;       HGA2      CG321      CG311      CG2O1
   63     9    10    65	 9 ;       HGA2      CG321      CG311       HGA1
   64     9    10    11	 9 ;       HGA2      CG321      CG311      CG331
   64     9    10    12	 9 ;       HGA2      CG321      CG311      CG2O1
   64     9    10    65	 9 ;       HGA2      CG321      CG311       HGA1
    9    10    11    66	 9 ;      CG321      CG311      CG331       HGA3
    9    10    11    67	 9 ;      CG321      CG311      CG331       HGA3
    9    10    11    68	 9 ;      CG321      CG311      CG331       HGA3
   12    10    11    66	 9 ;      CG2O1      CG311      CG331       HGA3
   12    10    11    67	 9 ;      CG2O1      CG311      CG331       HGA3
   12    10    11    68	 9 ;      CG2O1      CG311      CG331       HGA3
   65    10    11    66	 9 ;       HGA1      CG311      CG331       HGA3
   65    10    11    67	 9 ;       HGA1      CG311      CG331       HGA3
   65    10    11    68	 9 ;       HGA1      CG311      CG331       HGA3
    9    10    12    13	 9 ;      CG321      CG311      CG2O1      OG2D1
    9    10    12    14	 9 ;      CG321      CG311      CG2O1      NG2S1
   11    10    12    13	 9 ;      CG331      CG311      CG2O1      OG2D1
   11    10    12    14	 9 ;      CG331      CG311      CG2O1      NG2S1
   65    10    12    13	 9 ;       HGA1      CG311      CG2O1      OG2D1
   65    10    12    14	 9 ;       HGA1      CG311      CG2O1      NG2S1
   10    12    14    16	 9 ;      CG311      CG2O1      NG2S1      CG311
   10    12    14    15	 9 ;      CG311      CG2O1      NG2S1       HGP1
   13    12    14    16	 9 ;      OG2D1      CG2O1      NG2S1      CG311
   13    12    14    15	 9 ;      OG2D1      CG2O1      NG2S1       HGP1
   12    14    16    25	 9 ;      CG2O1      NG2S1      CG311      CG311
   12    14    16    17	 9 ;      CG2O1      NG2S1      CG311      CG2O1
   12    14    16    69	 9 ;      CG2O1      NG2S1      CG311       HGA1
   15    14    16    25	 9 ;       HGP1      NG2S1      CG311      CG311
   15    14    16    17	 9 ;       HGP1      NG2S1      CG311      CG2O1
   15    14    16    69	 9 ;       HGP1      NG2S1      CG311       HGA1
   14    16    25    27	 9 ;      NG2S1      CG311      CG311      CG331
   14    16    25    26	 9 ;      NG2S1      CG311      CG311      CG331
   14    16    25    79	 9 ;      NG2S1      CG311      CG311       HGA1
   17    16    25    27	 9 ;      CG2O1      CG311      CG311      CG331
   17    16    25    26	 9 ;      CG2O1      CG311      CG311      CG331
   17    16    25    79	 9 ;      CG2O1      CG311      CG311       HGA1
   69    16    25    27	 9 ;       HGA1      CG311      CG311      CG331
   69    16    25    26	 9 ;       HGA1      CG311      CG311      CG331
   69    16    25    79	 9 ;       HGA1      CG311      CG311       HGA1
   25    16    17    19	 9 ;      CG311      CG311      CG2O1      NG2S1
   25    16    17    18	 9 ;      CG311      CG311      CG2O1      OG2D1
   14    16    17    19	 9 ;      NG2S1      CG311      CG2O1      NG2S1
   14    16    17    18	 9 ;      NG2S1      CG311      CG2O1      OG2D1
   69    16    17    19	 9 ;       HGA1      CG311      CG2O1      NG2S1
   69    16    17    18	 9 ;       HGA1      CG311      CG2O1      OG2D1
   16    17    19    20	 9 ;      CG311      CG2O1      NG2S1       HGP1
   16    17    19    21	 9 ;      CG311      CG2O1      NG2S1      CG321
   18    17    19    20	 9 ;      OG2D1      CG2O1      NG2S1       HGP1
   18    17    19    21	 9 ;      OG2D1      CG2O1      NG2S1      CG321
   20    19    21    22	 9 ;       HGP1      NG2S1      CG321      CG311
   20    19    21    70	 9 ;       HGP1      NG2S1      CG321       HGA2
   20    19    21    71	 9 ;       HGP1      NG2S1      CG321       HGA2
   17    19    21    22	 9 ;      CG2O1      NG2S1      CG321      CG311
   17    19    21    70	 9 ;      CG2O1      NG2S1      CG321       HGA2
   17    19    21    71	 9 ;      CG2O1      NG2S1      CG321       HGA2
   19    21    22    24	 9 ;      NG2S1      CG321      CG311      CG331
   19    21    22    23	 9 ;      NG2S1      CG321      CG311      CG331
   19    21    22    72	 9 ;      NG2S1      CG321      CG311       HGA1
   70    21    22    24	 9 ;       HGA2      CG321      CG311      CG331
   70    21    22    23	 9 ;       HGA2      CG321      CG311      CG331
   70    21    22    72	 9 ;       HGA2      CG321      CG311       HGA1
   71    21    22    24	 9 ;       HGA2      CG321      CG311      CG331
   71    21    22    23	 9 ;       HGA2      CG321      CG311      CG331
   71    21    22    72	 9 ;       HGA2      CG321      CG311       HGA1
   21    22    24    76	 9 ;      CG321      CG311      CG331       HGA3
   21    22    24    77	 9 ;      CG321      CG311      CG331       HGA3
   21    22    24    78	 9 ;      CG321      CG311      CG331       HGA3
   23    22    24    76	 9 ;      CG331      CG311      CG331       HGA3
   23    22    24    77	 9 ;      CG331      CG311      CG331       HGA3
   23    22    24    78	 9 ;      CG331      CG311      CG331       HGA3
   72    22    24    76	 9 ;       HGA1      CG311      CG331       HGA3
   72    22    24    77	 9 ;       HGA1      CG311      CG331       HGA3
   72    22    24    78	 9 ;       HGA1      CG311      CG331       HGA3
   21    22    23    73	 9 ;      CG321      CG311      CG331       HGA3
   21    22    23    74	 9 ;      CG321      CG311      CG331       HGA3
   21    22    23    75	 9 ;      CG321      CG311      CG331       HGA3
   24    22    23    73	 9 ;      CG331      CG311      CG331       HGA3
   24    22    23    74	 9 ;      CG331      CG311      CG331       HGA3
   24    22    23    75	 9 ;      CG331      CG311      CG331       HGA3
   72    22    23    73	 9 ;       HGA1      CG311      CG331       HGA3
   72    22    23    74	 9 ;       HGA1      CG311      CG331       HGA3
   72    22    23    75	 9 ;       HGA1      CG311      CG331       HGA3
   26    25    27    83	 9 ;      CG331      CG311      CG331       HGA3
   26    25    27    84	 9 ;      CG331      CG311      CG331       HGA3
   26    25    27    85	 9 ;      CG331      CG311      CG331       HGA3
   16    25    27    83	 9 ;      CG311      CG311      CG331       HGA3
   16    25    27    84	 9 ;      CG311      CG311      CG331       HGA3
   16    25    27    85	 9 ;      CG311      CG311      CG331       HGA3
   79    25    27    83	 9 ;       HGA1      CG311      CG331       HGA3
   79    25    27    84	 9 ;       HGA1      CG311      CG331       HGA3
   79    25    27    85	 9 ;       HGA1      CG311      CG331       HGA3
   27    25    26    80	 9 ;      CG331      CG311      CG331       HGA3
   27    25    26    81	 9 ;      CG331      CG311      CG331       HGA3
   27    25    26    82	 9 ;      CG331      CG311      CG331       HGA3
   16    25    26    80	 9 ;      CG311      CG311      CG331       HGA3
   16    25    26    81	 9 ;      CG311      CG311      CG331       HGA3
   16    25    26    82	 9 ;      CG311      CG311      CG331       HGA3
   79    25    26    80	 9 ;       HGA1      CG311      CG331       HGA3
   79    25    26    81	 9 ;       HGA1      CG311      CG331       HGA3
   79    25    26    82	 9 ;       HGA1      CG311      CG331       HGA3
   31    28    29    32	 9 ;       HGP1      NG2S1      CG2O1      CG311
   31    28    29    30	 9 ;       HGP1      NG2S1      CG2O1      OG2D1
    1    28    29    32	 9 ;      CG311      NG2S1      CG2O1      CG311
    1    28    29    30	 9 ;      CG311      NG2S1      CG2O1      OG2D1
   30    29    32    33	 9 ;      OG2D1      CG2O1      CG311      NG2S1
   30    29    32    47	 9 ;      OG2D1      CG2O1      CG311      CG321
   30    29    32    86	 9 ;      OG2D1      CG2O1      CG311       HGA1
   28    29    32    33	 9 ;      NG2S1      CG2O1      CG311      NG2S1
   28    29    32    47	 9 ;      NG2S1      CG2O1      CG311      CG321
   28    29    32    86	 9 ;      NG2S1      CG2O1      CG311       HGA1
   47    32    33    36	 9 ;      CG321      CG311      NG2S1       HGP1
   47    32    33    34	 9 ;      CG321      CG311      NG2S1      CG2O6
   29    32    33    36	 9 ;      CG2O1      CG311      NG2S1       HGP1
   29    32    33    34	 9 ;      CG2O1      CG311      NG2S1      CG2O6
   86    32    33    36	 9 ;       HGA1      CG311      NG2S1       HGP1
   86    32    33    34	 9 ;       HGA1      CG311      NG2S1      CG2O6
   33    32    47    48	 9 ;      NG2S1      CG311      CG321      SG3O2
   33    32    47    97	 9 ;      NG2S1      CG311      CG321       HGA2
   33    32    47    98	 9 ;      NG2S1      CG311      CG321       HGA2
   29    32    47    48	 9 ;      CG2O1      CG311      CG321      SG3O2
   29    32    47    97	 9 ;      CG2O1      CG311      CG321       HGA2
   29    32    47    98	 9 ;      CG2O1      CG311      CG321       HGA2
   86    32    47    48	 9 ;       HGA1      CG311      CG321      SG3O2
   86    32    47    97	 9 ;       HGA1      CG311      CG321       HGA2
   86    32    47    98	 9 ;       HGA1      CG311      CG321       HGA2
   36    33    34    35	 9 ;       HGP1      NG2S1      CG2O6      OG2D1
   36    33    34    37	 9 ;       HGP1      NG2S1      CG2O6      OG302
   32    33    34    35	 9 ;      CG311      NG2S1      CG2O6      OG2D1
   32    33    34    37	 9 ;      CG311      NG2S1      CG2O6      OG302
   35    34    37    38	 9 ;      OG2D1      CG2O6      OG302      CG321
   33    34    37    38	 9 ;      NG2S1      CG2O6      OG302      CG321
   34    37    38    39	 9 ;      CG2O6      OG302      CG321     NG3C51
   34    37    38    87	 9 ;      CG2O6      OG302      CG321       HGA2
   34    37    38    88	 9 ;      CG2O6      OG302      CG321       HGA2
   37    38    39    40	 9 ;      OG302      CG321     NG3C51     NG3C51
   37    38    39    45	 9 ;      OG302      CG321     NG3C51     CG2R51
   87    38    39    40	 9 ;       HGA2      CG321     NG3C51     NG3C51
   87    38    39    45	 9 ;       HGA2      CG321     NG3C51     CG2R51
   88    38    39    40	 9 ;       HGA2      CG321     NG3C51     NG3C51
   88    38    39    45	 9 ;       HGA2      CG321     NG3C51     CG2R51
   38    39    40    42	 9 ;      CG321     NG3C51     NG3C51       HGP1
   38    39    40    41	 9 ;      CG321     NG3C51     NG3C51     CG3C51
   45    39    40    42	 9 ;     CG2R51     NG3C51     NG3C51       HGP1
   45    39    40    41	 9 ;     CG2R51     NG3C51     NG3C51     CG3C51
   38    39    45    46	 9 ;      CG321     NG3C51     CG2R51      CG331
   38    39    45    43	 9 ;      CG321     NG3C51     CG2R51     CG2R51
   40    39    45    46	 9 ;     NG3C51     NG3C51     CG2R51      CG331
   40    39    45    43	 9 ;     NG3C51     NG3C51     CG2R51     CG2R51
   42    40    41    44	 9 ;       HGP1     NG3C51     CG3C51      CG331
   42    40    41    43	 9 ;       HGP1     NG3C51     CG3C51     CG2R51
   42    40    41    89	 9 ;       HGP1     NG3C51     CG3C51       HGA1
   39    40    41    44	 9 ;     NG3C51     NG3C51     CG3C51      CG331
   39    40    41    43	 9 ;     NG3C51     NG3C51     CG3C51     CG2R51
   39    40    41    89	 9 ;     NG3C51     NG3C51     CG3C51       HGA1
   40    41    44    91	 9 ;     NG3C51     CG3C51      CG331       HGA3
   40    41    44    92	 9 ;     NG3C51     CG3C51      CG331       HGA3
   40    41    44    93	 9 ;     NG3C51     CG3C51      CG331       HGA3
   43    41    44    91	 9 ;     CG2R51     CG3C51      CG331       HGA3
   43    41    44    92	 9 ;     CG2R51     CG3C51      CG331       HGA3
   43    41    44    93	 9 ;     CG2R51     CG3C51      CG331       HGA3
   89    41    44    91	 9 ;       HGA1     CG3C51      CG331       HGA3
   89    41    44    92	 9 ;       HGA1     CG3C51      CG331       HGA3
   89    41    44    93	 9 ;       HGA1     CG3C51      CG331       HGA3
   40    41    43    45	 9 ;     NG3C51     CG3C51     CG2R51     CG2R51
   40    41    43    90	 9 ;     NG3C51     CG3C51     CG2R51      HGR51
   44    41    43    45	 9 ;      CG331     CG3C51     CG2R51     CG2R51
   44    41    43    90	 9 ;      CG331     CG3C51     CG2R51      HGR51
   89    41    43    45	 9 ;       HGA1     CG3C51     CG2R51     CG2R51
   89    41    43    90	 9 ;       HGA1     CG3C51     CG2R51      HGR51
   41    43    45    39	 9 ;     CG3C51     CG2R51     CG2R51     NG3C51
   41    43    45    46	 9 ;     CG3C51     CG2R51     CG2R51      CG331
   90    43    45    39	 9 ;      HGR51     CG2R51     CG2R51     NG3C51
   90    43    45    46	 9 ;      HGR51     CG2R51     CG2R51      CG331
   39    45    46    94	 9 ;     NG3C51     CG2R51      CG331       HGA3
   39    45    46    95	 9 ;     NG3C51     CG2R51      CG331       HGA3
   39    45    46    96	 9 ;     NG3C51     CG2R51      CG331       HGA3
   43    45    46    94	 9 ;     CG2R51     CG2R51      CG331       HGA3
   43    45    46    95	 9 ;     CG2R51     CG2R51      CG331       HGA3
   43    45    46    96	 9 ;     CG2R51     CG2R51      CG331       HGA3
   32    47    48    50	 9 ;      CG311      CG321      SG3O2      OG2P1
   32    47    48    49	 9 ;      CG311      CG321      SG3O2      OG2P1
   32    47    48    51	 9 ;      CG311      CG321      SG3O2      CG331
   97    47    48    50	 9 ;       HGA2      CG321      SG3O2      OG2P1
   97    47    48    49	 9 ;       HGA2      CG321      SG3O2      OG2P1
   97    47    48    51	 9 ;       HGA2      CG321      SG3O2      CG331
   98    47    48    50	 9 ;       HGA2      CG321      SG3O2      OG2P1
   98    47    48    49	 9 ;       HGA2      CG321      SG3O2      OG2P1
   98    47    48    51	 9 ;       HGA2      CG321      SG3O2      CG331
   50    48    51    99	 9 ;      OG2P1      SG3O2      CG331       HGA3
   50    48    51   100	 9 ;      OG2P1      SG3O2      CG331       HGA3
   50    48    51   101	 9 ;      OG2P1      SG3O2      CG331       HGA3
   49    48    51    99	 9 ;      OG2P1      SG3O2      CG331       HGA3
   49    48    51   100	 9 ;      OG2P1      SG3O2      CG331       HGA3
   49    48    51   101	 9 ;      OG2P1      SG3O2      CG331       HGA3
   47    48    51    99	 9 ;      CG321      SG3O2      CG331       HGA3
   47    48    51   100	 9 ;      CG321      SG3O2      CG331       HGA3
   47    48    51   101	 9 ;      CG321      SG3O2      CG331       HGA3

[ dihedrals ]
;	ai	  aj	ak	  al funct			  c0			c1			  c2			c3
   12    10    14    13	 2
   17    16    19    18	 2
   29    32    28    30	 2
   34    33    35    37	 2

