Gromacs Runs On Most of All Computer Systems
  101
    1LIG     C1    1  -1.599   0.507  -1.737
    1LIG     C2    2  -1.609   0.384  -1.641
    1LIG     C3    3  -1.475   0.317  -1.603
    1LIG     C4    4  -1.414   0.384  -1.479
    1LIG     C5    5  -1.488   0.167  -1.578
    1LIG     C6    6  -1.613   0.639  -1.653
    1LIG     O1    7  -1.661   0.748  -1.731
    1LIG     H1    8  -1.595   0.769  -1.797
    1LIG     C7    9  -1.698   0.632  -1.524
    1LIG     C8   10  -1.635   0.664  -1.387
    1LIG     C9   11  -1.522   0.766  -1.388
    1LIG    C10   12  -1.738   0.689  -1.277
    1LIG     O2   13  -1.809   0.789  -1.271
    1LIG     N1   14  -1.755   0.594  -1.181
    1LIG     H2   15  -1.830   0.616  -1.116
    1LIG    C11   16  -1.697   0.460  -1.174
    1LIG    C12   17  -1.633   0.433  -1.035
    1LIG     O3   18  -1.588   0.523  -0.965
    1LIG     N2   19  -1.643   0.303  -0.989
    1LIG     H3   20  -1.699   0.237  -1.043
    1LIG    C13   21  -1.593   0.262  -0.859
    1LIG    C14   22  -1.705   0.224  -0.761
    1LIG    C15   23  -1.738   0.341  -0.669
    1LIG    C16   24  -1.830   0.179  -0.838
    1LIG    C17   25  -1.797   0.350  -1.218
    1LIG    C18   26  -1.942   0.391  -1.191
    1LIG    C19   27  -1.782   0.310  -1.365
    1LIG     N3   28  -1.467   0.503  -1.806
    1LIG    C20   29  -1.434   0.566  -1.927
    1LIG     O4   30  -1.505   0.654  -1.974
    1LIG     H4   31  -1.403   0.439  -1.762
    1LIG    C21   32  -1.301   0.516  -2.002
    1LIG     N4   33  -1.326   0.402  -2.092
    1LIG    C22   34  -1.332   0.269  -2.055
    1LIG     O5   35  -1.347   0.178  -2.135
    1LIG     H5   36  -1.335   0.416  -2.192
    1LIG     O6   37  -1.322   0.253  -1.920
    1LIG    C23   38  -1.252   0.138  -1.874
    1LIG     N5   39  -1.170   0.174  -1.758
    1LIG     N6   40  -1.129   0.302  -1.744
    1LIG    C24   41  -1.068   0.305  -1.625
    1LIG     HN   42  -1.141   0.379  -1.810
    1LIG    C25   43  -1.061   0.176  -1.567
    1LIG    C26   44  -1.020   0.433  -1.569
    1LIG    C27   45  -1.125   0.093  -1.656
    1LIG    C28   46  -1.148  -0.054  -1.649
    1LIG    C29   47  -1.240   0.633  -2.075
    1LIG      S   48  -1.235   0.639  -2.250
    1LIG     O7   49  -1.364   0.683  -2.299
    1LIG     O8   50  -1.170   0.520  -2.299
    1LIG    C30   51  -1.121   0.775  -2.270
    1LIG     H6   52  -1.677   0.505  -1.810
    1LIG     H7   53  -1.670   0.310  -1.689
    1LIG     H8   54  -1.649   0.422  -1.549
    1LIG     H9   55  -1.410   0.330  -1.688
    1LIG    H10   56  -1.479   0.370  -1.396
    1LIG    H11   57  -1.401   0.488  -1.498
    1LIG    H12   58  -1.319   0.340  -1.458
    1LIG    H13   59  -1.552   0.151  -1.494
    1LIG    H14   60  -1.392   0.126  -1.558
    1LIG    H15   61  -1.530   0.120  -1.664
    1LIG    H16   62  -1.512   0.653  -1.621
    1LIG    H17   63  -1.736   0.533  -1.518
    1LIG    H18   64  -1.767   0.712  -1.538
    1LIG    H19   65  -1.586   0.572  -1.361
    1LIG    H20   66  -1.561   0.863  -1.413
    1LIG    H21   67  -1.449   0.738  -1.460
    1LIG    H22   68  -1.477   0.770  -1.291
    1LIG    H23   69  -1.617   0.456  -1.245
    1LIG    H24   70  -1.537   0.342  -0.817
    1LIG    H25   71  -1.533   0.175  -0.874
    1LIG    H26   72  -1.671   0.142  -0.701
    1LIG    H27   73  -1.773   0.424  -0.727
    1LIG    H28   74  -1.650   0.369  -0.614
    1LIG    H29   75  -1.815   0.312  -0.600
    1LIG    H30   76  -1.865   0.260  -0.899
    1LIG    H31   77  -1.906   0.151  -0.768
    1LIG    H32   78  -1.806   0.095  -0.900
    1LIG    H33   79  -1.772   0.265  -1.158
    1LIG    H34   80  -1.966   0.477  -1.251
    1LIG    H35   81  -1.953   0.416  -1.087
    1LIG    H36   82  -2.007   0.310  -1.216
    1LIG    H37   83  -1.806   0.393  -1.428
    1LIG    H38   84  -1.848   0.228  -1.387
    1LIG    H39   85  -1.681   0.279  -1.384
    1LIG    H40   86  -1.233   0.478  -1.929
    1LIG    H41   87  -1.189   0.100  -1.952
    1LIG    H42   88  -1.322   0.062  -1.846
    1LIG    H43   89  -1.010   0.354  -1.550
    1LIG    H44   90  -1.017   0.151  -1.477
    1LIG    H45   91  -1.059   0.514  -1.627
    1LIG    H46   92  -0.913   0.435  -1.571
    1LIG    H47   93  -1.054   0.443  -1.467
    1LIG    H48   94  -1.202  -0.086  -1.736
    1LIG    H49   95  -1.205  -0.077  -1.562
    1LIG    H50   96  -1.054  -0.104  -1.645
    1LIG    H51   97  -1.294   0.720  -2.043
    1LIG    H52   98  -1.137   0.626  -2.049
    1LIG    H53   99  -1.105   0.793  -2.374
    1LIG    H54  100  -1.028   0.751  -2.223
    1LIG    H55  101  -1.162   0.863  -2.224
   0.00000   0.00000   0.00000
