Great Red Oystrich Makes All Chemists Sane
   73
    1LIG      S    1  -1.740   0.614  -1.703
    1LIG     O1    2  -1.838   0.566  -1.797
    1LIG     O2    3  -1.693   0.751  -1.704
    1LIG     C1    4  -1.795   0.571  -1.538
    1LIG     C2    5  -1.818   0.420  -1.526
    1LIG     C3    6  -1.691   0.339  -1.559
    1LIG     C4    7  -1.640   0.364  -1.703
    1LIG     C5    8  -1.598   0.509  -1.722
    1LIG     C6    9  -1.872   0.383  -1.386
    1LIG     C7   10  -2.018   0.346  -1.388
    1LIG     C8   11  -2.119   0.443  -1.378
    1LIG     C9   12  -2.253   0.406  -1.391
    1LIG      F   13  -2.349   0.500  -1.380
    1LIG    C10   14  -2.286   0.273  -1.410
    1LIG     N1   15  -2.416   0.216  -1.431
    1LIG    C11   16  -2.188   0.175  -1.397
    1LIG    C12   17  -2.389   0.069  -1.452
    1LIG     H1   18  -2.473   0.233  -1.347
    1LIG    C13   19  -2.258   0.038  -1.378
    1LIG    C14   20  -2.295   0.000  -1.230
    1LIG    C15   21  -2.169  -0.092  -1.373
    1LIG    C16   22  -2.156  -0.065  -1.220
    1LIG    C17   23  -2.053   0.211  -1.398
    1LIG     O3   24  -1.583   0.368  -1.470
    1LIG     H2   25  -1.573   0.294  -1.406
    1LIG     N2   26  -1.517   0.278  -1.726
    1LIG     H3   27  -1.503   0.212  -1.648
    1LIG     H4   28  -1.534   0.219  -1.809
    1LIG    C18   29  -1.388   0.350  -1.747
    1LIG    C19   30  -1.302   0.340  -1.625
    1LIG    C20   31  -1.276   0.213  -1.568
    1LIG    C21   32  -1.199   0.199  -1.452
    1LIG    C22   33  -1.149   0.317  -1.394
    1LIG    C23   34  -1.174   0.442  -1.448
    1LIG    C24   35  -1.250   0.454  -1.564
    1LIG    C25   36  -1.160   0.060  -1.398
    1LIG    C26   37  -1.247   0.034  -1.274
    1LIG    C27   38  -1.184  -0.052  -1.502
    1LIG    C28   39  -1.012   0.049  -1.356
    1LIG    HC2   40  -1.719   0.602  -1.466
    1LIG    HC3   41  -1.888   0.624  -1.516
    1LIG     HC   42  -1.894   0.393  -1.599
    1LIG    HC1   43  -1.716   0.233  -1.549
    1LIG    HC4   44  -1.717   0.338  -1.775
    1LIG    HC5   45  -1.556   0.522  -1.822
    1LIG    HC6   46  -1.523   0.536  -1.648
    1LIG    HC7   47  -1.858   0.468  -1.319
    1LIG    HC8   48  -1.815   0.298  -1.348
    1LIG    HC9   49  -2.093   0.546  -1.361
    1LIG   HC10   50  -2.471   0.010  -1.410
    1LIG   HC11   51  -2.379   0.049  -1.558
    1LIG   HC12   52  -2.310   0.086  -1.164
    1LIG   HC13   53  -2.376  -0.073  -1.224
    1LIG   HC14   54  -2.076  -0.086  -1.429
    1LIG   HC15   55  -2.226  -0.182  -1.395
    1LIG   HC16   56  -2.151  -0.154  -1.158
    1LIG   HC17   57  -2.077   0.007  -1.197
    1LIG   HC18   58  -1.977   0.135  -1.405
    1LIG   HC19   59  -1.336   0.307  -1.832
    1LIG   HC20   60  -1.409   0.455  -1.767
    1LIG   HC21   61  -1.317   0.125  -1.616
    1LIG   HC22   62  -1.089   0.309  -1.304
    1LIG   HC23   63  -1.135   0.531  -1.401
    1LIG   HC24   64  -1.270   0.552  -1.607
    1LIG   HC25   65  -1.353   0.040  -1.301
    1LIG   HC26   66  -1.225   0.108  -1.197
    1LIG   HC27   67  -1.226  -0.066  -1.235
    1LIG   HC28   68  -1.288  -0.050  -1.535
    1LIG   HC29   69  -1.118  -0.038  -1.587
    1LIG   HC30   70  -1.163  -0.149  -1.456
    1LIG   HC31   71  -0.989   0.127  -1.283
    1LIG   HC32   72  -0.993  -0.049  -1.312
    1LIG   HC33   73  -0.948   0.063  -1.443
   0.00000   0.00000   0.00000
