; Created by cgenff_charmm2gmx.py

[ moleculetype ]
; Name			   nrexcl
LIG				 3

[ atoms ]
;	 nr		  type	resnr residue  atom   cgnr	   charge		mass  typeB    chargeB		massB
; residue	 1 LIG rtp LIG q	qsum
     1      SG3O2      1    LIG      S      1      0.113     32.060   ;
     2      OG2P1      1    LIG     O1      2     -0.300     15.999   ;
     3      OG2P1      1    LIG     O2      3     -0.300     15.999   ;
     4      CG321      1    LIG     C1      4      0.180     12.011   ;
     5      CG311      1    LIG     C2      5     -0.145     12.011   ;
     6      CG311      1    LIG     C3      6      0.100     12.011   ;
     7      CG314      1    LIG     C4      7     -0.043     12.011   ;
     8      CG321      1    LIG     C5      8      0.224     12.011   ;
     9      CG321      1    LIG     C6      9     -0.084     12.011   ;
    10     CG2R61      1    LIG     C7     10     -0.101     12.011   ;
    11     CG2R61      1    LIG     C8     11     -0.112     12.011   ;
    12     CG2R66      1    LIG     C9     12      0.034     12.011   ;
    13       FGR1      1    LIG      F     13     -0.159     18.998   ;
    14     CG2RC0      1    LIG    C10     14      0.186     12.011   ;
    15     NG3C51      1    LIG     N1     15     -0.672     14.007   ;
    16     CG2RC0      1    LIG    C11     16     -0.085     12.011   ;
    17     CG3C52      1    LIG    C12     17     -0.089     12.011   ;
    18       HGP1      1    LIG     H1     18      0.335      1.008   ;
    19     CG3C41      1    LIG    C13     19      0.520     12.011   ;
    20     CG3C41      1    LIG    C14     20     -0.263     12.011   ;
    21     CG3C41      1    LIG    C15     21     -0.263     12.011   ;
    22     CG3C41      1    LIG    C16     22     -0.166     12.011   ;
    23     CG2R61      1    LIG    C17     23     -0.244     12.011   ;
    24      OG311      1    LIG     O3     24     -0.595     15.999   ;
    25       HGP1      1    LIG     H2     25      0.422      1.008   ;
    26      NG3P2      1    LIG     N2     26     -0.444     14.007   ;
    27       HGP2      1    LIG     H3     27      0.346      1.008   ;
    28       HGP2      1    LIG     H4     28      0.346      1.008   ;
    29      CG324      1    LIG    C18     29      0.178     12.011   ;
    30     CG2R61      1    LIG    C19     30      0.036     12.011   ;
    31     CG2R61      1    LIG    C20     31     -0.124     12.011   ;
    32     CG2R61      1    LIG    C21     32      0.084     12.011   ;
    33     CG2R61      1    LIG    C22     33     -0.121     12.011   ;
    34     CG2R61      1    LIG    C23     34     -0.108     12.011   ;
    35     CG2R61      1    LIG    C24     35     -0.119     12.011   ;
    36      CG301      1    LIG    C25     36     -0.018     12.011   ;
    37      CG331      1    LIG    C26     37     -0.289     12.011   ;
    38      CG331      1    LIG    C27     38     -0.289     12.011   ;
    39      CG331      1    LIG    C28     39     -0.289     12.011   ;
    40       HGA2      1    LIG    HC2     40      0.090      1.008   ;
    41       HGA2      1    LIG    HC3     41      0.090      1.008   ;
    42       HGA1      1    LIG     HC     42      0.090      1.008   ;
    43       HGA1      1    LIG    HC1     43      0.090      1.008   ;
    44       HGA1      1    LIG    HC4     44      0.109      1.008   ;
    45       HGA2      1    LIG    HC5     45      0.090      1.008   ;
    46       HGA2      1    LIG    HC6     46      0.090      1.008   ;
    47       HGA2      1    LIG    HC7     47      0.090      1.008   ;
    48       HGA2      1    LIG    HC8     48      0.090      1.008   ;
    49      HGR62      1    LIG    HC9     49      0.161      1.008   ;
    50       HGA2      1    LIG   HC10     50      0.090      1.008   ;
    51       HGA2      1    LIG   HC11     51      0.090      1.008   ;
    52       HGA2      1    LIG   HC12     52      0.090      1.008   ;
    53       HGA2      1    LIG   HC13     53      0.090      1.008   ;
    54       HGA2      1    LIG   HC14     54      0.090      1.008   ;
    55       HGA2      1    LIG   HC15     55      0.090      1.008   ;
    56       HGA2      1    LIG   HC16     56      0.090      1.008   ;
    57       HGA2      1    LIG   HC17     57      0.090      1.008   ;
    58      HGR61      1    LIG   HC18     58      0.154      1.008   ;
    59       HGA2      1    LIG   HC19     59      0.090      1.008   ;
    60       HGA2      1    LIG   HC20     60      0.090      1.008   ;
    61      HGR61      1    LIG   HC21     61      0.116      1.008   ;
    62      HGR61      1    LIG   HC22     62      0.116      1.008   ;
    63      HGR61      1    LIG   HC23     63      0.116      1.008   ;
    64      HGR61      1    LIG   HC24     64      0.116      1.008   ;
    65       HGA3      1    LIG   HC25     65      0.090      1.008   ;
    66       HGA3      1    LIG   HC26     66      0.090      1.008   ;
    67       HGA3      1    LIG   HC27     67      0.090      1.008   ;
    68       HGA3      1    LIG   HC28     68      0.090      1.008   ;
    69       HGA3      1    LIG   HC29     69      0.090      1.008   ;
    70       HGA3      1    LIG   HC30     70      0.090      1.008   ;
    71       HGA3      1    LIG   HC31     71      0.090      1.008   ;
    72       HGA3      1    LIG   HC32     72      0.090      1.008   ;
    73       HGA3      1    LIG   HC33     73      0.090      1.008   ;

[ bonds ]
;	ai	  aj funct			  c0			c1			  c2			c3
    1     8	 1 ;       SG3O2      CG321
    1     3	 1 ;       SG3O2      OG2P1
    1     2	 1 ;       SG3O2      OG2P1
    1     4	 1 ;       SG3O2      CG321
    4     5	 1 ;       CG321      CG311
    4    40	 1 ;       CG321       HGA2
    4    41	 1 ;       CG321       HGA2
    5     6	 1 ;       CG311      CG311
    5     9	 1 ;       CG311      CG321
    5    42	 1 ;       CG311       HGA1
    6     7	 1 ;       CG311      CG314
    6    24	 1 ;       CG311      OG311
    6    43	 1 ;       CG311       HGA1
    7    26	 1 ;       CG314      NG3P2
    7     8	 1 ;       CG314      CG321
    7    44	 1 ;       CG314       HGA1
    8    45	 1 ;       CG321       HGA2
    8    46	 1 ;       CG321       HGA2
    9    10	 1 ;       CG321     CG2R61
    9    47	 1 ;       CG321       HGA2
    9    48	 1 ;       CG321       HGA2
   10    23	 1 ;      CG2R61     CG2R61
   10    11	 1 ;      CG2R61     CG2R61
   11    12	 1 ;      CG2R61     CG2R66
   11    49	 1 ;      CG2R61      HGR62
   12    14	 1 ;      CG2R66     CG2RC0
   12    13	 1 ;      CG2R66       FGR1
   14    16	 1 ;      CG2RC0     CG2RC0
   14    15	 1 ;      CG2RC0     NG3C51
   15    17	 1 ;      NG3C51     CG3C52
   15    18	 1 ;      NG3C51       HGP1
   16    23	 1 ;      CG2RC0     CG2R61
   16    19	 1 ;      CG2RC0     CG3C41
   17    19	 1 ;      CG3C52     CG3C41
   17    50	 1 ;      CG3C52       HGA2
   17    51	 1 ;      CG3C52       HGA2
   19    21	 1 ;      CG3C41     CG3C41
   19    20	 1 ;      CG3C41     CG3C41
   20    22	 1 ;      CG3C41     CG3C41
   20    52	 1 ;      CG3C41       HGA2
   20    53	 1 ;      CG3C41       HGA2
   21    22	 1 ;      CG3C41     CG3C41
   21    54	 1 ;      CG3C41       HGA2
   21    55	 1 ;      CG3C41       HGA2
   22    56	 1 ;      CG3C41       HGA2
   22    57	 1 ;      CG3C41       HGA2
   23    58	 1 ;      CG2R61      HGR61
   24    25	 1 ;       OG311       HGP1
   26    29	 1 ;       NG3P2      CG324
   26    28	 1 ;       NG3P2       HGP2
   26    27	 1 ;       NG3P2       HGP2
   29    30	 1 ;       CG324     CG2R61
   29    59	 1 ;       CG324       HGA2
   29    60	 1 ;       CG324       HGA2
   30    35	 1 ;      CG2R61     CG2R61
   30    31	 1 ;      CG2R61     CG2R61
   31    32	 1 ;      CG2R61     CG2R61
   31    61	 1 ;      CG2R61      HGR61
   32    33	 1 ;      CG2R61     CG2R61
   32    36	 1 ;      CG2R61      CG301
   33    34	 1 ;      CG2R61     CG2R61
   33    62	 1 ;      CG2R61      HGR61
   34    35	 1 ;      CG2R61     CG2R61
   34    63	 1 ;      CG2R61      HGR61
   35    64	 1 ;      CG2R61      HGR61
   36    39	 1 ;       CG301      CG331
   36    38	 1 ;       CG301      CG331
   36    37	 1 ;       CG301      CG331
   37    65	 1 ;       CG331       HGA3
   37    66	 1 ;       CG331       HGA3
   37    67	 1 ;       CG331       HGA3
   38    68	 1 ;       CG331       HGA3
   38    69	 1 ;       CG331       HGA3
   38    70	 1 ;       CG331       HGA3
   39    71	 1 ;       CG331       HGA3
   39    72	 1 ;       CG331       HGA3
   39    73	 1 ;       CG331       HGA3

[ pairs ]
;	ai	  aj funct			  c0			c1			  c2			c3
    1     6	 1
    1     9	 1
    1    42	 1
    1    26	 1
    1    44	 1
    2     7	 1
    2    45	 1
    2    46	 1
    2     5	 1
    2    40	 1
    2    41	 1
    3     7	 1
    3    45	 1
    3    46	 1
    3     5	 1
    3    40	 1
    3    41	 1
    4     7	 1
    4    45	 1
    4    46	 1
    4    24	 1
    4    43	 1
    4    10	 1
    4    47	 1
    4    48	 1
    5     8	 1
    5    26	 1
    5    44	 1
    5    25	 1
    5    23	 1
    5    11	 1
    6    40	 1
    6    41	 1
    6    10	 1
    6    47	 1
    6    48	 1
    6    29	 1
    6    28	 1
    6    27	 1
    6    45	 1
    6    46	 1
    7     9	 1
    7    42	 1
    7    25	 1
    7    30	 1
    7    59	 1
    7    60	 1
    8    40	 1
    8    41	 1
    8    24	 1
    8    43	 1
    8    29	 1
    8    28	 1
    8    27	 1
    9    40	 1
    9    41	 1
    9    24	 1
    9    43	 1
    9    16	 1
    9    58	 1
    9    12	 1
    9    49	 1
   10    42	 1
   10    14	 1
   10    13	 1
   10    19	 1
   11    47	 1
   11    48	 1
   11    16	 1
   11    58	 1
   11    15	 1
   12    23	 1
   12    19	 1
   12    17	 1
   12    18	 1
   13    49	 1
   13    16	 1
   13    15	 1
   14    49	 1
   14    50	 1
   14    51	 1
   14    58	 1
   14    21	 1
   14    20	 1
   15    23	 1
   15    21	 1
   15    20	 1
   16    18	 1
   16    50	 1
   16    51	 1
   16    22	 1
   16    54	 1
   16    55	 1
   16    52	 1
   16    53	 1
   17    23	 1
   17    22	 1
   17    54	 1
   17    55	 1
   17    52	 1
   17    53	 1
   18    19	 1
   18    50	 1
   18    51	 1
   19    58	 1
   19    56	 1
   19    57	 1
   20    23	 1
   20    50	 1
   20    51	 1
   20    54	 1
   20    55	 1
   21    23	 1
   21    50	 1
   21    51	 1
   21    52	 1
   21    53	 1
   23    47	 1
   23    48	 1
   23    49	 1
   24    42	 1
   24    26	 1
   24    44	 1
   25    43	 1
   26    43	 1
   26    45	 1
   26    46	 1
   26    35	 1
   26    31	 1
   27    44	 1
   27    30	 1
   27    59	 1
   27    60	 1
   28    44	 1
   28    30	 1
   28    59	 1
   28    60	 1
   29    44	 1
   29    34	 1
   29    64	 1
   29    32	 1
   29    61	 1
   30    33	 1
   30    36	 1
   30    63	 1
   31    59	 1
   31    60	 1
   31    34	 1
   31    64	 1
   31    62	 1
   31    39	 1
   31    38	 1
   31    37	 1
   32    35	 1
   32    63	 1
   32    71	 1
   32    72	 1
   32    73	 1
   32    68	 1
   32    69	 1
   32    70	 1
   32    65	 1
   32    66	 1
   32    67	 1
   33    61	 1
   33    39	 1
   33    38	 1
   33    37	 1
   33    64	 1
   34    36	 1
   35    59	 1
   35    60	 1
   35    61	 1
   35    62	 1
   36    61	 1
   36    62	 1
   37    71	 1
   37    72	 1
   37    73	 1
   37    68	 1
   37    69	 1
   37    70	 1
   38    71	 1
   38    72	 1
   38    73	 1
   38    65	 1
   38    66	 1
   38    67	 1
   39    68	 1
   39    69	 1
   39    70	 1
   39    65	 1
   39    66	 1
   39    67	 1
   40    42	 1
   41    42	 1
   42    43	 1
   42    47	 1
   42    48	 1
   43    44	 1
   44    45	 1
   44    46	 1
   52    56	 1
   52    57	 1
   53    56	 1
   53    57	 1
   54    56	 1
   54    57	 1
   55    56	 1
   55    57	 1
   62    63	 1
   63    64	 1

[ angles ]
;	ai	  aj	ak funct			c0			  c1			c2			  c3
    8     1     3	5 ;      CG321      SG3O2      OG2P1
    8     1     2	5 ;      CG321      SG3O2      OG2P1
    8     1     4	5 ;      CG321      SG3O2      CG321
    3     1     2	5 ;      OG2P1      SG3O2      OG2P1
    3     1     4	5 ;      OG2P1      SG3O2      CG321
    2     1     4	5 ;      OG2P1      SG3O2      CG321
    1     4     5	5 ;      SG3O2      CG321      CG311
    1     4    40	5 ;      SG3O2      CG321       HGA2
    1     4    41	5 ;      SG3O2      CG321       HGA2
    5     4    40	5 ;      CG311      CG321       HGA2
    5     4    41	5 ;      CG311      CG321       HGA2
   40     4    41	5 ;       HGA2      CG321       HGA2
    6     5     4	5 ;      CG311      CG311      CG321
    6     5     9	5 ;      CG311      CG311      CG321
    6     5    42	5 ;      CG311      CG311       HGA1
    4     5     9	5 ;      CG321      CG311      CG321
    4     5    42	5 ;      CG321      CG311       HGA1
    9     5    42	5 ;      CG321      CG311       HGA1
    7     6    24	5 ;      CG314      CG311      OG311
    7     6     5	5 ;      CG314      CG311      CG311
    7     6    43	5 ;      CG314      CG311       HGA1
   24     6     5	5 ;      OG311      CG311      CG311
   24     6    43	5 ;      OG311      CG311       HGA1
    5     6    43	5 ;      CG311      CG311       HGA1
   26     7     8	5 ;      NG3P2      CG314      CG321
   26     7     6	5 ;      NG3P2      CG314      CG311
   26     7    44	5 ;      NG3P2      CG314       HGA1
    8     7     6	5 ;      CG321      CG314      CG311
    8     7    44	5 ;      CG321      CG314       HGA1
    6     7    44	5 ;      CG311      CG314       HGA1
    7     8     1	5 ;      CG314      CG321      SG3O2
    7     8    45	5 ;      CG314      CG321       HGA2
    7     8    46	5 ;      CG314      CG321       HGA2
    1     8    45	5 ;      SG3O2      CG321       HGA2
    1     8    46	5 ;      SG3O2      CG321       HGA2
   45     8    46	5 ;       HGA2      CG321       HGA2
    5     9    10	5 ;      CG311      CG321     CG2R61
    5     9    47	5 ;      CG311      CG321       HGA2
    5     9    48	5 ;      CG311      CG321       HGA2
   10     9    47	5 ;     CG2R61      CG321       HGA2
   10     9    48	5 ;     CG2R61      CG321       HGA2
   47     9    48	5 ;       HGA2      CG321       HGA2
    9    10    23	5 ;      CG321     CG2R61     CG2R61
    9    10    11	5 ;      CG321     CG2R61     CG2R61
   23    10    11	5 ;     CG2R61     CG2R61     CG2R61
   10    11    12	5 ;     CG2R61     CG2R61     CG2R66
   10    11    49	5 ;     CG2R61     CG2R61      HGR62
   12    11    49	5 ;     CG2R66     CG2R61      HGR62
   11    12    14	5 ;     CG2R61     CG2R66     CG2RC0
   11    12    13	5 ;     CG2R61     CG2R66       FGR1
   14    12    13	5 ;     CG2RC0     CG2R66       FGR1
   16    14    12	5 ;     CG2RC0     CG2RC0     CG2R66
   16    14    15	5 ;     CG2RC0     CG2RC0     NG3C51
   12    14    15	5 ;     CG2R66     CG2RC0     NG3C51
   14    15    17	5 ;     CG2RC0     NG3C51     CG3C52
   14    15    18	5 ;     CG2RC0     NG3C51       HGP1
   17    15    18	5 ;     CG3C52     NG3C51       HGP1
   23    16    14	5 ;     CG2R61     CG2RC0     CG2RC0
   23    16    19	5 ;     CG2R61     CG2RC0     CG3C41
   14    16    19	5 ;     CG2RC0     CG2RC0     CG3C41
   19    17    15	5 ;     CG3C41     CG3C52     NG3C51
   19    17    50	5 ;     CG3C41     CG3C52       HGA2
   19    17    51	5 ;     CG3C41     CG3C52       HGA2
   15    17    50	5 ;     NG3C51     CG3C52       HGA2
   15    17    51	5 ;     NG3C51     CG3C52       HGA2
   50    17    51	5 ;       HGA2     CG3C52       HGA2
   16    19    21	5 ;     CG2RC0     CG3C41     CG3C41
   16    19    17	5 ;     CG2RC0     CG3C41     CG3C52
   16    19    20	5 ;     CG2RC0     CG3C41     CG3C41
   21    19    17	5 ;     CG3C41     CG3C41     CG3C52
   21    19    20	5 ;     CG3C41     CG3C41     CG3C41
   17    19    20	5 ;     CG3C52     CG3C41     CG3C41
   19    20    22	5 ;     CG3C41     CG3C41     CG3C41
   19    20    52	5 ;     CG3C41     CG3C41       HGA2
   19    20    53	5 ;     CG3C41     CG3C41       HGA2
   22    20    52	5 ;     CG3C41     CG3C41       HGA2
   22    20    53	5 ;     CG3C41     CG3C41       HGA2
   52    20    53	5 ;       HGA2     CG3C41       HGA2
   19    21    22	5 ;     CG3C41     CG3C41     CG3C41
   19    21    54	5 ;     CG3C41     CG3C41       HGA2
   19    21    55	5 ;     CG3C41     CG3C41       HGA2
   22    21    54	5 ;     CG3C41     CG3C41       HGA2
   22    21    55	5 ;     CG3C41     CG3C41       HGA2
   54    21    55	5 ;       HGA2     CG3C41       HGA2
   21    22    20	5 ;     CG3C41     CG3C41     CG3C41
   21    22    56	5 ;     CG3C41     CG3C41       HGA2
   21    22    57	5 ;     CG3C41     CG3C41       HGA2
   20    22    56	5 ;     CG3C41     CG3C41       HGA2
   20    22    57	5 ;     CG3C41     CG3C41       HGA2
   56    22    57	5 ;       HGA2     CG3C41       HGA2
   10    23    16	5 ;     CG2R61     CG2R61     CG2RC0
   10    23    58	5 ;     CG2R61     CG2R61      HGR61
   16    23    58	5 ;     CG2RC0     CG2R61      HGR61
   25    24     6	5 ;       HGP1      OG311      CG311
   29    26    28	5 ;      CG324      NG3P2       HGP2
   29    26    27	5 ;      CG324      NG3P2       HGP2
   29    26     7	5 ;      CG324      NG3P2      CG314
   28    26    27	5 ;       HGP2      NG3P2       HGP2
   28    26     7	5 ;       HGP2      NG3P2      CG314
   27    26     7	5 ;       HGP2      NG3P2      CG314
   30    29    26	5 ;     CG2R61      CG324      NG3P2
   30    29    59	5 ;     CG2R61      CG324       HGA2
   30    29    60	5 ;     CG2R61      CG324       HGA2
   26    29    59	5 ;      NG3P2      CG324       HGA2
   26    29    60	5 ;      NG3P2      CG324       HGA2
   59    29    60	5 ;       HGA2      CG324       HGA2
   35    30    29	5 ;     CG2R61     CG2R61      CG324
   35    30    31	5 ;     CG2R61     CG2R61     CG2R61
   29    30    31	5 ;      CG324     CG2R61     CG2R61
   30    31    32	5 ;     CG2R61     CG2R61     CG2R61
   30    31    61	5 ;     CG2R61     CG2R61      HGR61
   32    31    61	5 ;     CG2R61     CG2R61      HGR61
   33    32    31	5 ;     CG2R61     CG2R61     CG2R61
   33    32    36	5 ;     CG2R61     CG2R61      CG301
   31    32    36	5 ;     CG2R61     CG2R61      CG301
   34    33    32	5 ;     CG2R61     CG2R61     CG2R61
   34    33    62	5 ;     CG2R61     CG2R61      HGR61
   32    33    62	5 ;     CG2R61     CG2R61      HGR61
   35    34    33	5 ;     CG2R61     CG2R61     CG2R61
   35    34    63	5 ;     CG2R61     CG2R61      HGR61
   33    34    63	5 ;     CG2R61     CG2R61      HGR61
   34    35    30	5 ;     CG2R61     CG2R61     CG2R61
   34    35    64	5 ;     CG2R61     CG2R61      HGR61
   30    35    64	5 ;     CG2R61     CG2R61      HGR61
   39    36    32	5 ;      CG331      CG301     CG2R61
   39    36    38	5 ;      CG331      CG301      CG331
   39    36    37	5 ;      CG331      CG301      CG331
   32    36    38	5 ;     CG2R61      CG301      CG331
   32    36    37	5 ;     CG2R61      CG301      CG331
   38    36    37	5 ;      CG331      CG301      CG331
   36    37    65	5 ;      CG301      CG331       HGA3
   36    37    66	5 ;      CG301      CG331       HGA3
   36    37    67	5 ;      CG301      CG331       HGA3
   65    37    66	5 ;       HGA3      CG331       HGA3
   65    37    67	5 ;       HGA3      CG331       HGA3
   66    37    67	5 ;       HGA3      CG331       HGA3
   36    38    68	5 ;      CG301      CG331       HGA3
   36    38    69	5 ;      CG301      CG331       HGA3
   36    38    70	5 ;      CG301      CG331       HGA3
   68    38    69	5 ;       HGA3      CG331       HGA3
   68    38    70	5 ;       HGA3      CG331       HGA3
   69    38    70	5 ;       HGA3      CG331       HGA3
   36    39    71	5 ;      CG301      CG331       HGA3
   36    39    72	5 ;      CG301      CG331       HGA3
   36    39    73	5 ;      CG301      CG331       HGA3
   71    39    72	5 ;       HGA3      CG331       HGA3
   71    39    73	5 ;       HGA3      CG331       HGA3
   72    39    73	5 ;       HGA3      CG331       HGA3

[ dihedrals ]
;	ai	  aj	ak	  al funct			  c0			c1			  c2			c3			  c4			c5
    3     1     8     7	 9 ;      OG2P1      SG3O2      CG321      CG314
    3     1     8    45	 9 ;      OG2P1      SG3O2      CG321       HGA2
    3     1     8    46	 9 ;      OG2P1      SG3O2      CG321       HGA2
    2     1     8     7	 9 ;      OG2P1      SG3O2      CG321      CG314
    2     1     8    45	 9 ;      OG2P1      SG3O2      CG321       HGA2
    2     1     8    46	 9 ;      OG2P1      SG3O2      CG321       HGA2
    4     1     8     7	 9 ;      CG321      SG3O2      CG321      CG314
    4     1     8    45	 9 ;      CG321      SG3O2      CG321       HGA2
    4     1     8    46	 9 ;      CG321      SG3O2      CG321       HGA2
    8     1     4     5	 9 ;      CG321      SG3O2      CG321      CG311
    8     1     4    40	 9 ;      CG321      SG3O2      CG321       HGA2
    8     1     4    41	 9 ;      CG321      SG3O2      CG321       HGA2
    3     1     4     5	 9 ;      OG2P1      SG3O2      CG321      CG311
    3     1     4    40	 9 ;      OG2P1      SG3O2      CG321       HGA2
    3     1     4    41	 9 ;      OG2P1      SG3O2      CG321       HGA2
    2     1     4     5	 9 ;      OG2P1      SG3O2      CG321      CG311
    2     1     4    40	 9 ;      OG2P1      SG3O2      CG321       HGA2
    2     1     4    41	 9 ;      OG2P1      SG3O2      CG321       HGA2
    1     4     5     6	 9 ;      SG3O2      CG321      CG311      CG311
    1     4     5     9	 9 ;      SG3O2      CG321      CG311      CG321
    1     4     5    42	 9 ;      SG3O2      CG321      CG311       HGA1
   40     4     5     6	 9 ;       HGA2      CG321      CG311      CG311
   40     4     5     9	 9 ;       HGA2      CG321      CG311      CG321
   40     4     5    42	 9 ;       HGA2      CG321      CG311       HGA1
   41     4     5     6	 9 ;       HGA2      CG321      CG311      CG311
   41     4     5     9	 9 ;       HGA2      CG321      CG311      CG321
   41     4     5    42	 9 ;       HGA2      CG321      CG311       HGA1
    4     5     6     7	 9 ;      CG321      CG311      CG311      CG314
    4     5     6    24	 9 ;      CG321      CG311      CG311      OG311
    4     5     6    43	 9 ;      CG321      CG311      CG311       HGA1
    9     5     6     7	 9 ;      CG321      CG311      CG311      CG314
    9     5     6    24	 9 ;      CG321      CG311      CG311      OG311
    9     5     6    43	 9 ;      CG321      CG311      CG311       HGA1
   42     5     6     7	 9 ;       HGA1      CG311      CG311      CG314
   42     5     6    24	 9 ;       HGA1      CG311      CG311      OG311
   42     5     6    43	 9 ;       HGA1      CG311      CG311       HGA1
    6     5     9    10	 9 ;      CG311      CG311      CG321     CG2R61
    6     5     9    47	 9 ;      CG311      CG311      CG321       HGA2
    6     5     9    48	 9 ;      CG311      CG311      CG321       HGA2
    4     5     9    10	 9 ;      CG321      CG311      CG321     CG2R61
    4     5     9    47	 9 ;      CG321      CG311      CG321       HGA2
    4     5     9    48	 9 ;      CG321      CG311      CG321       HGA2
   42     5     9    10	 9 ;       HGA1      CG311      CG321     CG2R61
   42     5     9    47	 9 ;       HGA1      CG311      CG321       HGA2
   42     5     9    48	 9 ;       HGA1      CG311      CG321       HGA2
   24     6     7    26	 9 ;      OG311      CG311      CG314      NG3P2
   24     6     7     8	 9 ;      OG311      CG311      CG314      CG321
   24     6     7    44	 9 ;      OG311      CG311      CG314       HGA1
    5     6     7    26	 9 ;      CG311      CG311      CG314      NG3P2
    5     6     7     8	 9 ;      CG311      CG311      CG314      CG321
    5     6     7    44	 9 ;      CG311      CG311      CG314       HGA1
   43     6     7    26	 9 ;       HGA1      CG311      CG314      NG3P2
   43     6     7     8	 9 ;       HGA1      CG311      CG314      CG321
   43     6     7    44	 9 ;       HGA1      CG311      CG314       HGA1
    7     6    24    25	 9 ;      CG314      CG311      OG311       HGP1
    5     6    24    25	 9 ;      CG311      CG311      OG311       HGP1
   43     6    24    25	 9 ;       HGA1      CG311      OG311       HGP1
    8     7    26    29	 9 ;      CG321      CG314      NG3P2      CG324
    8     7    26    28	 9 ;      CG321      CG314      NG3P2       HGP2
    8     7    26    27	 9 ;      CG321      CG314      NG3P2       HGP2
    6     7    26    29	 9 ;      CG311      CG314      NG3P2      CG324
    6     7    26    28	 9 ;      CG311      CG314      NG3P2       HGP2
    6     7    26    27	 9 ;      CG311      CG314      NG3P2       HGP2
   44     7    26    29	 9 ;       HGA1      CG314      NG3P2      CG324
   44     7    26    28	 9 ;       HGA1      CG314      NG3P2       HGP2
   44     7    26    27	 9 ;       HGA1      CG314      NG3P2       HGP2
   26     7     8     1	 9 ;      NG3P2      CG314      CG321      SG3O2
   26     7     8    45	 9 ;      NG3P2      CG314      CG321       HGA2
   26     7     8    46	 9 ;      NG3P2      CG314      CG321       HGA2
    6     7     8     1	 9 ;      CG311      CG314      CG321      SG3O2
    6     7     8    45	 9 ;      CG311      CG314      CG321       HGA2
    6     7     8    46	 9 ;      CG311      CG314      CG321       HGA2
   44     7     8     1	 9 ;       HGA1      CG314      CG321      SG3O2
   44     7     8    45	 9 ;       HGA1      CG314      CG321       HGA2
   44     7     8    46	 9 ;       HGA1      CG314      CG321       HGA2
    5     9    10    23	 9 ;      CG311      CG321     CG2R61     CG2R61
    5     9    10    11	 9 ;      CG311      CG321     CG2R61     CG2R61
   47     9    10    23	 9 ;       HGA2      CG321     CG2R61     CG2R61
   47     9    10    11	 9 ;       HGA2      CG321     CG2R61     CG2R61
   48     9    10    23	 9 ;       HGA2      CG321     CG2R61     CG2R61
   48     9    10    11	 9 ;       HGA2      CG321     CG2R61     CG2R61
    9    10    23    16	 9 ;      CG321     CG2R61     CG2R61     CG2RC0
    9    10    23    58	 9 ;      CG321     CG2R61     CG2R61      HGR61
   11    10    23    16	 9 ;     CG2R61     CG2R61     CG2R61     CG2RC0
   11    10    23    58	 9 ;     CG2R61     CG2R61     CG2R61      HGR61
    9    10    11    12	 9 ;      CG321     CG2R61     CG2R61     CG2R66
    9    10    11    49	 9 ;      CG321     CG2R61     CG2R61      HGR62
   23    10    11    12	 9 ;     CG2R61     CG2R61     CG2R61     CG2R66
   23    10    11    49	 9 ;     CG2R61     CG2R61     CG2R61      HGR62
   10    11    12    14	 9 ;     CG2R61     CG2R61     CG2R66     CG2RC0
   10    11    12    13	 9 ;     CG2R61     CG2R61     CG2R66       FGR1
   49    11    12    14	 9 ;      HGR62     CG2R61     CG2R66     CG2RC0
   49    11    12    13	 9 ;      HGR62     CG2R61     CG2R66       FGR1
   11    12    14    16	 9 ;     CG2R61     CG2R66     CG2RC0     CG2RC0
   11    12    14    15	 9 ;     CG2R61     CG2R66     CG2RC0     NG3C51
   13    12    14    16	 9 ;       FGR1     CG2R66     CG2RC0     CG2RC0
   13    12    14    15	 9 ;       FGR1     CG2R66     CG2RC0     NG3C51
   12    14    16    23	 9 ;     CG2R66     CG2RC0     CG2RC0     CG2R61
   12    14    16    19	 9 ;     CG2R66     CG2RC0     CG2RC0     CG3C41
   15    14    16    23	 9 ;     NG3C51     CG2RC0     CG2RC0     CG2R61
   15    14    16    19	 9 ;     NG3C51     CG2RC0     CG2RC0     CG3C41
   16    14    15    17	 9 ;     CG2RC0     CG2RC0     NG3C51     CG3C52
   16    14    15    18	 9 ;     CG2RC0     CG2RC0     NG3C51       HGP1
   12    14    15    17	 9 ;     CG2R66     CG2RC0     NG3C51     CG3C52
   12    14    15    18	 9 ;     CG2R66     CG2RC0     NG3C51       HGP1
   14    15    17    19	 9 ;     CG2RC0     NG3C51     CG3C52     CG3C41
   14    15    17    50	 9 ;     CG2RC0     NG3C51     CG3C52       HGA2
   14    15    17    51	 9 ;     CG2RC0     NG3C51     CG3C52       HGA2
   18    15    17    19	 9 ;       HGP1     NG3C51     CG3C52     CG3C41
   18    15    17    50	 9 ;       HGP1     NG3C51     CG3C52       HGA2
   18    15    17    51	 9 ;       HGP1     NG3C51     CG3C52       HGA2
   14    16    23    10	 9 ;     CG2RC0     CG2RC0     CG2R61     CG2R61
   14    16    23    58	 9 ;     CG2RC0     CG2RC0     CG2R61      HGR61
   19    16    23    10	 9 ;     CG3C41     CG2RC0     CG2R61     CG2R61
   19    16    23    58	 9 ;     CG3C41     CG2RC0     CG2R61      HGR61
   23    16    19    21	 9 ;     CG2R61     CG2RC0     CG3C41     CG3C41
   23    16    19    17	 9 ;     CG2R61     CG2RC0     CG3C41     CG3C52
   23    16    19    20	 9 ;     CG2R61     CG2RC0     CG3C41     CG3C41
   14    16    19    21	 9 ;     CG2RC0     CG2RC0     CG3C41     CG3C41
   14    16    19    17	 9 ;     CG2RC0     CG2RC0     CG3C41     CG3C52
   14    16    19    20	 9 ;     CG2RC0     CG2RC0     CG3C41     CG3C41
   15    17    19    16	 9 ;     NG3C51     CG3C52     CG3C41     CG2RC0
   15    17    19    21	 9 ;     NG3C51     CG3C52     CG3C41     CG3C41
   15    17    19    20	 9 ;     NG3C51     CG3C52     CG3C41     CG3C41
   50    17    19    16	 9 ;       HGA2     CG3C52     CG3C41     CG2RC0
   50    17    19    21	 9 ;       HGA2     CG3C52     CG3C41     CG3C41
   50    17    19    20	 9 ;       HGA2     CG3C52     CG3C41     CG3C41
   51    17    19    16	 9 ;       HGA2     CG3C52     CG3C41     CG2RC0
   51    17    19    21	 9 ;       HGA2     CG3C52     CG3C41     CG3C41
   51    17    19    20	 9 ;       HGA2     CG3C52     CG3C41     CG3C41
   16    19    21    22	 9 ;     CG2RC0     CG3C41     CG3C41     CG3C41
   16    19    21    54	 9 ;     CG2RC0     CG3C41     CG3C41       HGA2
   16    19    21    55	 9 ;     CG2RC0     CG3C41     CG3C41       HGA2
   17    19    21    22	 9 ;     CG3C52     CG3C41     CG3C41     CG3C41
   17    19    21    54	 9 ;     CG3C52     CG3C41     CG3C41       HGA2
   17    19    21    55	 9 ;     CG3C52     CG3C41     CG3C41       HGA2
   20    19    21    22	 9 ;     CG3C41     CG3C41     CG3C41     CG3C41
   20    19    21    54	 9 ;     CG3C41     CG3C41     CG3C41       HGA2
   20    19    21    55	 9 ;     CG3C41     CG3C41     CG3C41       HGA2
   16    19    20    22	 9 ;     CG2RC0     CG3C41     CG3C41     CG3C41
   16    19    20    52	 9 ;     CG2RC0     CG3C41     CG3C41       HGA2
   16    19    20    53	 9 ;     CG2RC0     CG3C41     CG3C41       HGA2
   21    19    20    22	 9 ;     CG3C41     CG3C41     CG3C41     CG3C41
   21    19    20    52	 9 ;     CG3C41     CG3C41     CG3C41       HGA2
   21    19    20    53	 9 ;     CG3C41     CG3C41     CG3C41       HGA2
   17    19    20    22	 9 ;     CG3C52     CG3C41     CG3C41     CG3C41
   17    19    20    52	 9 ;     CG3C52     CG3C41     CG3C41       HGA2
   17    19    20    53	 9 ;     CG3C52     CG3C41     CG3C41       HGA2
   19    20    22    21	 9 ;     CG3C41     CG3C41     CG3C41     CG3C41
   19    20    22    56	 9 ;     CG3C41     CG3C41     CG3C41       HGA2
   19    20    22    57	 9 ;     CG3C41     CG3C41     CG3C41       HGA2
   52    20    22    21	 9 ;       HGA2     CG3C41     CG3C41     CG3C41
   52    20    22    56	 9 ;       HGA2     CG3C41     CG3C41       HGA2
   52    20    22    57	 9 ;       HGA2     CG3C41     CG3C41       HGA2
   53    20    22    21	 9 ;       HGA2     CG3C41     CG3C41     CG3C41
   53    20    22    56	 9 ;       HGA2     CG3C41     CG3C41       HGA2
   53    20    22    57	 9 ;       HGA2     CG3C41     CG3C41       HGA2
   19    21    22    20	 9 ;     CG3C41     CG3C41     CG3C41     CG3C41
   19    21    22    56	 9 ;     CG3C41     CG3C41     CG3C41       HGA2
   19    21    22    57	 9 ;     CG3C41     CG3C41     CG3C41       HGA2
   54    21    22    20	 9 ;       HGA2     CG3C41     CG3C41     CG3C41
   54    21    22    56	 9 ;       HGA2     CG3C41     CG3C41       HGA2
   54    21    22    57	 9 ;       HGA2     CG3C41     CG3C41       HGA2
   55    21    22    20	 9 ;       HGA2     CG3C41     CG3C41     CG3C41
   55    21    22    56	 9 ;       HGA2     CG3C41     CG3C41       HGA2
   55    21    22    57	 9 ;       HGA2     CG3C41     CG3C41       HGA2
   28    26    29    30	 9 ;       HGP2      NG3P2      CG324     CG2R61
   28    26    29    59	 9 ;       HGP2      NG3P2      CG324       HGA2
   28    26    29    60	 9 ;       HGP2      NG3P2      CG324       HGA2
   27    26    29    30	 9 ;       HGP2      NG3P2      CG324     CG2R61
   27    26    29    59	 9 ;       HGP2      NG3P2      CG324       HGA2
   27    26    29    60	 9 ;       HGP2      NG3P2      CG324       HGA2
    7    26    29    30	 9 ;      CG314      NG3P2      CG324     CG2R61
    7    26    29    59	 9 ;      CG314      NG3P2      CG324       HGA2
    7    26    29    60	 9 ;      CG314      NG3P2      CG324       HGA2
   26    29    30    35	 9 ;      NG3P2      CG324     CG2R61     CG2R61
   26    29    30    31	 9 ;      NG3P2      CG324     CG2R61     CG2R61
   59    29    30    35	 9 ;       HGA2      CG324     CG2R61     CG2R61
   59    29    30    31	 9 ;       HGA2      CG324     CG2R61     CG2R61
   60    29    30    35	 9 ;       HGA2      CG324     CG2R61     CG2R61
   60    29    30    31	 9 ;       HGA2      CG324     CG2R61     CG2R61
   29    30    35    34	 9 ;      CG324     CG2R61     CG2R61     CG2R61
   29    30    35    64	 9 ;      CG324     CG2R61     CG2R61      HGR61
   31    30    35    34	 9 ;     CG2R61     CG2R61     CG2R61     CG2R61
   31    30    35    64	 9 ;     CG2R61     CG2R61     CG2R61      HGR61
   35    30    31    32	 9 ;     CG2R61     CG2R61     CG2R61     CG2R61
   35    30    31    61	 9 ;     CG2R61     CG2R61     CG2R61      HGR61
   29    30    31    32	 9 ;      CG324     CG2R61     CG2R61     CG2R61
   29    30    31    61	 9 ;      CG324     CG2R61     CG2R61      HGR61
   30    31    32    33	 9 ;     CG2R61     CG2R61     CG2R61     CG2R61
   30    31    32    36	 9 ;     CG2R61     CG2R61     CG2R61      CG301
   61    31    32    33	 9 ;      HGR61     CG2R61     CG2R61     CG2R61
   61    31    32    36	 9 ;      HGR61     CG2R61     CG2R61      CG301
   31    32    33    34	 9 ;     CG2R61     CG2R61     CG2R61     CG2R61
   31    32    33    62	 9 ;     CG2R61     CG2R61     CG2R61      HGR61
   36    32    33    34	 9 ;      CG301     CG2R61     CG2R61     CG2R61
   36    32    33    62	 9 ;      CG301     CG2R61     CG2R61      HGR61
   33    32    36    39	 9 ;     CG2R61     CG2R61      CG301      CG331
   33    32    36    38	 9 ;     CG2R61     CG2R61      CG301      CG331
   33    32    36    37	 9 ;     CG2R61     CG2R61      CG301      CG331
   31    32    36    39	 9 ;     CG2R61     CG2R61      CG301      CG331
   31    32    36    38	 9 ;     CG2R61     CG2R61      CG301      CG331
   31    32    36    37	 9 ;     CG2R61     CG2R61      CG301      CG331
   32    33    34    35	 9 ;     CG2R61     CG2R61     CG2R61     CG2R61
   32    33    34    63	 9 ;     CG2R61     CG2R61     CG2R61      HGR61
   62    33    34    35	 9 ;      HGR61     CG2R61     CG2R61     CG2R61
   62    33    34    63	 9 ;      HGR61     CG2R61     CG2R61      HGR61
   33    34    35    30	 9 ;     CG2R61     CG2R61     CG2R61     CG2R61
   33    34    35    64	 9 ;     CG2R61     CG2R61     CG2R61      HGR61
   63    34    35    30	 9 ;      HGR61     CG2R61     CG2R61     CG2R61
   63    34    35    64	 9 ;      HGR61     CG2R61     CG2R61      HGR61
   32    36    39    71	 9 ;     CG2R61      CG301      CG331       HGA3
   32    36    39    72	 9 ;     CG2R61      CG301      CG331       HGA3
   32    36    39    73	 9 ;     CG2R61      CG301      CG331       HGA3
   38    36    39    71	 9 ;      CG331      CG301      CG331       HGA3
   38    36    39    72	 9 ;      CG331      CG301      CG331       HGA3
   38    36    39    73	 9 ;      CG331      CG301      CG331       HGA3
   37    36    39    71	 9 ;      CG331      CG301      CG331       HGA3
   37    36    39    72	 9 ;      CG331      CG301      CG331       HGA3
   37    36    39    73	 9 ;      CG331      CG301      CG331       HGA3
   39    36    38    68	 9 ;      CG331      CG301      CG331       HGA3
   39    36    38    69	 9 ;      CG331      CG301      CG331       HGA3
   39    36    38    70	 9 ;      CG331      CG301      CG331       HGA3
   32    36    38    68	 9 ;     CG2R61      CG301      CG331       HGA3
   32    36    38    69	 9 ;     CG2R61      CG301      CG331       HGA3
   32    36    38    70	 9 ;     CG2R61      CG301      CG331       HGA3
   37    36    38    68	 9 ;      CG331      CG301      CG331       HGA3
   37    36    38    69	 9 ;      CG331      CG301      CG331       HGA3
   37    36    38    70	 9 ;      CG331      CG301      CG331       HGA3
   39    36    37    65	 9 ;      CG331      CG301      CG331       HGA3
   39    36    37    66	 9 ;      CG331      CG301      CG331       HGA3
   39    36    37    67	 9 ;      CG331      CG301      CG331       HGA3
   32    36    37    65	 9 ;     CG2R61      CG301      CG331       HGA3
   32    36    37    66	 9 ;     CG2R61      CG301      CG331       HGA3
   32    36    37    67	 9 ;     CG2R61      CG301      CG331       HGA3
   38    36    37    65	 9 ;      CG331      CG301      CG331       HGA3
   38    36    37    66	 9 ;      CG331      CG301      CG331       HGA3
   38    36    37    67	 9 ;      CG331      CG301      CG331       HGA3

