; Created by cgenff_charmm2gmx.py

[ moleculetype ]
; Name			   nrexcl
LIG				 3

[ atoms ]
;	 nr		  type	resnr residue  atom   cgnr	   charge		mass  typeB    chargeB		massB
; residue	 1 LIG rtp LIG q	qsum
     1      CG311      1    LIG     C1      1      0.123     12.011   ;
     2      OG311      1    LIG     O1      2     -0.642     15.999   ;
     3       HGP1      1    LIG     H1      3      0.421      1.008   ;
     4      CG321      1    LIG     C2      4     -0.097     12.011   ;
     5      CG2O1      1    LIG     C3      5      0.476     12.011   ;
     6      OG2D1      1    LIG     O2      6     -0.525     15.999   ;
     7      NG2S1      1    LIG     N1      7     -0.471     14.007   ;
     8       HGP1      1    LIG     H2      8      0.328      1.008   ;
     9      CG311      1    LIG     C4      9      0.062     12.011   ;
    10      CG321      1    LIG     C5     10     -0.178     12.011   ;
    11      CG311      1    LIG     C6     11     -0.099     12.011   ;
    12      CG331      1    LIG     C7     12     -0.268     12.011   ;
    13      CG331      1    LIG     C8     13     -0.268     12.011   ;
    14      CG2O1      1    LIG     C9     14      0.514     12.011   ;
    15      OG2D1      1    LIG     O3     15     -0.509     15.999   ;
    16      NG2S1      1    LIG     N2     16     -0.514     14.007   ;
    17       HGP1      1    LIG     H3     17      0.316      1.008   ;
    18      CG311      1    LIG    C10     18      0.091     12.011   ;
    19      CG331      1    LIG    C11     19     -0.289     12.011   ;
    20      CG2O1      1    LIG    C12     20      0.539     12.011   ;
    21      OG2D1      1    LIG     O4     21     -0.518     15.999   ;
    22      NG2S0      1    LIG     N3     22     -0.280     14.007   ;
    23      CG331      1    LIG    C13     23     -0.170     12.011   ;
    24      CG311      1    LIG    C14     24      0.151     12.011   ;
    25      CG2O1      1    LIG    C15     25      0.488     12.011   ;
    26      OG2D1      1    LIG     O5     26     -0.532     15.999   ;
    27      NG2S0      1    LIG     N4     27     -0.283     14.007   ;
    28     CG3C52      1    LIG    C16     28     -0.006     12.011   ;
    29     CG3C51      1    LIG    C17     29      0.074     12.011   ;
    30     CG3C52      1    LIG    C18     30     -0.141     12.011   ;
    31     CG3C52      1    LIG    C19     31     -0.240     12.011   ;
    32      CG2O2      1    LIG    C20     32      0.830     12.011   ;
    33      OG2D1      1    LIG     O6     33     -0.640     15.999   ;
    34      OG302      1    LIG     O7     34     -0.481     15.999   ;
    35      CG331      1    LIG    C21     35     -0.011     12.011   ;
    36      CG321      1    LIG    C22     36     -0.236     12.011   ;
    37      CG311      1    LIG    C23     37     -0.065     12.011   ;
    38      CG321      1    LIG    C24     38     -0.184     12.011   ;
    39      CG321      1    LIG    C25     39     -0.192     12.011   ;
    40      CG321      1    LIG    C26     40     -0.154     12.011   ;
    41      CG321      1    LIG    C27     41     -0.192     12.011   ;
    42      CG321      1    LIG    C28     42     -0.184     12.011   ;
    43      CG311      1    LIG    C29     43     -0.051     12.011   ;
    44      CG321      1    LIG    C30     44     -0.103     12.011   ;
    45      CG311      1    LIG    C31     45     -0.085     12.011   ;
    46      CG321      1    LIG    C32     46     -0.184     12.011   ;
    47      CG321      1    LIG    C33     47     -0.192     12.011   ;
    48      CG321      1    LIG    C34     48     -0.154     12.011   ;
    49      CG321      1    LIG    C35     49     -0.192     12.011   ;
    50      CG321      1    LIG    C36     50     -0.184     12.011   ;
    51      NG2S1      1    LIG     N5     51     -0.404     14.007   ;
    52      CG2O1      1    LIG    C37     52      0.469     12.011   ;
    53      OG2D1      1    LIG     O8     53     -0.508     15.999   ;
    54       HGP1      1    LIG     H4     54      0.269      1.008   ;
    55      CG311      1    LIG    C38     55      0.046     12.011   ;
    56      CG321      1    LIG    C39     56     -0.266     12.011   ;
    57      CG311      1    LIG    C40     57      0.046     12.011   ;
    58      CG321      1    LIG    C41     58     -0.224     12.011   ;
    59      CG311      1    LIG    C42     59      0.200     12.011   ;
    60      CG321      1    LIG    C43     60     -0.224     12.011   ;
    61      CG2O1      1    LIG    C44     61      0.471     12.011   ;
    62      OG2D1      1    LIG     O9     62     -0.508     15.999   ;
    63      NG2S1      1    LIG     N6     63     -0.457     14.007   ;
    64       HGP1      1    LIG     H5     64      0.269      1.008   ;
    65      CG311      1    LIG    C45     65      0.055     12.011   ;
    66      CG331      1    LIG    C46     66     -0.272     12.011   ;
    67      CG311      1    LIG    C47     67     -0.077     12.011   ;
    68      CG321      1    LIG    C48     68     -0.176     12.011   ;
    69      CG321      1    LIG    C49     69     -0.190     12.011   ;
    70      CG321      1    LIG    C50     70     -0.154     12.011   ;
    71      CG321      1    LIG    C51     71     -0.190     12.011   ;
    72      CG321      1    LIG    C52     72     -0.176     12.011   ;
    73      NG311      1    LIG     N7     73     -0.670     14.007   ;
    74       HGP1      1    LIG     H6     74      0.321      1.008   ;
    75      SG3O2      1    LIG      S     75      0.601     32.060   ;
    76      OG2P1      1    LIG    O10     76     -0.394     15.999   ;
    77      OG2P1      1    LIG    O11     77     -0.394     15.999   ;
    78      CG331      1    LIG    C53     78     -0.012     12.011   ;
    79       HGA1      1    LIG     H7     79      0.090      1.008   ;
    80       HGA2      1    LIG     H8     80      0.090      1.008   ;
    81       HGA2      1    LIG     H9     81      0.090      1.008   ;
    82       HGA1      1    LIG    H10     82      0.090      1.008   ;
    83       HGA2      1    LIG    H11     83      0.090      1.008   ;
    84       HGA2      1    LIG    H12     84      0.090      1.008   ;
    85       HGA1      1    LIG    H13     85      0.090      1.008   ;
    86       HGA3      1    LIG    H14     86      0.090      1.008   ;
    87       HGA3      1    LIG    H15     87      0.090      1.008   ;
    88       HGA3      1    LIG    H16     88      0.090      1.008   ;
    89       HGA3      1    LIG    H17     89      0.090      1.008   ;
    90       HGA3      1    LIG    H18     90      0.090      1.008   ;
    91       HGA3      1    LIG    H19     91      0.090      1.008   ;
    92       HGA1      1    LIG    H20     92      0.090      1.008   ;
    93       HGA3      1    LIG    H21     93      0.090      1.008   ;
    94       HGA3      1    LIG    H22     94      0.090      1.008   ;
    95       HGA3      1    LIG    H23     95      0.090      1.008   ;
    96       HGA3      1    LIG    H24     96      0.090      1.008   ;
    97       HGA3      1    LIG    H25     97      0.090      1.008   ;
    98       HGA3      1    LIG    H26     98      0.090      1.008   ;
    99       HGA1      1    LIG    H27     99      0.090      1.008   ;
   100       HGA2      1    LIG    H28    100      0.090      1.008   ;
   101       HGA2      1    LIG    H29    101      0.090      1.008   ;
   102       HGA1      1    LIG    H30    102      0.090      1.008   ;
   103       HGA2      1    LIG    H31    103      0.090      1.008   ;
   104       HGA2      1    LIG    H32    104      0.090      1.008   ;
   105       HGA2      1    LIG    H33    105      0.090      1.008   ;
   106       HGA2      1    LIG    H34    106      0.090      1.008   ;
   107       HGA3      1    LIG    H35    107      0.090      1.008   ;
   108       HGA3      1    LIG    H36    108      0.090      1.008   ;
   109       HGA3      1    LIG    H37    109      0.090      1.008   ;
   110       HGA2      1    LIG    H38    110      0.090      1.008   ;
   111       HGA2      1    LIG    H39    111      0.090      1.008   ;
   112       HGA1      1    LIG    H40    112      0.090      1.008   ;
   113       HGA2      1    LIG    H41    113      0.090      1.008   ;
   114       HGA2      1    LIG    H42    114      0.090      1.008   ;
   115       HGA2      1    LIG    H43    115      0.090      1.008   ;
   116       HGA2      1    LIG    H44    116      0.090      1.008   ;
   117       HGA2      1    LIG    H45    117      0.090      1.008   ;
   118       HGA2      1    LIG    H46    118      0.090      1.008   ;
   119       HGA2      1    LIG    H47    119      0.090      1.008   ;
   120       HGA2      1    LIG    H48    120      0.090      1.008   ;
   121       HGA2      1    LIG    H49    121      0.090      1.008   ;
   122       HGA2      1    LIG    H50    122      0.090      1.008   ;
   123       HGA1      1    LIG    H51    123      0.090      1.008   ;
   124       HGA2      1    LIG    H52    124      0.090      1.008   ;
   125       HGA2      1    LIG    H53    125      0.090      1.008   ;
   126       HGA1      1    LIG    H54    126      0.090      1.008   ;
   127       HGA2      1    LIG    H55    127      0.090      1.008   ;
   128       HGA2      1    LIG    H56    128      0.090      1.008   ;
   129       HGA2      1    LIG    H57    129      0.090      1.008   ;
   130       HGA2      1    LIG    H58    130      0.090      1.008   ;
   131       HGA2      1    LIG    H59    131      0.090      1.008   ;
   132       HGA2      1    LIG    H60    132      0.090      1.008   ;
   133       HGA2      1    LIG    H61    133      0.090      1.008   ;
   134       HGA2      1    LIG    H62    134      0.090      1.008   ;
   135       HGA2      1    LIG    H63    135      0.090      1.008   ;
   136       HGA2      1    LIG    H64    136      0.090      1.008   ;
   137       HGA1      1    LIG    H65    137      0.090      1.008   ;
   138       HGA2      1    LIG    H66    138      0.090      1.008   ;
   139       HGA2      1    LIG    H67    139      0.090      1.008   ;
   140       HGA1      1    LIG    H68    140      0.090      1.008   ;
   141       HGA2      1    LIG    H69    141      0.090      1.008   ;
   142       HGA2      1    LIG    H70    142      0.090      1.008   ;
   143       HGA1      1    LIG    H71    143      0.090      1.008   ;
   144       HGA2      1    LIG    H72    144      0.090      1.008   ;
   145       HGA2      1    LIG    H73    145      0.090      1.008   ;
   146       HGA1      1    LIG    H74    146      0.090      1.008   ;
   147       HGA3      1    LIG    H75    147      0.090      1.008   ;
   148       HGA3      1    LIG    H76    148      0.090      1.008   ;
   149       HGA3      1    LIG    H77    149      0.090      1.008   ;
   150       HGA1      1    LIG    H78    150      0.090      1.008   ;
   151       HGA2      1    LIG    H79    151      0.090      1.008   ;
   152       HGA2      1    LIG    H80    152      0.090      1.008   ;
   153       HGA2      1    LIG    H81    153      0.090      1.008   ;
   154       HGA2      1    LIG    H82    154      0.090      1.008   ;
   155       HGA2      1    LIG    H83    155      0.090      1.008   ;
   156       HGA2      1    LIG    H84    156      0.090      1.008   ;
   157       HGA2      1    LIG    H85    157      0.090      1.008   ;
   158       HGA2      1    LIG    H86    158      0.090      1.008   ;
   159       HGA2      1    LIG    H87    159      0.090      1.008   ;
   160       HGA2      1    LIG    H88    160      0.090      1.008   ;
   161       HGA3      1    LIG    H89    161      0.090      1.008   ;
   162       HGA3      1    LIG    H90    162      0.090      1.008   ;
   163       HGA3      1    LIG    H91    163      0.090      1.008   ;

[ bonds ]
;	ai	  aj funct			  c0			c1			  c2			c3
    1     2	 1 ;       CG311      OG311
    1     4	 1 ;       CG311      CG321
    1    43	 1 ;       CG311      CG311
    1    79	 1 ;       CG311       HGA1
    2     3	 1 ;       OG311       HGP1
    4     5	 1 ;       CG321      CG2O1
    4    80	 1 ;       CG321       HGA2
    4    81	 1 ;       CG321       HGA2
    5     7	 1 ;       CG2O1      NG2S1
    5     6	 1 ;       CG2O1      OG2D1
    7     9	 1 ;       NG2S1      CG311
    7     8	 1 ;       NG2S1       HGP1
    9    14	 1 ;       CG311      CG2O1
    9    10	 1 ;       CG311      CG321
    9    82	 1 ;       CG311       HGA1
   10    11	 1 ;       CG321      CG311
   10    83	 1 ;       CG321       HGA2
   10    84	 1 ;       CG321       HGA2
   11    12	 1 ;       CG311      CG331
   11    13	 1 ;       CG311      CG331
   11    85	 1 ;       CG311       HGA1
   12    86	 1 ;       CG331       HGA3
   12    87	 1 ;       CG331       HGA3
   12    88	 1 ;       CG331       HGA3
   13    89	 1 ;       CG331       HGA3
   13    90	 1 ;       CG331       HGA3
   13    91	 1 ;       CG331       HGA3
   14    16	 1 ;       CG2O1      NG2S1
   14    15	 1 ;       CG2O1      OG2D1
   16    17	 1 ;       NG2S1       HGP1
   16    18	 1 ;       NG2S1      CG311
   18    20	 1 ;       CG311      CG2O1
   18    19	 1 ;       CG311      CG331
   18    92	 1 ;       CG311       HGA1
   19    93	 1 ;       CG331       HGA3
   19    94	 1 ;       CG331       HGA3
   19    95	 1 ;       CG331       HGA3
   20    22	 1 ;       CG2O1      NG2S0
   20    21	 1 ;       CG2O1      OG2D1
   22    23	 1 ;       NG2S0      CG331
   22    24	 1 ;       NG2S0      CG311
   23    96	 1 ;       CG331       HGA3
   23    97	 1 ;       CG331       HGA3
   23    98	 1 ;       CG331       HGA3
   24    36	 1 ;       CG311      CG321
   24    25	 1 ;       CG311      CG2O1
   24    99	 1 ;       CG311       HGA1
   25    26	 1 ;       CG2O1      OG2D1
   25    27	 1 ;       CG2O1      NG2S0
   27    28	 1 ;       NG2S0     CG3C52
   27    29	 1 ;       NG2S0     CG3C51
   28    30	 1 ;      CG3C52     CG3C52
   28   100	 1 ;      CG3C52       HGA2
   28   101	 1 ;      CG3C52       HGA2
   29    32	 1 ;      CG3C51      CG2O2
   29    31	 1 ;      CG3C51     CG3C52
   29   102	 1 ;      CG3C51       HGA1
   30    31	 1 ;      CG3C52     CG3C52
   30   103	 1 ;      CG3C52       HGA2
   30   104	 1 ;      CG3C52       HGA2
   31   105	 1 ;      CG3C52       HGA2
   31   106	 1 ;      CG3C52       HGA2
   32    33	 1 ;       CG2O2      OG2D1
   32    34	 1 ;       CG2O2      OG302
   34    35	 1 ;       OG302      CG331
   35   107	 1 ;       CG331       HGA3
   35   108	 1 ;       CG331       HGA3
   35   109	 1 ;       CG331       HGA3
   36    37	 1 ;       CG321      CG311
   36   110	 1 ;       CG321       HGA2
   36   111	 1 ;       CG321       HGA2
   37    42	 1 ;       CG311      CG321
   37    38	 1 ;       CG311      CG321
   37   112	 1 ;       CG311       HGA1
   38    39	 1 ;       CG321      CG321
   38   113	 1 ;       CG321       HGA2
   38   114	 1 ;       CG321       HGA2
   39    40	 1 ;       CG321      CG321
   39   115	 1 ;       CG321       HGA2
   39   116	 1 ;       CG321       HGA2
   40    41	 1 ;       CG321      CG321
   40   117	 1 ;       CG321       HGA2
   40   118	 1 ;       CG321       HGA2
   41    42	 1 ;       CG321      CG321
   41   119	 1 ;       CG321       HGA2
   41   120	 1 ;       CG321       HGA2
   42   121	 1 ;       CG321       HGA2
   42   122	 1 ;       CG321       HGA2
   43    44	 1 ;       CG311      CG321
   43    51	 1 ;       CG311      NG2S1
   43   123	 1 ;       CG311       HGA1
   44    45	 1 ;       CG321      CG311
   44   124	 1 ;       CG321       HGA2
   44   125	 1 ;       CG321       HGA2
   45    50	 1 ;       CG311      CG321
   45    46	 1 ;       CG311      CG321
   45   126	 1 ;       CG311       HGA1
   46    47	 1 ;       CG321      CG321
   46   127	 1 ;       CG321       HGA2
   46   128	 1 ;       CG321       HGA2
   47    48	 1 ;       CG321      CG321
   47   129	 1 ;       CG321       HGA2
   47   130	 1 ;       CG321       HGA2
   48    49	 1 ;       CG321      CG321
   48   131	 1 ;       CG321       HGA2
   48   132	 1 ;       CG321       HGA2
   49    50	 1 ;       CG321      CG321
   49   133	 1 ;       CG321       HGA2
   49   134	 1 ;       CG321       HGA2
   50   135	 1 ;       CG321       HGA2
   50   136	 1 ;       CG321       HGA2
   51    54	 1 ;       NG2S1       HGP1
   51    52	 1 ;       NG2S1      CG2O1
   52    53	 1 ;       CG2O1      OG2D1
   52    55	 1 ;       CG2O1      CG311
   55    60	 1 ;       CG311      CG321
   55    56	 1 ;       CG311      CG321
   55   137	 1 ;       CG311       HGA1
   56    57	 1 ;       CG321      CG311
   56   138	 1 ;       CG321       HGA2
   56   139	 1 ;       CG321       HGA2
   57    58	 1 ;       CG311      CG321
   57    61	 1 ;       CG311      CG2O1
   57   140	 1 ;       CG311       HGA1
   58    59	 1 ;       CG321      CG311
   58   141	 1 ;       CG321       HGA2
   58   142	 1 ;       CG321       HGA2
   59    73	 1 ;       CG311      NG311
   59    60	 1 ;       CG311      CG321
   59   143	 1 ;       CG311       HGA1
   60   144	 1 ;       CG321       HGA2
   60   145	 1 ;       CG321       HGA2
   61    62	 1 ;       CG2O1      OG2D1
   61    63	 1 ;       CG2O1      NG2S1
   63    64	 1 ;       NG2S1       HGP1
   63    65	 1 ;       NG2S1      CG311
   65    67	 1 ;       CG311      CG311
   65    66	 1 ;       CG311      CG331
   65   146	 1 ;       CG311       HGA1
   66   147	 1 ;       CG331       HGA3
   66   148	 1 ;       CG331       HGA3
   66   149	 1 ;       CG331       HGA3
   67    68	 1 ;       CG311      CG321
   67    72	 1 ;       CG311      CG321
   67   150	 1 ;       CG311       HGA1
   68    69	 1 ;       CG321      CG321
   68   151	 1 ;       CG321       HGA2
   68   152	 1 ;       CG321       HGA2
   69    70	 1 ;       CG321      CG321
   69   153	 1 ;       CG321       HGA2
   69   154	 1 ;       CG321       HGA2
   70    71	 1 ;       CG321      CG321
   70   155	 1 ;       CG321       HGA2
   70   156	 1 ;       CG321       HGA2
   71    72	 1 ;       CG321      CG321
   71   157	 1 ;       CG321       HGA2
   71   158	 1 ;       CG321       HGA2
   72   159	 1 ;       CG321       HGA2
   72   160	 1 ;       CG321       HGA2
   73    74	 1 ;       NG311       HGP1
   73    75	 1 ;       NG311      SG3O2
   75    78	 1 ;       SG3O2      CG331
   75    76	 1 ;       SG3O2      OG2P1
   75    77	 1 ;       SG3O2      OG2P1
   78   161	 1 ;       CG331       HGA3
   78   162	 1 ;       CG331       HGA3
   78   163	 1 ;       CG331       HGA3

[ pairs ]
;	ai	  aj funct			  c0			c1			  c2			c3
    1     7	 1
    1     6	 1
    1    45	 1
    1   124	 1
    1   125	 1
    1    54	 1
    1    52	 1
    2     5	 1
    2    80	 1
    2    81	 1
    2    44	 1
    2    51	 1
    2   123	 1
    3     4	 1
    3    43	 1
    3    79	 1
    4    44	 1
    4    51	 1
    4   123	 1
    4     9	 1
    4     8	 1
    5    43	 1
    5    79	 1
    5    14	 1
    5    10	 1
    5    82	 1
    6    80	 1
    6    81	 1
    6     9	 1
    6     8	 1
    7    80	 1
    7    81	 1
    7    16	 1
    7    15	 1
    7    11	 1
    7    83	 1
    7    84	 1
    8    14	 1
    8    10	 1
    8    82	 1
    9    12	 1
    9    13	 1
    9    85	 1
    9    17	 1
    9    18	 1
   10    16	 1
   10    15	 1
   10    86	 1
   10    87	 1
   10    88	 1
   10    89	 1
   10    90	 1
   10    91	 1
   11    14	 1
   11    82	 1
   12    83	 1
   12    84	 1
   12    89	 1
   12    90	 1
   12    91	 1
   13    83	 1
   13    84	 1
   13    86	 1
   13    87	 1
   13    88	 1
   14    83	 1
   14    84	 1
   14    20	 1
   14    19	 1
   14    92	 1
   15    82	 1
   15    17	 1
   15    18	 1
   16    82	 1
   16    22	 1
   16    21	 1
   16    93	 1
   16    94	 1
   16    95	 1
   17    20	 1
   17    19	 1
   17    92	 1
   18    23	 1
   18    24	 1
   19    22	 1
   19    21	 1
   20    93	 1
   20    94	 1
   20    95	 1
   20    96	 1
   20    97	 1
   20    98	 1
   20    36	 1
   20    25	 1
   20    99	 1
   21    92	 1
   21    23	 1
   21    24	 1
   22    92	 1
   22    37	 1
   22   110	 1
   22   111	 1
   22    26	 1
   22    27	 1
   23    36	 1
   23    25	 1
   23    99	 1
   24    96	 1
   24    97	 1
   24    98	 1
   24    28	 1
   24    29	 1
   24    42	 1
   24    38	 1
   24   112	 1
   25    37	 1
   25   110	 1
   25   111	 1
   25    30	 1
   25   100	 1
   25   101	 1
   25    32	 1
   25    31	 1
   25   102	 1
   26    36	 1
   26    99	 1
   26    28	 1
   26    29	 1
   27    36	 1
   27    99	 1
   27   103	 1
   27   104	 1
   27    33	 1
   27    34	 1
   27   105	 1
   27   106	 1
   28    32	 1
   28   102	 1
   28   105	 1
   28   106	 1
   29   100	 1
   29   101	 1
   29   103	 1
   29   104	 1
   29    35	 1
   30    32	 1
   30   102	 1
   31   100	 1
   31   101	 1
   31    33	 1
   31    34	 1
   32   105	 1
   32   106	 1
   32   107	 1
   32   108	 1
   32   109	 1
   33   102	 1
   33    35	 1
   34   102	 1
   36    41	 1
   36   121	 1
   36   122	 1
   36    39	 1
   36   113	 1
   36   114	 1
   37    99	 1
   37    40	 1
   37   115	 1
   37   116	 1
   37   119	 1
   37   120	 1
   38   110	 1
   38   111	 1
   38    41	 1
   38   121	 1
   38   122	 1
   38   117	 1
   38   118	 1
   39    42	 1
   39   112	 1
   39   119	 1
   39   120	 1
   40   113	 1
   40   114	 1
   40   121	 1
   40   122	 1
   41   112	 1
   41   115	 1
   41   116	 1
   42   110	 1
   42   111	 1
   42   113	 1
   42   114	 1
   42   117	 1
   42   118	 1
   43    80	 1
   43    81	 1
   43    50	 1
   43    46	 1
   43   126	 1
   43    53	 1
   43    55	 1
   44    79	 1
   44    54	 1
   44    52	 1
   44    49	 1
   44   135	 1
   44   136	 1
   44    47	 1
   44   127	 1
   44   128	 1
   45    51	 1
   45   123	 1
   45    48	 1
   45   129	 1
   45   130	 1
   45   133	 1
   45   134	 1
   46   124	 1
   46   125	 1
   46    49	 1
   46   135	 1
   46   136	 1
   46   131	 1
   46   132	 1
   47    50	 1
   47   126	 1
   47   133	 1
   47   134	 1
   48   127	 1
   48   128	 1
   48   135	 1
   48   136	 1
   49   126	 1
   49   129	 1
   49   130	 1
   50   124	 1
   50   125	 1
   50   127	 1
   50   128	 1
   50   131	 1
   50   132	 1
   51    79	 1
   51   124	 1
   51   125	 1
   51    60	 1
   51    56	 1
   51   137	 1
   52   123	 1
   52    59	 1
   52   144	 1
   52   145	 1
   52    57	 1
   52   138	 1
   52   139	 1
   53    54	 1
   53    60	 1
   53    56	 1
   53   137	 1
   54   123	 1
   54    55	 1
   55    58	 1
   55    61	 1
   55   140	 1
   55    73	 1
   55   143	 1
   56    59	 1
   56   144	 1
   56   145	 1
   56   141	 1
   56   142	 1
   56    62	 1
   56    63	 1
   57    60	 1
   57   137	 1
   57    73	 1
   57   143	 1
   57    64	 1
   57    65	 1
   58   138	 1
   58   139	 1
   58    62	 1
   58    63	 1
   58    74	 1
   58    75	 1
   58   144	 1
   58   145	 1
   59   137	 1
   59    61	 1
   59   140	 1
   59    78	 1
   59    76	 1
   59    77	 1
   60   138	 1
   60   139	 1
   60   141	 1
   60   142	 1
   60    74	 1
   60    75	 1
   61   138	 1
   61   139	 1
   61   141	 1
   61   142	 1
   61    67	 1
   61    66	 1
   61   146	 1
   62   140	 1
   62    64	 1
   62    65	 1
   63   140	 1
   63    68	 1
   63    72	 1
   63   150	 1
   63   147	 1
   63   148	 1
   63   149	 1
   64    67	 1
   64    66	 1
   64   146	 1
   65    69	 1
   65   151	 1
   65   152	 1
   65    71	 1
   65   159	 1
   65   160	 1
   66    68	 1
   66    72	 1
   66   150	 1
   67   147	 1
   67   148	 1
   67   149	 1
   67    70	 1
   67   153	 1
   67   154	 1
   67   157	 1
   67   158	 1
   68   146	 1
   68    71	 1
   68   159	 1
   68   160	 1
   68   155	 1
   68   156	 1
   69    72	 1
   69   150	 1
   69   157	 1
   69   158	 1
   70   151	 1
   70   152	 1
   70   159	 1
   70   160	 1
   71   150	 1
   71   153	 1
   71   154	 1
   72   146	 1
   72   151	 1
   72   152	 1
   72   155	 1
   72   156	 1
   73   141	 1
   73   142	 1
   73   144	 1
   73   145	 1
   73   161	 1
   73   162	 1
   73   163	 1
   74   143	 1
   74    78	 1
   74    76	 1
   74    77	 1
   75   143	 1
   76   161	 1
   76   162	 1
   76   163	 1
   77   161	 1
   77   162	 1
   77   163	 1
   79    80	 1
   79    81	 1
   79   123	 1
   82    83	 1
   82    84	 1
   83    85	 1
   84    85	 1
   85    86	 1
   85    87	 1
   85    88	 1
   85    89	 1
   85    90	 1
   85    91	 1
   92    93	 1
   92    94	 1
   92    95	 1
   99   110	 1
   99   111	 1
  100   103	 1
  100   104	 1
  101   103	 1
  101   104	 1
  102   105	 1
  102   106	 1
  103   105	 1
  103   106	 1
  104   105	 1
  104   106	 1
  110   112	 1
  111   112	 1
  112   121	 1
  112   122	 1
  112   113	 1
  112   114	 1
  113   115	 1
  113   116	 1
  114   115	 1
  114   116	 1
  115   117	 1
  115   118	 1
  116   117	 1
  116   118	 1
  117   119	 1
  117   120	 1
  118   119	 1
  118   120	 1
  119   121	 1
  119   122	 1
  120   121	 1
  120   122	 1
  123   124	 1
  123   125	 1
  124   126	 1
  125   126	 1
  126   135	 1
  126   136	 1
  126   127	 1
  126   128	 1
  127   129	 1
  127   130	 1
  128   129	 1
  128   130	 1
  129   131	 1
  129   132	 1
  130   131	 1
  130   132	 1
  131   133	 1
  131   134	 1
  132   133	 1
  132   134	 1
  133   135	 1
  133   136	 1
  134   135	 1
  134   136	 1
  137   144	 1
  137   145	 1
  137   138	 1
  137   139	 1
  138   140	 1
  139   140	 1
  140   141	 1
  140   142	 1
  141   143	 1
  142   143	 1
  143   144	 1
  143   145	 1
  146   150	 1
  146   147	 1
  146   148	 1
  146   149	 1
  150   151	 1
  150   152	 1
  150   159	 1
  150   160	 1
  151   153	 1
  151   154	 1
  152   153	 1
  152   154	 1
  153   155	 1
  153   156	 1
  154   155	 1
  154   156	 1
  155   157	 1
  155   158	 1
  156   157	 1
  156   158	 1
  157   159	 1
  157   160	 1
  158   159	 1
  158   160	 1

[ angles ]
;	ai	  aj	ak funct			c0			  c1			c2			  c3
    2     1     4	5 ;      OG311      CG311      CG321
    2     1    43	5 ;      OG311      CG311      CG311
    2     1    79	5 ;      OG311      CG311       HGA1
    4     1    43	5 ;      CG321      CG311      CG311
    4     1    79	5 ;      CG321      CG311       HGA1
   43     1    79	5 ;      CG311      CG311       HGA1
    3     2     1	5 ;       HGP1      OG311      CG311
    5     4     1	5 ;      CG2O1      CG321      CG311
    5     4    80	5 ;      CG2O1      CG321       HGA2
    5     4    81	5 ;      CG2O1      CG321       HGA2
    1     4    80	5 ;      CG311      CG321       HGA2
    1     4    81	5 ;      CG311      CG321       HGA2
   80     4    81	5 ;       HGA2      CG321       HGA2
    7     5     6	5 ;      NG2S1      CG2O1      OG2D1
    7     5     4	5 ;      NG2S1      CG2O1      CG321
    6     5     4	5 ;      OG2D1      CG2O1      CG321
    9     7     8	5 ;      CG311      NG2S1       HGP1
    9     7     5	5 ;      CG311      NG2S1      CG2O1
    8     7     5	5 ;       HGP1      NG2S1      CG2O1
   14     9     7	5 ;      CG2O1      CG311      NG2S1
   14     9    10	5 ;      CG2O1      CG311      CG321
   14     9    82	5 ;      CG2O1      CG311       HGA1
    7     9    10	5 ;      NG2S1      CG311      CG321
    7     9    82	5 ;      NG2S1      CG311       HGA1
   10     9    82	5 ;      CG321      CG311       HGA1
    9    10    11	5 ;      CG311      CG321      CG311
    9    10    83	5 ;      CG311      CG321       HGA2
    9    10    84	5 ;      CG311      CG321       HGA2
   11    10    83	5 ;      CG311      CG321       HGA2
   11    10    84	5 ;      CG311      CG321       HGA2
   83    10    84	5 ;       HGA2      CG321       HGA2
   12    11    10	5 ;      CG331      CG311      CG321
   12    11    13	5 ;      CG331      CG311      CG331
   12    11    85	5 ;      CG331      CG311       HGA1
   10    11    13	5 ;      CG321      CG311      CG331
   10    11    85	5 ;      CG321      CG311       HGA1
   13    11    85	5 ;      CG331      CG311       HGA1
   11    12    86	5 ;      CG311      CG331       HGA3
   11    12    87	5 ;      CG311      CG331       HGA3
   11    12    88	5 ;      CG311      CG331       HGA3
   86    12    87	5 ;       HGA3      CG331       HGA3
   86    12    88	5 ;       HGA3      CG331       HGA3
   87    12    88	5 ;       HGA3      CG331       HGA3
   11    13    89	5 ;      CG311      CG331       HGA3
   11    13    90	5 ;      CG311      CG331       HGA3
   11    13    91	5 ;      CG311      CG331       HGA3
   89    13    90	5 ;       HGA3      CG331       HGA3
   89    13    91	5 ;       HGA3      CG331       HGA3
   90    13    91	5 ;       HGA3      CG331       HGA3
   16    14    15	5 ;      NG2S1      CG2O1      OG2D1
   16    14     9	5 ;      NG2S1      CG2O1      CG311
   15    14     9	5 ;      OG2D1      CG2O1      CG311
   17    16    18	5 ;       HGP1      NG2S1      CG311
   17    16    14	5 ;       HGP1      NG2S1      CG2O1
   18    16    14	5 ;      CG311      NG2S1      CG2O1
   16    18    20	5 ;      NG2S1      CG311      CG2O1
   16    18    19	5 ;      NG2S1      CG311      CG331
   16    18    92	5 ;      NG2S1      CG311       HGA1
   20    18    19	5 ;      CG2O1      CG311      CG331
   20    18    92	5 ;      CG2O1      CG311       HGA1
   19    18    92	5 ;      CG331      CG311       HGA1
   18    19    93	5 ;      CG311      CG331       HGA3
   18    19    94	5 ;      CG311      CG331       HGA3
   18    19    95	5 ;      CG311      CG331       HGA3
   93    19    94	5 ;       HGA3      CG331       HGA3
   93    19    95	5 ;       HGA3      CG331       HGA3
   94    19    95	5 ;       HGA3      CG331       HGA3
   22    20    18	5 ;      NG2S0      CG2O1      CG311
   22    20    21	5 ;      NG2S0      CG2O1      OG2D1
   18    20    21	5 ;      CG311      CG2O1      OG2D1
   23    22    24	5 ;      CG331      NG2S0      CG311
   23    22    20	5 ;      CG331      NG2S0      CG2O1
   24    22    20	5 ;      CG311      NG2S0      CG2O1
   22    23    96	5 ;      NG2S0      CG331       HGA3
   22    23    97	5 ;      NG2S0      CG331       HGA3
   22    23    98	5 ;      NG2S0      CG331       HGA3
   96    23    97	5 ;       HGA3      CG331       HGA3
   96    23    98	5 ;       HGA3      CG331       HGA3
   97    23    98	5 ;       HGA3      CG331       HGA3
   36    24    22	5 ;      CG321      CG311      NG2S0
   36    24    25	5 ;      CG321      CG311      CG2O1
   36    24    99	5 ;      CG321      CG311       HGA1
   22    24    25	5 ;      NG2S0      CG311      CG2O1
   22    24    99	5 ;      NG2S0      CG311       HGA1
   25    24    99	5 ;      CG2O1      CG311       HGA1
   26    25    24	5 ;      OG2D1      CG2O1      CG311
   26    25    27	5 ;      OG2D1      CG2O1      NG2S0
   24    25    27	5 ;      CG311      CG2O1      NG2S0
   25    27    28	5 ;      CG2O1      NG2S0     CG3C52
   25    27    29	5 ;      CG2O1      NG2S0     CG3C51
   28    27    29	5 ;     CG3C52      NG2S0     CG3C51
   27    28    30	5 ;      NG2S0     CG3C52     CG3C52
   27    28   100	5 ;      NG2S0     CG3C52       HGA2
   27    28   101	5 ;      NG2S0     CG3C52       HGA2
   30    28   100	5 ;     CG3C52     CG3C52       HGA2
   30    28   101	5 ;     CG3C52     CG3C52       HGA2
  100    28   101	5 ;       HGA2     CG3C52       HGA2
   27    29    32	5 ;      NG2S0     CG3C51      CG2O2
   27    29    31	5 ;      NG2S0     CG3C51     CG3C52
   27    29   102	5 ;      NG2S0     CG3C51       HGA1
   32    29    31	5 ;      CG2O2     CG3C51     CG3C52
   32    29   102	5 ;      CG2O2     CG3C51       HGA1
   31    29   102	5 ;     CG3C52     CG3C51       HGA1
   28    30    31	5 ;     CG3C52     CG3C52     CG3C52
   28    30   103	5 ;     CG3C52     CG3C52       HGA2
   28    30   104	5 ;     CG3C52     CG3C52       HGA2
   31    30   103	5 ;     CG3C52     CG3C52       HGA2
   31    30   104	5 ;     CG3C52     CG3C52       HGA2
  103    30   104	5 ;       HGA2     CG3C52       HGA2
   29    31    30	5 ;     CG3C51     CG3C52     CG3C52
   29    31   105	5 ;     CG3C51     CG3C52       HGA2
   29    31   106	5 ;     CG3C51     CG3C52       HGA2
   30    31   105	5 ;     CG3C52     CG3C52       HGA2
   30    31   106	5 ;     CG3C52     CG3C52       HGA2
  105    31   106	5 ;       HGA2     CG3C52       HGA2
   29    32    33	5 ;     CG3C51      CG2O2      OG2D1
   29    32    34	5 ;     CG3C51      CG2O2      OG302
   33    32    34	5 ;      OG2D1      CG2O2      OG302
   32    34    35	5 ;      CG2O2      OG302      CG331
   34    35   107	5 ;      OG302      CG331       HGA3
   34    35   108	5 ;      OG302      CG331       HGA3
   34    35   109	5 ;      OG302      CG331       HGA3
  107    35   108	5 ;       HGA3      CG331       HGA3
  107    35   109	5 ;       HGA3      CG331       HGA3
  108    35   109	5 ;       HGA3      CG331       HGA3
   37    36    24	5 ;      CG311      CG321      CG311
   37    36   110	5 ;      CG311      CG321       HGA2
   37    36   111	5 ;      CG311      CG321       HGA2
   24    36   110	5 ;      CG311      CG321       HGA2
   24    36   111	5 ;      CG311      CG321       HGA2
  110    36   111	5 ;       HGA2      CG321       HGA2
   42    37    36	5 ;      CG321      CG311      CG321
   42    37    38	5 ;      CG321      CG311      CG321
   42    37   112	5 ;      CG321      CG311       HGA1
   36    37    38	5 ;      CG321      CG311      CG321
   36    37   112	5 ;      CG321      CG311       HGA1
   38    37   112	5 ;      CG321      CG311       HGA1
   37    38    39	5 ;      CG311      CG321      CG321
   37    38   113	5 ;      CG311      CG321       HGA2
   37    38   114	5 ;      CG311      CG321       HGA2
   39    38   113	5 ;      CG321      CG321       HGA2
   39    38   114	5 ;      CG321      CG321       HGA2
  113    38   114	5 ;       HGA2      CG321       HGA2
   40    39    38	5 ;      CG321      CG321      CG321
   40    39   115	5 ;      CG321      CG321       HGA2
   40    39   116	5 ;      CG321      CG321       HGA2
   38    39   115	5 ;      CG321      CG321       HGA2
   38    39   116	5 ;      CG321      CG321       HGA2
  115    39   116	5 ;       HGA2      CG321       HGA2
   41    40    39	5 ;      CG321      CG321      CG321
   41    40   117	5 ;      CG321      CG321       HGA2
   41    40   118	5 ;      CG321      CG321       HGA2
   39    40   117	5 ;      CG321      CG321       HGA2
   39    40   118	5 ;      CG321      CG321       HGA2
  117    40   118	5 ;       HGA2      CG321       HGA2
   42    41    40	5 ;      CG321      CG321      CG321
   42    41   119	5 ;      CG321      CG321       HGA2
   42    41   120	5 ;      CG321      CG321       HGA2
   40    41   119	5 ;      CG321      CG321       HGA2
   40    41   120	5 ;      CG321      CG321       HGA2
  119    41   120	5 ;       HGA2      CG321       HGA2
   41    42    37	5 ;      CG321      CG321      CG311
   41    42   121	5 ;      CG321      CG321       HGA2
   41    42   122	5 ;      CG321      CG321       HGA2
   37    42   121	5 ;      CG311      CG321       HGA2
   37    42   122	5 ;      CG311      CG321       HGA2
  121    42   122	5 ;       HGA2      CG321       HGA2
    1    43    44	5 ;      CG311      CG311      CG321
    1    43    51	5 ;      CG311      CG311      NG2S1
    1    43   123	5 ;      CG311      CG311       HGA1
   44    43    51	5 ;      CG321      CG311      NG2S1
   44    43   123	5 ;      CG321      CG311       HGA1
   51    43   123	5 ;      NG2S1      CG311       HGA1
   43    44    45	5 ;      CG311      CG321      CG311
   43    44   124	5 ;      CG311      CG321       HGA2
   43    44   125	5 ;      CG311      CG321       HGA2
   45    44   124	5 ;      CG311      CG321       HGA2
   45    44   125	5 ;      CG311      CG321       HGA2
  124    44   125	5 ;       HGA2      CG321       HGA2
   50    45    44	5 ;      CG321      CG311      CG321
   50    45    46	5 ;      CG321      CG311      CG321
   50    45   126	5 ;      CG321      CG311       HGA1
   44    45    46	5 ;      CG321      CG311      CG321
   44    45   126	5 ;      CG321      CG311       HGA1
   46    45   126	5 ;      CG321      CG311       HGA1
   45    46    47	5 ;      CG311      CG321      CG321
   45    46   127	5 ;      CG311      CG321       HGA2
   45    46   128	5 ;      CG311      CG321       HGA2
   47    46   127	5 ;      CG321      CG321       HGA2
   47    46   128	5 ;      CG321      CG321       HGA2
  127    46   128	5 ;       HGA2      CG321       HGA2
   48    47    46	5 ;      CG321      CG321      CG321
   48    47   129	5 ;      CG321      CG321       HGA2
   48    47   130	5 ;      CG321      CG321       HGA2
   46    47   129	5 ;      CG321      CG321       HGA2
   46    47   130	5 ;      CG321      CG321       HGA2
  129    47   130	5 ;       HGA2      CG321       HGA2
   49    48    47	5 ;      CG321      CG321      CG321
   49    48   131	5 ;      CG321      CG321       HGA2
   49    48   132	5 ;      CG321      CG321       HGA2
   47    48   131	5 ;      CG321      CG321       HGA2
   47    48   132	5 ;      CG321      CG321       HGA2
  131    48   132	5 ;       HGA2      CG321       HGA2
   50    49    48	5 ;      CG321      CG321      CG321
   50    49   133	5 ;      CG321      CG321       HGA2
   50    49   134	5 ;      CG321      CG321       HGA2
   48    49   133	5 ;      CG321      CG321       HGA2
   48    49   134	5 ;      CG321      CG321       HGA2
  133    49   134	5 ;       HGA2      CG321       HGA2
   49    50    45	5 ;      CG321      CG321      CG311
   49    50   135	5 ;      CG321      CG321       HGA2
   49    50   136	5 ;      CG321      CG321       HGA2
   45    50   135	5 ;      CG311      CG321       HGA2
   45    50   136	5 ;      CG311      CG321       HGA2
  135    50   136	5 ;       HGA2      CG321       HGA2
   54    51    43	5 ;       HGP1      NG2S1      CG311
   54    51    52	5 ;       HGP1      NG2S1      CG2O1
   43    51    52	5 ;      CG311      NG2S1      CG2O1
   51    52    53	5 ;      NG2S1      CG2O1      OG2D1
   51    52    55	5 ;      NG2S1      CG2O1      CG311
   53    52    55	5 ;      OG2D1      CG2O1      CG311
   52    55    60	5 ;      CG2O1      CG311      CG321
   52    55    56	5 ;      CG2O1      CG311      CG321
   52    55   137	5 ;      CG2O1      CG311       HGA1
   60    55    56	5 ;      CG321      CG311      CG321
   60    55   137	5 ;      CG321      CG311       HGA1
   56    55   137	5 ;      CG321      CG311       HGA1
   55    56    57	5 ;      CG311      CG321      CG311
   55    56   138	5 ;      CG311      CG321       HGA2
   55    56   139	5 ;      CG311      CG321       HGA2
   57    56   138	5 ;      CG311      CG321       HGA2
   57    56   139	5 ;      CG311      CG321       HGA2
  138    56   139	5 ;       HGA2      CG321       HGA2
   56    57    58	5 ;      CG321      CG311      CG321
   56    57    61	5 ;      CG321      CG311      CG2O1
   56    57   140	5 ;      CG321      CG311       HGA1
   58    57    61	5 ;      CG321      CG311      CG2O1
   58    57   140	5 ;      CG321      CG311       HGA1
   61    57   140	5 ;      CG2O1      CG311       HGA1
   59    58    57	5 ;      CG311      CG321      CG311
   59    58   141	5 ;      CG311      CG321       HGA2
   59    58   142	5 ;      CG311      CG321       HGA2
   57    58   141	5 ;      CG311      CG321       HGA2
   57    58   142	5 ;      CG311      CG321       HGA2
  141    58   142	5 ;       HGA2      CG321       HGA2
   73    59    60	5 ;      NG311      CG311      CG321
   73    59    58	5 ;      NG311      CG311      CG321
   73    59   143	5 ;      NG311      CG311       HGA1
   60    59    58	5 ;      CG321      CG311      CG321
   60    59   143	5 ;      CG321      CG311       HGA1
   58    59   143	5 ;      CG321      CG311       HGA1
   55    60    59	5 ;      CG311      CG321      CG311
   55    60   144	5 ;      CG311      CG321       HGA2
   55    60   145	5 ;      CG311      CG321       HGA2
   59    60   144	5 ;      CG311      CG321       HGA2
   59    60   145	5 ;      CG311      CG321       HGA2
  144    60   145	5 ;       HGA2      CG321       HGA2
   57    61    62	5 ;      CG311      CG2O1      OG2D1
   57    61    63	5 ;      CG311      CG2O1      NG2S1
   62    61    63	5 ;      OG2D1      CG2O1      NG2S1
   61    63    64	5 ;      CG2O1      NG2S1       HGP1
   61    63    65	5 ;      CG2O1      NG2S1      CG311
   64    63    65	5 ;       HGP1      NG2S1      CG311
   63    65    67	5 ;      NG2S1      CG311      CG311
   63    65    66	5 ;      NG2S1      CG311      CG331
   63    65   146	5 ;      NG2S1      CG311       HGA1
   67    65    66	5 ;      CG311      CG311      CG331
   67    65   146	5 ;      CG311      CG311       HGA1
   66    65   146	5 ;      CG331      CG311       HGA1
   65    66   147	5 ;      CG311      CG331       HGA3
   65    66   148	5 ;      CG311      CG331       HGA3
   65    66   149	5 ;      CG311      CG331       HGA3
  147    66   148	5 ;       HGA3      CG331       HGA3
  147    66   149	5 ;       HGA3      CG331       HGA3
  148    66   149	5 ;       HGA3      CG331       HGA3
   65    67    68	5 ;      CG311      CG311      CG321
   65    67    72	5 ;      CG311      CG311      CG321
   65    67   150	5 ;      CG311      CG311       HGA1
   68    67    72	5 ;      CG321      CG311      CG321
   68    67   150	5 ;      CG321      CG311       HGA1
   72    67   150	5 ;      CG321      CG311       HGA1
   67    68    69	5 ;      CG311      CG321      CG321
   67    68   151	5 ;      CG311      CG321       HGA2
   67    68   152	5 ;      CG311      CG321       HGA2
   69    68   151	5 ;      CG321      CG321       HGA2
   69    68   152	5 ;      CG321      CG321       HGA2
  151    68   152	5 ;       HGA2      CG321       HGA2
   68    69    70	5 ;      CG321      CG321      CG321
   68    69   153	5 ;      CG321      CG321       HGA2
   68    69   154	5 ;      CG321      CG321       HGA2
   70    69   153	5 ;      CG321      CG321       HGA2
   70    69   154	5 ;      CG321      CG321       HGA2
  153    69   154	5 ;       HGA2      CG321       HGA2
   69    70    71	5 ;      CG321      CG321      CG321
   69    70   155	5 ;      CG321      CG321       HGA2
   69    70   156	5 ;      CG321      CG321       HGA2
   71    70   155	5 ;      CG321      CG321       HGA2
   71    70   156	5 ;      CG321      CG321       HGA2
  155    70   156	5 ;       HGA2      CG321       HGA2
   72    71    70	5 ;      CG321      CG321      CG321
   72    71   157	5 ;      CG321      CG321       HGA2
   72    71   158	5 ;      CG321      CG321       HGA2
   70    71   157	5 ;      CG321      CG321       HGA2
   70    71   158	5 ;      CG321      CG321       HGA2
  157    71   158	5 ;       HGA2      CG321       HGA2
   67    72    71	5 ;      CG311      CG321      CG321
   67    72   159	5 ;      CG311      CG321       HGA2
   67    72   160	5 ;      CG311      CG321       HGA2
   71    72   159	5 ;      CG321      CG321       HGA2
   71    72   160	5 ;      CG321      CG321       HGA2
  159    72   160	5 ;       HGA2      CG321       HGA2
   74    73    75	5 ;       HGP1      NG311      SG3O2
   74    73    59	5 ;       HGP1      NG311      CG311
   75    73    59	5 ;      SG3O2      NG311      CG311
   78    75    73	5 ;      CG331      SG3O2      NG311
   78    75    76	5 ;      CG331      SG3O2      OG2P1
   78    75    77	5 ;      CG331      SG3O2      OG2P1
   73    75    76	5 ;      NG311      SG3O2      OG2P1
   73    75    77	5 ;      NG311      SG3O2      OG2P1
   76    75    77	5 ;      OG2P1      SG3O2      OG2P1
   75    78   161	5 ;      SG3O2      CG331       HGA3
   75    78   162	5 ;      SG3O2      CG331       HGA3
   75    78   163	5 ;      SG3O2      CG331       HGA3
  161    78   162	5 ;       HGA3      CG331       HGA3
  161    78   163	5 ;       HGA3      CG331       HGA3
  162    78   163	5 ;       HGA3      CG331       HGA3

[ dihedrals ]
;	ai	  aj	ak	  al funct			  c0			c1			  c2			c3			  c4			c5
    4     1     2     3	 9 ;      CG321      CG311      OG311       HGP1
   43     1     2     3	 9 ;      CG311      CG311      OG311       HGP1
   79     1     2     3	 9 ;       HGA1      CG311      OG311       HGP1
    2     1     4     5	 9 ;      OG311      CG311      CG321      CG2O1
    2     1     4    80	 9 ;      OG311      CG311      CG321       HGA2
    2     1     4    81	 9 ;      OG311      CG311      CG321       HGA2
   43     1     4     5	 9 ;      CG311      CG311      CG321      CG2O1
   43     1     4    80	 9 ;      CG311      CG311      CG321       HGA2
   43     1     4    81	 9 ;      CG311      CG311      CG321       HGA2
   79     1     4     5	 9 ;       HGA1      CG311      CG321      CG2O1
   79     1     4    80	 9 ;       HGA1      CG311      CG321       HGA2
   79     1     4    81	 9 ;       HGA1      CG311      CG321       HGA2
    2     1    43    44	 9 ;      OG311      CG311      CG311      CG321
    2     1    43    51	 9 ;      OG311      CG311      CG311      NG2S1
    2     1    43   123	 9 ;      OG311      CG311      CG311       HGA1
    4     1    43    44	 9 ;      CG321      CG311      CG311      CG321
    4     1    43    51	 9 ;      CG321      CG311      CG311      NG2S1
    4     1    43   123	 9 ;      CG321      CG311      CG311       HGA1
   79     1    43    44	 9 ;       HGA1      CG311      CG311      CG321
   79     1    43    51	 9 ;       HGA1      CG311      CG311      NG2S1
   79     1    43   123	 9 ;       HGA1      CG311      CG311       HGA1
    1     4     5     7	 9 ;      CG311      CG321      CG2O1      NG2S1
    1     4     5     6	 9 ;      CG311      CG321      CG2O1      OG2D1
   80     4     5     7	 9 ;       HGA2      CG321      CG2O1      NG2S1
   80     4     5     6	 9 ;       HGA2      CG321      CG2O1      OG2D1
   81     4     5     7	 9 ;       HGA2      CG321      CG2O1      NG2S1
   81     4     5     6	 9 ;       HGA2      CG321      CG2O1      OG2D1
    6     5     7     9	 9 ;      OG2D1      CG2O1      NG2S1      CG311
    6     5     7     8	 9 ;      OG2D1      CG2O1      NG2S1       HGP1
    4     5     7     9	 9 ;      CG321      CG2O1      NG2S1      CG311
    4     5     7     8	 9 ;      CG321      CG2O1      NG2S1       HGP1
    8     7     9    14	 9 ;       HGP1      NG2S1      CG311      CG2O1
    8     7     9    10	 9 ;       HGP1      NG2S1      CG311      CG321
    8     7     9    82	 9 ;       HGP1      NG2S1      CG311       HGA1
    5     7     9    14	 9 ;      CG2O1      NG2S1      CG311      CG2O1
    5     7     9    10	 9 ;      CG2O1      NG2S1      CG311      CG321
    5     7     9    82	 9 ;      CG2O1      NG2S1      CG311       HGA1
    7     9    14    16	 9 ;      NG2S1      CG311      CG2O1      NG2S1
    7     9    14    15	 9 ;      NG2S1      CG311      CG2O1      OG2D1
   10     9    14    16	 9 ;      CG321      CG311      CG2O1      NG2S1
   10     9    14    15	 9 ;      CG321      CG311      CG2O1      OG2D1
   82     9    14    16	 9 ;       HGA1      CG311      CG2O1      NG2S1
   82     9    14    15	 9 ;       HGA1      CG311      CG2O1      OG2D1
   14     9    10    11	 9 ;      CG2O1      CG311      CG321      CG311
   14     9    10    83	 9 ;      CG2O1      CG311      CG321       HGA2
   14     9    10    84	 9 ;      CG2O1      CG311      CG321       HGA2
    7     9    10    11	 9 ;      NG2S1      CG311      CG321      CG311
    7     9    10    83	 9 ;      NG2S1      CG311      CG321       HGA2
    7     9    10    84	 9 ;      NG2S1      CG311      CG321       HGA2
   82     9    10    11	 9 ;       HGA1      CG311      CG321      CG311
   82     9    10    83	 9 ;       HGA1      CG311      CG321       HGA2
   82     9    10    84	 9 ;       HGA1      CG311      CG321       HGA2
    9    10    11    12	 9 ;      CG311      CG321      CG311      CG331
    9    10    11    13	 9 ;      CG311      CG321      CG311      CG331
    9    10    11    85	 9 ;      CG311      CG321      CG311       HGA1
   83    10    11    12	 9 ;       HGA2      CG321      CG311      CG331
   83    10    11    13	 9 ;       HGA2      CG321      CG311      CG331
   83    10    11    85	 9 ;       HGA2      CG321      CG311       HGA1
   84    10    11    12	 9 ;       HGA2      CG321      CG311      CG331
   84    10    11    13	 9 ;       HGA2      CG321      CG311      CG331
   84    10    11    85	 9 ;       HGA2      CG321      CG311       HGA1
   10    11    12    86	 9 ;      CG321      CG311      CG331       HGA3
   10    11    12    87	 9 ;      CG321      CG311      CG331       HGA3
   10    11    12    88	 9 ;      CG321      CG311      CG331       HGA3
   13    11    12    86	 9 ;      CG331      CG311      CG331       HGA3
   13    11    12    87	 9 ;      CG331      CG311      CG331       HGA3
   13    11    12    88	 9 ;      CG331      CG311      CG331       HGA3
   85    11    12    86	 9 ;       HGA1      CG311      CG331       HGA3
   85    11    12    87	 9 ;       HGA1      CG311      CG331       HGA3
   85    11    12    88	 9 ;       HGA1      CG311      CG331       HGA3
   12    11    13    89	 9 ;      CG331      CG311      CG331       HGA3
   12    11    13    90	 9 ;      CG331      CG311      CG331       HGA3
   12    11    13    91	 9 ;      CG331      CG311      CG331       HGA3
   10    11    13    89	 9 ;      CG321      CG311      CG331       HGA3
   10    11    13    90	 9 ;      CG321      CG311      CG331       HGA3
   10    11    13    91	 9 ;      CG321      CG311      CG331       HGA3
   85    11    13    89	 9 ;       HGA1      CG311      CG331       HGA3
   85    11    13    90	 9 ;       HGA1      CG311      CG331       HGA3
   85    11    13    91	 9 ;       HGA1      CG311      CG331       HGA3
   15    14    16    17	 9 ;      OG2D1      CG2O1      NG2S1       HGP1
   15    14    16    18	 9 ;      OG2D1      CG2O1      NG2S1      CG311
    9    14    16    17	 9 ;      CG311      CG2O1      NG2S1       HGP1
    9    14    16    18	 9 ;      CG311      CG2O1      NG2S1      CG311
   17    16    18    20	 9 ;       HGP1      NG2S1      CG311      CG2O1
   17    16    18    19	 9 ;       HGP1      NG2S1      CG311      CG331
   17    16    18    92	 9 ;       HGP1      NG2S1      CG311       HGA1
   14    16    18    20	 9 ;      CG2O1      NG2S1      CG311      CG2O1
   14    16    18    19	 9 ;      CG2O1      NG2S1      CG311      CG331
   14    16    18    92	 9 ;      CG2O1      NG2S1      CG311       HGA1
   16    18    20    22	 9 ;      NG2S1      CG311      CG2O1      NG2S0
   16    18    20    21	 9 ;      NG2S1      CG311      CG2O1      OG2D1
   19    18    20    22	 9 ;      CG331      CG311      CG2O1      NG2S0
   19    18    20    21	 9 ;      CG331      CG311      CG2O1      OG2D1
   92    18    20    22	 9 ;       HGA1      CG311      CG2O1      NG2S0
   92    18    20    21	 9 ;       HGA1      CG311      CG2O1      OG2D1
   16    18    19    93	 9 ;      NG2S1      CG311      CG331       HGA3
   16    18    19    94	 9 ;      NG2S1      CG311      CG331       HGA3
   16    18    19    95	 9 ;      NG2S1      CG311      CG331       HGA3
   20    18    19    93	 9 ;      CG2O1      CG311      CG331       HGA3
   20    18    19    94	 9 ;      CG2O1      CG311      CG331       HGA3
   20    18    19    95	 9 ;      CG2O1      CG311      CG331       HGA3
   92    18    19    93	 9 ;       HGA1      CG311      CG331       HGA3
   92    18    19    94	 9 ;       HGA1      CG311      CG331       HGA3
   92    18    19    95	 9 ;       HGA1      CG311      CG331       HGA3
   18    20    22    23	 9 ;      CG311      CG2O1      NG2S0      CG331
   18    20    22    24	 9 ;      CG311      CG2O1      NG2S0      CG311
   21    20    22    23	 9 ;      OG2D1      CG2O1      NG2S0      CG331
   21    20    22    24	 9 ;      OG2D1      CG2O1      NG2S0      CG311
   24    22    23    96	 9 ;      CG311      NG2S0      CG331       HGA3
   24    22    23    97	 9 ;      CG311      NG2S0      CG331       HGA3
   24    22    23    98	 9 ;      CG311      NG2S0      CG331       HGA3
   20    22    23    96	 9 ;      CG2O1      NG2S0      CG331       HGA3
   20    22    23    97	 9 ;      CG2O1      NG2S0      CG331       HGA3
   20    22    23    98	 9 ;      CG2O1      NG2S0      CG331       HGA3
   23    22    24    36	 9 ;      CG331      NG2S0      CG311      CG321
   23    22    24    25	 9 ;      CG331      NG2S0      CG311      CG2O1
   23    22    24    99	 9 ;      CG331      NG2S0      CG311       HGA1
   20    22    24    36	 9 ;      CG2O1      NG2S0      CG311      CG321
   20    22    24    25	 9 ;      CG2O1      NG2S0      CG311      CG2O1
   20    22    24    99	 9 ;      CG2O1      NG2S0      CG311       HGA1
   22    24    36    37	 9 ;      NG2S0      CG311      CG321      CG311
   22    24    36   110	 9 ;      NG2S0      CG311      CG321       HGA2
   22    24    36   111	 9 ;      NG2S0      CG311      CG321       HGA2
   25    24    36    37	 9 ;      CG2O1      CG311      CG321      CG311
   25    24    36   110	 9 ;      CG2O1      CG311      CG321       HGA2
   25    24    36   111	 9 ;      CG2O1      CG311      CG321       HGA2
   99    24    36    37	 9 ;       HGA1      CG311      CG321      CG311
   99    24    36   110	 9 ;       HGA1      CG311      CG321       HGA2
   99    24    36   111	 9 ;       HGA1      CG311      CG321       HGA2
   36    24    25    26	 9 ;      CG321      CG311      CG2O1      OG2D1
   36    24    25    27	 9 ;      CG321      CG311      CG2O1      NG2S0
   22    24    25    26	 9 ;      NG2S0      CG311      CG2O1      OG2D1
   22    24    25    27	 9 ;      NG2S0      CG311      CG2O1      NG2S0
   99    24    25    26	 9 ;       HGA1      CG311      CG2O1      OG2D1
   99    24    25    27	 9 ;       HGA1      CG311      CG2O1      NG2S0
   26    25    27    28	 9 ;      OG2D1      CG2O1      NG2S0     CG3C52
   26    25    27    29	 9 ;      OG2D1      CG2O1      NG2S0     CG3C51
   24    25    27    28	 9 ;      CG311      CG2O1      NG2S0     CG3C52
   24    25    27    29	 9 ;      CG311      CG2O1      NG2S0     CG3C51
   25    27    28    30	 9 ;      CG2O1      NG2S0     CG3C52     CG3C52
   25    27    28   100	 9 ;      CG2O1      NG2S0     CG3C52       HGA2
   25    27    28   101	 9 ;      CG2O1      NG2S0     CG3C52       HGA2
   29    27    28    30	 9 ;     CG3C51      NG2S0     CG3C52     CG3C52
   29    27    28   100	 9 ;     CG3C51      NG2S0     CG3C52       HGA2
   29    27    28   101	 9 ;     CG3C51      NG2S0     CG3C52       HGA2
   25    27    29    32	 9 ;      CG2O1      NG2S0     CG3C51      CG2O2
   25    27    29    31	 9 ;      CG2O1      NG2S0     CG3C51     CG3C52
   25    27    29   102	 9 ;      CG2O1      NG2S0     CG3C51       HGA1
   28    27    29    32	 9 ;     CG3C52      NG2S0     CG3C51      CG2O2
   28    27    29    31	 9 ;     CG3C52      NG2S0     CG3C51     CG3C52
   28    27    29   102	 9 ;     CG3C52      NG2S0     CG3C51       HGA1
   27    28    30    31	 9 ;      NG2S0     CG3C52     CG3C52     CG3C52
   27    28    30   103	 9 ;      NG2S0     CG3C52     CG3C52       HGA2
   27    28    30   104	 9 ;      NG2S0     CG3C52     CG3C52       HGA2
  100    28    30    31	 9 ;       HGA2     CG3C52     CG3C52     CG3C52
  100    28    30   103	 9 ;       HGA2     CG3C52     CG3C52       HGA2
  100    28    30   104	 9 ;       HGA2     CG3C52     CG3C52       HGA2
  101    28    30    31	 9 ;       HGA2     CG3C52     CG3C52     CG3C52
  101    28    30   103	 9 ;       HGA2     CG3C52     CG3C52       HGA2
  101    28    30   104	 9 ;       HGA2     CG3C52     CG3C52       HGA2
   27    29    32    33	 9 ;      NG2S0     CG3C51      CG2O2      OG2D1
   27    29    32    34	 9 ;      NG2S0     CG3C51      CG2O2      OG302
   31    29    32    33	 9 ;     CG3C52     CG3C51      CG2O2      OG2D1
   31    29    32    34	 9 ;     CG3C52     CG3C51      CG2O2      OG302
  102    29    32    33	 9 ;       HGA1     CG3C51      CG2O2      OG2D1
  102    29    32    34	 9 ;       HGA1     CG3C51      CG2O2      OG302
   27    29    31    30	 9 ;      NG2S0     CG3C51     CG3C52     CG3C52
   27    29    31   105	 9 ;      NG2S0     CG3C51     CG3C52       HGA2
   27    29    31   106	 9 ;      NG2S0     CG3C51     CG3C52       HGA2
   32    29    31    30	 9 ;      CG2O2     CG3C51     CG3C52     CG3C52
   32    29    31   105	 9 ;      CG2O2     CG3C51     CG3C52       HGA2
   32    29    31   106	 9 ;      CG2O2     CG3C51     CG3C52       HGA2
  102    29    31    30	 9 ;       HGA1     CG3C51     CG3C52     CG3C52
  102    29    31   105	 9 ;       HGA1     CG3C51     CG3C52       HGA2
  102    29    31   106	 9 ;       HGA1     CG3C51     CG3C52       HGA2
   28    30    31    29	 9 ;     CG3C52     CG3C52     CG3C52     CG3C51
   28    30    31   105	 9 ;     CG3C52     CG3C52     CG3C52       HGA2
   28    30    31   106	 9 ;     CG3C52     CG3C52     CG3C52       HGA2
  103    30    31    29	 9 ;       HGA2     CG3C52     CG3C52     CG3C51
  103    30    31   105	 9 ;       HGA2     CG3C52     CG3C52       HGA2
  103    30    31   106	 9 ;       HGA2     CG3C52     CG3C52       HGA2
  104    30    31    29	 9 ;       HGA2     CG3C52     CG3C52     CG3C51
  104    30    31   105	 9 ;       HGA2     CG3C52     CG3C52       HGA2
  104    30    31   106	 9 ;       HGA2     CG3C52     CG3C52       HGA2
   29    32    34    35	 9 ;     CG3C51      CG2O2      OG302      CG331
   33    32    34    35	 9 ;      OG2D1      CG2O2      OG302      CG331
   32    34    35   107	 9 ;      CG2O2      OG302      CG331       HGA3
   32    34    35   108	 9 ;      CG2O2      OG302      CG331       HGA3
   32    34    35   109	 9 ;      CG2O2      OG302      CG331       HGA3
   24    36    37    42	 9 ;      CG311      CG321      CG311      CG321
   24    36    37    38	 9 ;      CG311      CG321      CG311      CG321
   24    36    37   112	 9 ;      CG311      CG321      CG311       HGA1
  110    36    37    42	 9 ;       HGA2      CG321      CG311      CG321
  110    36    37    38	 9 ;       HGA2      CG321      CG311      CG321
  110    36    37   112	 9 ;       HGA2      CG321      CG311       HGA1
  111    36    37    42	 9 ;       HGA2      CG321      CG311      CG321
  111    36    37    38	 9 ;       HGA2      CG321      CG311      CG321
  111    36    37   112	 9 ;       HGA2      CG321      CG311       HGA1
   36    37    42    41	 9 ;      CG321      CG311      CG321      CG321
   36    37    42   121	 9 ;      CG321      CG311      CG321       HGA2
   36    37    42   122	 9 ;      CG321      CG311      CG321       HGA2
   38    37    42    41	 9 ;      CG321      CG311      CG321      CG321
   38    37    42   121	 9 ;      CG321      CG311      CG321       HGA2
   38    37    42   122	 9 ;      CG321      CG311      CG321       HGA2
  112    37    42    41	 9 ;       HGA1      CG311      CG321      CG321
  112    37    42   121	 9 ;       HGA1      CG311      CG321       HGA2
  112    37    42   122	 9 ;       HGA1      CG311      CG321       HGA2
   42    37    38    39	 9 ;      CG321      CG311      CG321      CG321
   42    37    38   113	 9 ;      CG321      CG311      CG321       HGA2
   42    37    38   114	 9 ;      CG321      CG311      CG321       HGA2
   36    37    38    39	 9 ;      CG321      CG311      CG321      CG321
   36    37    38   113	 9 ;      CG321      CG311      CG321       HGA2
   36    37    38   114	 9 ;      CG321      CG311      CG321       HGA2
  112    37    38    39	 9 ;       HGA1      CG311      CG321      CG321
  112    37    38   113	 9 ;       HGA1      CG311      CG321       HGA2
  112    37    38   114	 9 ;       HGA1      CG311      CG321       HGA2
   37    38    39    40	 9 ;      CG311      CG321      CG321      CG321
   37    38    39   115	 9 ;      CG311      CG321      CG321       HGA2
   37    38    39   116	 9 ;      CG311      CG321      CG321       HGA2
  113    38    39    40	 9 ;       HGA2      CG321      CG321      CG321
  113    38    39   115	 9 ;       HGA2      CG321      CG321       HGA2
  113    38    39   116	 9 ;       HGA2      CG321      CG321       HGA2
  114    38    39    40	 9 ;       HGA2      CG321      CG321      CG321
  114    38    39   115	 9 ;       HGA2      CG321      CG321       HGA2
  114    38    39   116	 9 ;       HGA2      CG321      CG321       HGA2
   38    39    40    41	 9 ;      CG321      CG321      CG321      CG321
   38    39    40   117	 9 ;      CG321      CG321      CG321       HGA2
   38    39    40   118	 9 ;      CG321      CG321      CG321       HGA2
  115    39    40    41	 9 ;       HGA2      CG321      CG321      CG321
  115    39    40   117	 9 ;       HGA2      CG321      CG321       HGA2
  115    39    40   118	 9 ;       HGA2      CG321      CG321       HGA2
  116    39    40    41	 9 ;       HGA2      CG321      CG321      CG321
  116    39    40   117	 9 ;       HGA2      CG321      CG321       HGA2
  116    39    40   118	 9 ;       HGA2      CG321      CG321       HGA2
   39    40    41    42	 9 ;      CG321      CG321      CG321      CG321
   39    40    41   119	 9 ;      CG321      CG321      CG321       HGA2
   39    40    41   120	 9 ;      CG321      CG321      CG321       HGA2
  117    40    41    42	 9 ;       HGA2      CG321      CG321      CG321
  117    40    41   119	 9 ;       HGA2      CG321      CG321       HGA2
  117    40    41   120	 9 ;       HGA2      CG321      CG321       HGA2
  118    40    41    42	 9 ;       HGA2      CG321      CG321      CG321
  118    40    41   119	 9 ;       HGA2      CG321      CG321       HGA2
  118    40    41   120	 9 ;       HGA2      CG321      CG321       HGA2
   40    41    42    37	 9 ;      CG321      CG321      CG321      CG311
   40    41    42   121	 9 ;      CG321      CG321      CG321       HGA2
   40    41    42   122	 9 ;      CG321      CG321      CG321       HGA2
  119    41    42    37	 9 ;       HGA2      CG321      CG321      CG311
  119    41    42   121	 9 ;       HGA2      CG321      CG321       HGA2
  119    41    42   122	 9 ;       HGA2      CG321      CG321       HGA2
  120    41    42    37	 9 ;       HGA2      CG321      CG321      CG311
  120    41    42   121	 9 ;       HGA2      CG321      CG321       HGA2
  120    41    42   122	 9 ;       HGA2      CG321      CG321       HGA2
    1    43    44    45	 9 ;      CG311      CG311      CG321      CG311
    1    43    44   124	 9 ;      CG311      CG311      CG321       HGA2
    1    43    44   125	 9 ;      CG311      CG311      CG321       HGA2
   51    43    44    45	 9 ;      NG2S1      CG311      CG321      CG311
   51    43    44   124	 9 ;      NG2S1      CG311      CG321       HGA2
   51    43    44   125	 9 ;      NG2S1      CG311      CG321       HGA2
  123    43    44    45	 9 ;       HGA1      CG311      CG321      CG311
  123    43    44   124	 9 ;       HGA1      CG311      CG321       HGA2
  123    43    44   125	 9 ;       HGA1      CG311      CG321       HGA2
    1    43    51    54	 9 ;      CG311      CG311      NG2S1       HGP1
    1    43    51    52	 9 ;      CG311      CG311      NG2S1      CG2O1
   44    43    51    54	 9 ;      CG321      CG311      NG2S1       HGP1
   44    43    51    52	 9 ;      CG321      CG311      NG2S1      CG2O1
  123    43    51    54	 9 ;       HGA1      CG311      NG2S1       HGP1
  123    43    51    52	 9 ;       HGA1      CG311      NG2S1      CG2O1
   43    44    45    50	 9 ;      CG311      CG321      CG311      CG321
   43    44    45    46	 9 ;      CG311      CG321      CG311      CG321
   43    44    45   126	 9 ;      CG311      CG321      CG311       HGA1
  124    44    45    50	 9 ;       HGA2      CG321      CG311      CG321
  124    44    45    46	 9 ;       HGA2      CG321      CG311      CG321
  124    44    45   126	 9 ;       HGA2      CG321      CG311       HGA1
  125    44    45    50	 9 ;       HGA2      CG321      CG311      CG321
  125    44    45    46	 9 ;       HGA2      CG321      CG311      CG321
  125    44    45   126	 9 ;       HGA2      CG321      CG311       HGA1
   44    45    50    49	 9 ;      CG321      CG311      CG321      CG321
   44    45    50   135	 9 ;      CG321      CG311      CG321       HGA2
   44    45    50   136	 9 ;      CG321      CG311      CG321       HGA2
   46    45    50    49	 9 ;      CG321      CG311      CG321      CG321
   46    45    50   135	 9 ;      CG321      CG311      CG321       HGA2
   46    45    50   136	 9 ;      CG321      CG311      CG321       HGA2
  126    45    50    49	 9 ;       HGA1      CG311      CG321      CG321
  126    45    50   135	 9 ;       HGA1      CG311      CG321       HGA2
  126    45    50   136	 9 ;       HGA1      CG311      CG321       HGA2
   50    45    46    47	 9 ;      CG321      CG311      CG321      CG321
   50    45    46   127	 9 ;      CG321      CG311      CG321       HGA2
   50    45    46   128	 9 ;      CG321      CG311      CG321       HGA2
   44    45    46    47	 9 ;      CG321      CG311      CG321      CG321
   44    45    46   127	 9 ;      CG321      CG311      CG321       HGA2
   44    45    46   128	 9 ;      CG321      CG311      CG321       HGA2
  126    45    46    47	 9 ;       HGA1      CG311      CG321      CG321
  126    45    46   127	 9 ;       HGA1      CG311      CG321       HGA2
  126    45    46   128	 9 ;       HGA1      CG311      CG321       HGA2
   45    46    47    48	 9 ;      CG311      CG321      CG321      CG321
   45    46    47   129	 9 ;      CG311      CG321      CG321       HGA2
   45    46    47   130	 9 ;      CG311      CG321      CG321       HGA2
  127    46    47    48	 9 ;       HGA2      CG321      CG321      CG321
  127    46    47   129	 9 ;       HGA2      CG321      CG321       HGA2
  127    46    47   130	 9 ;       HGA2      CG321      CG321       HGA2
  128    46    47    48	 9 ;       HGA2      CG321      CG321      CG321
  128    46    47   129	 9 ;       HGA2      CG321      CG321       HGA2
  128    46    47   130	 9 ;       HGA2      CG321      CG321       HGA2
   46    47    48    49	 9 ;      CG321      CG321      CG321      CG321
   46    47    48   131	 9 ;      CG321      CG321      CG321       HGA2
   46    47    48   132	 9 ;      CG321      CG321      CG321       HGA2
  129    47    48    49	 9 ;       HGA2      CG321      CG321      CG321
  129    47    48   131	 9 ;       HGA2      CG321      CG321       HGA2
  129    47    48   132	 9 ;       HGA2      CG321      CG321       HGA2
  130    47    48    49	 9 ;       HGA2      CG321      CG321      CG321
  130    47    48   131	 9 ;       HGA2      CG321      CG321       HGA2
  130    47    48   132	 9 ;       HGA2      CG321      CG321       HGA2
   47    48    49    50	 9 ;      CG321      CG321      CG321      CG321
   47    48    49   133	 9 ;      CG321      CG321      CG321       HGA2
   47    48    49   134	 9 ;      CG321      CG321      CG321       HGA2
  131    48    49    50	 9 ;       HGA2      CG321      CG321      CG321
  131    48    49   133	 9 ;       HGA2      CG321      CG321       HGA2
  131    48    49   134	 9 ;       HGA2      CG321      CG321       HGA2
  132    48    49    50	 9 ;       HGA2      CG321      CG321      CG321
  132    48    49   133	 9 ;       HGA2      CG321      CG321       HGA2
  132    48    49   134	 9 ;       HGA2      CG321      CG321       HGA2
   48    49    50    45	 9 ;      CG321      CG321      CG321      CG311
   48    49    50   135	 9 ;      CG321      CG321      CG321       HGA2
   48    49    50   136	 9 ;      CG321      CG321      CG321       HGA2
  133    49    50    45	 9 ;       HGA2      CG321      CG321      CG311
  133    49    50   135	 9 ;       HGA2      CG321      CG321       HGA2
  133    49    50   136	 9 ;       HGA2      CG321      CG321       HGA2
  134    49    50    45	 9 ;       HGA2      CG321      CG321      CG311
  134    49    50   135	 9 ;       HGA2      CG321      CG321       HGA2
  134    49    50   136	 9 ;       HGA2      CG321      CG321       HGA2
   54    51    52    53	 9 ;       HGP1      NG2S1      CG2O1      OG2D1
   54    51    52    55	 9 ;       HGP1      NG2S1      CG2O1      CG311
   43    51    52    53	 9 ;      CG311      NG2S1      CG2O1      OG2D1
   43    51    52    55	 9 ;      CG311      NG2S1      CG2O1      CG311
   51    52    55    60	 9 ;      NG2S1      CG2O1      CG311      CG321
   51    52    55    56	 9 ;      NG2S1      CG2O1      CG311      CG321
   51    52    55   137	 9 ;      NG2S1      CG2O1      CG311       HGA1
   53    52    55    60	 9 ;      OG2D1      CG2O1      CG311      CG321
   53    52    55    56	 9 ;      OG2D1      CG2O1      CG311      CG321
   53    52    55   137	 9 ;      OG2D1      CG2O1      CG311       HGA1
   52    55    60    59	 9 ;      CG2O1      CG311      CG321      CG311
   52    55    60   144	 9 ;      CG2O1      CG311      CG321       HGA2
   52    55    60   145	 9 ;      CG2O1      CG311      CG321       HGA2
   56    55    60    59	 9 ;      CG321      CG311      CG321      CG311
   56    55    60   144	 9 ;      CG321      CG311      CG321       HGA2
   56    55    60   145	 9 ;      CG321      CG311      CG321       HGA2
  137    55    60    59	 9 ;       HGA1      CG311      CG321      CG311
  137    55    60   144	 9 ;       HGA1      CG311      CG321       HGA2
  137    55    60   145	 9 ;       HGA1      CG311      CG321       HGA2
   52    55    56    57	 9 ;      CG2O1      CG311      CG321      CG311
   52    55    56   138	 9 ;      CG2O1      CG311      CG321       HGA2
   52    55    56   139	 9 ;      CG2O1      CG311      CG321       HGA2
   60    55    56    57	 9 ;      CG321      CG311      CG321      CG311
   60    55    56   138	 9 ;      CG321      CG311      CG321       HGA2
   60    55    56   139	 9 ;      CG321      CG311      CG321       HGA2
  137    55    56    57	 9 ;       HGA1      CG311      CG321      CG311
  137    55    56   138	 9 ;       HGA1      CG311      CG321       HGA2
  137    55    56   139	 9 ;       HGA1      CG311      CG321       HGA2
   55    56    57    58	 9 ;      CG311      CG321      CG311      CG321
   55    56    57    61	 9 ;      CG311      CG321      CG311      CG2O1
   55    56    57   140	 9 ;      CG311      CG321      CG311       HGA1
  138    56    57    58	 9 ;       HGA2      CG321      CG311      CG321
  138    56    57    61	 9 ;       HGA2      CG321      CG311      CG2O1
  138    56    57   140	 9 ;       HGA2      CG321      CG311       HGA1
  139    56    57    58	 9 ;       HGA2      CG321      CG311      CG321
  139    56    57    61	 9 ;       HGA2      CG321      CG311      CG2O1
  139    56    57   140	 9 ;       HGA2      CG321      CG311       HGA1
   56    57    58    59	 9 ;      CG321      CG311      CG321      CG311
   56    57    58   141	 9 ;      CG321      CG311      CG321       HGA2
   56    57    58   142	 9 ;      CG321      CG311      CG321       HGA2
   61    57    58    59	 9 ;      CG2O1      CG311      CG321      CG311
   61    57    58   141	 9 ;      CG2O1      CG311      CG321       HGA2
   61    57    58   142	 9 ;      CG2O1      CG311      CG321       HGA2
  140    57    58    59	 9 ;       HGA1      CG311      CG321      CG311
  140    57    58   141	 9 ;       HGA1      CG311      CG321       HGA2
  140    57    58   142	 9 ;       HGA1      CG311      CG321       HGA2
   56    57    61    62	 9 ;      CG321      CG311      CG2O1      OG2D1
   56    57    61    63	 9 ;      CG321      CG311      CG2O1      NG2S1
   58    57    61    62	 9 ;      CG321      CG311      CG2O1      OG2D1
   58    57    61    63	 9 ;      CG321      CG311      CG2O1      NG2S1
  140    57    61    62	 9 ;       HGA1      CG311      CG2O1      OG2D1
  140    57    61    63	 9 ;       HGA1      CG311      CG2O1      NG2S1
   57    58    59    73	 9 ;      CG311      CG321      CG311      NG311
   57    58    59    60	 9 ;      CG311      CG321      CG311      CG321
   57    58    59   143	 9 ;      CG311      CG321      CG311       HGA1
  141    58    59    73	 9 ;       HGA2      CG321      CG311      NG311
  141    58    59    60	 9 ;       HGA2      CG321      CG311      CG321
  141    58    59   143	 9 ;       HGA2      CG321      CG311       HGA1
  142    58    59    73	 9 ;       HGA2      CG321      CG311      NG311
  142    58    59    60	 9 ;       HGA2      CG321      CG311      CG321
  142    58    59   143	 9 ;       HGA2      CG321      CG311       HGA1
   60    59    73    74	 9 ;      CG321      CG311      NG311       HGP1
   60    59    73    75	 9 ;      CG321      CG311      NG311      SG3O2
   58    59    73    74	 9 ;      CG321      CG311      NG311       HGP1
   58    59    73    75	 9 ;      CG321      CG311      NG311      SG3O2
  143    59    73    74	 9 ;       HGA1      CG311      NG311       HGP1
  143    59    73    75	 9 ;       HGA1      CG311      NG311      SG3O2
   73    59    60    55	 9 ;      NG311      CG311      CG321      CG311
   73    59    60   144	 9 ;      NG311      CG311      CG321       HGA2
   73    59    60   145	 9 ;      NG311      CG311      CG321       HGA2
   58    59    60    55	 9 ;      CG321      CG311      CG321      CG311
   58    59    60   144	 9 ;      CG321      CG311      CG321       HGA2
   58    59    60   145	 9 ;      CG321      CG311      CG321       HGA2
  143    59    60    55	 9 ;       HGA1      CG311      CG321      CG311
  143    59    60   144	 9 ;       HGA1      CG311      CG321       HGA2
  143    59    60   145	 9 ;       HGA1      CG311      CG321       HGA2
   57    61    63    64	 9 ;      CG311      CG2O1      NG2S1       HGP1
   57    61    63    65	 9 ;      CG311      CG2O1      NG2S1      CG311
   62    61    63    64	 9 ;      OG2D1      CG2O1      NG2S1       HGP1
   62    61    63    65	 9 ;      OG2D1      CG2O1      NG2S1      CG311
   61    63    65    67	 9 ;      CG2O1      NG2S1      CG311      CG311
   61    63    65    66	 9 ;      CG2O1      NG2S1      CG311      CG331
   61    63    65   146	 9 ;      CG2O1      NG2S1      CG311       HGA1
   64    63    65    67	 9 ;       HGP1      NG2S1      CG311      CG311
   64    63    65    66	 9 ;       HGP1      NG2S1      CG311      CG331
   64    63    65   146	 9 ;       HGP1      NG2S1      CG311       HGA1
   63    65    67    68	 9 ;      NG2S1      CG311      CG311      CG321
   63    65    67    72	 9 ;      NG2S1      CG311      CG311      CG321
   63    65    67   150	 9 ;      NG2S1      CG311      CG311       HGA1
   66    65    67    68	 9 ;      CG331      CG311      CG311      CG321
   66    65    67    72	 9 ;      CG331      CG311      CG311      CG321
   66    65    67   150	 9 ;      CG331      CG311      CG311       HGA1
  146    65    67    68	 9 ;       HGA1      CG311      CG311      CG321
  146    65    67    72	 9 ;       HGA1      CG311      CG311      CG321
  146    65    67   150	 9 ;       HGA1      CG311      CG311       HGA1
   63    65    66   147	 9 ;      NG2S1      CG311      CG331       HGA3
   63    65    66   148	 9 ;      NG2S1      CG311      CG331       HGA3
   63    65    66   149	 9 ;      NG2S1      CG311      CG331       HGA3
   67    65    66   147	 9 ;      CG311      CG311      CG331       HGA3
   67    65    66   148	 9 ;      CG311      CG311      CG331       HGA3
   67    65    66   149	 9 ;      CG311      CG311      CG331       HGA3
  146    65    66   147	 9 ;       HGA1      CG311      CG331       HGA3
  146    65    66   148	 9 ;       HGA1      CG311      CG331       HGA3
  146    65    66   149	 9 ;       HGA1      CG311      CG331       HGA3
   65    67    68    69	 9 ;      CG311      CG311      CG321      CG321
   65    67    68   151	 9 ;      CG311      CG311      CG321       HGA2
   65    67    68   152	 9 ;      CG311      CG311      CG321       HGA2
   72    67    68    69	 9 ;      CG321      CG311      CG321      CG321
   72    67    68   151	 9 ;      CG321      CG311      CG321       HGA2
   72    67    68   152	 9 ;      CG321      CG311      CG321       HGA2
  150    67    68    69	 9 ;       HGA1      CG311      CG321      CG321
  150    67    68   151	 9 ;       HGA1      CG311      CG321       HGA2
  150    67    68   152	 9 ;       HGA1      CG311      CG321       HGA2
   65    67    72    71	 9 ;      CG311      CG311      CG321      CG321
   65    67    72   159	 9 ;      CG311      CG311      CG321       HGA2
   65    67    72   160	 9 ;      CG311      CG311      CG321       HGA2
   68    67    72    71	 9 ;      CG321      CG311      CG321      CG321
   68    67    72   159	 9 ;      CG321      CG311      CG321       HGA2
   68    67    72   160	 9 ;      CG321      CG311      CG321       HGA2
  150    67    72    71	 9 ;       HGA1      CG311      CG321      CG321
  150    67    72   159	 9 ;       HGA1      CG311      CG321       HGA2
  150    67    72   160	 9 ;       HGA1      CG311      CG321       HGA2
   67    68    69    70	 9 ;      CG311      CG321      CG321      CG321
   67    68    69   153	 9 ;      CG311      CG321      CG321       HGA2
   67    68    69   154	 9 ;      CG311      CG321      CG321       HGA2
  151    68    69    70	 9 ;       HGA2      CG321      CG321      CG321
  151    68    69   153	 9 ;       HGA2      CG321      CG321       HGA2
  151    68    69   154	 9 ;       HGA2      CG321      CG321       HGA2
  152    68    69    70	 9 ;       HGA2      CG321      CG321      CG321
  152    68    69   153	 9 ;       HGA2      CG321      CG321       HGA2
  152    68    69   154	 9 ;       HGA2      CG321      CG321       HGA2
   68    69    70    71	 9 ;      CG321      CG321      CG321      CG321
   68    69    70   155	 9 ;      CG321      CG321      CG321       HGA2
   68    69    70   156	 9 ;      CG321      CG321      CG321       HGA2
  153    69    70    71	 9 ;       HGA2      CG321      CG321      CG321
  153    69    70   155	 9 ;       HGA2      CG321      CG321       HGA2
  153    69    70   156	 9 ;       HGA2      CG321      CG321       HGA2
  154    69    70    71	 9 ;       HGA2      CG321      CG321      CG321
  154    69    70   155	 9 ;       HGA2      CG321      CG321       HGA2
  154    69    70   156	 9 ;       HGA2      CG321      CG321       HGA2
   69    70    71    72	 9 ;      CG321      CG321      CG321      CG321
   69    70    71   157	 9 ;      CG321      CG321      CG321       HGA2
   69    70    71   158	 9 ;      CG321      CG321      CG321       HGA2
  155    70    71    72	 9 ;       HGA2      CG321      CG321      CG321
  155    70    71   157	 9 ;       HGA2      CG321      CG321       HGA2
  155    70    71   158	 9 ;       HGA2      CG321      CG321       HGA2
  156    70    71    72	 9 ;       HGA2      CG321      CG321      CG321
  156    70    71   157	 9 ;       HGA2      CG321      CG321       HGA2
  156    70    71   158	 9 ;       HGA2      CG321      CG321       HGA2
   70    71    72    67	 9 ;      CG321      CG321      CG321      CG311
   70    71    72   159	 9 ;      CG321      CG321      CG321       HGA2
   70    71    72   160	 9 ;      CG321      CG321      CG321       HGA2
  157    71    72    67	 9 ;       HGA2      CG321      CG321      CG311
  157    71    72   159	 9 ;       HGA2      CG321      CG321       HGA2
  157    71    72   160	 9 ;       HGA2      CG321      CG321       HGA2
  158    71    72    67	 9 ;       HGA2      CG321      CG321      CG311
  158    71    72   159	 9 ;       HGA2      CG321      CG321       HGA2
  158    71    72   160	 9 ;       HGA2      CG321      CG321       HGA2
   74    73    75    78	 9 ;       HGP1      NG311      SG3O2      CG331
   74    73    75    76	 9 ;       HGP1      NG311      SG3O2      OG2P1
   74    73    75    77	 9 ;       HGP1      NG311      SG3O2      OG2P1
   59    73    75    78	 9 ;      CG311      NG311      SG3O2      CG331
   59    73    75    76	 9 ;      CG311      NG311      SG3O2      OG2P1
   59    73    75    77	 9 ;      CG311      NG311      SG3O2      OG2P1
   73    75    78   161	 9 ;      NG311      SG3O2      CG331       HGA3
   73    75    78   162	 9 ;      NG311      SG3O2      CG331       HGA3
   73    75    78   163	 9 ;      NG311      SG3O2      CG331       HGA3
   76    75    78   161	 9 ;      OG2P1      SG3O2      CG331       HGA3
   76    75    78   162	 9 ;      OG2P1      SG3O2      CG331       HGA3
   76    75    78   163	 9 ;      OG2P1      SG3O2      CG331       HGA3
   77    75    78   161	 9 ;      OG2P1      SG3O2      CG331       HGA3
   77    75    78   162	 9 ;      OG2P1      SG3O2      CG331       HGA3
   77    75    78   163	 9 ;      OG2P1      SG3O2      CG331       HGA3

[ dihedrals ]
;	ai	  aj	ak	  al funct			  c0			c1			  c2			c3
    5     4     7     6	 2
   14     9    16    15	 2
   20    18    22    21	 2
   25    24    27    26	 2
   32    29    33    34	 2
   52    55    51    53	 2
   61    57    63    62	 2

