GROningen Mixture of Alchemy and Childrens' Stories
  163
    1LIG     C1    1  -1.518   0.381  -1.778
    1LIG     O1    2  -1.506   0.284  -1.882
    1LIG     H1    3  -1.596   0.273  -1.920
    1LIG     C2    4  -1.613   0.495  -1.806
    1LIG     C3    5  -1.578   0.601  -1.908
    1LIG     O2    6  -1.577   0.720  -1.878
    1LIG     N1    7  -1.525   0.550  -2.022
    1LIG     H2    8  -1.570   0.468  -2.060
    1LIG     C4    9  -1.400   0.600  -2.082
    1LIG     C5   10  -1.280   0.527  -2.015
    1LIG     C6   11  -1.177   0.616  -1.939
    1LIG     C7   12  -1.129   0.731  -2.027
    1LIG     C8   13  -1.228   0.663  -1.803
    1LIG     C9   14  -1.403   0.599  -2.237
    1LIG     O3   15  -1.368   0.698  -2.302
    1LIG     N2   16  -1.443   0.493  -2.313
    1LIG     H3   17  -1.438   0.522  -2.410
    1LIG    C10   18  -1.463   0.347  -2.296
    1LIG    C11   19  -1.345   0.277  -2.229
    1LIG    C12   20  -1.605   0.298  -2.244
    1LIG     O4   21  -1.632   0.312  -2.125
    1LIG     N3   22  -1.697   0.240  -2.338
    1LIG    C13   23  -1.677   0.265  -2.480
    1LIG    C14   24  -1.839   0.204  -2.293
    1LIG    C15   25  -1.936   0.320  -2.238
    1LIG     O5   26  -1.969   0.404  -2.324
    1LIG     N4   27  -1.982   0.347  -2.109
    1LIG    C16   28  -2.034   0.483  -2.094
    1LIG    C17   29  -1.981   0.286  -1.970
    1LIG    C18   30  -1.966   0.532  -1.969
    1LIG    C19   31  -1.980   0.413  -1.877
    1LIG    C20   32  -2.101   0.207  -1.907
    1LIG     O6   33  -2.218   0.240  -1.928
    1LIG     O7   34  -2.065   0.091  -1.845
    1LIG    C21   35  -2.121   0.067  -1.713
    1LIG    C22   36  -1.920   0.151  -2.421
    1LIG    C23   37  -1.939  -0.002  -2.421
    1LIG    C24   38  -1.912  -0.050  -2.278
    1LIG    C25   39  -1.923  -0.199  -2.263
    1LIG    C26   40  -1.827  -0.272  -2.354
    1LIG    C27   41  -1.831  -0.225  -2.500
    1LIG    C28   42  -1.849  -0.075  -2.523
    1LIG    C29   43  -1.537   0.318  -1.638
    1LIG    C30   44  -1.438   0.197  -1.624
    1LIG    C31   45  -1.283   0.228  -1.618
    1LIG    C32   46  -1.255   0.371  -1.568
    1LIG    C33   47  -1.106   0.399  -1.551
    1LIG    C34   48  -1.029   0.375  -1.680
    1LIG    C35   49  -1.051   0.232  -1.730
    1LIG    C36   50  -1.200   0.203  -1.746
    1LIG     N5   51  -1.680   0.279  -1.620
    1LIG    C37   52  -1.778   0.321  -1.532
    1LIG     O8   53  -1.895   0.290  -1.556
    1LIG     H4   54  -1.720   0.229  -1.699
    1LIG    C38   55  -1.740   0.395  -1.401
    1LIG    C39   56  -1.613   0.339  -1.331
    1LIG    C40   57  -1.550   0.433  -1.225
    1LIG    C41   58  -1.520   0.570  -1.290
    1LIG    C42   59  -1.641   0.637  -1.355
    1LIG    C43   60  -1.724   0.541  -1.441
    1LIG    C44   61  -1.632   0.439  -1.093
    1LIG     O9   62  -1.735   0.504  -1.083
    1LIG     N6   63  -1.581   0.360  -0.990
    1LIG     H5   64  -1.499   0.305  -1.016
    1LIG    C45   65  -1.665   0.297  -0.885
    1LIG    C46   66  -1.723   0.388  -0.776
    1LIG    C47   67  -1.604   0.163  -0.833
    1LIG    C48   68  -1.715   0.061  -0.802
    1LIG    C49   69  -1.655  -0.079  -0.800
    1LIG    C50   70  -1.547  -0.091  -0.693
    1LIG    C51   71  -1.444   0.022  -0.700
    1LIG    C52   72  -1.507   0.162  -0.712
    1LIG     N7   73  -1.603   0.744  -1.454
    1LIG     H6   74  -1.602   0.705  -1.548
    1LIG      S   75  -1.692   0.887  -1.460
    1LIG    O10   76  -1.604   0.997  -1.431
    1LIG    O11   77  -1.814   0.862  -1.385
    1LIG    C53   78  -1.733   0.892  -1.632
    1LIG     H7   79  -1.422   0.429  -1.776
    1LIG     H8   80  -1.705   0.451  -1.839
    1LIG     H9   81  -1.614   0.549  -1.714
    1LIG    H10   82  -1.388   0.705  -2.061
    1LIG    H11   83  -1.227   0.475  -2.092
    1LIG    H12   84  -1.323   0.464  -1.940
    1LIG    H13   85  -1.092   0.554  -1.918
    1LIG    H14   86  -1.212   0.795  -2.050
    1LIG    H15   87  -1.088   0.692  -2.118
    1LIG    H16   88  -1.054   0.787  -1.975
    1LIG    H17   89  -1.313   0.726  -1.817
    1LIG    H18   90  -1.150   0.718  -1.754
    1LIG    H19   91  -1.255   0.579  -1.744
    1LIG    H20   92  -1.464   0.312  -2.397
    1LIG    H21   93  -1.339   0.307  -2.127
    1LIG    H22   94  -1.255   0.303  -2.280
    1LIG    H23   95  -1.360   0.171  -2.234
    1LIG    H24   96  -1.754   0.215  -2.535
    1LIG    H25   97  -1.581   0.227  -2.509
    1LIG    H26   98  -1.682   0.370  -2.499
    1LIG    H27   99  -1.820   0.137  -2.213
    1LIG    H28  100  -2.141   0.482  -2.082
    1LIG    H29  101  -2.015   0.544  -2.180
    1LIG    H30  102  -1.902   0.214  -1.978
    1LIG    H31  103  -2.016   0.618  -1.930
    1LIG    H32  104  -1.865   0.563  -1.985
    1LIG    H33  105  -1.897   0.409  -1.809
    1LIG    H34  106  -2.068   0.420  -1.817
    1LIG    H35  107  -2.085  -0.026  -1.676
    1LIG    H36  108  -2.227   0.065  -1.719
    1LIG    H37  109  -2.091   0.146  -1.647
    1LIG    H38  110  -2.016   0.198  -2.422
    1LIG    H39  111  -1.863   0.177  -2.508
    1LIG    H40  112  -2.038  -0.026  -2.451
    1LIG    H41  113  -1.983  -0.003  -2.213
    1LIG    H42  114  -1.811  -0.023  -2.253
    1LIG    H43  115  -1.902  -0.226  -2.162
    1LIG    H44  116  -2.023  -0.228  -2.290
    1LIG    H45  117  -1.728  -0.257  -2.317
    1LIG    H46  118  -1.857  -0.375  -2.355
    1LIG    H47  119  -1.739  -0.255  -2.546
    1LIG    H48  120  -1.918  -0.271  -2.542
    1LIG    H49  121  -1.891  -0.061  -2.620
    1LIG    H50  122  -1.751  -0.031  -2.513
    1LIG    H51  123  -1.515   0.387  -1.560
    1LIG    H52  124  -1.454   0.132  -1.707
    1LIG    H53  125  -1.460   0.156  -1.528
    1LIG    H54  126  -1.248   0.155  -1.548
    1LIG    H55  127  -1.304   0.384  -1.474
    1LIG    H56  128  -1.293   0.439  -1.642
    1LIG    H57  129  -1.094   0.501  -1.522
    1LIG    H58  130  -1.068   0.333  -1.476
    1LIG    H59  131  -1.063   0.443  -1.755
    1LIG    H60  132  -0.925   0.389  -1.660
    1LIG    H61  133  -1.002   0.220  -1.824
    1LIG    H62  134  -1.010   0.164  -1.658
    1LIG    H63  135  -1.212   0.100  -1.774
    1LIG    H64  136  -1.237   0.269  -1.821
    1LIG    H65  137  -1.816   0.381  -1.328
    1LIG    H66  138  -1.539   0.320  -1.407
    1LIG    H67  139  -1.644   0.251  -1.279
    1LIG    H68  140  -1.457   0.393  -1.193
    1LIG    H69  141  -1.483   0.636  -1.214
    1LIG    H70  142  -1.449   0.552  -1.368
    1LIG    H71  143  -1.694   0.674  -1.271
    1LIG    H72  144  -1.822   0.582  -1.445
    1LIG    H73  145  -1.667   0.535  -1.531
    1LIG    H74  146  -1.755   0.273  -0.938
    1LIG    H75  147  -1.645   0.422  -0.712
    1LIG    H76  148  -1.795   0.333  -0.719
    1LIG    H77  149  -1.771   0.472  -0.822
    1LIG    H78  150  -1.541   0.139  -0.916
    1LIG    H79  151  -1.791   0.067  -0.878
    1LIG    H80  152  -1.759   0.083  -0.707
    1LIG    H81  153  -1.612  -0.100  -0.896
    1LIG    H82  154  -1.733  -0.149  -0.778
    1LIG    H83  155  -1.497  -0.185  -0.706
    1LIG    H84  156  -1.595  -0.085  -0.598
    1LIG    H85  157  -1.384   0.019  -0.612
    1LIG    H86  158  -1.385   0.006  -0.789
    1LIG    H87  159  -1.561   0.185  -0.623
    1LIG    H88  160  -1.431   0.236  -0.727
    1LIG    H89  161  -1.645   0.910  -1.690
    1LIG    H90  162  -1.804   0.970  -1.650
    1LIG    H91  163  -1.776   0.798  -1.662
   0.00000   0.00000   0.00000
