Great Red Owns Many ACres of Sand 
   60
    1LIG      F    1  -1.361   0.455  -2.224
    1LIG     C1    2  -1.311   0.501  -2.109
    1LIG     C2    3  -1.340   0.440  -1.989
    1LIG     C3    4  -1.293   0.488  -1.868
    1LIG     C4    5  -1.212   0.602  -1.865
    1LIG     C5    6  -1.179   0.663  -1.986
    1LIG     C6    7  -1.229   0.613  -2.108
    1LIG     C7    8  -1.343   0.397  -1.757
    1LIG     N1    9  -1.423   0.291  -1.831
    1LIG    HN1   10  -1.472   0.212  -1.789
    1LIG     C8   11  -1.418   0.321  -1.957
    1LIG     N2   12  -1.480   0.246  -2.052
    1LIG     H1   13  -1.502   0.290  -2.141
    1LIG     H2   14  -1.550   0.182  -2.017
    1LIG     C9   15  -1.436   0.478  -1.663
    1LIG    C10   16  -1.474   0.427  -1.537
    1LIG    C11   17  -1.547   0.503  -1.443
    1LIG    C12   18  -1.588   0.632  -1.481
    1LIG    C13   19  -1.554   0.683  -1.607
    1LIG    C14   20  -1.478   0.608  -1.696
    1LIG    C15   21  -1.574   0.450  -1.308
    1LIG    C16   22  -1.496   0.484  -1.198
    1LIG     N3   23  -1.517   0.441  -1.072
    1LIG    C17   24  -1.622   0.360  -1.055
    1LIG    HN2   25  -1.457   0.468  -0.994
    1LIG     N4   26  -1.706   0.319  -1.152
    1LIG    C18   27  -1.678   0.365  -1.276
    1LIG    HN3   28  -1.785   0.257  -1.133
    1LIG    C19   29  -1.230   0.324  -1.681
    1LIG    C20   30  -1.219   0.184  -1.691
    1LIG    C21   31  -1.117   0.116  -1.624
    1LIG     N5   32  -1.030   0.181  -1.544
    1LIG    C22   33  -1.039   0.315  -1.536
    1LIG    HN4   34  -0.959   0.130  -1.491
    1LIG    C23   35  -1.134   0.389  -1.603
    1LIG    C24   36  -1.097  -0.033  -1.641
    1LIG    C25   37  -0.963  -0.091  -1.603
    1LIG    C26   38  -1.004  -0.088  -1.747
    1LIG     H3   39  -1.178   0.640  -1.776
    1LIG     H4   40  -1.116   0.745  -1.987
    1LIG     H5   41  -1.205   0.660  -2.197
    1LIG     H6   42  -1.456   0.263  -2.039
    1LIG     H7   43  -1.447   0.331  -1.513
    1LIG     H8   44  -1.644   0.689  -1.416
    1LIG     H9   45  -1.586   0.778  -1.634
    1LIG    H10   46  -1.451   0.649  -1.787
    1LIG    H11   47  -1.500   0.590  -1.193
    1LIG    H12   48  -1.406   0.431  -1.221
    1LIG    H13   49  -1.583   0.270  -1.013
    1LIG    H14   50  -1.688   0.425  -1.001
    1LIG    H15   51  -1.740   0.335  -1.353
    1LIG    H16   52  -1.287   0.132  -1.748
    1LIG    H17   53  -1.221   0.141  -1.623
    1LIG    H18   54  -0.971   0.364  -1.476
    1LIG    H19   55  -1.134   0.492  -1.595
    1LIG    H20   56  -1.200  -0.051  -1.617
    1LIG    H21   57  -0.885  -0.027  -1.569
    1LIG    H22   58  -0.930  -0.167  -1.536
    1LIG    H23   59  -0.956  -0.021  -1.815
    1LIG    H24   60  -1.013  -0.161  -1.825
   0.00000   0.00000   0.00000
