GROtesk MACabre and Sinister
   52
    1LIG     C1    1  -1.407   0.428  -1.706
    1LIG     N1    2  -1.510   0.358  -1.793
    1LIG    HN1    3  -1.591   0.305  -1.762
    1LIG     C2    4  -1.474   0.380  -1.915
    1LIG     N2    5  -1.371   0.465  -1.934
    1LIG     C3    6  -1.304   0.495  -2.058
    1LIG     C4    7  -1.332   0.512  -1.813
    1LIG     O1    8  -1.247   0.599  -1.794
    1LIG     C5    9  -1.477   0.509  -1.596
    1LIG     C6   10  -1.508   0.448  -1.472
    1LIG     C7   11  -1.574   0.516  -1.367
    1LIG     C8   12  -1.605   0.651  -1.389
    1LIG     C9   13  -1.571   0.715  -1.508
    1LIG    C10   14  -1.507   0.645  -1.610
    1LIG    C11   15  -1.609   0.448  -1.240
    1LIG    C12   16  -1.728   0.374  -1.227
    1LIG    C13   17  -1.760   0.311  -1.107
    1LIG    C14   18  -1.673   0.324  -1.000
    1LIG     N3   19  -1.558   0.393  -1.007
    1LIG    C15   20  -1.529   0.452  -1.125
    1LIG    HN2   21  -1.495   0.401  -0.926
    1LIG     F1   22  -1.412   0.519  -1.128
    1LIG    C16   23  -1.306   0.325  -1.650
    1LIG    C17   24  -1.326   0.187  -1.668
    1LIG    C18   25  -1.225   0.094  -1.636
    1LIG    C19   26  -1.102   0.139  -1.589
    1LIG    C20   27  -1.085   0.275  -1.562
    1LIG    C21   28  -1.186   0.367  -1.592
    1LIG     O2   29  -0.994   0.061  -1.561
    1LIG    C22   30  -0.955  -0.038  -1.655
    1LIG     F2   31  -1.058  -0.098  -1.720
    1LIG     F3   32  -0.877   0.020  -1.749
    1LIG     F4   33  -0.883  -0.133  -1.592
    1LIG     N4   34  -1.539   0.322  -2.020
    1LIG     H1   35  -1.481   0.255  -2.069
    1LIG     H2   36  -1.633   0.291  -2.004
    1LIG     H3   37  -1.510   0.320  -1.996
    1LIG     H4   38  -1.354   0.446  -2.139
    1LIG     H5   39  -1.202   0.461  -2.053
    1LIG     H6   40  -1.304   0.601  -2.074
    1LIG     H7   41  -1.482   0.349  -1.458
    1LIG     H8   42  -1.655   0.704  -1.316
    1LIG     H9   43  -1.592   0.816  -1.521
    1LIG    H10   44  -1.482   0.694  -1.698
    1LIG    H11   45  -1.792   0.366  -1.307
    1LIG    H12   46  -1.847   0.256  -1.097
    1LIG    H13   47  -1.645   0.224  -0.973
    1LIG    H14   48  -1.730   0.384  -0.933
    1LIG    H15   49  -1.416   0.152  -1.704
    1LIG    H16   50  -1.242  -0.007  -1.648
    1LIG    H17   51  -0.997   0.308  -1.518
    1LIG    H18   52  -1.171   0.467  -1.572
   0.00000   0.00000   0.00000
