; Created by cgenff_charmm2gmx.py

[ moleculetype ]
; Name			   nrexcl
LIG				 3

[ atoms ]
;	 nr		  type	resnr residue  atom   cgnr	   charge		mass  typeB    chargeB		massB
; residue	 1 LIG rtp LIG q	qsum
     1     CG3C50      1    LIG     C1      1      1.040     12.011   ;
     2     NG3C51      1    LIG     N1      2     -0.966     14.007   ;
     3       HGP1      1    LIG    HN1      3      0.218      1.008   ;
     4     CG3C51      1    LIG     C2      4      0.368     12.011   ;
     5     NG2R53      1    LIG     N2      5     -0.358     14.007   ;
     6      CG331      1    LIG     C3      6     -0.126     12.011   ;
     7     CG2R53      1    LIG     C4      7      0.158     12.011   ;
     8      OG2D1      1    LIG     O1      8     -0.419     15.999   ;
     9     CG2R61      1    LIG     C5      9      0.055     12.011   ;
    10     CG2R61      1    LIG     C6     10     -0.183     12.011   ;
    11     CG2R61      1    LIG     C7     11     -0.137     12.011   ;
    12     CG2R61      1    LIG     C8     12     -0.117     12.011   ;
    13     CG2R61      1    LIG     C9     13     -0.102     12.011   ;
    14     CG2R61      1    LIG    C10     14     -0.182     12.011   ;
    15     CG2DC1      1    LIG    C11     15      0.053     12.011   ;
    16     CG2DC2      1    LIG    C12     16     -0.246     12.011   ;
    17     CG2DC2      1    LIG    C13     17     -0.181     12.011   ;
    18      CG321      1    LIG    C14     18     -0.037     12.011   ;
    19      NG311      1    LIG     N3     19     -0.466     14.007   ;
    20     CG2D1O      1    LIG    C15     20      0.321     12.011   ;
    21     HGPAM1      1    LIG    HN2     21      0.324      1.008   ;
    22       FGA1      1    LIG     F1     22     -0.107     18.998   ;
    23     CG2R61      1    LIG    C16     23      0.052     12.011   ;
    24     CG2R61      1    LIG    C17     24     -0.179     12.011   ;
    25     CG2R61      1    LIG    C18     25     -0.108     12.011   ;
    26     CG2R61      1    LIG    C19     26      0.217     12.011   ;
    27     CG2R61      1    LIG    C20     27     -0.108     12.011   ;
    28     CG2R61      1    LIG    C21     28     -0.179     12.011   ;
    29      OG301      1    LIG     O2     29     -0.303     15.999   ;
    30      CG302      1    LIG    C22     30      0.464     12.011   ;
    31       FGA3      1    LIG     F2     31     -0.126     18.998   ;
    32       FGA3      1    LIG     F3     32     -0.126     18.998   ;
    33       FGA3      1    LIG     F4     33     -0.126     18.998   ;
    34      NG321      1    LIG     N4     34     -0.877     14.007   ;
    35     HGPAM2      1    LIG     H1     35      0.349      1.008   ;
    36     HGPAM2      1    LIG     H2     36      0.349      1.008   ;
    37       HGA1      1    LIG     H3     37      0.110      1.008   ;
    38       HGA3      1    LIG     H4     38      0.090      1.008   ;
    39       HGA3      1    LIG     H5     39      0.090      1.008   ;
    40       HGA3      1    LIG     H6     40      0.090      1.008   ;
    41      HGR61      1    LIG     H7     41      0.116      1.008   ;
    42      HGR61      1    LIG     H8     42      0.116      1.008   ;
    43      HGR61      1    LIG     H9     43      0.116      1.008   ;
    44      HGR61      1    LIG    H10     44      0.116      1.008   ;
    45       HGA4      1    LIG    H11     45      0.153      1.008   ;
    46       HGA4      1    LIG    H12     46      0.150      1.008   ;
    47       HGA2      1    LIG    H13     47      0.090      1.008   ;
    48       HGA2      1    LIG    H14     48      0.090      1.008   ;
    49      HGR61      1    LIG    H15     49      0.116      1.008   ;
    50      HGR61      1    LIG    H16     50      0.116      1.008   ;
    51      HGR61      1    LIG    H17     51      0.116      1.008   ;
    52      HGR61      1    LIG    H18     52      0.116      1.008   ;

[ bonds ]
;	ai	  aj funct			  c0			c1			  c2			c3
    1     7	 1 ;      CG3C50     CG2R53
    1     2	 1 ;      CG3C50     NG3C51
    1    23	 1 ;      CG3C50     CG2R61
    1     9	 1 ;      CG3C50     CG2R61
    2     4	 1 ;      NG3C51     CG3C51
    2     3	 1 ;      NG3C51       HGP1
    4    34	 1 ;      CG3C51      NG321
    4     5	 1 ;      CG3C51     NG2R53
    4    37	 1 ;      CG3C51       HGA1
    5     6	 1 ;      NG2R53      CG331
    5     7	 1 ;      NG2R53     CG2R53
    6    38	 1 ;       CG331       HGA3
    6    39	 1 ;       CG331       HGA3
    6    40	 1 ;       CG331       HGA3
    7     8	 1 ;      CG2R53      OG2D1
    9    14	 1 ;      CG2R61     CG2R61
    9    10	 1 ;      CG2R61     CG2R61
   10    11	 1 ;      CG2R61     CG2R61
   10    41	 1 ;      CG2R61      HGR61
   11    12	 1 ;      CG2R61     CG2R61
   11    15	 1 ;      CG2R61     CG2DC1
   12    13	 1 ;      CG2R61     CG2R61
   12    42	 1 ;      CG2R61      HGR61
   13    14	 1 ;      CG2R61     CG2R61
   13    43	 1 ;      CG2R61      HGR61
   14    44	 1 ;      CG2R61      HGR61
   15    16	 1 ;      CG2DC1     CG2DC2
   15    20	 1 ;      CG2DC1     CG2D1O
   16    17	 1 ;      CG2DC2     CG2DC2
   16    45	 1 ;      CG2DC2       HGA4
   17    18	 1 ;      CG2DC2      CG321
   17    46	 1 ;      CG2DC2       HGA4
   18    19	 1 ;       CG321      NG311
   18    47	 1 ;       CG321       HGA2
   18    48	 1 ;       CG321       HGA2
   19    20	 1 ;       NG311     CG2D1O
   19    21	 1 ;       NG311     HGPAM1
   20    22	 1 ;      CG2D1O       FGA1
   23    24	 1 ;      CG2R61     CG2R61
   23    28	 1 ;      CG2R61     CG2R61
   24    25	 1 ;      CG2R61     CG2R61
   24    49	 1 ;      CG2R61      HGR61
   25    26	 1 ;      CG2R61     CG2R61
   25    50	 1 ;      CG2R61      HGR61
   26    27	 1 ;      CG2R61     CG2R61
   26    29	 1 ;      CG2R61      OG301
   27    28	 1 ;      CG2R61     CG2R61
   27    51	 1 ;      CG2R61      HGR61
   28    52	 1 ;      CG2R61      HGR61
   29    30	 1 ;       OG301      CG302
   30    32	 1 ;       CG302       FGA3
   30    31	 1 ;       CG302       FGA3
   30    33	 1 ;       CG302       FGA3
   34    35	 1 ;       NG321     HGPAM2
   34    36	 1 ;       NG321     HGPAM2

[ pairs ]
;	ai	  aj funct			  c0			c1			  c2			c3
    1    34	 1
    1    37	 1
    1     6	 1
    1    13	 1
    1    44	 1
    1    11	 1
    1    41	 1
    1    25	 1
    1    49	 1
    1    27	 1
    1    52	 1
    2     8	 1
    2    24	 1
    2    28	 1
    2    14	 1
    2    10	 1
    2    35	 1
    2    36	 1
    2     6	 1
    3     7	 1
    3    23	 1
    3     9	 1
    3    34	 1
    3     5	 1
    3    37	 1
    4    23	 1
    4     9	 1
    4    38	 1
    4    39	 1
    4    40	 1
    4     8	 1
    5    23	 1
    5     9	 1
    5    35	 1
    5    36	 1
    6    34	 1
    6    37	 1
    6     8	 1
    7    24	 1
    7    28	 1
    7    14	 1
    7    10	 1
    7    34	 1
    7    37	 1
    7    38	 1
    7    39	 1
    7    40	 1
    8    23	 1
    8     9	 1
    9    24	 1
    9    28	 1
    9    12	 1
    9    15	 1
    9    43	 1
   10    23	 1
   10    13	 1
   10    44	 1
   10    42	 1
   10    16	 1
   10    20	 1
   11    14	 1
   11    43	 1
   11    17	 1
   11    45	 1
   11    22	 1
   11    19	 1
   12    41	 1
   12    16	 1
   12    20	 1
   12    44	 1
   13    15	 1
   14    23	 1
   14    41	 1
   14    42	 1
   15    41	 1
   15    42	 1
   15    18	 1
   15    46	 1
   15    21	 1
   16    22	 1
   16    19	 1
   16    47	 1
   16    48	 1
   17    20	 1
   17    21	 1
   18    45	 1
   18    22	 1
   19    46	 1
   20    45	 1
   20    47	 1
   20    48	 1
   21    47	 1
   21    48	 1
   21    22	 1
   23    26	 1
   23    50	 1
   23    51	 1
   24    27	 1
   24    52	 1
   24    29	 1
   25    28	 1
   25    51	 1
   25    30	 1
   26    49	 1
   26    52	 1
   26    32	 1
   26    31	 1
   26    33	 1
   27    50	 1
   27    30	 1
   28    49	 1
   28    29	 1
   29    50	 1
   29    51	 1
   35    37	 1
   36    37	 1
   42    43	 1
   43    44	 1
   45    46	 1
   46    47	 1
   46    48	 1
   49    50	 1
   51    52	 1

[ angles ]
;	ai	  aj	ak funct			c0			  c1			c2			  c3
    7     1     2	5 ;     CG2R53     CG3C50     NG3C51
    7     1    23	5 ;     CG2R53     CG3C50     CG2R61
    7     1     9	5 ;     CG2R53     CG3C50     CG2R61
    2     1    23	5 ;     NG3C51     CG3C50     CG2R61
    2     1     9	5 ;     NG3C51     CG3C50     CG2R61
   23     1     9	5 ;     CG2R61     CG3C50     CG2R61
    4     2     3	5 ;     CG3C51     NG3C51       HGP1
    4     2     1	5 ;     CG3C51     NG3C51     CG3C50
    3     2     1	5 ;       HGP1     NG3C51     CG3C50
   34     4     5	5 ;      NG321     CG3C51     NG2R53
   34     4     2	5 ;      NG321     CG3C51     NG3C51
   34     4    37	5 ;      NG321     CG3C51       HGA1
    5     4     2	5 ;     NG2R53     CG3C51     NG3C51
    5     4    37	5 ;     NG2R53     CG3C51       HGA1
    2     4    37	5 ;     NG3C51     CG3C51       HGA1
    6     5     4	5 ;      CG331     NG2R53     CG3C51
    6     5     7	5 ;      CG331     NG2R53     CG2R53
    4     5     7	5 ;     CG3C51     NG2R53     CG2R53
    5     6    38	5 ;     NG2R53      CG331       HGA3
    5     6    39	5 ;     NG2R53      CG331       HGA3
    5     6    40	5 ;     NG2R53      CG331       HGA3
   38     6    39	5 ;       HGA3      CG331       HGA3
   38     6    40	5 ;       HGA3      CG331       HGA3
   39     6    40	5 ;       HGA3      CG331       HGA3
    5     7     8	5 ;     NG2R53     CG2R53      OG2D1
    5     7     1	5 ;     NG2R53     CG2R53     CG3C50
    8     7     1	5 ;      OG2D1     CG2R53     CG3C50
    1     9    14	5 ;     CG3C50     CG2R61     CG2R61
    1     9    10	5 ;     CG3C50     CG2R61     CG2R61
   14     9    10	5 ;     CG2R61     CG2R61     CG2R61
    9    10    11	5 ;     CG2R61     CG2R61     CG2R61
    9    10    41	5 ;     CG2R61     CG2R61      HGR61
   11    10    41	5 ;     CG2R61     CG2R61      HGR61
   10    11    12	5 ;     CG2R61     CG2R61     CG2R61
   10    11    15	5 ;     CG2R61     CG2R61     CG2DC1
   12    11    15	5 ;     CG2R61     CG2R61     CG2DC1
   13    12    11	5 ;     CG2R61     CG2R61     CG2R61
   13    12    42	5 ;     CG2R61     CG2R61      HGR61
   11    12    42	5 ;     CG2R61     CG2R61      HGR61
   14    13    12	5 ;     CG2R61     CG2R61     CG2R61
   14    13    43	5 ;     CG2R61     CG2R61      HGR61
   12    13    43	5 ;     CG2R61     CG2R61      HGR61
    9    14    13	5 ;     CG2R61     CG2R61     CG2R61
    9    14    44	5 ;     CG2R61     CG2R61      HGR61
   13    14    44	5 ;     CG2R61     CG2R61      HGR61
   11    15    16	5 ;     CG2R61     CG2DC1     CG2DC2
   11    15    20	5 ;     CG2R61     CG2DC1     CG2D1O
   16    15    20	5 ;     CG2DC2     CG2DC1     CG2D1O
   15    16    17	5 ;     CG2DC1     CG2DC2     CG2DC2
   15    16    45	5 ;     CG2DC1     CG2DC2       HGA4
   17    16    45	5 ;     CG2DC2     CG2DC2       HGA4
   16    17    18	5 ;     CG2DC2     CG2DC2      CG321
   16    17    46	5 ;     CG2DC2     CG2DC2       HGA4
   18    17    46	5 ;      CG321     CG2DC2       HGA4
   17    18    19	5 ;     CG2DC2      CG321      NG311
   17    18    47	5 ;     CG2DC2      CG321       HGA2
   17    18    48	5 ;     CG2DC2      CG321       HGA2
   19    18    47	5 ;      NG311      CG321       HGA2
   19    18    48	5 ;      NG311      CG321       HGA2
   47    18    48	5 ;       HGA2      CG321       HGA2
   20    19    18	5 ;     CG2D1O      NG311      CG321
   20    19    21	5 ;     CG2D1O      NG311     HGPAM1
   18    19    21	5 ;      CG321      NG311     HGPAM1
   15    20    22	5 ;     CG2DC1     CG2D1O       FGA1
   15    20    19	5 ;     CG2DC1     CG2D1O      NG311
   22    20    19	5 ;       FGA1     CG2D1O      NG311
    1    23    24	5 ;     CG3C50     CG2R61     CG2R61
    1    23    28	5 ;     CG3C50     CG2R61     CG2R61
   24    23    28	5 ;     CG2R61     CG2R61     CG2R61
   23    24    25	5 ;     CG2R61     CG2R61     CG2R61
   23    24    49	5 ;     CG2R61     CG2R61      HGR61
   25    24    49	5 ;     CG2R61     CG2R61      HGR61
   24    25    26	5 ;     CG2R61     CG2R61     CG2R61
   24    25    50	5 ;     CG2R61     CG2R61      HGR61
   26    25    50	5 ;     CG2R61     CG2R61      HGR61
   25    26    27	5 ;     CG2R61     CG2R61     CG2R61
   25    26    29	5 ;     CG2R61     CG2R61      OG301
   27    26    29	5 ;     CG2R61     CG2R61      OG301
   28    27    26	5 ;     CG2R61     CG2R61     CG2R61
   28    27    51	5 ;     CG2R61     CG2R61      HGR61
   26    27    51	5 ;     CG2R61     CG2R61      HGR61
   23    28    27	5 ;     CG2R61     CG2R61     CG2R61
   23    28    52	5 ;     CG2R61     CG2R61      HGR61
   27    28    52	5 ;     CG2R61     CG2R61      HGR61
   30    29    26	5 ;      CG302      OG301     CG2R61
   32    30    31	5 ;       FGA3      CG302       FGA3
   32    30    33	5 ;       FGA3      CG302       FGA3
   32    30    29	5 ;       FGA3      CG302      OG301
   31    30    33	5 ;       FGA3      CG302       FGA3
   31    30    29	5 ;       FGA3      CG302      OG301
   33    30    29	5 ;       FGA3      CG302      OG301
   35    34    36	5 ;     HGPAM2      NG321     HGPAM2
   35    34     4	5 ;     HGPAM2      NG321     CG3C51
   36    34     4	5 ;     HGPAM2      NG321     CG3C51

[ dihedrals ]
;	ai	  aj	ak	  al funct			  c0			c1			  c2			c3			  c4			c5
    2     1     7     5	 9 ;     NG3C51     CG3C50     CG2R53     NG2R53
    2     1     7     8	 9 ;     NG3C51     CG3C50     CG2R53      OG2D1
   23     1     7     5	 9 ;     CG2R61     CG3C50     CG2R53     NG2R53
   23     1     7     8	 9 ;     CG2R61     CG3C50     CG2R53      OG2D1
    9     1     7     5	 9 ;     CG2R61     CG3C50     CG2R53     NG2R53
    9     1     7     8	 9 ;     CG2R61     CG3C50     CG2R53      OG2D1
    7     1     2     4	 9 ;     CG2R53     CG3C50     NG3C51     CG3C51
    7     1     2     3	 9 ;     CG2R53     CG3C50     NG3C51       HGP1
   23     1     2     4	 9 ;     CG2R61     CG3C50     NG3C51     CG3C51
   23     1     2     3	 9 ;     CG2R61     CG3C50     NG3C51       HGP1
    9     1     2     4	 9 ;     CG2R61     CG3C50     NG3C51     CG3C51
    9     1     2     3	 9 ;     CG2R61     CG3C50     NG3C51       HGP1
    7     1    23    24	 9 ;     CG2R53     CG3C50     CG2R61     CG2R61
    7     1    23    28	 9 ;     CG2R53     CG3C50     CG2R61     CG2R61
    2     1    23    24	 9 ;     NG3C51     CG3C50     CG2R61     CG2R61
    2     1    23    28	 9 ;     NG3C51     CG3C50     CG2R61     CG2R61
    9     1    23    24	 9 ;     CG2R61     CG3C50     CG2R61     CG2R61
    9     1    23    28	 9 ;     CG2R61     CG3C50     CG2R61     CG2R61
    7     1     9    14	 9 ;     CG2R53     CG3C50     CG2R61     CG2R61
    7     1     9    10	 9 ;     CG2R53     CG3C50     CG2R61     CG2R61
    2     1     9    14	 9 ;     NG3C51     CG3C50     CG2R61     CG2R61
    2     1     9    10	 9 ;     NG3C51     CG3C50     CG2R61     CG2R61
   23     1     9    14	 9 ;     CG2R61     CG3C50     CG2R61     CG2R61
   23     1     9    10	 9 ;     CG2R61     CG3C50     CG2R61     CG2R61
    3     2     4    34	 9 ;       HGP1     NG3C51     CG3C51      NG321
    3     2     4     5	 9 ;       HGP1     NG3C51     CG3C51     NG2R53
    3     2     4    37	 9 ;       HGP1     NG3C51     CG3C51       HGA1
    1     2     4    34	 9 ;     CG3C50     NG3C51     CG3C51      NG321
    1     2     4     5	 9 ;     CG3C50     NG3C51     CG3C51     NG2R53
    1     2     4    37	 9 ;     CG3C50     NG3C51     CG3C51       HGA1
    5     4    34    35	 9 ;     NG2R53     CG3C51      NG321     HGPAM2
    5     4    34    36	 9 ;     NG2R53     CG3C51      NG321     HGPAM2
    2     4    34    35	 9 ;     NG3C51     CG3C51      NG321     HGPAM2
    2     4    34    36	 9 ;     NG3C51     CG3C51      NG321     HGPAM2
   37     4    34    35	 9 ;       HGA1     CG3C51      NG321     HGPAM2
   37     4    34    36	 9 ;       HGA1     CG3C51      NG321     HGPAM2
   34     4     5     6	 9 ;      NG321     CG3C51     NG2R53      CG331
   34     4     5     7	 9 ;      NG321     CG3C51     NG2R53     CG2R53
    2     4     5     6	 9 ;     NG3C51     CG3C51     NG2R53      CG331
    2     4     5     7	 9 ;     NG3C51     CG3C51     NG2R53     CG2R53
   37     4     5     6	 9 ;       HGA1     CG3C51     NG2R53      CG331
   37     4     5     7	 9 ;       HGA1     CG3C51     NG2R53     CG2R53
    4     5     6    38	 9 ;     CG3C51     NG2R53      CG331       HGA3
    4     5     6    39	 9 ;     CG3C51     NG2R53      CG331       HGA3
    4     5     6    40	 9 ;     CG3C51     NG2R53      CG331       HGA3
    7     5     6    38	 9 ;     CG2R53     NG2R53      CG331       HGA3
    7     5     6    39	 9 ;     CG2R53     NG2R53      CG331       HGA3
    7     5     6    40	 9 ;     CG2R53     NG2R53      CG331       HGA3
    6     5     7     8	 9 ;      CG331     NG2R53     CG2R53      OG2D1
    6     5     7     1	 9 ;      CG331     NG2R53     CG2R53     CG3C50
    4     5     7     8	 9 ;     CG3C51     NG2R53     CG2R53      OG2D1
    4     5     7     1	 9 ;     CG3C51     NG2R53     CG2R53     CG3C50
    1     9    14    13	 9 ;     CG3C50     CG2R61     CG2R61     CG2R61
    1     9    14    44	 9 ;     CG3C50     CG2R61     CG2R61      HGR61
   10     9    14    13	 9 ;     CG2R61     CG2R61     CG2R61     CG2R61
   10     9    14    44	 9 ;     CG2R61     CG2R61     CG2R61      HGR61
    1     9    10    11	 9 ;     CG3C50     CG2R61     CG2R61     CG2R61
    1     9    10    41	 9 ;     CG3C50     CG2R61     CG2R61      HGR61
   14     9    10    11	 9 ;     CG2R61     CG2R61     CG2R61     CG2R61
   14     9    10    41	 9 ;     CG2R61     CG2R61     CG2R61      HGR61
    9    10    11    12	 9 ;     CG2R61     CG2R61     CG2R61     CG2R61
    9    10    11    15	 9 ;     CG2R61     CG2R61     CG2R61     CG2DC1
   41    10    11    12	 9 ;      HGR61     CG2R61     CG2R61     CG2R61
   41    10    11    15	 9 ;      HGR61     CG2R61     CG2R61     CG2DC1
   10    11    12    13	 9 ;     CG2R61     CG2R61     CG2R61     CG2R61
   10    11    12    42	 9 ;     CG2R61     CG2R61     CG2R61      HGR61
   15    11    12    13	 9 ;     CG2DC1     CG2R61     CG2R61     CG2R61
   15    11    12    42	 9 ;     CG2DC1     CG2R61     CG2R61      HGR61
   10    11    15    16	 9 ;     CG2R61     CG2R61     CG2DC1     CG2DC2
   10    11    15    20	 9 ;     CG2R61     CG2R61     CG2DC1     CG2D1O
   12    11    15    16	 9 ;     CG2R61     CG2R61     CG2DC1     CG2DC2
   12    11    15    20	 9 ;     CG2R61     CG2R61     CG2DC1     CG2D1O
   11    12    13    14	 9 ;     CG2R61     CG2R61     CG2R61     CG2R61
   11    12    13    43	 9 ;     CG2R61     CG2R61     CG2R61      HGR61
   42    12    13    14	 9 ;      HGR61     CG2R61     CG2R61     CG2R61
   42    12    13    43	 9 ;      HGR61     CG2R61     CG2R61      HGR61
   12    13    14     9	 9 ;     CG2R61     CG2R61     CG2R61     CG2R61
   12    13    14    44	 9 ;     CG2R61     CG2R61     CG2R61      HGR61
   43    13    14     9	 9 ;      HGR61     CG2R61     CG2R61     CG2R61
   43    13    14    44	 9 ;      HGR61     CG2R61     CG2R61      HGR61
   11    15    16    17	 9 ;     CG2R61     CG2DC1     CG2DC2     CG2DC2
   11    15    16    45	 9 ;     CG2R61     CG2DC1     CG2DC2       HGA4
   20    15    16    17	 9 ;     CG2D1O     CG2DC1     CG2DC2     CG2DC2
   20    15    16    45	 9 ;     CG2D1O     CG2DC1     CG2DC2       HGA4
   11    15    20    22	 9 ;     CG2R61     CG2DC1     CG2D1O       FGA1
   11    15    20    19	 9 ;     CG2R61     CG2DC1     CG2D1O      NG311
   16    15    20    22	 9 ;     CG2DC2     CG2DC1     CG2D1O       FGA1
   16    15    20    19	 9 ;     CG2DC2     CG2DC1     CG2D1O      NG311
   15    16    17    18	 9 ;     CG2DC1     CG2DC2     CG2DC2      CG321
   15    16    17    46	 9 ;     CG2DC1     CG2DC2     CG2DC2       HGA4
   45    16    17    18	 9 ;       HGA4     CG2DC2     CG2DC2      CG321
   45    16    17    46	 9 ;       HGA4     CG2DC2     CG2DC2       HGA4
   16    17    18    19	 9 ;     CG2DC2     CG2DC2      CG321      NG311
   16    17    18    47	 9 ;     CG2DC2     CG2DC2      CG321       HGA2
   16    17    18    48	 9 ;     CG2DC2     CG2DC2      CG321       HGA2
   46    17    18    19	 9 ;       HGA4     CG2DC2      CG321      NG311
   46    17    18    47	 9 ;       HGA4     CG2DC2      CG321       HGA2
   46    17    18    48	 9 ;       HGA4     CG2DC2      CG321       HGA2
   17    18    19    20	 9 ;     CG2DC2      CG321      NG311     CG2D1O
   17    18    19    21	 9 ;     CG2DC2      CG321      NG311     HGPAM1
   47    18    19    20	 9 ;       HGA2      CG321      NG311     CG2D1O
   47    18    19    21	 9 ;       HGA2      CG321      NG311     HGPAM1
   48    18    19    20	 9 ;       HGA2      CG321      NG311     CG2D1O
   48    18    19    21	 9 ;       HGA2      CG321      NG311     HGPAM1
   18    19    20    15	 9 ;      CG321      NG311     CG2D1O     CG2DC1
   18    19    20    22	 9 ;      CG321      NG311     CG2D1O       FGA1
   21    19    20    15	 9 ;     HGPAM1      NG311     CG2D1O     CG2DC1
   21    19    20    22	 9 ;     HGPAM1      NG311     CG2D1O       FGA1
    1    23    24    25	 9 ;     CG3C50     CG2R61     CG2R61     CG2R61
    1    23    24    49	 9 ;     CG3C50     CG2R61     CG2R61      HGR61
   28    23    24    25	 9 ;     CG2R61     CG2R61     CG2R61     CG2R61
   28    23    24    49	 9 ;     CG2R61     CG2R61     CG2R61      HGR61
    1    23    28    27	 9 ;     CG3C50     CG2R61     CG2R61     CG2R61
    1    23    28    52	 9 ;     CG3C50     CG2R61     CG2R61      HGR61
   24    23    28    27	 9 ;     CG2R61     CG2R61     CG2R61     CG2R61
   24    23    28    52	 9 ;     CG2R61     CG2R61     CG2R61      HGR61
   23    24    25    26	 9 ;     CG2R61     CG2R61     CG2R61     CG2R61
   23    24    25    50	 9 ;     CG2R61     CG2R61     CG2R61      HGR61
   49    24    25    26	 9 ;      HGR61     CG2R61     CG2R61     CG2R61
   49    24    25    50	 9 ;      HGR61     CG2R61     CG2R61      HGR61
   24    25    26    27	 9 ;     CG2R61     CG2R61     CG2R61     CG2R61
   24    25    26    29	 9 ;     CG2R61     CG2R61     CG2R61      OG301
   50    25    26    27	 9 ;      HGR61     CG2R61     CG2R61     CG2R61
   50    25    26    29	 9 ;      HGR61     CG2R61     CG2R61      OG301
   25    26    27    28	 9 ;     CG2R61     CG2R61     CG2R61     CG2R61
   25    26    27    51	 9 ;     CG2R61     CG2R61     CG2R61      HGR61
   29    26    27    28	 9 ;      OG301     CG2R61     CG2R61     CG2R61
   29    26    27    51	 9 ;      OG301     CG2R61     CG2R61      HGR61
   25    26    29    30	 9 ;     CG2R61     CG2R61      OG301      CG302
   27    26    29    30	 9 ;     CG2R61     CG2R61      OG301      CG302
   26    27    28    23	 9 ;     CG2R61     CG2R61     CG2R61     CG2R61
   26    27    28    52	 9 ;     CG2R61     CG2R61     CG2R61      HGR61
   51    27    28    23	 9 ;      HGR61     CG2R61     CG2R61     CG2R61
   51    27    28    52	 9 ;      HGR61     CG2R61     CG2R61      HGR61
   26    29    30    32	 9 ;     CG2R61      OG301      CG302       FGA3
   26    29    30    31	 9 ;     CG2R61      OG301      CG302       FGA3
   26    29    30    33	 9 ;     CG2R61      OG301      CG302       FGA3

[ dihedrals ]
;	ai	  aj	ak	  al funct			  c0			c1			  c2			c3
    7     1     5     8	 2
   20    15    19    22	 2

