; Created by cgenff_charmm2gmx.py

[ moleculetype ]
; Name			   nrexcl
LIG				 3

[ atoms ]
;	 nr		  type	resnr residue  atom   cgnr	   charge		mass  typeB    chargeB		massB
; residue	 1 LIG rtp LIG q	qsum
     1     CG3C50      1    LIG     C1      1      1.599     12.011   ;
     2      NG3P2      1    LIG     N1      2     -0.701     14.007   ;
     3       HGP2      1    LIG     HN      3      0.353      1.008   ;
     4     CG3C53      1    LIG     C2      4      0.784     12.011   ;
     5     NG2R53      1    LIG     N2      5     -0.171     14.007   ;
     6      CG331      1    LIG     C3      6     -0.169     12.011   ;
     7     CG2R53      1    LIG     C4      7     -0.361     12.011   ;
     8      OG2D1      1    LIG     O1      8     -0.342     15.999   ;
     9     CG2R61      1    LIG     C5      9     -0.151     12.011   ;
    10     CG2R61      1    LIG     C6     10     -0.135     12.011   ;
    11     CG2R61      1    LIG     C7     11      0.012     12.011   ;
    12     CG2R61      1    LIG     C8     12     -0.120     12.011   ;
    13     CG2R61      1    LIG     C9     13     -0.102     12.011   ;
    14     CG2R61      1    LIG    C10     14     -0.131     12.011   ;
    15     CG2DC1      1    LIG    C11     15     -0.050     12.011   ;
    16       FGA1      1    LIG     F1     16     -0.081     18.998   ;
    17     CG2DC1      1    LIG    C12     17     -0.127     12.011   ;
    18     CG3C31      1    LIG    C13     18      0.087     12.011   ;
    19     CG3C31      1    LIG    C14     19     -0.181     12.011   ;
    20     CG3C31      1    LIG    C15     20     -0.181     12.011   ;
    21     CG2R61      1    LIG    C16     21     -0.154     12.011   ;
    22     CG2R61      1    LIG    C17     22     -0.128     12.011   ;
    23     CG2R61      1    LIG    C18     23     -0.108     12.011   ;
    24     CG2R61      1    LIG    C19     24      0.217     12.011   ;
    25     CG2R61      1    LIG    C20     25     -0.108     12.011   ;
    26     CG2R61      1    LIG    C21     26     -0.128     12.011   ;
    27      OG301      1    LIG     O2     27     -0.272     15.999   ;
    28      CG312      1    LIG    C22     28      0.216     12.011   ;
    29       FGA2      1    LIG     F2     29     -0.160     18.998   ;
    30       FGA2      1    LIG     F3     30     -0.160     18.998   ;
    31      NG3P3      1    LIG     N3     31     -0.267     14.007   ;
    32       HGP2      1    LIG     H1     32      0.301      1.008   ;
    33       HGP2      1    LIG     H2     33      0.301      1.008   ;
    34       HGP2      1    LIG    HN2     34      0.353      1.008   ;
    35       HGA1      1    LIG     HC     35      0.073      1.008   ;
    36      HGR61      1    LIG    HC1     36      0.116      1.008   ;
    37      HGR61      1    LIG    HC2     37      0.116      1.008   ;
    38      HGR61      1    LIG    HC3     38      0.116      1.008   ;
    39      HGR61      1    LIG    HC4     39      0.116      1.008   ;
    40       HGA4      1    LIG    HC5     40      0.084      1.008   ;
    41       HGA1      1    LIG    HC6     41      0.090      1.008   ;
    42       HGA2      1    LIG    HC7     42      0.090      1.008   ;
    43       HGA2      1    LIG    HC8     43      0.090      1.008   ;
    44       HGA2      1    LIG    HC9     44      0.090      1.008   ;
    45       HGA2      1    LIG   HC10     45      0.090      1.008   ;
    46      HGR61      1    LIG   HC11     46      0.116      1.008   ;
    47      HGR61      1    LIG   HC12     47      0.116      1.008   ;
    48      HGR61      1    LIG   HC13     48      0.116      1.008   ;
    49      HGR61      1    LIG   HC14     49      0.116      1.008   ;
    50       HGA7      1    LIG   HC15     50      0.159      1.008   ;
    51       HGP2      1    LIG    HN1     51      0.301      1.008   ;
    52       HGA3      1    LIG   HC16     52      0.090      1.008   ;
    53       HGA3      1    LIG   HC17     53      0.090      1.008   ;
    54       HGA3      1    LIG   HC18     54      0.090      1.008   ;

[ bonds ]
;	ai	  aj funct			  c0			c1			  c2			c3
    1     7	 1 ;      CG3C50     CG2R53
    1     2	 1 ;      CG3C50      NG3P2
    1    21	 1 ;      CG3C50     CG2R61
    1     9	 1 ;      CG3C50     CG2R61
    2     4	 1 ;       NG3P2     CG3C53
    2     3	 1 ;       NG3P2       HGP2
    2    34	 1 ;       NG3P2       HGP2
    4    31	 1 ;      CG3C53      NG3P3
    4     5	 1 ;      CG3C53     NG2R53
    4    35	 1 ;      CG3C53       HGA1
    5     6	 1 ;      NG2R53      CG331
    5     7	 1 ;      NG2R53     CG2R53
    6    52	 1 ;       CG331       HGA3
    6    53	 1 ;       CG331       HGA3
    6    54	 1 ;       CG331       HGA3
    7     8	 1 ;      CG2R53      OG2D1
    9    14	 1 ;      CG2R61     CG2R61
    9    10	 1 ;      CG2R61     CG2R61
   10    11	 1 ;      CG2R61     CG2R61
   10    36	 1 ;      CG2R61      HGR61
   11    12	 1 ;      CG2R61     CG2R61
   11    15	 1 ;      CG2R61     CG2DC1
   12    13	 1 ;      CG2R61     CG2R61
   12    37	 1 ;      CG2R61      HGR61
   13    14	 1 ;      CG2R61     CG2R61
   13    38	 1 ;      CG2R61      HGR61
   14    39	 1 ;      CG2R61      HGR61
   15    16	 1 ;      CG2DC1       FGA1
   15    17	 1 ;      CG2DC1     CG2DC1
   17    18	 1 ;      CG2DC1     CG3C31
   17    40	 1 ;      CG2DC1       HGA4
   18    19	 1 ;      CG3C31     CG3C31
   18    20	 1 ;      CG3C31     CG3C31
   18    41	 1 ;      CG3C31       HGA1
   19    20	 1 ;      CG3C31     CG3C31
   19    42	 1 ;      CG3C31       HGA2
   19    43	 1 ;      CG3C31       HGA2
   20    44	 1 ;      CG3C31       HGA2
   20    45	 1 ;      CG3C31       HGA2
   21    26	 1 ;      CG2R61     CG2R61
   21    22	 1 ;      CG2R61     CG2R61
   22    23	 1 ;      CG2R61     CG2R61
   22    46	 1 ;      CG2R61      HGR61
   23    24	 1 ;      CG2R61     CG2R61
   23    47	 1 ;      CG2R61      HGR61
   24    25	 1 ;      CG2R61     CG2R61
   24    27	 1 ;      CG2R61      OG301
   25    26	 1 ;      CG2R61     CG2R61
   25    48	 1 ;      CG2R61      HGR61
   26    49	 1 ;      CG2R61      HGR61
   27    28	 1 ;       OG301      CG312
   28    29	 1 ;       CG312       FGA2
   28    30	 1 ;       CG312       FGA2
   28    50	 1 ;       CG312       HGA7
   31    33	 1 ;       NG3P3       HGP2
   31    32	 1 ;       NG3P3       HGP2
   31    51	 1 ;       NG3P3       HGP2

[ pairs ]
;	ai	  aj funct			  c0			c1			  c2			c3
    1    31	 1
    1    35	 1
    1     6	 1
    1    13	 1
    1    39	 1
    1    11	 1
    1    36	 1
    1    25	 1
    1    49	 1
    1    23	 1
    1    46	 1
    2     8	 1
    2    26	 1
    2    22	 1
    2    14	 1
    2    10	 1
    2    33	 1
    2    32	 1
    2    51	 1
    2     6	 1
    3     7	 1
    3    21	 1
    3     9	 1
    3    31	 1
    3     5	 1
    3    35	 1
    4    21	 1
    4     9	 1
    4    52	 1
    4    53	 1
    4    54	 1
    4     8	 1
    5    21	 1
    5     9	 1
    5    34	 1
    5    33	 1
    5    32	 1
    5    51	 1
    6    31	 1
    6    35	 1
    6     8	 1
    7    34	 1
    7    26	 1
    7    22	 1
    7    14	 1
    7    10	 1
    7    31	 1
    7    35	 1
    7    52	 1
    7    53	 1
    7    54	 1
    8    21	 1
    8     9	 1
    9    34	 1
    9    26	 1
    9    22	 1
    9    12	 1
    9    15	 1
    9    38	 1
   10    21	 1
   10    13	 1
   10    39	 1
   10    37	 1
   10    16	 1
   10    17	 1
   11    14	 1
   11    38	 1
   11    18	 1
   11    40	 1
   12    36	 1
   12    16	 1
   12    17	 1
   12    39	 1
   13    15	 1
   14    21	 1
   14    36	 1
   14    37	 1
   15    36	 1
   15    37	 1
   15    19	 1
   15    20	 1
   15    41	 1
   16    18	 1
   16    40	 1
   17    42	 1
   17    43	 1
   17    44	 1
   17    45	 1
   19    40	 1
   20    40	 1
   21    34	 1
   21    24	 1
   21    47	 1
   21    48	 1
   22    25	 1
   22    49	 1
   22    27	 1
   23    26	 1
   23    48	 1
   23    28	 1
   24    46	 1
   24    49	 1
   24    29	 1
   24    30	 1
   24    50	 1
   25    47	 1
   25    28	 1
   26    46	 1
   26    27	 1
   27    47	 1
   27    48	 1
   31    34	 1
   32    35	 1
   33    35	 1
   34    35	 1
   35    51	 1
   37    38	 1
   38    39	 1
   40    41	 1
   41    42	 1
   41    43	 1
   41    44	 1
   41    45	 1
   42    44	 1
   42    45	 1
   43    44	 1
   43    45	 1
   46    47	 1
   48    49	 1

[ angles ]
;	ai	  aj	ak funct			c0			  c1			c2			  c3
    7     1     2	5 ;     CG2R53     CG3C50      NG3P2
    7     1    21	5 ;     CG2R53     CG3C50     CG2R61
    7     1     9	5 ;     CG2R53     CG3C50     CG2R61
    2     1    21	5 ;      NG3P2     CG3C50     CG2R61
    2     1     9	5 ;      NG3P2     CG3C50     CG2R61
   21     1     9	5 ;     CG2R61     CG3C50     CG2R61
    4     2     3	5 ;     CG3C53      NG3P2       HGP2
    4     2     1	5 ;     CG3C53      NG3P2     CG3C50
    4     2    34	5 ;     CG3C53      NG3P2       HGP2
    3     2     1	5 ;       HGP2      NG3P2     CG3C50
    3     2    34	5 ;       HGP2      NG3P2       HGP2
    1     2    34	5 ;     CG3C50      NG3P2       HGP2
   31     4     5	5 ;      NG3P3     CG3C53     NG2R53
   31     4     2	5 ;      NG3P3     CG3C53      NG3P2
   31     4    35	5 ;      NG3P3     CG3C53       HGA1
    5     4     2	5 ;     NG2R53     CG3C53      NG3P2
    5     4    35	5 ;     NG2R53     CG3C53       HGA1
    2     4    35	5 ;      NG3P2     CG3C53       HGA1
    6     5     4	5 ;      CG331     NG2R53     CG3C53
    6     5     7	5 ;      CG331     NG2R53     CG2R53
    4     5     7	5 ;     CG3C53     NG2R53     CG2R53
    5     6    52	5 ;     NG2R53      CG331       HGA3
    5     6    53	5 ;     NG2R53      CG331       HGA3
    5     6    54	5 ;     NG2R53      CG331       HGA3
   52     6    53	5 ;       HGA3      CG331       HGA3
   52     6    54	5 ;       HGA3      CG331       HGA3
   53     6    54	5 ;       HGA3      CG331       HGA3
    5     7     8	5 ;     NG2R53     CG2R53      OG2D1
    5     7     1	5 ;     NG2R53     CG2R53     CG3C50
    8     7     1	5 ;      OG2D1     CG2R53     CG3C50
    1     9    14	5 ;     CG3C50     CG2R61     CG2R61
    1     9    10	5 ;     CG3C50     CG2R61     CG2R61
   14     9    10	5 ;     CG2R61     CG2R61     CG2R61
    9    10    11	5 ;     CG2R61     CG2R61     CG2R61
    9    10    36	5 ;     CG2R61     CG2R61      HGR61
   11    10    36	5 ;     CG2R61     CG2R61      HGR61
   10    11    12	5 ;     CG2R61     CG2R61     CG2R61
   10    11    15	5 ;     CG2R61     CG2R61     CG2DC1
   12    11    15	5 ;     CG2R61     CG2R61     CG2DC1
   13    12    11	5 ;     CG2R61     CG2R61     CG2R61
   13    12    37	5 ;     CG2R61     CG2R61      HGR61
   11    12    37	5 ;     CG2R61     CG2R61      HGR61
   14    13    12	5 ;     CG2R61     CG2R61     CG2R61
   14    13    38	5 ;     CG2R61     CG2R61      HGR61
   12    13    38	5 ;     CG2R61     CG2R61      HGR61
    9    14    13	5 ;     CG2R61     CG2R61     CG2R61
    9    14    39	5 ;     CG2R61     CG2R61      HGR61
   13    14    39	5 ;     CG2R61     CG2R61      HGR61
   11    15    16	5 ;     CG2R61     CG2DC1       FGA1
   11    15    17	5 ;     CG2R61     CG2DC1     CG2DC1
   16    15    17	5 ;       FGA1     CG2DC1     CG2DC1
   15    17    18	5 ;     CG2DC1     CG2DC1     CG3C31
   15    17    40	5 ;     CG2DC1     CG2DC1       HGA4
   18    17    40	5 ;     CG3C31     CG2DC1       HGA4
   17    18    19	5 ;     CG2DC1     CG3C31     CG3C31
   17    18    20	5 ;     CG2DC1     CG3C31     CG3C31
   17    18    41	5 ;     CG2DC1     CG3C31       HGA1
   19    18    20	5 ;     CG3C31     CG3C31     CG3C31
   19    18    41	5 ;     CG3C31     CG3C31       HGA1
   20    18    41	5 ;     CG3C31     CG3C31       HGA1
   18    19    20	5 ;     CG3C31     CG3C31     CG3C31
   18    19    42	5 ;     CG3C31     CG3C31       HGA2
   18    19    43	5 ;     CG3C31     CG3C31       HGA2
   20    19    42	5 ;     CG3C31     CG3C31       HGA2
   20    19    43	5 ;     CG3C31     CG3C31       HGA2
   42    19    43	5 ;       HGA2     CG3C31       HGA2
   18    20    19	5 ;     CG3C31     CG3C31     CG3C31
   18    20    44	5 ;     CG3C31     CG3C31       HGA2
   18    20    45	5 ;     CG3C31     CG3C31       HGA2
   19    20    44	5 ;     CG3C31     CG3C31       HGA2
   19    20    45	5 ;     CG3C31     CG3C31       HGA2
   44    20    45	5 ;       HGA2     CG3C31       HGA2
    1    21    26	5 ;     CG3C50     CG2R61     CG2R61
    1    21    22	5 ;     CG3C50     CG2R61     CG2R61
   26    21    22	5 ;     CG2R61     CG2R61     CG2R61
   21    22    23	5 ;     CG2R61     CG2R61     CG2R61
   21    22    46	5 ;     CG2R61     CG2R61      HGR61
   23    22    46	5 ;     CG2R61     CG2R61      HGR61
   22    23    24	5 ;     CG2R61     CG2R61     CG2R61
   22    23    47	5 ;     CG2R61     CG2R61      HGR61
   24    23    47	5 ;     CG2R61     CG2R61      HGR61
   25    24    23	5 ;     CG2R61     CG2R61     CG2R61
   25    24    27	5 ;     CG2R61     CG2R61      OG301
   23    24    27	5 ;     CG2R61     CG2R61      OG301
   26    25    24	5 ;     CG2R61     CG2R61     CG2R61
   26    25    48	5 ;     CG2R61     CG2R61      HGR61
   24    25    48	5 ;     CG2R61     CG2R61      HGR61
   21    26    25	5 ;     CG2R61     CG2R61     CG2R61
   21    26    49	5 ;     CG2R61     CG2R61      HGR61
   25    26    49	5 ;     CG2R61     CG2R61      HGR61
   28    27    24	5 ;      CG312      OG301     CG2R61
   29    28    30	5 ;       FGA2      CG312       FGA2
   29    28    27	5 ;       FGA2      CG312      OG301
   29    28    50	5 ;       FGA2      CG312       HGA7
   30    28    27	5 ;       FGA2      CG312      OG301
   30    28    50	5 ;       FGA2      CG312       HGA7
   27    28    50	5 ;      OG301      CG312       HGA7
   33    31    32	5 ;       HGP2      NG3P3       HGP2
   33    31     4	5 ;       HGP2      NG3P3     CG3C53
   33    31    51	5 ;       HGP2      NG3P3       HGP2
   32    31     4	5 ;       HGP2      NG3P3     CG3C53
   32    31    51	5 ;       HGP2      NG3P3       HGP2
    4    31    51	5 ;     CG3C53      NG3P3       HGP2

[ dihedrals ]
;	ai	  aj	ak	  al funct			  c0			c1			  c2			c3			  c4			c5
    2     1     7     5	 9 ;      NG3P2     CG3C50     CG2R53     NG2R53
    2     1     7     8	 9 ;      NG3P2     CG3C50     CG2R53      OG2D1
   21     1     7     5	 9 ;     CG2R61     CG3C50     CG2R53     NG2R53
   21     1     7     8	 9 ;     CG2R61     CG3C50     CG2R53      OG2D1
    9     1     7     5	 9 ;     CG2R61     CG3C50     CG2R53     NG2R53
    9     1     7     8	 9 ;     CG2R61     CG3C50     CG2R53      OG2D1
    7     1     2     4	 9 ;     CG2R53     CG3C50      NG3P2     CG3C53
    7     1     2     3	 9 ;     CG2R53     CG3C50      NG3P2       HGP2
    7     1     2    34	 9 ;     CG2R53     CG3C50      NG3P2       HGP2
   21     1     2     4	 9 ;     CG2R61     CG3C50      NG3P2     CG3C53
   21     1     2     3	 9 ;     CG2R61     CG3C50      NG3P2       HGP2
   21     1     2    34	 9 ;     CG2R61     CG3C50      NG3P2       HGP2
    9     1     2     4	 9 ;     CG2R61     CG3C50      NG3P2     CG3C53
    9     1     2     3	 9 ;     CG2R61     CG3C50      NG3P2       HGP2
    9     1     2    34	 9 ;     CG2R61     CG3C50      NG3P2       HGP2
    7     1    21    26	 9 ;     CG2R53     CG3C50     CG2R61     CG2R61
    7     1    21    22	 9 ;     CG2R53     CG3C50     CG2R61     CG2R61
    2     1    21    26	 9 ;      NG3P2     CG3C50     CG2R61     CG2R61
    2     1    21    22	 9 ;      NG3P2     CG3C50     CG2R61     CG2R61
    9     1    21    26	 9 ;     CG2R61     CG3C50     CG2R61     CG2R61
    9     1    21    22	 9 ;     CG2R61     CG3C50     CG2R61     CG2R61
    7     1     9    14	 9 ;     CG2R53     CG3C50     CG2R61     CG2R61
    7     1     9    10	 9 ;     CG2R53     CG3C50     CG2R61     CG2R61
    2     1     9    14	 9 ;      NG3P2     CG3C50     CG2R61     CG2R61
    2     1     9    10	 9 ;      NG3P2     CG3C50     CG2R61     CG2R61
   21     1     9    14	 9 ;     CG2R61     CG3C50     CG2R61     CG2R61
   21     1     9    10	 9 ;     CG2R61     CG3C50     CG2R61     CG2R61
    3     2     4    31	 9 ;       HGP2      NG3P2     CG3C53      NG3P3
    3     2     4     5	 9 ;       HGP2      NG3P2     CG3C53     NG2R53
    3     2     4    35	 9 ;       HGP2      NG3P2     CG3C53       HGA1
    1     2     4    31	 9 ;     CG3C50      NG3P2     CG3C53      NG3P3
    1     2     4     5	 9 ;     CG3C50      NG3P2     CG3C53     NG2R53
    1     2     4    35	 9 ;     CG3C50      NG3P2     CG3C53       HGA1
   34     2     4    31	 9 ;       HGP2      NG3P2     CG3C53      NG3P3
   34     2     4     5	 9 ;       HGP2      NG3P2     CG3C53     NG2R53
   34     2     4    35	 9 ;       HGP2      NG3P2     CG3C53       HGA1
    5     4    31    33	 9 ;     NG2R53     CG3C53      NG3P3       HGP2
    5     4    31    32	 9 ;     NG2R53     CG3C53      NG3P3       HGP2
    5     4    31    51	 9 ;     NG2R53     CG3C53      NG3P3       HGP2
    2     4    31    33	 9 ;      NG3P2     CG3C53      NG3P3       HGP2
    2     4    31    32	 9 ;      NG3P2     CG3C53      NG3P3       HGP2
    2     4    31    51	 9 ;      NG3P2     CG3C53      NG3P3       HGP2
   35     4    31    33	 9 ;       HGA1     CG3C53      NG3P3       HGP2
   35     4    31    32	 9 ;       HGA1     CG3C53      NG3P3       HGP2
   35     4    31    51	 9 ;       HGA1     CG3C53      NG3P3       HGP2
   31     4     5     6	 9 ;      NG3P3     CG3C53     NG2R53      CG331
   31     4     5     7	 9 ;      NG3P3     CG3C53     NG2R53     CG2R53
    2     4     5     6	 9 ;      NG3P2     CG3C53     NG2R53      CG331
    2     4     5     7	 9 ;      NG3P2     CG3C53     NG2R53     CG2R53
   35     4     5     6	 9 ;       HGA1     CG3C53     NG2R53      CG331
   35     4     5     7	 9 ;       HGA1     CG3C53     NG2R53     CG2R53
    4     5     6    52	 9 ;     CG3C53     NG2R53      CG331       HGA3
    4     5     6    53	 9 ;     CG3C53     NG2R53      CG331       HGA3
    4     5     6    54	 9 ;     CG3C53     NG2R53      CG331       HGA3
    7     5     6    52	 9 ;     CG2R53     NG2R53      CG331       HGA3
    7     5     6    53	 9 ;     CG2R53     NG2R53      CG331       HGA3
    7     5     6    54	 9 ;     CG2R53     NG2R53      CG331       HGA3
    6     5     7     8	 9 ;      CG331     NG2R53     CG2R53      OG2D1
    6     5     7     1	 9 ;      CG331     NG2R53     CG2R53     CG3C50
    4     5     7     8	 9 ;     CG3C53     NG2R53     CG2R53      OG2D1
    4     5     7     1	 9 ;     CG3C53     NG2R53     CG2R53     CG3C50
    1     9    14    13	 9 ;     CG3C50     CG2R61     CG2R61     CG2R61
    1     9    14    39	 9 ;     CG3C50     CG2R61     CG2R61      HGR61
   10     9    14    13	 9 ;     CG2R61     CG2R61     CG2R61     CG2R61
   10     9    14    39	 9 ;     CG2R61     CG2R61     CG2R61      HGR61
    1     9    10    11	 9 ;     CG3C50     CG2R61     CG2R61     CG2R61
    1     9    10    36	 9 ;     CG3C50     CG2R61     CG2R61      HGR61
   14     9    10    11	 9 ;     CG2R61     CG2R61     CG2R61     CG2R61
   14     9    10    36	 9 ;     CG2R61     CG2R61     CG2R61      HGR61
    9    10    11    12	 9 ;     CG2R61     CG2R61     CG2R61     CG2R61
    9    10    11    15	 9 ;     CG2R61     CG2R61     CG2R61     CG2DC1
   36    10    11    12	 9 ;      HGR61     CG2R61     CG2R61     CG2R61
   36    10    11    15	 9 ;      HGR61     CG2R61     CG2R61     CG2DC1
   10    11    12    13	 9 ;     CG2R61     CG2R61     CG2R61     CG2R61
   10    11    12    37	 9 ;     CG2R61     CG2R61     CG2R61      HGR61
   15    11    12    13	 9 ;     CG2DC1     CG2R61     CG2R61     CG2R61
   15    11    12    37	 9 ;     CG2DC1     CG2R61     CG2R61      HGR61
   10    11    15    16	 9 ;     CG2R61     CG2R61     CG2DC1       FGA1
   10    11    15    17	 9 ;     CG2R61     CG2R61     CG2DC1     CG2DC1
   12    11    15    16	 9 ;     CG2R61     CG2R61     CG2DC1       FGA1
   12    11    15    17	 9 ;     CG2R61     CG2R61     CG2DC1     CG2DC1
   11    12    13    14	 9 ;     CG2R61     CG2R61     CG2R61     CG2R61
   11    12    13    38	 9 ;     CG2R61     CG2R61     CG2R61      HGR61
   37    12    13    14	 9 ;      HGR61     CG2R61     CG2R61     CG2R61
   37    12    13    38	 9 ;      HGR61     CG2R61     CG2R61      HGR61
   12    13    14     9	 9 ;     CG2R61     CG2R61     CG2R61     CG2R61
   12    13    14    39	 9 ;     CG2R61     CG2R61     CG2R61      HGR61
   38    13    14     9	 9 ;      HGR61     CG2R61     CG2R61     CG2R61
   38    13    14    39	 9 ;      HGR61     CG2R61     CG2R61      HGR61
   11    15    17    18	 9 ;     CG2R61     CG2DC1     CG2DC1     CG3C31
   11    15    17    40	 9 ;     CG2R61     CG2DC1     CG2DC1       HGA4
   16    15    17    18	 9 ;       FGA1     CG2DC1     CG2DC1     CG3C31
   16    15    17    40	 9 ;       FGA1     CG2DC1     CG2DC1       HGA4
   15    17    18    19	 9 ;     CG2DC1     CG2DC1     CG3C31     CG3C31
   15    17    18    20	 9 ;     CG2DC1     CG2DC1     CG3C31     CG3C31
   15    17    18    41	 9 ;     CG2DC1     CG2DC1     CG3C31       HGA1
   40    17    18    19	 9 ;       HGA4     CG2DC1     CG3C31     CG3C31
   40    17    18    20	 9 ;       HGA4     CG2DC1     CG3C31     CG3C31
   40    17    18    41	 9 ;       HGA4     CG2DC1     CG3C31       HGA1
   17    18    19    20	 9 ;     CG2DC1     CG3C31     CG3C31     CG3C31
   17    18    19    42	 9 ;     CG2DC1     CG3C31     CG3C31       HGA2
   17    18    19    43	 9 ;     CG2DC1     CG3C31     CG3C31       HGA2
   20    18    19    42	 9 ;     CG3C31     CG3C31     CG3C31       HGA2
   20    18    19    43	 9 ;     CG3C31     CG3C31     CG3C31       HGA2
   41    18    19    20	 9 ;       HGA1     CG3C31     CG3C31     CG3C31
   41    18    19    42	 9 ;       HGA1     CG3C31     CG3C31       HGA2
   41    18    19    43	 9 ;       HGA1     CG3C31     CG3C31       HGA2
   17    18    20    19	 9 ;     CG2DC1     CG3C31     CG3C31     CG3C31
   17    18    20    44	 9 ;     CG2DC1     CG3C31     CG3C31       HGA2
   17    18    20    45	 9 ;     CG2DC1     CG3C31     CG3C31       HGA2
   19    18    20    44	 9 ;     CG3C31     CG3C31     CG3C31       HGA2
   19    18    20    45	 9 ;     CG3C31     CG3C31     CG3C31       HGA2
   41    18    20    19	 9 ;       HGA1     CG3C31     CG3C31     CG3C31
   41    18    20    44	 9 ;       HGA1     CG3C31     CG3C31       HGA2
   41    18    20    45	 9 ;       HGA1     CG3C31     CG3C31       HGA2
   18    19    20    44	 9 ;     CG3C31     CG3C31     CG3C31       HGA2
   18    19    20    45	 9 ;     CG3C31     CG3C31     CG3C31       HGA2
   42    19    20    18	 9 ;       HGA2     CG3C31     CG3C31     CG3C31
   42    19    20    44	 9 ;       HGA2     CG3C31     CG3C31       HGA2
   42    19    20    45	 9 ;       HGA2     CG3C31     CG3C31       HGA2
   43    19    20    18	 9 ;       HGA2     CG3C31     CG3C31     CG3C31
   43    19    20    44	 9 ;       HGA2     CG3C31     CG3C31       HGA2
   43    19    20    45	 9 ;       HGA2     CG3C31     CG3C31       HGA2
    1    21    26    25	 9 ;     CG3C50     CG2R61     CG2R61     CG2R61
    1    21    26    49	 9 ;     CG3C50     CG2R61     CG2R61      HGR61
   22    21    26    25	 9 ;     CG2R61     CG2R61     CG2R61     CG2R61
   22    21    26    49	 9 ;     CG2R61     CG2R61     CG2R61      HGR61
    1    21    22    23	 9 ;     CG3C50     CG2R61     CG2R61     CG2R61
    1    21    22    46	 9 ;     CG3C50     CG2R61     CG2R61      HGR61
   26    21    22    23	 9 ;     CG2R61     CG2R61     CG2R61     CG2R61
   26    21    22    46	 9 ;     CG2R61     CG2R61     CG2R61      HGR61
   21    22    23    24	 9 ;     CG2R61     CG2R61     CG2R61     CG2R61
   21    22    23    47	 9 ;     CG2R61     CG2R61     CG2R61      HGR61
   46    22    23    24	 9 ;      HGR61     CG2R61     CG2R61     CG2R61
   46    22    23    47	 9 ;      HGR61     CG2R61     CG2R61      HGR61
   22    23    24    25	 9 ;     CG2R61     CG2R61     CG2R61     CG2R61
   22    23    24    27	 9 ;     CG2R61     CG2R61     CG2R61      OG301
   47    23    24    25	 9 ;      HGR61     CG2R61     CG2R61     CG2R61
   47    23    24    27	 9 ;      HGR61     CG2R61     CG2R61      OG301
   23    24    25    26	 9 ;     CG2R61     CG2R61     CG2R61     CG2R61
   23    24    25    48	 9 ;     CG2R61     CG2R61     CG2R61      HGR61
   27    24    25    26	 9 ;      OG301     CG2R61     CG2R61     CG2R61
   27    24    25    48	 9 ;      OG301     CG2R61     CG2R61      HGR61
   25    24    27    28	 9 ;     CG2R61     CG2R61      OG301      CG312
   23    24    27    28	 9 ;     CG2R61     CG2R61      OG301      CG312
   24    25    26    21	 9 ;     CG2R61     CG2R61     CG2R61     CG2R61
   24    25    26    49	 9 ;     CG2R61     CG2R61     CG2R61      HGR61
   48    25    26    21	 9 ;      HGR61     CG2R61     CG2R61     CG2R61
   48    25    26    49	 9 ;      HGR61     CG2R61     CG2R61      HGR61
   24    27    28    29	 9 ;     CG2R61      OG301      CG312       FGA2
   24    27    28    30	 9 ;     CG2R61      OG301      CG312       FGA2
   24    27    28    50	 9 ;     CG2R61      OG301      CG312       HGA7

[ dihedrals ]
;	ai	  aj	ak	  al funct			  c0			c1			  c2			c3
    7     1     5     8	 2

