God Rules Over Mankind, Animals, Cosmos and Such
   54
    1LIG     C1    1  -1.342   0.478  -1.630
    1LIG     N1    2  -1.344   0.430  -1.773
    1LIG     HN    3  -1.403   0.356  -1.813
    1LIG     C2    4  -1.257   0.501  -1.836
    1LIG     N2    5  -1.198   0.600  -1.766
    1LIG     C3    6  -1.083   0.679  -1.804
    1LIG     C4    7  -1.253   0.604  -1.641
    1LIG     O1    8  -1.228   0.686  -1.554
    1LIG     C5    9  -1.486   0.498  -1.581
    1LIG     C6   10  -1.569   0.384  -1.573
    1LIG     C7   11  -1.688   0.384  -1.498
    1LIG     C8   12  -1.731   0.505  -1.443
    1LIG     C9   13  -1.657   0.622  -1.460
    1LIG    C10   14  -1.534   0.619  -1.527
    1LIG    C11   15  -1.764   0.261  -1.471
    1LIG     F1   16  -1.739   0.155  -1.551
    1LIG    C12   17  -1.863   0.251  -1.380
    1LIG    C13   18  -1.945   0.132  -1.357
    1LIG    C14   19  -2.080   0.148  -1.292
    1LIG    C15   20  -1.967   0.086  -1.215
    1LIG    C16   21  -1.268   0.377  -1.538
    1LIG    C17   22  -1.240   0.408  -1.404
    1LIG    C18   23  -1.174   0.317  -1.319
    1LIG    C19   24  -1.133   0.193  -1.368
    1LIG    C20   25  -1.159   0.161  -1.502
    1LIG    C21   26  -1.227   0.251  -1.585
    1LIG     O2   27  -1.065   0.098  -1.298
    1LIG    C22   28  -0.973   0.021  -1.372
    1LIG     F2   29  -0.854   0.088  -1.373
    1LIG     F3   30  -0.950  -0.096  -1.307
    1LIG     N3   31  -1.226   0.479  -1.966
    1LIG     H1   32  -1.291   0.415  -2.011
    1LIG     H2   33  -1.204   0.560  -2.023
    1LIG    HN2   34  -1.415   0.498  -1.795
    1LIG     HC   35  -1.178   0.433  -1.805
    1LIG    HC1   36  -1.540   0.295  -1.626
    1LIG    HC2   37  -1.824   0.508  -1.387
    1LIG    HC3   38  -1.694   0.716  -1.420
    1LIG    HC4   39  -1.477   0.710  -1.539
    1LIG    HC5   40  -1.883   0.338  -1.319
    1LIG    HC6   41  -1.937   0.053  -1.431
    1LIG    HC7   42  -2.164   0.086  -1.325
    1LIG    HC8   43  -2.106   0.250  -1.263
    1LIG    HC9   44  -1.922   0.141  -1.132
    1LIG   HC10   45  -1.974  -0.021  -1.201
    1LIG   HC11   46  -1.270   0.504  -1.364
    1LIG   HC12   47  -1.155   0.343  -1.216
    1LIG   HC13   48  -1.127   0.066  -1.541
    1LIG   HC14   49  -1.248   0.223  -1.687
    1LIG   HC15   50  -1.009   0.003  -1.474
    1LIG    HN1   51  -1.139   0.427  -1.962
    1LIG   HC16   52  -1.061   0.751  -1.725
    1LIG   HC17   53  -0.998   0.613  -1.818
    1LIG   HC18   54  -1.104   0.732  -1.897
   0.00000   0.00000   0.00000
