GRoups of Organic Molecules in ACtion for Science
   58
    1LIG     C1    1  -1.305   0.301  -1.604
    1LIG     N1    2  -1.256   0.297  -1.745
    1LIG     C2    3  -1.234   0.426  -1.788
    1LIG     N2    4  -1.229   0.514  -1.687
    1LIG     C3    5  -1.247   0.442  -1.567
    1LIG     N3    6  -1.225   0.487  -1.449
    1LIG     HN    7  -1.236   0.428  -1.367
    1LIG     C4    8  -1.184   0.626  -1.437
    1LIG     C5    9  -1.261   0.707  -1.539
    1LIG     C6   10  -1.221   0.660  -1.680
    1LIG     N4   11  -1.222   0.458  -1.918
    1LIG     H1   12  -1.273   0.221  -1.809
    1LIG     H2   13  -1.231   0.389  -1.991
    1LIG     H3   14  -1.208   0.554  -1.947
    1LIG     C7   15  -1.458   0.301  -1.619
    1LIG     C8   16  -1.537   0.389  -1.543
    1LIG     C9   17  -1.676   0.386  -1.551
    1LIG    C10   18  -1.739   0.290  -1.633
    1LIG    C11   19  -1.662   0.203  -1.709
    1LIG    C12   20  -1.523   0.209  -1.704
    1LIG    C13   21  -1.762   0.485  -1.474
    1LIG    C14   22  -1.775   0.619  -1.543
    1LIG    C15   23  -1.868   0.637  -1.645
    1LIG    C16   24  -1.879   0.761  -1.709
    1LIG    C17   25  -1.796   0.865  -1.671
    1LIG      F   26  -1.805   0.984  -1.733
    1LIG    C18   27  -1.703   0.849  -1.569
    1LIG    C19   28  -1.692   0.726  -1.505
    1LIG    C20   29  -1.255   0.203  -1.501
    1LIG    C21   30  -1.287   0.201  -1.366
    1LIG    C22   31  -1.245   0.094  -1.286
    1LIG    C23   32  -1.173  -0.013  -1.340
    1LIG    C24   33  -1.140  -0.013  -1.475
    1LIG    C25   34  -1.178   0.095  -1.553
    1LIG     HC   35  -1.145   0.403  -1.573
    1LIG    HN2   36  -1.128   0.459  -1.457
    1LIG    HC2   37  -1.205   0.662  -1.337
    1LIG    HC3   38  -1.077   0.634  -1.457
    1LIG    HC4   39  -1.236   0.813  -1.528
    1LIG    HC5   40  -1.368   0.693  -1.525
    1LIG    HC6   41  -1.289   0.704  -1.753
    1LIG    HC7   42  -1.119   0.692  -1.702
    1LIG    HC1   43  -1.490   0.460  -1.477
    1LIG    HC8   44  -1.846   0.284  -1.637
    1LIG    HC9   45  -1.710   0.130  -1.773
    1LIG   HC10   46  -1.464   0.143  -1.766
    1LIG   HC11   47  -1.718   0.500  -1.376
    1LIG   HC12   48  -1.862   0.442  -1.461
    1LIG   HC13   49  -1.933   0.556  -1.675
    1LIG   HC14   50  -1.952   0.776  -1.788
    1LIG   HC15   51  -1.640   0.932  -1.539
    1LIG   HC16   52  -1.620   0.713  -1.425
    1LIG   HC17   53  -1.344   0.282  -1.322
    1LIG   HC18   54  -1.268   0.094  -1.181
    1LIG   HC19   55  -1.144  -0.096  -1.278
    1LIG   HC20   56  -1.085  -0.096  -1.518
    1LIG   HC21   57  -1.147   0.097  -1.656
    1LIG    H28   58  -1.126   0.411  -1.782
   0.00000   0.00000   0.00000
