; Created by cgenff_charmm2gmx.py

[ moleculetype ]
; Name			   nrexcl
LIG				 3

[ atoms ]
;	 nr		  type	resnr residue  atom   cgnr	   charge		mass  typeB    chargeB		massB
; residue	 1 LIG rtp LIG q	qsum
     1     CG3C31      1    LIG     C1      1     -0.003     12.011   ;
     2     CG3C31      1    LIG     C2      2     -0.180     12.011   ;
     3     CG3C31      1    LIG     C3      3     -0.058     12.011   ;
     4     CG2R61      1    LIG     C4      4     -0.038     12.011   ;
     5     CG2R61      1    LIG     C5      5     -0.117     12.011   ;
     6     CG2R61      1    LIG     C6      6     -0.011     12.011   ;
     7     CG2R61      1    LIG     C7      7     -0.120     12.011   ;
     8     CG2R61      1    LIG     C8      8     -0.113     12.011   ;
     9     CG2R61      1    LIG     C9      9     -0.113     12.011   ;
    10     CG2DC1      1    LIG    C10     10     -0.119     12.011   ;
    11     CG2DC1      1    LIG    C11     11     -0.119     12.011   ;
    12     CG2R61      1    LIG    C12     12     -0.011     12.011   ;
    13     CG2R61      1    LIG    C13     13     -0.120     12.011   ;
    14     CG2R61      1    LIG    C14     14     -0.113     12.011   ;
    15     CG2R61      1    LIG    C15     15     -0.116     12.011   ;
    16     CG2R61      1    LIG    C16     16     -0.113     12.011   ;
    17     CG2R61      1    LIG    C17     17     -0.120     12.011   ;
    18      CG301      1    LIG    C18     18      0.430     12.011   ;
    19      NG311      1    LIG     N1     19     -1.007     14.007   ;
    20      CG311      1    LIG    C19     20      0.501     12.011   ;
    21     HGPAM1      1    LIG     HN     21      0.358      1.008   ;
    22      NG2S0      1    LIG     N2     22     -0.076     14.007   ;
    23      CG2O1      1    LIG    C20     23      0.544     12.011   ;
    24      CG331      1    LIG    C21     24     -0.218     12.011   ;
    25      OG2D1      1    LIG      O     25     -0.532     15.999   ;
    26      CG321      1    LIG    C22     26     -0.312     12.011   ;
    27      CG331      1    LIG    C23     27     -0.298     12.011   ;
    28      NG321      1    LIG     N3     28     -1.116     14.007   ;
    29     HGPAM2      1    LIG     H1     29      0.416      1.008   ;
    30     HGPAM2      1    LIG     H2     30      0.416      1.008   ;
    31       HGA1      1    LIG     HC     31      0.090      1.008   ;
    32       HGA2      1    LIG    HC2     32      0.090      1.008   ;
    33       HGA2      1    LIG    HC3     33      0.090      1.008   ;
    34       HGA1      1    LIG    HC1     34      0.090      1.008   ;
    35      HGR61      1    LIG    HC4     35      0.116      1.008   ;
    36      HGR61      1    LIG    HC5     36      0.116      1.008   ;
    37      HGR61      1    LIG    HC6     37      0.116      1.008   ;
    38      HGR61      1    LIG    HC7     38      0.116      1.008   ;
    39       HGA4      1    LIG    HC8     39      0.132      1.008   ;
    40       HGA4      1    LIG    HC9     40      0.132      1.008   ;
    41      HGR61      1    LIG   HC10     41      0.116      1.008   ;
    42      HGR61      1    LIG   HC11     42      0.116      1.008   ;
    43      HGR61      1    LIG   HC12     43      0.116      1.008   ;
    44      HGR61      1    LIG   HC13     44      0.116      1.008   ;
    45      HGR61      1    LIG   HC14     45      0.116      1.008   ;
    46       HGA3      1    LIG   HC15     46      0.090      1.008   ;
    47       HGA3      1    LIG   HC16     47      0.090      1.008   ;
    48       HGA3      1    LIG   HC17     48      0.090      1.008   ;
    49       HGA2      1    LIG   HC18     49      0.090      1.008   ;
    50       HGA2      1    LIG   HC19     50      0.090      1.008   ;
    51       HGA3      1    LIG   HC20     51      0.090      1.008   ;
    52       HGA3      1    LIG   HC21     52      0.090      1.008   ;
    53       HGA3      1    LIG   HC22     53      0.090      1.008   ;
    54       HGA1      1    LIG    H27     54      0.090      1.008   ;

[ bonds ]
;	ai	  aj funct			  c0			c1			  c2			c3
    1     3	 1 ;      CG3C31     CG3C31
    1     2	 1 ;      CG3C31     CG3C31
    1    18	 1 ;      CG3C31      CG301
    1    31	 1 ;      CG3C31       HGA1
    2     3	 1 ;      CG3C31     CG3C31
    2    32	 1 ;      CG3C31       HGA2
    2    33	 1 ;      CG3C31       HGA2
    3     4	 1 ;      CG3C31     CG2R61
    3    34	 1 ;      CG3C31       HGA1
    4     9	 1 ;      CG2R61     CG2R61
    4     5	 1 ;      CG2R61     CG2R61
    5     6	 1 ;      CG2R61     CG2R61
    5    35	 1 ;      CG2R61      HGR61
    6     7	 1 ;      CG2R61     CG2R61
    6    10	 1 ;      CG2R61     CG2DC1
    7     8	 1 ;      CG2R61     CG2R61
    7    36	 1 ;      CG2R61      HGR61
    8     9	 1 ;      CG2R61     CG2R61
    8    37	 1 ;      CG2R61      HGR61
    9    38	 1 ;      CG2R61      HGR61
   10    11	 1 ;      CG2DC1     CG2DC1
   10    39	 1 ;      CG2DC1       HGA4
   11    12	 1 ;      CG2DC1     CG2R61
   11    40	 1 ;      CG2DC1       HGA4
   12    13	 1 ;      CG2R61     CG2R61
   12    17	 1 ;      CG2R61     CG2R61
   13    14	 1 ;      CG2R61     CG2R61
   13    41	 1 ;      CG2R61      HGR61
   14    15	 1 ;      CG2R61     CG2R61
   14    42	 1 ;      CG2R61      HGR61
   15    16	 1 ;      CG2R61     CG2R61
   15    43	 1 ;      CG2R61      HGR61
   16    17	 1 ;      CG2R61     CG2R61
   16    44	 1 ;      CG2R61      HGR61
   17    45	 1 ;      CG2R61      HGR61
   18    26	 1 ;       CG301      CG321
   18    27	 1 ;       CG301      CG331
   18    19	 1 ;       CG301      NG311
   19    21	 1 ;       NG311     HGPAM1
   19    20	 1 ;       NG311      CG311
   20    22	 1 ;       CG311      NG2S0
   20    28	 1 ;       CG311      NG321
   20    54	 1 ;       CG311       HGA1
   22    23	 1 ;       NG2S0      CG2O1
   22    24	 1 ;       NG2S0      CG331
   23    26	 1 ;       CG2O1      CG321
   23    25	 1 ;       CG2O1      OG2D1
   24    46	 1 ;       CG331       HGA3
   24    47	 1 ;       CG331       HGA3
   24    48	 1 ;       CG331       HGA3
   26    49	 1 ;       CG321       HGA2
   26    50	 1 ;       CG321       HGA2
   27    51	 1 ;       CG331       HGA3
   27    52	 1 ;       CG331       HGA3
   27    53	 1 ;       CG331       HGA3
   28    29	 1 ;       NG321     HGPAM2
   28    30	 1 ;       NG321     HGPAM2

[ pairs ]
;	ai	  aj funct			  c0			c1			  c2			c3
    1     9	 1
    1     5	 1
    1    23	 1
    1    49	 1
    1    50	 1
    1    51	 1
    1    52	 1
    1    53	 1
    1    21	 1
    1    20	 1
    2    26	 1
    2    27	 1
    2    19	 1
    2     9	 1
    2     5	 1
    3    26	 1
    3    27	 1
    3    19	 1
    3     8	 1
    3    38	 1
    3     6	 1
    3    35	 1
    4    18	 1
    4    31	 1
    4    32	 1
    4    33	 1
    4     7	 1
    4    10	 1
    4    37	 1
    5    34	 1
    5     8	 1
    5    38	 1
    5    36	 1
    5    11	 1
    5    39	 1
    6     9	 1
    6    37	 1
    6    12	 1
    6    40	 1
    7    35	 1
    7    11	 1
    7    39	 1
    7    38	 1
    8    10	 1
    9    34	 1
    9    35	 1
    9    36	 1
   10    35	 1
   10    36	 1
   10    13	 1
   10    17	 1
   11    14	 1
   11    41	 1
   11    16	 1
   11    45	 1
   12    39	 1
   12    15	 1
   12    42	 1
   12    44	 1
   13    40	 1
   13    16	 1
   13    45	 1
   13    43	 1
   14    17	 1
   14    44	 1
   15    41	 1
   15    45	 1
   16    42	 1
   17    40	 1
   17    41	 1
   17    43	 1
   18    34	 1
   18    32	 1
   18    33	 1
   18    22	 1
   18    28	 1
   18    54	 1
   18    25	 1
   19    31	 1
   19    23	 1
   19    49	 1
   19    50	 1
   19    51	 1
   19    52	 1
   19    53	 1
   19    24	 1
   19    29	 1
   19    30	 1
   20    26	 1
   20    27	 1
   20    25	 1
   20    46	 1
   20    47	 1
   20    48	 1
   21    26	 1
   21    27	 1
   21    22	 1
   21    28	 1
   21    54	 1
   22    29	 1
   22    30	 1
   22    49	 1
   22    50	 1
   23    27	 1
   23    28	 1
   23    54	 1
   23    46	 1
   23    47	 1
   23    48	 1
   24    28	 1
   24    54	 1
   24    26	 1
   24    25	 1
   25    49	 1
   25    50	 1
   26    31	 1
   26    51	 1
   26    52	 1
   26    53	 1
   27    31	 1
   27    49	 1
   27    50	 1
   29    54	 1
   30    54	 1
   31    34	 1
   31    32	 1
   31    33	 1
   32    34	 1
   33    34	 1
   36    37	 1
   37    38	 1
   39    40	 1
   41    42	 1
   42    43	 1
   43    44	 1
   44    45	 1

[ angles ]
;	ai	  aj	ak funct			c0			  c1			c2			  c3
    3     1     2	5 ;     CG3C31     CG3C31     CG3C31
    3     1    18	5 ;     CG3C31     CG3C31      CG301
    3     1    31	5 ;     CG3C31     CG3C31       HGA1
    2     1    18	5 ;     CG3C31     CG3C31      CG301
    2     1    31	5 ;     CG3C31     CG3C31       HGA1
   18     1    31	5 ;      CG301     CG3C31       HGA1
    3     2     1	5 ;     CG3C31     CG3C31     CG3C31
    3     2    32	5 ;     CG3C31     CG3C31       HGA2
    3     2    33	5 ;     CG3C31     CG3C31       HGA2
    1     2    32	5 ;     CG3C31     CG3C31       HGA2
    1     2    33	5 ;     CG3C31     CG3C31       HGA2
   32     2    33	5 ;       HGA2     CG3C31       HGA2
    4     3     2	5 ;     CG2R61     CG3C31     CG3C31
    4     3     1	5 ;     CG2R61     CG3C31     CG3C31
    4     3    34	5 ;     CG2R61     CG3C31       HGA1
    2     3     1	5 ;     CG3C31     CG3C31     CG3C31
    2     3    34	5 ;     CG3C31     CG3C31       HGA1
    1     3    34	5 ;     CG3C31     CG3C31       HGA1
    9     4     5	5 ;     CG2R61     CG2R61     CG2R61
    9     4     3	5 ;     CG2R61     CG2R61     CG3C31
    5     4     3	5 ;     CG2R61     CG2R61     CG3C31
    6     5     4	5 ;     CG2R61     CG2R61     CG2R61
    6     5    35	5 ;     CG2R61     CG2R61      HGR61
    4     5    35	5 ;     CG2R61     CG2R61      HGR61
    7     6    10	5 ;     CG2R61     CG2R61     CG2DC1
    7     6     5	5 ;     CG2R61     CG2R61     CG2R61
   10     6     5	5 ;     CG2DC1     CG2R61     CG2R61
    8     7     6	5 ;     CG2R61     CG2R61     CG2R61
    8     7    36	5 ;     CG2R61     CG2R61      HGR61
    6     7    36	5 ;     CG2R61     CG2R61      HGR61
    7     8     9	5 ;     CG2R61     CG2R61     CG2R61
    7     8    37	5 ;     CG2R61     CG2R61      HGR61
    9     8    37	5 ;     CG2R61     CG2R61      HGR61
    8     9     4	5 ;     CG2R61     CG2R61     CG2R61
    8     9    38	5 ;     CG2R61     CG2R61      HGR61
    4     9    38	5 ;     CG2R61     CG2R61      HGR61
   11    10     6	5 ;     CG2DC1     CG2DC1     CG2R61
   11    10    39	5 ;     CG2DC1     CG2DC1       HGA4
    6    10    39	5 ;     CG2R61     CG2DC1       HGA4
   12    11    10	5 ;     CG2R61     CG2DC1     CG2DC1
   12    11    40	5 ;     CG2R61     CG2DC1       HGA4
   10    11    40	5 ;     CG2DC1     CG2DC1       HGA4
   13    12    17	5 ;     CG2R61     CG2R61     CG2R61
   13    12    11	5 ;     CG2R61     CG2R61     CG2DC1
   17    12    11	5 ;     CG2R61     CG2R61     CG2DC1
   14    13    12	5 ;     CG2R61     CG2R61     CG2R61
   14    13    41	5 ;     CG2R61     CG2R61      HGR61
   12    13    41	5 ;     CG2R61     CG2R61      HGR61
   15    14    13	5 ;     CG2R61     CG2R61     CG2R61
   15    14    42	5 ;     CG2R61     CG2R61      HGR61
   13    14    42	5 ;     CG2R61     CG2R61      HGR61
   14    15    16	5 ;     CG2R61     CG2R61     CG2R61
   14    15    43	5 ;     CG2R61     CG2R61      HGR61
   16    15    43	5 ;     CG2R61     CG2R61      HGR61
   15    16    17	5 ;     CG2R61     CG2R61     CG2R61
   15    16    44	5 ;     CG2R61     CG2R61      HGR61
   17    16    44	5 ;     CG2R61     CG2R61      HGR61
   16    17    12	5 ;     CG2R61     CG2R61     CG2R61
   16    17    45	5 ;     CG2R61     CG2R61      HGR61
   12    17    45	5 ;     CG2R61     CG2R61      HGR61
    1    18    26	5 ;     CG3C31      CG301      CG321
    1    18    27	5 ;     CG3C31      CG301      CG331
    1    18    19	5 ;     CG3C31      CG301      NG311
   26    18    27	5 ;      CG321      CG301      CG331
   26    18    19	5 ;      CG321      CG301      NG311
   27    18    19	5 ;      CG331      CG301      NG311
   18    19    21	5 ;      CG301      NG311     HGPAM1
   18    19    20	5 ;      CG301      NG311      CG311
   21    19    20	5 ;     HGPAM1      NG311      CG311
   19    20    22	5 ;      NG311      CG311      NG2S0
   19    20    28	5 ;      NG311      CG311      NG321
   19    20    54	5 ;      NG311      CG311       HGA1
   22    20    28	5 ;      NG2S0      CG311      NG321
   22    20    54	5 ;      NG2S0      CG311       HGA1
   28    20    54	5 ;      NG321      CG311       HGA1
   23    22    20	5 ;      CG2O1      NG2S0      CG311
   23    22    24	5 ;      CG2O1      NG2S0      CG331
   20    22    24	5 ;      CG311      NG2S0      CG331
   26    23    25	5 ;      CG321      CG2O1      OG2D1
   26    23    22	5 ;      CG321      CG2O1      NG2S0
   25    23    22	5 ;      OG2D1      CG2O1      NG2S0
   22    24    46	5 ;      NG2S0      CG331       HGA3
   22    24    47	5 ;      NG2S0      CG331       HGA3
   22    24    48	5 ;      NG2S0      CG331       HGA3
   46    24    47	5 ;       HGA3      CG331       HGA3
   46    24    48	5 ;       HGA3      CG331       HGA3
   47    24    48	5 ;       HGA3      CG331       HGA3
   18    26    23	5 ;      CG301      CG321      CG2O1
   18    26    49	5 ;      CG301      CG321       HGA2
   18    26    50	5 ;      CG301      CG321       HGA2
   23    26    49	5 ;      CG2O1      CG321       HGA2
   23    26    50	5 ;      CG2O1      CG321       HGA2
   49    26    50	5 ;       HGA2      CG321       HGA2
   18    27    51	5 ;      CG301      CG331       HGA3
   18    27    52	5 ;      CG301      CG331       HGA3
   18    27    53	5 ;      CG301      CG331       HGA3
   51    27    52	5 ;       HGA3      CG331       HGA3
   51    27    53	5 ;       HGA3      CG331       HGA3
   52    27    53	5 ;       HGA3      CG331       HGA3
   20    28    29	5 ;      CG311      NG321     HGPAM2
   20    28    30	5 ;      CG311      NG321     HGPAM2
   29    28    30	5 ;     HGPAM2      NG321     HGPAM2

[ dihedrals ]
;	ai	  aj	ak	  al funct			  c0			c1			  c2			c3			  c4			c5
    2     1     3     4	 9 ;     CG3C31     CG3C31     CG3C31     CG2R61
    2     1     3    34	 9 ;     CG3C31     CG3C31     CG3C31       HGA1
   18     1     3     4	 9 ;      CG301     CG3C31     CG3C31     CG2R61
   18     1     3     2	 9 ;      CG301     CG3C31     CG3C31     CG3C31
   18     1     3    34	 9 ;      CG301     CG3C31     CG3C31       HGA1
   31     1     3     4	 9 ;       HGA1     CG3C31     CG3C31     CG2R61
   31     1     3     2	 9 ;       HGA1     CG3C31     CG3C31     CG3C31
   31     1     3    34	 9 ;       HGA1     CG3C31     CG3C31       HGA1
    3     1     2    32	 9 ;     CG3C31     CG3C31     CG3C31       HGA2
    3     1     2    33	 9 ;     CG3C31     CG3C31     CG3C31       HGA2
   18     1     2     3	 9 ;      CG301     CG3C31     CG3C31     CG3C31
   18     1     2    32	 9 ;      CG301     CG3C31     CG3C31       HGA2
   18     1     2    33	 9 ;      CG301     CG3C31     CG3C31       HGA2
   31     1     2     3	 9 ;       HGA1     CG3C31     CG3C31     CG3C31
   31     1     2    32	 9 ;       HGA1     CG3C31     CG3C31       HGA2
   31     1     2    33	 9 ;       HGA1     CG3C31     CG3C31       HGA2
    3     1    18    26	 9 ;     CG3C31     CG3C31      CG301      CG321
    3     1    18    27	 9 ;     CG3C31     CG3C31      CG301      CG331
    3     1    18    19	 9 ;     CG3C31     CG3C31      CG301      NG311
    2     1    18    26	 9 ;     CG3C31     CG3C31      CG301      CG321
    2     1    18    27	 9 ;     CG3C31     CG3C31      CG301      CG331
    2     1    18    19	 9 ;     CG3C31     CG3C31      CG301      NG311
   31     1    18    26	 9 ;       HGA1     CG3C31      CG301      CG321
   31     1    18    27	 9 ;       HGA1     CG3C31      CG301      CG331
   31     1    18    19	 9 ;       HGA1     CG3C31      CG301      NG311
    1     2     3     4	 9 ;     CG3C31     CG3C31     CG3C31     CG2R61
    1     2     3    34	 9 ;     CG3C31     CG3C31     CG3C31       HGA1
   32     2     3     4	 9 ;       HGA2     CG3C31     CG3C31     CG2R61
   32     2     3     1	 9 ;       HGA2     CG3C31     CG3C31     CG3C31
   32     2     3    34	 9 ;       HGA2     CG3C31     CG3C31       HGA1
   33     2     3     4	 9 ;       HGA2     CG3C31     CG3C31     CG2R61
   33     2     3     1	 9 ;       HGA2     CG3C31     CG3C31     CG3C31
   33     2     3    34	 9 ;       HGA2     CG3C31     CG3C31       HGA1
    2     3     4     9	 9 ;     CG3C31     CG3C31     CG2R61     CG2R61
    2     3     4     5	 9 ;     CG3C31     CG3C31     CG2R61     CG2R61
    1     3     4     9	 9 ;     CG3C31     CG3C31     CG2R61     CG2R61
    1     3     4     5	 9 ;     CG3C31     CG3C31     CG2R61     CG2R61
   34     3     4     9	 9 ;       HGA1     CG3C31     CG2R61     CG2R61
   34     3     4     5	 9 ;       HGA1     CG3C31     CG2R61     CG2R61
    5     4     9     8	 9 ;     CG2R61     CG2R61     CG2R61     CG2R61
    5     4     9    38	 9 ;     CG2R61     CG2R61     CG2R61      HGR61
    3     4     9     8	 9 ;     CG3C31     CG2R61     CG2R61     CG2R61
    3     4     9    38	 9 ;     CG3C31     CG2R61     CG2R61      HGR61
    9     4     5     6	 9 ;     CG2R61     CG2R61     CG2R61     CG2R61
    9     4     5    35	 9 ;     CG2R61     CG2R61     CG2R61      HGR61
    3     4     5     6	 9 ;     CG3C31     CG2R61     CG2R61     CG2R61
    3     4     5    35	 9 ;     CG3C31     CG2R61     CG2R61      HGR61
    4     5     6     7	 9 ;     CG2R61     CG2R61     CG2R61     CG2R61
    4     5     6    10	 9 ;     CG2R61     CG2R61     CG2R61     CG2DC1
   35     5     6     7	 9 ;      HGR61     CG2R61     CG2R61     CG2R61
   35     5     6    10	 9 ;      HGR61     CG2R61     CG2R61     CG2DC1
   10     6     7     8	 9 ;     CG2DC1     CG2R61     CG2R61     CG2R61
   10     6     7    36	 9 ;     CG2DC1     CG2R61     CG2R61      HGR61
    5     6     7     8	 9 ;     CG2R61     CG2R61     CG2R61     CG2R61
    5     6     7    36	 9 ;     CG2R61     CG2R61     CG2R61      HGR61
    7     6    10    11	 9 ;     CG2R61     CG2R61     CG2DC1     CG2DC1
    7     6    10    39	 9 ;     CG2R61     CG2R61     CG2DC1       HGA4
    5     6    10    11	 9 ;     CG2R61     CG2R61     CG2DC1     CG2DC1
    5     6    10    39	 9 ;     CG2R61     CG2R61     CG2DC1       HGA4
    6     7     8     9	 9 ;     CG2R61     CG2R61     CG2R61     CG2R61
    6     7     8    37	 9 ;     CG2R61     CG2R61     CG2R61      HGR61
   36     7     8     9	 9 ;      HGR61     CG2R61     CG2R61     CG2R61
   36     7     8    37	 9 ;      HGR61     CG2R61     CG2R61      HGR61
    7     8     9     4	 9 ;     CG2R61     CG2R61     CG2R61     CG2R61
    7     8     9    38	 9 ;     CG2R61     CG2R61     CG2R61      HGR61
   37     8     9     4	 9 ;      HGR61     CG2R61     CG2R61     CG2R61
   37     8     9    38	 9 ;      HGR61     CG2R61     CG2R61      HGR61
    6    10    11    12	 9 ;     CG2R61     CG2DC1     CG2DC1     CG2R61
    6    10    11    40	 9 ;     CG2R61     CG2DC1     CG2DC1       HGA4
   39    10    11    12	 9 ;       HGA4     CG2DC1     CG2DC1     CG2R61
   39    10    11    40	 9 ;       HGA4     CG2DC1     CG2DC1       HGA4
   10    11    12    13	 9 ;     CG2DC1     CG2DC1     CG2R61     CG2R61
   10    11    12    17	 9 ;     CG2DC1     CG2DC1     CG2R61     CG2R61
   40    11    12    13	 9 ;       HGA4     CG2DC1     CG2R61     CG2R61
   40    11    12    17	 9 ;       HGA4     CG2DC1     CG2R61     CG2R61
   17    12    13    14	 9 ;     CG2R61     CG2R61     CG2R61     CG2R61
   17    12    13    41	 9 ;     CG2R61     CG2R61     CG2R61      HGR61
   11    12    13    14	 9 ;     CG2DC1     CG2R61     CG2R61     CG2R61
   11    12    13    41	 9 ;     CG2DC1     CG2R61     CG2R61      HGR61
   13    12    17    16	 9 ;     CG2R61     CG2R61     CG2R61     CG2R61
   13    12    17    45	 9 ;     CG2R61     CG2R61     CG2R61      HGR61
   11    12    17    16	 9 ;     CG2DC1     CG2R61     CG2R61     CG2R61
   11    12    17    45	 9 ;     CG2DC1     CG2R61     CG2R61      HGR61
   12    13    14    15	 9 ;     CG2R61     CG2R61     CG2R61     CG2R61
   12    13    14    42	 9 ;     CG2R61     CG2R61     CG2R61      HGR61
   41    13    14    15	 9 ;      HGR61     CG2R61     CG2R61     CG2R61
   41    13    14    42	 9 ;      HGR61     CG2R61     CG2R61      HGR61
   13    14    15    16	 9 ;     CG2R61     CG2R61     CG2R61     CG2R61
   13    14    15    43	 9 ;     CG2R61     CG2R61     CG2R61      HGR61
   42    14    15    16	 9 ;      HGR61     CG2R61     CG2R61     CG2R61
   42    14    15    43	 9 ;      HGR61     CG2R61     CG2R61      HGR61
   14    15    16    17	 9 ;     CG2R61     CG2R61     CG2R61     CG2R61
   14    15    16    44	 9 ;     CG2R61     CG2R61     CG2R61      HGR61
   43    15    16    17	 9 ;      HGR61     CG2R61     CG2R61     CG2R61
   43    15    16    44	 9 ;      HGR61     CG2R61     CG2R61      HGR61
   15    16    17    12	 9 ;     CG2R61     CG2R61     CG2R61     CG2R61
   15    16    17    45	 9 ;     CG2R61     CG2R61     CG2R61      HGR61
   44    16    17    12	 9 ;      HGR61     CG2R61     CG2R61     CG2R61
   44    16    17    45	 9 ;      HGR61     CG2R61     CG2R61      HGR61
    1    18    26    23	 9 ;     CG3C31      CG301      CG321      CG2O1
    1    18    26    49	 9 ;     CG3C31      CG301      CG321       HGA2
    1    18    26    50	 9 ;     CG3C31      CG301      CG321       HGA2
   27    18    26    23	 9 ;      CG331      CG301      CG321      CG2O1
   27    18    26    49	 9 ;      CG331      CG301      CG321       HGA2
   27    18    26    50	 9 ;      CG331      CG301      CG321       HGA2
   19    18    26    23	 9 ;      NG311      CG301      CG321      CG2O1
   19    18    26    49	 9 ;      NG311      CG301      CG321       HGA2
   19    18    26    50	 9 ;      NG311      CG301      CG321       HGA2
    1    18    27    51	 9 ;     CG3C31      CG301      CG331       HGA3
    1    18    27    52	 9 ;     CG3C31      CG301      CG331       HGA3
    1    18    27    53	 9 ;     CG3C31      CG301      CG331       HGA3
   26    18    27    51	 9 ;      CG321      CG301      CG331       HGA3
   26    18    27    52	 9 ;      CG321      CG301      CG331       HGA3
   26    18    27    53	 9 ;      CG321      CG301      CG331       HGA3
   19    18    27    51	 9 ;      NG311      CG301      CG331       HGA3
   19    18    27    52	 9 ;      NG311      CG301      CG331       HGA3
   19    18    27    53	 9 ;      NG311      CG301      CG331       HGA3
    1    18    19    21	 9 ;     CG3C31      CG301      NG311     HGPAM1
    1    18    19    20	 9 ;     CG3C31      CG301      NG311      CG311
   26    18    19    21	 9 ;      CG321      CG301      NG311     HGPAM1
   26    18    19    20	 9 ;      CG321      CG301      NG311      CG311
   27    18    19    21	 9 ;      CG331      CG301      NG311     HGPAM1
   27    18    19    20	 9 ;      CG331      CG301      NG311      CG311
   18    19    20    22	 9 ;      CG301      NG311      CG311      NG2S0
   18    19    20    28	 9 ;      CG301      NG311      CG311      NG321
   18    19    20    54	 9 ;      CG301      NG311      CG311       HGA1
   21    19    20    22	 9 ;     HGPAM1      NG311      CG311      NG2S0
   21    19    20    28	 9 ;     HGPAM1      NG311      CG311      NG321
   21    19    20    54	 9 ;     HGPAM1      NG311      CG311       HGA1
   19    20    22    23	 9 ;      NG311      CG311      NG2S0      CG2O1
   19    20    22    24	 9 ;      NG311      CG311      NG2S0      CG331
   28    20    22    23	 9 ;      NG321      CG311      NG2S0      CG2O1
   28    20    22    24	 9 ;      NG321      CG311      NG2S0      CG331
   54    20    22    23	 9 ;       HGA1      CG311      NG2S0      CG2O1
   54    20    22    24	 9 ;       HGA1      CG311      NG2S0      CG331
   19    20    28    29	 9 ;      NG311      CG311      NG321     HGPAM2
   19    20    28    30	 9 ;      NG311      CG311      NG321     HGPAM2
   22    20    28    29	 9 ;      NG2S0      CG311      NG321     HGPAM2
   22    20    28    30	 9 ;      NG2S0      CG311      NG321     HGPAM2
   54    20    28    29	 9 ;       HGA1      CG311      NG321     HGPAM2
   54    20    28    30	 9 ;       HGA1      CG311      NG321     HGPAM2
   20    22    23    26	 9 ;      CG311      NG2S0      CG2O1      CG321
   20    22    23    25	 9 ;      CG311      NG2S0      CG2O1      OG2D1
   24    22    23    26	 9 ;      CG331      NG2S0      CG2O1      CG321
   24    22    23    25	 9 ;      CG331      NG2S0      CG2O1      OG2D1
   23    22    24    46	 9 ;      CG2O1      NG2S0      CG331       HGA3
   23    22    24    47	 9 ;      CG2O1      NG2S0      CG331       HGA3
   23    22    24    48	 9 ;      CG2O1      NG2S0      CG331       HGA3
   20    22    24    46	 9 ;      CG311      NG2S0      CG331       HGA3
   20    22    24    47	 9 ;      CG311      NG2S0      CG331       HGA3
   20    22    24    48	 9 ;      CG311      NG2S0      CG331       HGA3
   25    23    26    18	 9 ;      OG2D1      CG2O1      CG321      CG301
   25    23    26    49	 9 ;      OG2D1      CG2O1      CG321       HGA2
   25    23    26    50	 9 ;      OG2D1      CG2O1      CG321       HGA2
   22    23    26    18	 9 ;      NG2S0      CG2O1      CG321      CG301
   22    23    26    49	 9 ;      NG2S0      CG2O1      CG321       HGA2
   22    23    26    50	 9 ;      NG2S0      CG2O1      CG321       HGA2

[ dihedrals ]
;	ai	  aj	ak	  al funct			  c0			c1			  c2			c3
   23    26    22    25	 2

