Good ROcking Metal Altar for Chronical Sinners
   54
    1LIG     C1    1  -1.932   0.317  -1.446
    1LIG     C2    2  -1.852   0.416  -1.364
    1LIG     C3    3  -1.855   0.429  -1.514
    1LIG     C4    4  -1.737   0.395  -1.602
    1LIG     C5    5  -1.616   0.354  -1.543
    1LIG     C6    6  -1.508   0.306  -1.617
    1LIG     C7    7  -1.521   0.299  -1.757
    1LIG     C8    8  -1.637   0.343  -1.819
    1LIG     C9    9  -1.744   0.391  -1.742
    1LIG    C10   10  -1.391   0.254  -1.545
    1LIG    C11   11  -1.331   0.137  -1.571
    1LIG    C12   12  -1.215   0.085  -1.496
    1LIG    C13   13  -1.124   0.169  -1.431
    1LIG    C14   14  -1.018   0.115  -1.355
    1LIG    C15   15  -1.004  -0.023  -1.344
    1LIG    C16   16  -1.095  -0.108  -1.408
    1LIG    C17   17  -1.200  -0.054  -1.483
    1LIG    C18   18  -2.085   0.313  -1.439
    1LIG     N1   19  -2.125   0.199  -1.358
    1LIG    C19   20  -2.206   0.108  -1.396
    1LIG     HN   21  -2.086   0.191  -1.264
    1LIG     N2   22  -2.266   0.108  -1.520
    1LIG    C20   23  -2.240   0.205  -1.614
    1LIG    C21   24  -2.358   0.001  -1.557
    1LIG      O   25  -2.293   0.206  -1.726
    1LIG    C22   26  -2.139   0.311  -1.582
    1LIG    C23   27  -2.133   0.439  -1.363
    1LIG     N3   28  -2.233   0.010  -1.307
    1LIG     H1   29  -2.266  -0.081  -1.338
    1LIG     H2   30  -2.277   0.043  -1.222
    1LIG     HC   31  -1.885   0.219  -1.455
    1LIG    HC2   32  -1.760   0.384  -1.314
    1LIG    HC3   33  -1.911   0.490  -1.310
    1LIG    HC1   34  -1.916   0.511  -1.551
    1LIG    HC4   35  -1.607   0.360  -1.435
    1LIG    HC5   36  -1.440   0.260  -1.816
    1LIG    HC6   37  -1.645   0.341  -1.926
    1LIG    HC7   38  -1.834   0.424  -1.791
    1LIG    HC8   39  -1.351   0.314  -1.465
    1LIG    HC9   40  -1.369   0.077  -1.652
    1LIG   HC10   41  -1.134   0.276  -1.438
    1LIG   HC11   42  -0.948   0.181  -1.306
    1LIG   HC12   43  -0.923  -0.064  -1.286
    1LIG   HC13   44  -1.084  -0.215  -1.399
    1LIG   HC14   45  -1.270  -0.120  -1.532
    1LIG   HC15   46  -2.395   0.018  -1.659
    1LIG   HC16   47  -2.307  -0.095  -1.553
    1LIG   HC17   48  -2.443   0.000  -1.488
    1LIG   HC18   49  -2.187   0.407  -1.600
    1LIG   HC19   50  -2.056   0.300  -1.651
    1LIG   HC20   51  -2.242   0.444  -1.366
    1LIG   HC21   52  -2.099   0.434  -1.260
    1LIG   HC22   53  -2.092   0.528  -1.411
    1LIG    H27   54  -2.123   0.050  -1.436
   0.00000   0.00000   0.00000
