; Created by cgenff_charmm2gmx.py

[ moleculetype ]
; Name			   nrexcl
LIG				 3

[ atoms ]
;	 nr		  type	resnr residue  atom   cgnr	   charge		mass  typeB    chargeB		massB
; residue	 1 LIG rtp LIG q	qsum
     1      NG2P1      1    LIG     N1      1     -0.615     14.007   ;
     2      CG2N1      1    LIG     C1      2      0.677     12.011   ;
     3      NG2P1      1    LIG     N2      3     -0.707     14.007   ;
     4      NG2P1      1    LIG     N3      4     -0.728     14.007   ;
     5      CG2O1      1    LIG     C2      5      0.797     12.011   ;
     6      OG2D1      1    LIG     O1      6     -0.505     15.999   ;
     7       HGP2      1    LIG     H1      7      0.402      1.008   ;
     8       HGP2      1    LIG     H2      8      0.424      1.008   ;
     9       HGP2      1    LIG     H3      9      0.424      1.008   ;
    10       HGP2      1    LIG     H4     10      0.476      1.008   ;
    11      CG324      1    LIG     C3     11      0.193     12.011   ;
    12     CG2R61      1    LIG     C4     12      0.006     12.011   ;
    13     CG2R61      1    LIG     C5     13     -0.100     12.011   ;
    14     CG2R61      1    LIG     C6     14      0.025     12.011   ;
    15      CLGR1      1    LIG    CL1     15     -0.188     35.453   ;
    16     CG2R61      1    LIG     C7     16      0.296     12.011   ;
    17     CG2R61      1    LIG     C8     17      0.025     12.011   ;
    18     CG2R61      1    LIG     C9     18     -0.100     12.011   ;
    19      CLGR1      1    LIG    CL2     19     -0.188     35.453   ;
    20      NG2S1      1    LIG     N4     20     -0.508     14.007   ;
    21      CG2O1      1    LIG    C10     21      0.543     12.011   ;
    22      OG2D1      1    LIG     O2     22     -0.519     15.999   ;
    23       HGP1      1    LIG     H5     23      0.329      1.008   ;
    24      CG311      1    LIG    C11     24     -0.101     12.011   ;
    25      CG331      1    LIG    C12     25     -0.269     12.011   ;
    26      CG331      1    LIG    C13     26     -0.269     12.011   ;
    27      CG321      1    LIG    C14     27     -0.060     12.011   ;
    28     NG2R51      1    LIG     N5     28     -0.278     14.007   ;
    29     CG2RC0      1    LIG    C15     29      0.316     12.011   ;
    30     CG2RC0      1    LIG    C16     30      0.099     12.011   ;
    31     CG2R61      1    LIG    C17     31     -0.258     12.011   ;
    32     CG2R61      1    LIG    C18     32     -0.258     12.011   ;
    33     CG2R51      1    LIG    C19     33     -0.302     12.011   ;
    34     CG2R61      1    LIG    C20     34     -0.205     12.011   ;
    35     CG2R61      1    LIG    C21     35     -0.177     12.011   ;
    36     CG2R51      1    LIG    C22     36     -0.071     12.011   ;
    37       HGA2      1    LIG    HC2     37      0.090      1.008   ;
    38       HGA2      1    LIG    HC3     38      0.090      1.008   ;
    39      HGR62      1    LIG     HC     39      0.150      1.008   ;
    40      HGR62      1    LIG    HC1     40      0.150      1.008   ;
    41       HGA1      1    LIG    HC4     41      0.090      1.008   ;
    42       HGA3      1    LIG    HC5     42      0.090      1.008   ;
    43       HGA3      1    LIG    HC6     43      0.090      1.008   ;
    44       HGA3      1    LIG    HC7     44      0.090      1.008   ;
    45       HGA3      1    LIG    HC8     45      0.090      1.008   ;
    46       HGA3      1    LIG    HC9     46      0.090      1.008   ;
    47       HGA3      1    LIG   HC10     47      0.090      1.008   ;
    48       HGA2      1    LIG   HC11     48      0.090      1.008   ;
    49       HGA2      1    LIG   HC12     49      0.090      1.008   ;
    50      HGR61      1    LIG   HC13     50      0.184      1.008   ;
    51      HGR61      1    LIG   HC14     51      0.197      1.008   ;
    52      HGR51      1    LIG   HC15     52      0.187      1.008   ;
    53      HGR61      1    LIG   HC16     53      0.134      1.008   ;
    54      HGR61      1    LIG   HC17     54      0.134      1.008   ;
    55      HGR52      1    LIG   HC18     55      0.148      1.008   ;
    56        LPH      1    LIG    LP1     56      0.050      0.000   ;
    57        LPH      1    LIG    LP2     57      0.050      0.000   ;

[ bonds ]
;	ai	  aj funct			  c0			c1			  c2			c3
    1     2	 1 ;       NG2P1      CG2N1
    1     7	 1 ;       NG2P1       HGP2
    1    11	 1 ;       NG2P1      CG324
    2     4	 1 ;       CG2N1      NG2P1
    2     3	 1 ;       CG2N1      NG2P1
    3     8	 1 ;       NG2P1       HGP2
    3     9	 1 ;       NG2P1       HGP2
    4     5	 1 ;       NG2P1      CG2O1
    4    10	 1 ;       NG2P1       HGP2
    5     6	 1 ;       CG2O1      OG2D1
    5    27	 1 ;       CG2O1      CG321
   11    12	 1 ;       CG324     CG2R61
   11    37	 1 ;       CG324       HGA2
   11    38	 1 ;       CG324       HGA2
   12    18	 1 ;      CG2R61     CG2R61
   12    13	 1 ;      CG2R61     CG2R61
   13    14	 1 ;      CG2R61     CG2R61
   13    39	 1 ;      CG2R61      HGR62
   14    16	 1 ;      CG2R61     CG2R61
   14    15	 1 ;      CG2R61      CLGR1
   16    17	 1 ;      CG2R61     CG2R61
   16    20	 1 ;      CG2R61      NG2S1
   17    18	 1 ;      CG2R61     CG2R61
   17    19	 1 ;      CG2R61      CLGR1
   18    40	 1 ;      CG2R61      HGR62
   20    23	 1 ;       NG2S1       HGP1
   20    21	 1 ;       NG2S1      CG2O1
   21    22	 1 ;       CG2O1      OG2D1
   21    24	 1 ;       CG2O1      CG311
   24    26	 1 ;       CG311      CG331
   24    25	 1 ;       CG311      CG331
   24    41	 1 ;       CG311       HGA1
   25    42	 1 ;       CG331       HGA3
   25    43	 1 ;       CG331       HGA3
   25    44	 1 ;       CG331       HGA3
   26    45	 1 ;       CG331       HGA3
   26    46	 1 ;       CG331       HGA3
   26    47	 1 ;       CG331       HGA3
   27    28	 1 ;       CG321     NG2R51
   27    48	 1 ;       CG321       HGA2
   27    49	 1 ;       CG321       HGA2
   28    29	 1 ;      NG2R51     CG2RC0
   28    36	 1 ;      NG2R51     CG2R51
   29    31	 1 ;      CG2RC0     CG2R61
   29    30	 1 ;      CG2RC0     CG2RC0
   30    33	 1 ;      CG2RC0     CG2R51
   30    32	 1 ;      CG2RC0     CG2R61
   31    35	 1 ;      CG2R61     CG2R61
   31    50	 1 ;      CG2R61      HGR61
   32    34	 1 ;      CG2R61     CG2R61
   32    51	 1 ;      CG2R61      HGR61
   33    36	 1 ;      CG2R51     CG2R51
   33    52	 1 ;      CG2R51      HGR51
   34    35	 1 ;      CG2R61     CG2R61
   34    53	 1 ;      CG2R61      HGR61
   35    54	 1 ;      CG2R61      HGR61
   36    55	 1 ;      CG2R51      HGR52

[ pairs ]
;	ai	  aj funct			  c0			c1			  c2			c3
    1     5	 1
    1    10	 1
    1     8	 1
    1     9	 1
    1    18	 1
    1    13	 1
    2    12	 1
    2    37	 1
    2    38	 1
    2     6	 1
    2    27	 1
    3     7	 1
    3    11	 1
    3     5	 1
    3    10	 1
    4     7	 1
    4    11	 1
    4     8	 1
    4     9	 1
    4    28	 1
    4    48	 1
    4    49	 1
    5    29	 1
    5    36	 1
    6    10	 1
    6    28	 1
    6    48	 1
    6    49	 1
    7    12	 1
    7    37	 1
    7    38	 1
   10    27	 1
   11    17	 1
   11    40	 1
   11    14	 1
   11    39	 1
   12    16	 1
   12    15	 1
   56    12	 1
   12    19	 1
   57    12	 1
   13    37	 1
   13    38	 1
   13    17	 1
   13    40	 1
   13    20	 1
   14    18	 1
   14    19	 1
   57    14	 1
   14    23	 1
   14    21	 1
   15    39	 1
   56    39	 1
   15    17	 1
   56    17	 1
   15    20	 1
   56    20	 1
   16    39	 1
   16    40	 1
   16    22	 1
   16    24	 1
   17    23	 1
   17    21	 1
   18    37	 1
   18    38	 1
   18    39	 1
   18    20	 1
   19    20	 1
   57    20	 1
   19    40	 1
   57    40	 1
   20    26	 1
   20    25	 1
   20    41	 1
   21    45	 1
   21    46	 1
   21    47	 1
   21    42	 1
   21    43	 1
   21    44	 1
   22    23	 1
   22    26	 1
   22    25	 1
   22    41	 1
   23    24	 1
   25    45	 1
   25    46	 1
   25    47	 1
   26    42	 1
   26    43	 1
   26    44	 1
   27    31	 1
   27    30	 1
   27    33	 1
   27    55	 1
   28    35	 1
   28    50	 1
   28    32	 1
   28    52	 1
   29    48	 1
   29    49	 1
   29    55	 1
   29    52	 1
   29    34	 1
   29    51	 1
   29    54	 1
   30    35	 1
   30    50	 1
   30    53	 1
   30    55	 1
   31    36	 1
   31    33	 1
   31    32	 1
   31    53	 1
   32    36	 1
   32    52	 1
   32    54	 1
   33    34	 1
   33    51	 1
   34    50	 1
   35    51	 1
   36    48	 1
   36    49	 1
   41    45	 1
   41    46	 1
   41    47	 1
   41    42	 1
   41    43	 1
   41    44	 1
   50    54	 1
   51    53	 1
   52    55	 1
   53    54	 1

[ angles ]
;	ai	  aj	ak funct			c0			  c1			c2			  c3
    2     1     7	5 ;      CG2N1      NG2P1       HGP2
    2     1    11	5 ;      CG2N1      NG2P1      CG324
    7     1    11	5 ;       HGP2      NG2P1      CG324
    4     2     3	5 ;      NG2P1      CG2N1      NG2P1
    4     2     1	5 ;      NG2P1      CG2N1      NG2P1
    3     2     1	5 ;      NG2P1      CG2N1      NG2P1
    8     3     2	5 ;       HGP2      NG2P1      CG2N1
    8     3     9	5 ;       HGP2      NG2P1       HGP2
    2     3     9	5 ;      CG2N1      NG2P1       HGP2
    5     4    10	5 ;      CG2O1      NG2P1       HGP2
    5     4     2	5 ;      CG2O1      NG2P1      CG2N1
   10     4     2	5 ;       HGP2      NG2P1      CG2N1
    6     5    27	5 ;      OG2D1      CG2O1      CG321
    6     5     4	5 ;      OG2D1      CG2O1      NG2P1
   27     5     4	5 ;      CG321      CG2O1      NG2P1
    1    11    12	5 ;      NG2P1      CG324     CG2R61
    1    11    37	5 ;      NG2P1      CG324       HGA2
    1    11    38	5 ;      NG2P1      CG324       HGA2
   12    11    37	5 ;     CG2R61      CG324       HGA2
   12    11    38	5 ;     CG2R61      CG324       HGA2
   37    11    38	5 ;       HGA2      CG324       HGA2
   11    12    18	5 ;      CG324     CG2R61     CG2R61
   11    12    13	5 ;      CG324     CG2R61     CG2R61
   18    12    13	5 ;     CG2R61     CG2R61     CG2R61
   12    13    14	5 ;     CG2R61     CG2R61     CG2R61
   12    13    39	5 ;     CG2R61     CG2R61      HGR62
   14    13    39	5 ;     CG2R61     CG2R61      HGR62
   13    14    16	5 ;     CG2R61     CG2R61     CG2R61
   13    14    15	5 ;     CG2R61     CG2R61      CLGR1
   16    14    15	5 ;     CG2R61     CG2R61      CLGR1
   17    16    14	5 ;     CG2R61     CG2R61     CG2R61
   17    16    20	5 ;     CG2R61     CG2R61      NG2S1
   14    16    20	5 ;     CG2R61     CG2R61      NG2S1
   18    17    19	5 ;     CG2R61     CG2R61      CLGR1
   18    17    16	5 ;     CG2R61     CG2R61     CG2R61
   19    17    16	5 ;      CLGR1     CG2R61     CG2R61
   12    18    17	5 ;     CG2R61     CG2R61     CG2R61
   12    18    40	5 ;     CG2R61     CG2R61      HGR62
   17    18    40	5 ;     CG2R61     CG2R61      HGR62
   16    20    23	5 ;     CG2R61      NG2S1       HGP1
   16    20    21	5 ;     CG2R61      NG2S1      CG2O1
   23    20    21	5 ;       HGP1      NG2S1      CG2O1
   20    21    22	5 ;      NG2S1      CG2O1      OG2D1
   20    21    24	5 ;      NG2S1      CG2O1      CG311
   22    21    24	5 ;      OG2D1      CG2O1      CG311
   21    24    26	5 ;      CG2O1      CG311      CG331
   21    24    25	5 ;      CG2O1      CG311      CG331
   21    24    41	5 ;      CG2O1      CG311       HGA1
   26    24    25	5 ;      CG331      CG311      CG331
   26    24    41	5 ;      CG331      CG311       HGA1
   25    24    41	5 ;      CG331      CG311       HGA1
   24    25    42	5 ;      CG311      CG331       HGA3
   24    25    43	5 ;      CG311      CG331       HGA3
   24    25    44	5 ;      CG311      CG331       HGA3
   42    25    43	5 ;       HGA3      CG331       HGA3
   42    25    44	5 ;       HGA3      CG331       HGA3
   43    25    44	5 ;       HGA3      CG331       HGA3
   24    26    45	5 ;      CG311      CG331       HGA3
   24    26    46	5 ;      CG311      CG331       HGA3
   24    26    47	5 ;      CG311      CG331       HGA3
   45    26    46	5 ;       HGA3      CG331       HGA3
   45    26    47	5 ;       HGA3      CG331       HGA3
   46    26    47	5 ;       HGA3      CG331       HGA3
    5    27    28	5 ;      CG2O1      CG321     NG2R51
    5    27    48	5 ;      CG2O1      CG321       HGA2
    5    27    49	5 ;      CG2O1      CG321       HGA2
   28    27    48	5 ;     NG2R51      CG321       HGA2
   28    27    49	5 ;     NG2R51      CG321       HGA2
   48    27    49	5 ;       HGA2      CG321       HGA2
   27    28    29	5 ;      CG321     NG2R51     CG2RC0
   27    28    36	5 ;      CG321     NG2R51     CG2R51
   29    28    36	5 ;     CG2RC0     NG2R51     CG2R51
   28    29    31	5 ;     NG2R51     CG2RC0     CG2R61
   28    29    30	5 ;     NG2R51     CG2RC0     CG2RC0
   31    29    30	5 ;     CG2R61     CG2RC0     CG2RC0
   29    30    33	5 ;     CG2RC0     CG2RC0     CG2R51
   29    30    32	5 ;     CG2RC0     CG2RC0     CG2R61
   33    30    32	5 ;     CG2R51     CG2RC0     CG2R61
   29    31    35	5 ;     CG2RC0     CG2R61     CG2R61
   29    31    50	5 ;     CG2RC0     CG2R61      HGR61
   35    31    50	5 ;     CG2R61     CG2R61      HGR61
   30    32    34	5 ;     CG2RC0     CG2R61     CG2R61
   30    32    51	5 ;     CG2RC0     CG2R61      HGR61
   34    32    51	5 ;     CG2R61     CG2R61      HGR61
   36    33    30	5 ;     CG2R51     CG2R51     CG2RC0
   36    33    52	5 ;     CG2R51     CG2R51      HGR51
   30    33    52	5 ;     CG2RC0     CG2R51      HGR51
   35    34    32	5 ;     CG2R61     CG2R61     CG2R61
   35    34    53	5 ;     CG2R61     CG2R61      HGR61
   32    34    53	5 ;     CG2R61     CG2R61      HGR61
   31    35    34	5 ;     CG2R61     CG2R61     CG2R61
   31    35    54	5 ;     CG2R61     CG2R61      HGR61
   34    35    54	5 ;     CG2R61     CG2R61      HGR61
   28    36    33	5 ;     NG2R51     CG2R51     CG2R51
   28    36    55	5 ;     NG2R51     CG2R51      HGR52
   33    36    55	5 ;     CG2R51     CG2R51      HGR52

[ dihedrals ]
;	ai	  aj	ak	  al funct			  c0			c1			  c2			c3			  c4			c5
    7     1     2     4	 9 ;       HGP2      NG2P1      CG2N1      NG2P1
    7     1     2     3	 9 ;       HGP2      NG2P1      CG2N1      NG2P1
   11     1     2     4	 9 ;      CG324      NG2P1      CG2N1      NG2P1
   11     1     2     3	 9 ;      CG324      NG2P1      CG2N1      NG2P1
    2     1    11    12	 9 ;      CG2N1      NG2P1      CG324     CG2R61
    2     1    11    37	 9 ;      CG2N1      NG2P1      CG324       HGA2
    2     1    11    38	 9 ;      CG2N1      NG2P1      CG324       HGA2
    7     1    11    12	 9 ;       HGP2      NG2P1      CG324     CG2R61
    7     1    11    37	 9 ;       HGP2      NG2P1      CG324       HGA2
    7     1    11    38	 9 ;       HGP2      NG2P1      CG324       HGA2
    3     2     4     5	 9 ;      NG2P1      CG2N1      NG2P1      CG2O1
    3     2     4    10	 9 ;      NG2P1      CG2N1      NG2P1       HGP2
    1     2     4     5	 9 ;      NG2P1      CG2N1      NG2P1      CG2O1
    1     2     4    10	 9 ;      NG2P1      CG2N1      NG2P1       HGP2
    4     2     3     8	 9 ;      NG2P1      CG2N1      NG2P1       HGP2
    4     2     3     9	 9 ;      NG2P1      CG2N1      NG2P1       HGP2
    1     2     3     8	 9 ;      NG2P1      CG2N1      NG2P1       HGP2
    1     2     3     9	 9 ;      NG2P1      CG2N1      NG2P1       HGP2
   10     4     5     6	 9 ;       HGP2      NG2P1      CG2O1      OG2D1
   10     4     5    27	 9 ;       HGP2      NG2P1      CG2O1      CG321
    2     4     5     6	 9 ;      CG2N1      NG2P1      CG2O1      OG2D1
    2     4     5    27	 9 ;      CG2N1      NG2P1      CG2O1      CG321
    6     5    27    28	 9 ;      OG2D1      CG2O1      CG321     NG2R51
    6     5    27    48	 9 ;      OG2D1      CG2O1      CG321       HGA2
    6     5    27    49	 9 ;      OG2D1      CG2O1      CG321       HGA2
    4     5    27    28	 9 ;      NG2P1      CG2O1      CG321     NG2R51
    4     5    27    48	 9 ;      NG2P1      CG2O1      CG321       HGA2
    4     5    27    49	 9 ;      NG2P1      CG2O1      CG321       HGA2
    1    11    12    18	 9 ;      NG2P1      CG324     CG2R61     CG2R61
    1    11    12    13	 9 ;      NG2P1      CG324     CG2R61     CG2R61
   37    11    12    18	 9 ;       HGA2      CG324     CG2R61     CG2R61
   37    11    12    13	 9 ;       HGA2      CG324     CG2R61     CG2R61
   38    11    12    18	 9 ;       HGA2      CG324     CG2R61     CG2R61
   38    11    12    13	 9 ;       HGA2      CG324     CG2R61     CG2R61
   11    12    18    17	 9 ;      CG324     CG2R61     CG2R61     CG2R61
   11    12    18    40	 9 ;      CG324     CG2R61     CG2R61      HGR62
   13    12    18    17	 9 ;     CG2R61     CG2R61     CG2R61     CG2R61
   13    12    18    40	 9 ;     CG2R61     CG2R61     CG2R61      HGR62
   11    12    13    14	 9 ;      CG324     CG2R61     CG2R61     CG2R61
   11    12    13    39	 9 ;      CG324     CG2R61     CG2R61      HGR62
   18    12    13    14	 9 ;     CG2R61     CG2R61     CG2R61     CG2R61
   18    12    13    39	 9 ;     CG2R61     CG2R61     CG2R61      HGR62
   12    13    14    16	 9 ;     CG2R61     CG2R61     CG2R61     CG2R61
   12    13    14    15	 9 ;     CG2R61     CG2R61     CG2R61      CLGR1
   39    13    14    16	 9 ;      HGR62     CG2R61     CG2R61     CG2R61
   39    13    14    15	 9 ;      HGR62     CG2R61     CG2R61      CLGR1
   13    14    16    17	 9 ;     CG2R61     CG2R61     CG2R61     CG2R61
   13    14    16    20	 9 ;     CG2R61     CG2R61     CG2R61      NG2S1
   15    14    16    17	 9 ;      CLGR1     CG2R61     CG2R61     CG2R61
   15    14    16    20	 9 ;      CLGR1     CG2R61     CG2R61      NG2S1
   14    16    17    18	 9 ;     CG2R61     CG2R61     CG2R61     CG2R61
   14    16    17    19	 9 ;     CG2R61     CG2R61     CG2R61      CLGR1
   20    16    17    18	 9 ;      NG2S1     CG2R61     CG2R61     CG2R61
   20    16    17    19	 9 ;      NG2S1     CG2R61     CG2R61      CLGR1
   17    16    20    23	 9 ;     CG2R61     CG2R61      NG2S1       HGP1
   17    16    20    21	 9 ;     CG2R61     CG2R61      NG2S1      CG2O1
   14    16    20    23	 9 ;     CG2R61     CG2R61      NG2S1       HGP1
   14    16    20    21	 9 ;     CG2R61     CG2R61      NG2S1      CG2O1
   19    17    18    12	 9 ;      CLGR1     CG2R61     CG2R61     CG2R61
   19    17    18    40	 9 ;      CLGR1     CG2R61     CG2R61      HGR62
   16    17    18    12	 9 ;     CG2R61     CG2R61     CG2R61     CG2R61
   16    17    18    40	 9 ;     CG2R61     CG2R61     CG2R61      HGR62
   16    20    21    22	 9 ;     CG2R61      NG2S1      CG2O1      OG2D1
   16    20    21    24	 9 ;     CG2R61      NG2S1      CG2O1      CG311
   23    20    21    22	 9 ;       HGP1      NG2S1      CG2O1      OG2D1
   23    20    21    24	 9 ;       HGP1      NG2S1      CG2O1      CG311
   20    21    24    26	 9 ;      NG2S1      CG2O1      CG311      CG331
   20    21    24    25	 9 ;      NG2S1      CG2O1      CG311      CG331
   20    21    24    41	 9 ;      NG2S1      CG2O1      CG311       HGA1
   22    21    24    26	 9 ;      OG2D1      CG2O1      CG311      CG331
   22    21    24    25	 9 ;      OG2D1      CG2O1      CG311      CG331
   22    21    24    41	 9 ;      OG2D1      CG2O1      CG311       HGA1
   21    24    26    45	 9 ;      CG2O1      CG311      CG331       HGA3
   21    24    26    46	 9 ;      CG2O1      CG311      CG331       HGA3
   21    24    26    47	 9 ;      CG2O1      CG311      CG331       HGA3
   25    24    26    45	 9 ;      CG331      CG311      CG331       HGA3
   25    24    26    46	 9 ;      CG331      CG311      CG331       HGA3
   25    24    26    47	 9 ;      CG331      CG311      CG331       HGA3
   41    24    26    45	 9 ;       HGA1      CG311      CG331       HGA3
   41    24    26    46	 9 ;       HGA1      CG311      CG331       HGA3
   41    24    26    47	 9 ;       HGA1      CG311      CG331       HGA3
   21    24    25    42	 9 ;      CG2O1      CG311      CG331       HGA3
   21    24    25    43	 9 ;      CG2O1      CG311      CG331       HGA3
   21    24    25    44	 9 ;      CG2O1      CG311      CG331       HGA3
   26    24    25    42	 9 ;      CG331      CG311      CG331       HGA3
   26    24    25    43	 9 ;      CG331      CG311      CG331       HGA3
   26    24    25    44	 9 ;      CG331      CG311      CG331       HGA3
   41    24    25    42	 9 ;       HGA1      CG311      CG331       HGA3
   41    24    25    43	 9 ;       HGA1      CG311      CG331       HGA3
   41    24    25    44	 9 ;       HGA1      CG311      CG331       HGA3
    5    27    28    29	 9 ;      CG2O1      CG321     NG2R51     CG2RC0
    5    27    28    36	 9 ;      CG2O1      CG321     NG2R51     CG2R51
   48    27    28    29	 9 ;       HGA2      CG321     NG2R51     CG2RC0
   48    27    28    36	 9 ;       HGA2      CG321     NG2R51     CG2R51
   49    27    28    29	 9 ;       HGA2      CG321     NG2R51     CG2RC0
   49    27    28    36	 9 ;       HGA2      CG321     NG2R51     CG2R51
   27    28    29    31	 9 ;      CG321     NG2R51     CG2RC0     CG2R61
   27    28    29    30	 9 ;      CG321     NG2R51     CG2RC0     CG2RC0
   36    28    29    31	 9 ;     CG2R51     NG2R51     CG2RC0     CG2R61
   36    28    29    30	 9 ;     CG2R51     NG2R51     CG2RC0     CG2RC0
   27    28    36    33	 9 ;      CG321     NG2R51     CG2R51     CG2R51
   27    28    36    55	 9 ;      CG321     NG2R51     CG2R51      HGR52
   29    28    36    33	 9 ;     CG2RC0     NG2R51     CG2R51     CG2R51
   29    28    36    55	 9 ;     CG2RC0     NG2R51     CG2R51      HGR52
   28    29    31    35	 9 ;     NG2R51     CG2RC0     CG2R61     CG2R61
   28    29    31    50	 9 ;     NG2R51     CG2RC0     CG2R61      HGR61
   30    29    31    35	 9 ;     CG2RC0     CG2RC0     CG2R61     CG2R61
   30    29    31    50	 9 ;     CG2RC0     CG2RC0     CG2R61      HGR61
   28    29    30    33	 9 ;     NG2R51     CG2RC0     CG2RC0     CG2R51
   28    29    30    32	 9 ;     NG2R51     CG2RC0     CG2RC0     CG2R61
   31    29    30    33	 9 ;     CG2R61     CG2RC0     CG2RC0     CG2R51
   31    29    30    32	 9 ;     CG2R61     CG2RC0     CG2RC0     CG2R61
   29    30    33    36	 9 ;     CG2RC0     CG2RC0     CG2R51     CG2R51
   29    30    33    52	 9 ;     CG2RC0     CG2RC0     CG2R51      HGR51
   32    30    33    36	 9 ;     CG2R61     CG2RC0     CG2R51     CG2R51
   32    30    33    52	 9 ;     CG2R61     CG2RC0     CG2R51      HGR51
   29    30    32    34	 9 ;     CG2RC0     CG2RC0     CG2R61     CG2R61
   29    30    32    51	 9 ;     CG2RC0     CG2RC0     CG2R61      HGR61
   33    30    32    34	 9 ;     CG2R51     CG2RC0     CG2R61     CG2R61
   33    30    32    51	 9 ;     CG2R51     CG2RC0     CG2R61      HGR61
   29    31    35    34	 9 ;     CG2RC0     CG2R61     CG2R61     CG2R61
   29    31    35    54	 9 ;     CG2RC0     CG2R61     CG2R61      HGR61
   50    31    35    34	 9 ;      HGR61     CG2R61     CG2R61     CG2R61
   50    31    35    54	 9 ;      HGR61     CG2R61     CG2R61      HGR61
   30    32    34    35	 9 ;     CG2RC0     CG2R61     CG2R61     CG2R61
   30    32    34    53	 9 ;     CG2RC0     CG2R61     CG2R61      HGR61
   51    32    34    35	 9 ;      HGR61     CG2R61     CG2R61     CG2R61
   51    32    34    53	 9 ;      HGR61     CG2R61     CG2R61      HGR61
   30    33    36    28	 9 ;     CG2RC0     CG2R51     CG2R51     NG2R51
   30    33    36    55	 9 ;     CG2RC0     CG2R51     CG2R51      HGR52
   52    33    36    28	 9 ;      HGR51     CG2R51     CG2R51     NG2R51
   52    33    36    55	 9 ;      HGR51     CG2R51     CG2R51      HGR52
   32    34    35    31	 9 ;     CG2R61     CG2R61     CG2R61     CG2R61
   32    34    35    54	 9 ;     CG2R61     CG2R61     CG2R61      HGR61
   53    34    35    31	 9 ;      HGR61     CG2R61     CG2R61     CG2R61
   53    34    35    54	 9 ;      HGR61     CG2R61     CG2R61      HGR61

[ dihedrals ]
;	ai	  aj	ak	  al funct			  c0			c1			  c2			c3
    2     4     3     1	 2
    5    27     4     6	 2
   21    24    20    22	 2

[ virtual_sites2 ]
; Site   from				funct a
   56    15    14     2   -0.164
   57    19    17     2   -0.164

[ exclusions ]
;	ai	  aj
   15    56
   19    57
   56    14
   57    17
   56    13
   56    16
   57    18
   57    16
   56    12
   57    12
   57    14
   56    39
   56    17
   56    20
   57    20
   57    40

