Gromacs Runs One Microsecond At Cannonball Speeds
   57
    1LIG     N1    1  -1.601   0.280  -1.796
    1LIG     C1    2  -1.505   0.375  -1.786
    1LIG     N2    3  -1.527   0.501  -1.825
    1LIG     N3    4  -1.383   0.341  -1.734
    1LIG     C2    5  -1.276   0.433  -1.710
    1LIG     O1    6  -1.283   0.546  -1.757
    1LIG     H1    7  -1.574   0.184  -1.781
    1LIG     H2    8  -1.451   0.569  -1.819
    1LIG     H3    9  -1.617   0.534  -1.857
    1LIG     H4   10  -1.370   0.245  -1.703
    1LIG     C3   11  -1.736   0.300  -1.852
    1LIG     C4   12  -1.846   0.319  -1.751
    1LIG     C5   13  -1.979   0.326  -1.796
    1LIG     C6   14  -2.087   0.338  -1.705
    1LIG    CL1   15  -2.246   0.343  -1.776
    1LIG     C7   16  -2.070   0.347  -1.565
    1LIG     C8   17  -1.936   0.343  -1.521
    1LIG     C9   18  -1.827   0.326  -1.612
    1LIG    CL2   19  -1.881   0.368  -1.359
    1LIG     N4   20  -2.192   0.355  -1.490
    1LIG    C10   21  -2.244   0.453  -1.405
    1LIG     O2   22  -2.194   0.562  -1.382
    1LIG     H5   23  -2.247   0.270  -1.494
    1LIG    C11   24  -2.370   0.412  -1.327
    1LIG    C12   25  -2.497   0.484  -1.370
    1LIG    C13   26  -2.385   0.260  -1.326
    1LIG    C14   27  -1.159   0.385  -1.627
    1LIG     N5   28  -1.195   0.317  -1.503
    1LIG    C15   29  -1.191   0.182  -1.474
    1LIG    C16   30  -1.214   0.170  -1.336
    1LIG    C17   31  -1.169   0.068  -1.553
    1LIG    C18   32  -1.207   0.044  -1.274
    1LIG    C19   33  -1.247   0.300  -1.288
    1LIG    C20   34  -1.180  -0.069  -1.352
    1LIG    C21   35  -1.164  -0.058  -1.489
    1LIG    C22   36  -1.240   0.387  -1.394
    1LIG    HC2   37  -1.734   0.389  -1.916
    1LIG    HC3   38  -1.761   0.214  -1.914
    1LIG     HC   39  -1.999   0.321  -1.901
    1LIG    HC1   40  -1.727   0.316  -1.573
    1LIG    HC4   41  -2.352   0.441  -1.223
    1LIG    HC5   42  -2.481   0.592  -1.368
    1LIG    HC6   43  -2.578   0.459  -1.302
    1LIG    HC7   44  -2.524   0.453  -1.471
    1LIG    HC8   45  -2.453   0.231  -1.247
    1LIG    HC9   46  -2.425   0.228  -1.422
    1LIG   HC10   47  -2.288   0.214  -1.310
    1LIG   HC11   48  -1.100   0.316  -1.688
    1LIG   HC12   49  -1.097   0.471  -1.603
    1LIG   HC13   50  -1.157   0.076  -1.660
    1LIG   HC14   51  -1.221   0.034  -1.168
    1LIG   HC15   52  -1.273   0.325  -1.186
    1LIG   HC16   53  -1.173  -0.166  -1.305
    1LIG   HC17   54  -1.147  -0.146  -1.548
    1LIG   HC18   55  -1.265   0.492  -1.391
    1LIG    LP1   56  -2.395   0.348  -1.843
    1LIG    LP2   57  -1.829   0.392  -1.206
   0.00000   0.00000   0.00000
