Great Red Oystrich Makes All Chemists Sane
   70
    1LIG      S    1  -1.728   0.664  -1.854
    1LIG     O1    2  -1.599   0.621  -1.906
    1LIG     O2    3  -1.847   0.660  -1.935
    1LIG     C1    4  -1.755   0.577  -1.701
    1LIG     C2    5  -1.636   0.600  -1.608
    1LIG     C3    6  -1.616   0.751  -1.577
    1LIG     C4    7  -1.586   0.837  -1.702
    1LIG     C5    8  -1.702   0.831  -1.801
    1LIG     N1    9  -1.453   0.795  -1.763
    1LIG     H1   10  -1.455   0.695  -1.785
    1LIG     H2   11  -1.436   0.845  -1.852
    1LIG     C6   12  -1.328   0.822  -1.683
    1LIG     C7   13  -1.253   0.696  -1.653
    1LIG     C8   14  -1.280   0.579  -1.727
    1LIG     C9   15  -1.202   0.464  -1.714
    1LIG    C10   16  -1.093   0.470  -1.625
    1LIG    C11   17  -1.067   0.584  -1.548
    1LIG    C12   18  -1.147   0.696  -1.561
    1LIG    C13   19  -1.227   0.340  -1.801
    1LIG    C14   20  -1.379   0.328  -1.825
    1LIG    C15   21  -1.155   0.348  -1.938
    1LIG    C16   22  -1.179   0.208  -1.735
    1LIG     O3   23  -1.734   0.801  -1.515
    1LIG     H3   24  -1.801   0.730  -1.514
    1LIG    C17   25  -1.647   0.513  -1.480
    1LIG    C18   26  -1.552   0.395  -1.494
    1LIG    C19   27  -1.423   0.405  -1.439
    1LIG    C20   28  -1.350   0.288  -1.412
    1LIG    C21   29  -1.404   0.166  -1.452
    1LIG    C22   30  -1.228   0.261  -1.343
    1LIG     N2   31  -1.314   0.068  -1.414
    1LIG    C23   32  -1.526   0.155  -1.520
    1LIG    C24   33  -1.210   0.125  -1.346
    1LIG     H4   34  -1.325  -0.030  -1.433
    1LIG    C25   35  -1.600   0.272  -1.539
    1LIG    C26   36  -1.138   0.362  -1.278
    1LIG    C27   37  -1.210   0.446  -1.174
    1LIG    HC2   38  -1.846   0.615  -1.653
    1LIG    HC3   39  -1.766   0.471  -1.721
    1LIG     HC   40  -1.547   0.566  -1.661
    1LIG    HC1   41  -1.533   0.761  -1.507
    1LIG    HC4   42  -1.577   0.940  -1.669
    1LIG    HC5   43  -1.793   0.868  -1.753
    1LIG    HC6   44  -1.679   0.894  -1.888
    1LIG    HC7   45  -1.356   0.869  -1.589
    1LIG    HC8   46  -1.264   0.889  -1.739
    1LIG    HC9   47  -1.364   0.578  -1.794
    1LIG   HC10   48  -1.028   0.385  -1.616
    1LIG   HC11   49  -0.985   0.584  -1.478
    1LIG   HC12   50  -1.128   0.784  -1.501
    1LIG   HC13   51  -1.749   0.477  -1.469
    1LIG   HC14   52  -1.619   0.572  -1.393
    1LIG   HC15   53  -1.380   0.502  -1.418
    1LIG   HC16   54  -1.561   0.060  -1.556
    1LIG   HC17   55  -1.127   0.071  -1.302
    1LIG   HC18   56  -1.695   0.267  -1.590
    1LIG   HC19   57  -1.056   0.309  -1.230
    1LIG   HC20   58  -1.097   0.427  -1.355
    1LIG   HC21   59  -1.403   0.229  -1.862
    1LIG   HC22   60  -1.410   0.403  -1.899
    1LIG   HC23   61  -1.432   0.346  -1.732
    1LIG   HC24   62  -1.227   0.197  -1.638
    1LIG   HC25   63  -1.206   0.124  -1.798
    1LIG   HC26   64  -1.071   0.212  -1.722
    1LIG   HC27   65  -1.140   0.517  -1.130
    1LIG   HC28   66  -1.292   0.500  -1.222
    1LIG   HC29   67  -1.250   0.381  -1.096
    1LIG   HC30   68  -1.186   0.439  -1.989
    1LIG   HC31   69  -1.048   0.349  -1.922
    1LIG   HC32   70  -1.182   0.261  -1.998
   0.00000   0.00000   0.00000
