; Created by cgenff_charmm2gmx.py

[ moleculetype ]
; Name			   nrexcl
LIG				 3

[ atoms ]
;	 nr		  type	resnr residue  atom   cgnr	   charge		mass  typeB    chargeB		massB
; residue	 1 LIG rtp LIG q	qsum
     1      SG3O2      1    LIG      S      1      0.113     32.060   ;
     2      OG2P1      1    LIG     O1      2     -0.300     15.999   ;
     3      OG2P1      1    LIG     O2      3     -0.300     15.999   ;
     4      CG321      1    LIG     C1      4      0.180     12.011   ;
     5      CG311      1    LIG     C2      5     -0.145     12.011   ;
     6      CG311      1    LIG     C3      6      0.100     12.011   ;
     7      CG314      1    LIG     C4      7     -0.043     12.011   ;
     8      CG321      1    LIG     C5      8      0.224     12.011   ;
     9      NG3P2      1    LIG     N1      9     -0.444     14.007   ;
    10       HGP2      1    LIG     H1     10      0.346      1.008   ;
    11       HGP2      1    LIG     H2     11      0.346      1.008   ;
    12      CG324      1    LIG     C6     12      0.178     12.011   ;
    13     CG2R61      1    LIG     C7     13      0.036     12.011   ;
    14     CG2R61      1    LIG     C8     14     -0.124     12.011   ;
    15     CG2R61      1    LIG     C9     15      0.084     12.011   ;
    16     CG2R61      1    LIG    C10     16     -0.121     12.011   ;
    17     CG2R61      1    LIG    C11     17     -0.108     12.011   ;
    18     CG2R61      1    LIG    C12     18     -0.119     12.011   ;
    19      CG301      1    LIG    C13     19     -0.018     12.011   ;
    20      CG331      1    LIG    C14     20     -0.289     12.011   ;
    21      CG331      1    LIG    C15     21     -0.289     12.011   ;
    22      CG331      1    LIG    C16     22     -0.289     12.011   ;
    23      OG311      1    LIG     O3     23     -0.595     15.999   ;
    24       HGP1      1    LIG     H3     24      0.422      1.008   ;
    25      CG321      1    LIG    C17     25     -0.063     12.011   ;
    26     CG2R61      1    LIG    C18     26     -0.127     12.011   ;
    27     CG2R61      1    LIG    C19     27     -0.268     12.011   ;
    28     CG2RC0      1    LIG    C20     28      0.120     12.011   ;
    29     CG2RC0      1    LIG    C21     29      0.244     12.011   ;
    30     CG2R51      1    LIG    C22     30     -0.028     12.011   ;
    31     NG2R51      1    LIG     N2     31     -0.478     14.007   ;
    32     CG2R61      1    LIG    C23     32     -0.258     12.011   ;
    33     CG2R51      1    LIG    C24     33     -0.144     12.011   ;
    34       HGP1      1    LIG     H4     34      0.348      1.008   ;
    35     CG2R61      1    LIG    C25     35     -0.184     12.011   ;
    36      CG321      1    LIG    C26     36     -0.169     12.011   ;
    37      CG331      1    LIG    C27     37     -0.267     12.011   ;
    38       HGA2      1    LIG    HC2     38      0.090      1.008   ;
    39       HGA2      1    LIG    HC3     39      0.090      1.008   ;
    40       HGA1      1    LIG     HC     40      0.090      1.008   ;
    41       HGA1      1    LIG    HC1     41      0.090      1.008   ;
    42       HGA1      1    LIG    HC4     42      0.109      1.008   ;
    43       HGA2      1    LIG    HC5     43      0.090      1.008   ;
    44       HGA2      1    LIG    HC6     44      0.090      1.008   ;
    45       HGA2      1    LIG    HC7     45      0.090      1.008   ;
    46       HGA2      1    LIG    HC8     46      0.090      1.008   ;
    47      HGR61      1    LIG    HC9     47      0.116      1.008   ;
    48      HGR61      1    LIG   HC10     48      0.116      1.008   ;
    49      HGR61      1    LIG   HC11     49      0.116      1.008   ;
    50      HGR61      1    LIG   HC12     50      0.116      1.008   ;
    51       HGA2      1    LIG   HC13     51      0.090      1.008   ;
    52       HGA2      1    LIG   HC14     52      0.090      1.008   ;
    53      HGR61      1    LIG   HC15     53      0.197      1.008   ;
    54      HGR61      1    LIG   HC16     54      0.184      1.008   ;
    55      HGR52      1    LIG   HC17     55      0.181      1.008   ;
    56      HGR61      1    LIG   HC18     56      0.134      1.008   ;
    57       HGA2      1    LIG   HC19     57      0.090      1.008   ;
    58       HGA2      1    LIG   HC20     58      0.090      1.008   ;
    59       HGA3      1    LIG   HC21     59      0.090      1.008   ;
    60       HGA3      1    LIG   HC22     60      0.090      1.008   ;
    61       HGA3      1    LIG   HC23     61      0.090      1.008   ;
    62       HGA3      1    LIG   HC24     62      0.090      1.008   ;
    63       HGA3      1    LIG   HC25     63      0.090      1.008   ;
    64       HGA3      1    LIG   HC26     64      0.090      1.008   ;
    65       HGA3      1    LIG   HC27     65      0.090      1.008   ;
    66       HGA3      1    LIG   HC28     66      0.090      1.008   ;
    67       HGA3      1    LIG   HC29     67      0.090      1.008   ;
    68       HGA3      1    LIG   HC30     68      0.090      1.008   ;
    69       HGA3      1    LIG   HC31     69      0.090      1.008   ;
    70       HGA3      1    LIG   HC32     70      0.090      1.008   ;

[ bonds ]
;	ai	  aj funct			  c0			c1			  c2			c3
    1     2	 1 ;       SG3O2      OG2P1
    1     3	 1 ;       SG3O2      OG2P1
    1     8	 1 ;       SG3O2      CG321
    1     4	 1 ;       SG3O2      CG321
    4     5	 1 ;       CG321      CG311
    4    38	 1 ;       CG321       HGA2
    4    39	 1 ;       CG321       HGA2
    5     6	 1 ;       CG311      CG311
    5    25	 1 ;       CG311      CG321
    5    40	 1 ;       CG311       HGA1
    6     7	 1 ;       CG311      CG314
    6    23	 1 ;       CG311      OG311
    6    41	 1 ;       CG311       HGA1
    7     9	 1 ;       CG314      NG3P2
    7     8	 1 ;       CG314      CG321
    7    42	 1 ;       CG314       HGA1
    8    43	 1 ;       CG321       HGA2
    8    44	 1 ;       CG321       HGA2
    9    11	 1 ;       NG3P2       HGP2
    9    12	 1 ;       NG3P2      CG324
    9    10	 1 ;       NG3P2       HGP2
   12    13	 1 ;       CG324     CG2R61
   12    45	 1 ;       CG324       HGA2
   12    46	 1 ;       CG324       HGA2
   13    14	 1 ;      CG2R61     CG2R61
   13    18	 1 ;      CG2R61     CG2R61
   14    15	 1 ;      CG2R61     CG2R61
   14    47	 1 ;      CG2R61      HGR61
   15    19	 1 ;      CG2R61      CG301
   15    16	 1 ;      CG2R61     CG2R61
   16    17	 1 ;      CG2R61     CG2R61
   16    48	 1 ;      CG2R61      HGR61
   17    18	 1 ;      CG2R61     CG2R61
   17    49	 1 ;      CG2R61      HGR61
   18    50	 1 ;      CG2R61      HGR61
   19    21	 1 ;       CG301      CG331
   19    22	 1 ;       CG301      CG331
   19    20	 1 ;       CG301      CG331
   20    59	 1 ;       CG331       HGA3
   20    60	 1 ;       CG331       HGA3
   20    61	 1 ;       CG331       HGA3
   21    68	 1 ;       CG331       HGA3
   21    69	 1 ;       CG331       HGA3
   21    70	 1 ;       CG331       HGA3
   22    62	 1 ;       CG331       HGA3
   22    63	 1 ;       CG331       HGA3
   22    64	 1 ;       CG331       HGA3
   23    24	 1 ;       OG311       HGP1
   25    26	 1 ;       CG321     CG2R61
   25    51	 1 ;       CG321       HGA2
   25    52	 1 ;       CG321       HGA2
   26    27	 1 ;      CG2R61     CG2R61
   26    35	 1 ;      CG2R61     CG2R61
   27    28	 1 ;      CG2R61     CG2RC0
   27    53	 1 ;      CG2R61      HGR61
   28    30	 1 ;      CG2RC0     CG2R51
   28    29	 1 ;      CG2RC0     CG2RC0
   29    31	 1 ;      CG2RC0     NG2R51
   29    32	 1 ;      CG2RC0     CG2R61
   30    33	 1 ;      CG2R51     CG2R51
   30    36	 1 ;      CG2R51      CG321
   31    33	 1 ;      NG2R51     CG2R51
   31    34	 1 ;      NG2R51       HGP1
   32    35	 1 ;      CG2R61     CG2R61
   32    54	 1 ;      CG2R61      HGR61
   33    55	 1 ;      CG2R51      HGR52
   35    56	 1 ;      CG2R61      HGR61
   36    37	 1 ;       CG321      CG331
   36    57	 1 ;       CG321       HGA2
   36    58	 1 ;       CG321       HGA2
   37    65	 1 ;       CG331       HGA3
   37    66	 1 ;       CG331       HGA3
   37    67	 1 ;       CG331       HGA3

[ pairs ]
;	ai	  aj funct			  c0			c1			  c2			c3
    1     6	 1
    1    25	 1
    1    40	 1
    1     9	 1
    1    42	 1
    2     7	 1
    2    43	 1
    2    44	 1
    2     5	 1
    2    38	 1
    2    39	 1
    3     7	 1
    3    43	 1
    3    44	 1
    3     5	 1
    3    38	 1
    3    39	 1
    4     7	 1
    4    43	 1
    4    44	 1
    4    23	 1
    4    41	 1
    4    26	 1
    4    51	 1
    4    52	 1
    5     8	 1
    5     9	 1
    5    42	 1
    5    24	 1
    5    27	 1
    5    35	 1
    6    38	 1
    6    39	 1
    6    26	 1
    6    51	 1
    6    52	 1
    6    11	 1
    6    12	 1
    6    10	 1
    6    43	 1
    6    44	 1
    7    25	 1
    7    40	 1
    7    24	 1
    7    13	 1
    7    45	 1
    7    46	 1
    8    38	 1
    8    39	 1
    8    23	 1
    8    41	 1
    8    11	 1
    8    12	 1
    8    10	 1
    9    23	 1
    9    41	 1
    9    43	 1
    9    44	 1
    9    14	 1
    9    18	 1
   10    42	 1
   10    13	 1
   10    45	 1
   10    46	 1
   11    42	 1
   11    13	 1
   11    45	 1
   11    46	 1
   12    42	 1
   12    15	 1
   12    47	 1
   12    17	 1
   12    50	 1
   13    19	 1
   13    16	 1
   13    49	 1
   14    45	 1
   14    46	 1
   14    17	 1
   14    50	 1
   14    21	 1
   14    22	 1
   14    20	 1
   14    48	 1
   15    18	 1
   15    49	 1
   15    68	 1
   15    69	 1
   15    70	 1
   15    62	 1
   15    63	 1
   15    64	 1
   15    59	 1
   15    60	 1
   15    61	 1
   16    47	 1
   16    21	 1
   16    22	 1
   16    20	 1
   16    50	 1
   17    19	 1
   18    45	 1
   18    46	 1
   18    47	 1
   18    48	 1
   19    47	 1
   19    48	 1
   20    68	 1
   20    69	 1
   20    70	 1
   20    62	 1
   20    63	 1
   20    64	 1
   21    62	 1
   21    63	 1
   21    64	 1
   21    59	 1
   21    60	 1
   21    61	 1
   22    68	 1
   22    69	 1
   22    70	 1
   22    59	 1
   22    60	 1
   22    61	 1
   23    25	 1
   23    40	 1
   23    42	 1
   24    41	 1
   25    38	 1
   25    39	 1
   25    41	 1
   25    28	 1
   25    53	 1
   25    32	 1
   25    56	 1
   26    40	 1
   26    30	 1
   26    29	 1
   26    54	 1
   27    51	 1
   27    52	 1
   27    32	 1
   27    56	 1
   27    33	 1
   27    36	 1
   27    31	 1
   28    35	 1
   28    34	 1
   28    54	 1
   28    55	 1
   28    37	 1
   28    57	 1
   28    58	 1
   29    53	 1
   29    36	 1
   29    55	 1
   29    56	 1
   30    53	 1
   30    32	 1
   30    34	 1
   30    65	 1
   30    66	 1
   30    67	 1
   31    35	 1
   31    54	 1
   31    36	 1
   32    33	 1
   32    34	 1
   33    37	 1
   33    57	 1
   33    58	 1
   34    55	 1
   35    51	 1
   35    52	 1
   35    53	 1
   36    55	 1
   38    40	 1
   39    40	 1
   40    41	 1
   40    51	 1
   40    52	 1
   41    42	 1
   42    43	 1
   42    44	 1
   48    49	 1
   49    50	 1
   54    56	 1
   57    65	 1
   57    66	 1
   57    67	 1
   58    65	 1
   58    66	 1
   58    67	 1

[ angles ]
;	ai	  aj	ak funct			c0			  c1			c2			  c3
    2     1     3	5 ;      OG2P1      SG3O2      OG2P1
    2     1     8	5 ;      OG2P1      SG3O2      CG321
    2     1     4	5 ;      OG2P1      SG3O2      CG321
    3     1     8	5 ;      OG2P1      SG3O2      CG321
    3     1     4	5 ;      OG2P1      SG3O2      CG321
    8     1     4	5 ;      CG321      SG3O2      CG321
    1     4     5	5 ;      SG3O2      CG321      CG311
    1     4    38	5 ;      SG3O2      CG321       HGA2
    1     4    39	5 ;      SG3O2      CG321       HGA2
    5     4    38	5 ;      CG311      CG321       HGA2
    5     4    39	5 ;      CG311      CG321       HGA2
   38     4    39	5 ;       HGA2      CG321       HGA2
    6     5     4	5 ;      CG311      CG311      CG321
    6     5    25	5 ;      CG311      CG311      CG321
    6     5    40	5 ;      CG311      CG311       HGA1
    4     5    25	5 ;      CG321      CG311      CG321
    4     5    40	5 ;      CG321      CG311       HGA1
   25     5    40	5 ;      CG321      CG311       HGA1
    7     6     5	5 ;      CG314      CG311      CG311
    7     6    23	5 ;      CG314      CG311      OG311
    7     6    41	5 ;      CG314      CG311       HGA1
    5     6    23	5 ;      CG311      CG311      OG311
    5     6    41	5 ;      CG311      CG311       HGA1
   23     6    41	5 ;      OG311      CG311       HGA1
    9     7     8	5 ;      NG3P2      CG314      CG321
    9     7     6	5 ;      NG3P2      CG314      CG311
    9     7    42	5 ;      NG3P2      CG314       HGA1
    8     7     6	5 ;      CG321      CG314      CG311
    8     7    42	5 ;      CG321      CG314       HGA1
    6     7    42	5 ;      CG311      CG314       HGA1
    1     8     7	5 ;      SG3O2      CG321      CG314
    1     8    43	5 ;      SG3O2      CG321       HGA2
    1     8    44	5 ;      SG3O2      CG321       HGA2
    7     8    43	5 ;      CG314      CG321       HGA2
    7     8    44	5 ;      CG314      CG321       HGA2
   43     8    44	5 ;       HGA2      CG321       HGA2
   11     9    12	5 ;       HGP2      NG3P2      CG324
   11     9    10	5 ;       HGP2      NG3P2       HGP2
   11     9     7	5 ;       HGP2      NG3P2      CG314
   12     9    10	5 ;      CG324      NG3P2       HGP2
   12     9     7	5 ;      CG324      NG3P2      CG314
   10     9     7	5 ;       HGP2      NG3P2      CG314
   13    12     9	5 ;     CG2R61      CG324      NG3P2
   13    12    45	5 ;     CG2R61      CG324       HGA2
   13    12    46	5 ;     CG2R61      CG324       HGA2
    9    12    45	5 ;      NG3P2      CG324       HGA2
    9    12    46	5 ;      NG3P2      CG324       HGA2
   45    12    46	5 ;       HGA2      CG324       HGA2
   14    13    18	5 ;     CG2R61     CG2R61     CG2R61
   14    13    12	5 ;     CG2R61     CG2R61      CG324
   18    13    12	5 ;     CG2R61     CG2R61      CG324
   15    14    13	5 ;     CG2R61     CG2R61     CG2R61
   15    14    47	5 ;     CG2R61     CG2R61      HGR61
   13    14    47	5 ;     CG2R61     CG2R61      HGR61
   19    15    16	5 ;      CG301     CG2R61     CG2R61
   19    15    14	5 ;      CG301     CG2R61     CG2R61
   16    15    14	5 ;     CG2R61     CG2R61     CG2R61
   15    16    17	5 ;     CG2R61     CG2R61     CG2R61
   15    16    48	5 ;     CG2R61     CG2R61      HGR61
   17    16    48	5 ;     CG2R61     CG2R61      HGR61
   16    17    18	5 ;     CG2R61     CG2R61     CG2R61
   16    17    49	5 ;     CG2R61     CG2R61      HGR61
   18    17    49	5 ;     CG2R61     CG2R61      HGR61
   17    18    13	5 ;     CG2R61     CG2R61     CG2R61
   17    18    50	5 ;     CG2R61     CG2R61      HGR61
   13    18    50	5 ;     CG2R61     CG2R61      HGR61
   21    19    22	5 ;      CG331      CG301      CG331
   21    19    15	5 ;      CG331      CG301     CG2R61
   21    19    20	5 ;      CG331      CG301      CG331
   22    19    15	5 ;      CG331      CG301     CG2R61
   22    19    20	5 ;      CG331      CG301      CG331
   15    19    20	5 ;     CG2R61      CG301      CG331
   19    20    59	5 ;      CG301      CG331       HGA3
   19    20    60	5 ;      CG301      CG331       HGA3
   19    20    61	5 ;      CG301      CG331       HGA3
   59    20    60	5 ;       HGA3      CG331       HGA3
   59    20    61	5 ;       HGA3      CG331       HGA3
   60    20    61	5 ;       HGA3      CG331       HGA3
   19    21    68	5 ;      CG301      CG331       HGA3
   19    21    69	5 ;      CG301      CG331       HGA3
   19    21    70	5 ;      CG301      CG331       HGA3
   68    21    69	5 ;       HGA3      CG331       HGA3
   68    21    70	5 ;       HGA3      CG331       HGA3
   69    21    70	5 ;       HGA3      CG331       HGA3
   19    22    62	5 ;      CG301      CG331       HGA3
   19    22    63	5 ;      CG301      CG331       HGA3
   19    22    64	5 ;      CG301      CG331       HGA3
   62    22    63	5 ;       HGA3      CG331       HGA3
   62    22    64	5 ;       HGA3      CG331       HGA3
   63    22    64	5 ;       HGA3      CG331       HGA3
    6    23    24	5 ;      CG311      OG311       HGP1
   26    25     5	5 ;     CG2R61      CG321      CG311
   26    25    51	5 ;     CG2R61      CG321       HGA2
   26    25    52	5 ;     CG2R61      CG321       HGA2
    5    25    51	5 ;      CG311      CG321       HGA2
    5    25    52	5 ;      CG311      CG321       HGA2
   51    25    52	5 ;       HGA2      CG321       HGA2
   27    26    35	5 ;     CG2R61     CG2R61     CG2R61
   27    26    25	5 ;     CG2R61     CG2R61      CG321
   35    26    25	5 ;     CG2R61     CG2R61      CG321
   28    27    26	5 ;     CG2RC0     CG2R61     CG2R61
   28    27    53	5 ;     CG2RC0     CG2R61      HGR61
   26    27    53	5 ;     CG2R61     CG2R61      HGR61
   30    28    29	5 ;     CG2R51     CG2RC0     CG2RC0
   30    28    27	5 ;     CG2R51     CG2RC0     CG2R61
   29    28    27	5 ;     CG2RC0     CG2RC0     CG2R61
   31    29    28	5 ;     NG2R51     CG2RC0     CG2RC0
   31    29    32	5 ;     NG2R51     CG2RC0     CG2R61
   28    29    32	5 ;     CG2RC0     CG2RC0     CG2R61
   33    30    36	5 ;     CG2R51     CG2R51      CG321
   33    30    28	5 ;     CG2R51     CG2R51     CG2RC0
   36    30    28	5 ;      CG321     CG2R51     CG2RC0
   33    31    34	5 ;     CG2R51     NG2R51       HGP1
   33    31    29	5 ;     CG2R51     NG2R51     CG2RC0
   34    31    29	5 ;       HGP1     NG2R51     CG2RC0
   29    32    35	5 ;     CG2RC0     CG2R61     CG2R61
   29    32    54	5 ;     CG2RC0     CG2R61      HGR61
   35    32    54	5 ;     CG2R61     CG2R61      HGR61
   31    33    30	5 ;     NG2R51     CG2R51     CG2R51
   31    33    55	5 ;     NG2R51     CG2R51      HGR52
   30    33    55	5 ;     CG2R51     CG2R51      HGR52
   32    35    26	5 ;     CG2R61     CG2R61     CG2R61
   32    35    56	5 ;     CG2R61     CG2R61      HGR61
   26    35    56	5 ;     CG2R61     CG2R61      HGR61
   30    36    37	5 ;     CG2R51      CG321      CG331
   30    36    57	5 ;     CG2R51      CG321       HGA2
   30    36    58	5 ;     CG2R51      CG321       HGA2
   37    36    57	5 ;      CG331      CG321       HGA2
   37    36    58	5 ;      CG331      CG321       HGA2
   57    36    58	5 ;       HGA2      CG321       HGA2
   36    37    65	5 ;      CG321      CG331       HGA3
   36    37    66	5 ;      CG321      CG331       HGA3
   36    37    67	5 ;      CG321      CG331       HGA3
   65    37    66	5 ;       HGA3      CG331       HGA3
   65    37    67	5 ;       HGA3      CG331       HGA3
   66    37    67	5 ;       HGA3      CG331       HGA3

[ dihedrals ]
;	ai	  aj	ak	  al funct			  c0			c1			  c2			c3			  c4			c5
    2     1     8     7	 9 ;      OG2P1      SG3O2      CG321      CG314
    2     1     8    43	 9 ;      OG2P1      SG3O2      CG321       HGA2
    2     1     8    44	 9 ;      OG2P1      SG3O2      CG321       HGA2
    3     1     8     7	 9 ;      OG2P1      SG3O2      CG321      CG314
    3     1     8    43	 9 ;      OG2P1      SG3O2      CG321       HGA2
    3     1     8    44	 9 ;      OG2P1      SG3O2      CG321       HGA2
    4     1     8     7	 9 ;      CG321      SG3O2      CG321      CG314
    4     1     8    43	 9 ;      CG321      SG3O2      CG321       HGA2
    4     1     8    44	 9 ;      CG321      SG3O2      CG321       HGA2
    2     1     4     5	 9 ;      OG2P1      SG3O2      CG321      CG311
    2     1     4    38	 9 ;      OG2P1      SG3O2      CG321       HGA2
    2     1     4    39	 9 ;      OG2P1      SG3O2      CG321       HGA2
    3     1     4     5	 9 ;      OG2P1      SG3O2      CG321      CG311
    3     1     4    38	 9 ;      OG2P1      SG3O2      CG321       HGA2
    3     1     4    39	 9 ;      OG2P1      SG3O2      CG321       HGA2
    8     1     4     5	 9 ;      CG321      SG3O2      CG321      CG311
    8     1     4    38	 9 ;      CG321      SG3O2      CG321       HGA2
    8     1     4    39	 9 ;      CG321      SG3O2      CG321       HGA2
    1     4     5     6	 9 ;      SG3O2      CG321      CG311      CG311
    1     4     5    25	 9 ;      SG3O2      CG321      CG311      CG321
    1     4     5    40	 9 ;      SG3O2      CG321      CG311       HGA1
   38     4     5     6	 9 ;       HGA2      CG321      CG311      CG311
   38     4     5    25	 9 ;       HGA2      CG321      CG311      CG321
   38     4     5    40	 9 ;       HGA2      CG321      CG311       HGA1
   39     4     5     6	 9 ;       HGA2      CG321      CG311      CG311
   39     4     5    25	 9 ;       HGA2      CG321      CG311      CG321
   39     4     5    40	 9 ;       HGA2      CG321      CG311       HGA1
    4     5     6     7	 9 ;      CG321      CG311      CG311      CG314
    4     5     6    23	 9 ;      CG321      CG311      CG311      OG311
    4     5     6    41	 9 ;      CG321      CG311      CG311       HGA1
   25     5     6     7	 9 ;      CG321      CG311      CG311      CG314
   25     5     6    23	 9 ;      CG321      CG311      CG311      OG311
   25     5     6    41	 9 ;      CG321      CG311      CG311       HGA1
   40     5     6     7	 9 ;       HGA1      CG311      CG311      CG314
   40     5     6    23	 9 ;       HGA1      CG311      CG311      OG311
   40     5     6    41	 9 ;       HGA1      CG311      CG311       HGA1
    6     5    25    26	 9 ;      CG311      CG311      CG321     CG2R61
    6     5    25    51	 9 ;      CG311      CG311      CG321       HGA2
    6     5    25    52	 9 ;      CG311      CG311      CG321       HGA2
    4     5    25    26	 9 ;      CG321      CG311      CG321     CG2R61
    4     5    25    51	 9 ;      CG321      CG311      CG321       HGA2
    4     5    25    52	 9 ;      CG321      CG311      CG321       HGA2
   40     5    25    26	 9 ;       HGA1      CG311      CG321     CG2R61
   40     5    25    51	 9 ;       HGA1      CG311      CG321       HGA2
   40     5    25    52	 9 ;       HGA1      CG311      CG321       HGA2
    5     6     7     9	 9 ;      CG311      CG311      CG314      NG3P2
    5     6     7     8	 9 ;      CG311      CG311      CG314      CG321
    5     6     7    42	 9 ;      CG311      CG311      CG314       HGA1
   23     6     7     9	 9 ;      OG311      CG311      CG314      NG3P2
   23     6     7     8	 9 ;      OG311      CG311      CG314      CG321
   23     6     7    42	 9 ;      OG311      CG311      CG314       HGA1
   41     6     7     9	 9 ;       HGA1      CG311      CG314      NG3P2
   41     6     7     8	 9 ;       HGA1      CG311      CG314      CG321
   41     6     7    42	 9 ;       HGA1      CG311      CG314       HGA1
    7     6    23    24	 9 ;      CG314      CG311      OG311       HGP1
    5     6    23    24	 9 ;      CG311      CG311      OG311       HGP1
   41     6    23    24	 9 ;       HGA1      CG311      OG311       HGP1
    8     7     9    11	 9 ;      CG321      CG314      NG3P2       HGP2
    8     7     9    12	 9 ;      CG321      CG314      NG3P2      CG324
    8     7     9    10	 9 ;      CG321      CG314      NG3P2       HGP2
    6     7     9    11	 9 ;      CG311      CG314      NG3P2       HGP2
    6     7     9    12	 9 ;      CG311      CG314      NG3P2      CG324
    6     7     9    10	 9 ;      CG311      CG314      NG3P2       HGP2
   42     7     9    11	 9 ;       HGA1      CG314      NG3P2       HGP2
   42     7     9    12	 9 ;       HGA1      CG314      NG3P2      CG324
   42     7     9    10	 9 ;       HGA1      CG314      NG3P2       HGP2
    9     7     8     1	 9 ;      NG3P2      CG314      CG321      SG3O2
    9     7     8    43	 9 ;      NG3P2      CG314      CG321       HGA2
    9     7     8    44	 9 ;      NG3P2      CG314      CG321       HGA2
    6     7     8     1	 9 ;      CG311      CG314      CG321      SG3O2
    6     7     8    43	 9 ;      CG311      CG314      CG321       HGA2
    6     7     8    44	 9 ;      CG311      CG314      CG321       HGA2
   42     7     8     1	 9 ;       HGA1      CG314      CG321      SG3O2
   42     7     8    43	 9 ;       HGA1      CG314      CG321       HGA2
   42     7     8    44	 9 ;       HGA1      CG314      CG321       HGA2
   11     9    12    13	 9 ;       HGP2      NG3P2      CG324     CG2R61
   11     9    12    45	 9 ;       HGP2      NG3P2      CG324       HGA2
   11     9    12    46	 9 ;       HGP2      NG3P2      CG324       HGA2
   10     9    12    13	 9 ;       HGP2      NG3P2      CG324     CG2R61
   10     9    12    45	 9 ;       HGP2      NG3P2      CG324       HGA2
   10     9    12    46	 9 ;       HGP2      NG3P2      CG324       HGA2
    7     9    12    13	 9 ;      CG314      NG3P2      CG324     CG2R61
    7     9    12    45	 9 ;      CG314      NG3P2      CG324       HGA2
    7     9    12    46	 9 ;      CG314      NG3P2      CG324       HGA2
    9    12    13    14	 9 ;      NG3P2      CG324     CG2R61     CG2R61
    9    12    13    18	 9 ;      NG3P2      CG324     CG2R61     CG2R61
   45    12    13    14	 9 ;       HGA2      CG324     CG2R61     CG2R61
   45    12    13    18	 9 ;       HGA2      CG324     CG2R61     CG2R61
   46    12    13    14	 9 ;       HGA2      CG324     CG2R61     CG2R61
   46    12    13    18	 9 ;       HGA2      CG324     CG2R61     CG2R61
   18    13    14    15	 9 ;     CG2R61     CG2R61     CG2R61     CG2R61
   18    13    14    47	 9 ;     CG2R61     CG2R61     CG2R61      HGR61
   12    13    14    15	 9 ;      CG324     CG2R61     CG2R61     CG2R61
   12    13    14    47	 9 ;      CG324     CG2R61     CG2R61      HGR61
   14    13    18    17	 9 ;     CG2R61     CG2R61     CG2R61     CG2R61
   14    13    18    50	 9 ;     CG2R61     CG2R61     CG2R61      HGR61
   12    13    18    17	 9 ;      CG324     CG2R61     CG2R61     CG2R61
   12    13    18    50	 9 ;      CG324     CG2R61     CG2R61      HGR61
   13    14    15    19	 9 ;     CG2R61     CG2R61     CG2R61      CG301
   13    14    15    16	 9 ;     CG2R61     CG2R61     CG2R61     CG2R61
   47    14    15    19	 9 ;      HGR61     CG2R61     CG2R61      CG301
   47    14    15    16	 9 ;      HGR61     CG2R61     CG2R61     CG2R61
   16    15    19    21	 9 ;     CG2R61     CG2R61      CG301      CG331
   16    15    19    22	 9 ;     CG2R61     CG2R61      CG301      CG331
   16    15    19    20	 9 ;     CG2R61     CG2R61      CG301      CG331
   14    15    19    21	 9 ;     CG2R61     CG2R61      CG301      CG331
   14    15    19    22	 9 ;     CG2R61     CG2R61      CG301      CG331
   14    15    19    20	 9 ;     CG2R61     CG2R61      CG301      CG331
   19    15    16    17	 9 ;      CG301     CG2R61     CG2R61     CG2R61
   19    15    16    48	 9 ;      CG301     CG2R61     CG2R61      HGR61
   14    15    16    17	 9 ;     CG2R61     CG2R61     CG2R61     CG2R61
   14    15    16    48	 9 ;     CG2R61     CG2R61     CG2R61      HGR61
   15    16    17    18	 9 ;     CG2R61     CG2R61     CG2R61     CG2R61
   15    16    17    49	 9 ;     CG2R61     CG2R61     CG2R61      HGR61
   48    16    17    18	 9 ;      HGR61     CG2R61     CG2R61     CG2R61
   48    16    17    49	 9 ;      HGR61     CG2R61     CG2R61      HGR61
   16    17    18    13	 9 ;     CG2R61     CG2R61     CG2R61     CG2R61
   16    17    18    50	 9 ;     CG2R61     CG2R61     CG2R61      HGR61
   49    17    18    13	 9 ;      HGR61     CG2R61     CG2R61     CG2R61
   49    17    18    50	 9 ;      HGR61     CG2R61     CG2R61      HGR61
   22    19    21    68	 9 ;      CG331      CG301      CG331       HGA3
   22    19    21    69	 9 ;      CG331      CG301      CG331       HGA3
   22    19    21    70	 9 ;      CG331      CG301      CG331       HGA3
   15    19    21    68	 9 ;     CG2R61      CG301      CG331       HGA3
   15    19    21    69	 9 ;     CG2R61      CG301      CG331       HGA3
   15    19    21    70	 9 ;     CG2R61      CG301      CG331       HGA3
   20    19    21    68	 9 ;      CG331      CG301      CG331       HGA3
   20    19    21    69	 9 ;      CG331      CG301      CG331       HGA3
   20    19    21    70	 9 ;      CG331      CG301      CG331       HGA3
   21    19    22    62	 9 ;      CG331      CG301      CG331       HGA3
   21    19    22    63	 9 ;      CG331      CG301      CG331       HGA3
   21    19    22    64	 9 ;      CG331      CG301      CG331       HGA3
   15    19    22    62	 9 ;     CG2R61      CG301      CG331       HGA3
   15    19    22    63	 9 ;     CG2R61      CG301      CG331       HGA3
   15    19    22    64	 9 ;     CG2R61      CG301      CG331       HGA3
   20    19    22    62	 9 ;      CG331      CG301      CG331       HGA3
   20    19    22    63	 9 ;      CG331      CG301      CG331       HGA3
   20    19    22    64	 9 ;      CG331      CG301      CG331       HGA3
   21    19    20    59	 9 ;      CG331      CG301      CG331       HGA3
   21    19    20    60	 9 ;      CG331      CG301      CG331       HGA3
   21    19    20    61	 9 ;      CG331      CG301      CG331       HGA3
   22    19    20    59	 9 ;      CG331      CG301      CG331       HGA3
   22    19    20    60	 9 ;      CG331      CG301      CG331       HGA3
   22    19    20    61	 9 ;      CG331      CG301      CG331       HGA3
   15    19    20    59	 9 ;     CG2R61      CG301      CG331       HGA3
   15    19    20    60	 9 ;     CG2R61      CG301      CG331       HGA3
   15    19    20    61	 9 ;     CG2R61      CG301      CG331       HGA3
    5    25    26    27	 9 ;      CG311      CG321     CG2R61     CG2R61
    5    25    26    35	 9 ;      CG311      CG321     CG2R61     CG2R61
   51    25    26    27	 9 ;       HGA2      CG321     CG2R61     CG2R61
   51    25    26    35	 9 ;       HGA2      CG321     CG2R61     CG2R61
   52    25    26    27	 9 ;       HGA2      CG321     CG2R61     CG2R61
   52    25    26    35	 9 ;       HGA2      CG321     CG2R61     CG2R61
   35    26    27    28	 9 ;     CG2R61     CG2R61     CG2R61     CG2RC0
   35    26    27    53	 9 ;     CG2R61     CG2R61     CG2R61      HGR61
   25    26    27    28	 9 ;      CG321     CG2R61     CG2R61     CG2RC0
   25    26    27    53	 9 ;      CG321     CG2R61     CG2R61      HGR61
   27    26    35    32	 9 ;     CG2R61     CG2R61     CG2R61     CG2R61
   27    26    35    56	 9 ;     CG2R61     CG2R61     CG2R61      HGR61
   25    26    35    32	 9 ;      CG321     CG2R61     CG2R61     CG2R61
   25    26    35    56	 9 ;      CG321     CG2R61     CG2R61      HGR61
   26    27    28    30	 9 ;     CG2R61     CG2R61     CG2RC0     CG2R51
   26    27    28    29	 9 ;     CG2R61     CG2R61     CG2RC0     CG2RC0
   53    27    28    30	 9 ;      HGR61     CG2R61     CG2RC0     CG2R51
   53    27    28    29	 9 ;      HGR61     CG2R61     CG2RC0     CG2RC0
   29    28    30    33	 9 ;     CG2RC0     CG2RC0     CG2R51     CG2R51
   29    28    30    36	 9 ;     CG2RC0     CG2RC0     CG2R51      CG321
   27    28    30    33	 9 ;     CG2R61     CG2RC0     CG2R51     CG2R51
   27    28    30    36	 9 ;     CG2R61     CG2RC0     CG2R51      CG321
   30    28    29    31	 9 ;     CG2R51     CG2RC0     CG2RC0     NG2R51
   30    28    29    32	 9 ;     CG2R51     CG2RC0     CG2RC0     CG2R61
   27    28    29    31	 9 ;     CG2R61     CG2RC0     CG2RC0     NG2R51
   27    28    29    32	 9 ;     CG2R61     CG2RC0     CG2RC0     CG2R61
   28    29    31    33	 9 ;     CG2RC0     CG2RC0     NG2R51     CG2R51
   28    29    31    34	 9 ;     CG2RC0     CG2RC0     NG2R51       HGP1
   32    29    31    33	 9 ;     CG2R61     CG2RC0     NG2R51     CG2R51
   32    29    31    34	 9 ;     CG2R61     CG2RC0     NG2R51       HGP1
   31    29    32    35	 9 ;     NG2R51     CG2RC0     CG2R61     CG2R61
   31    29    32    54	 9 ;     NG2R51     CG2RC0     CG2R61      HGR61
   28    29    32    35	 9 ;     CG2RC0     CG2RC0     CG2R61     CG2R61
   28    29    32    54	 9 ;     CG2RC0     CG2RC0     CG2R61      HGR61
   36    30    33    31	 9 ;      CG321     CG2R51     CG2R51     NG2R51
   36    30    33    55	 9 ;      CG321     CG2R51     CG2R51      HGR52
   28    30    33    31	 9 ;     CG2RC0     CG2R51     CG2R51     NG2R51
   28    30    33    55	 9 ;     CG2RC0     CG2R51     CG2R51      HGR52
   33    30    36    37	 9 ;     CG2R51     CG2R51      CG321      CG331
   33    30    36    57	 9 ;     CG2R51     CG2R51      CG321       HGA2
   33    30    36    58	 9 ;     CG2R51     CG2R51      CG321       HGA2
   28    30    36    37	 9 ;     CG2RC0     CG2R51      CG321      CG331
   28    30    36    57	 9 ;     CG2RC0     CG2R51      CG321       HGA2
   28    30    36    58	 9 ;     CG2RC0     CG2R51      CG321       HGA2
   34    31    33    30	 9 ;       HGP1     NG2R51     CG2R51     CG2R51
   34    31    33    55	 9 ;       HGP1     NG2R51     CG2R51      HGR52
   29    31    33    30	 9 ;     CG2RC0     NG2R51     CG2R51     CG2R51
   29    31    33    55	 9 ;     CG2RC0     NG2R51     CG2R51      HGR52
   29    32    35    26	 9 ;     CG2RC0     CG2R61     CG2R61     CG2R61
   29    32    35    56	 9 ;     CG2RC0     CG2R61     CG2R61      HGR61
   54    32    35    26	 9 ;      HGR61     CG2R61     CG2R61     CG2R61
   54    32    35    56	 9 ;      HGR61     CG2R61     CG2R61      HGR61
   30    36    37    65	 9 ;     CG2R51      CG321      CG331       HGA3
   30    36    37    66	 9 ;     CG2R51      CG321      CG331       HGA3
   30    36    37    67	 9 ;     CG2R51      CG321      CG331       HGA3
   57    36    37    65	 9 ;       HGA2      CG321      CG331       HGA3
   57    36    37    66	 9 ;       HGA2      CG321      CG331       HGA3
   57    36    37    67	 9 ;       HGA2      CG321      CG331       HGA3
   58    36    37    65	 9 ;       HGA2      CG321      CG331       HGA3
   58    36    37    66	 9 ;       HGA2      CG321      CG331       HGA3
   58    36    37    67	 9 ;       HGA2      CG321      CG331       HGA3

