GROtesk MACabre and Sinister
   26
    1LIG     O2    1   2.270   4.197  -1.824
    1LIG     C1    2   2.123   4.026  -1.747
    1LIG     C2    3   2.208   4.094  -1.845
    1LIG     O3    4   1.969   3.868  -1.582
    1LIG     C3    5   2.047   3.976  -1.386
    1LIG     C4    6   2.129   4.076  -1.331
    1LIG     C5    7   1.962   3.902  -1.303
    1LIG     C6    8   2.123   4.102  -1.194
    1LIG     C7    9   1.957   3.928  -1.166
    1LIG     C8   10   2.037   4.028  -1.113
    1LIG     C9   11   2.148   4.021  -1.615
    1LIG    C10   12   2.266   4.078  -1.541
    1LIG    C11   13   2.048   3.948  -1.532
    1LIG    C12   14   2.219   4.158  -1.420
    1LIG     O1   15   2.029   4.050  -0.979
    1LIG     H1   16   2.056   3.970  -0.931
    1LIG     O4   17   2.209   4.030  -1.963
    1LIG    H10   18   2.210   4.088  -2.042
    1LIG     H2   19   2.038   3.978  -1.782
    1LIG     H3   20   1.902   3.828  -1.344
    1LIG     H4   21   2.181   4.177  -1.152
    1LIG     H5   22   1.894   3.874  -1.105
    1LIG     H6   23   2.321   4.142  -1.606
    1LIG     H7   24   2.327   3.997  -1.507
    1LIG     H8   25   2.166   4.245  -1.454
    1LIG     H9   26   2.305   4.187  -1.363
   0.00000   0.00000   0.00000
