S  C  A  M  O  R  G
   54
    1LIG     C1    1  -1.337   0.382  -1.493
    1LIG     N1    2  -1.254   0.378  -1.618
    1LIG    HN1    3  -1.223   0.297  -1.670
    1LIG     C2    4  -1.231   0.503  -1.642
    1LIG     C3    5  -1.148   0.557  -1.752
    1LIG     C4    6  -1.292   0.593  -1.540
    1LIG     N2    7  -1.352   0.523  -1.450
    1LIG    HN2    8  -1.399   0.558  -1.367
    1LIG     C5    9  -1.261   0.299  -1.383
    1LIG     C6   10  -1.179   0.180  -1.436
    1LIG     C7   11  -1.045   0.222  -1.497
    1LIG     O1   12  -0.969   0.302  -1.406
    1LIG     C8   13  -1.038   0.420  -1.364
    1LIG     C9   14  -1.168   0.384  -1.293
    1LIG    C10   15  -1.475   0.319  -1.520
    1LIG    C11   16  -1.582   0.348  -1.434
    1LIG    C12   17  -1.714   0.311  -1.465
    1LIG    C13   18  -1.735   0.235  -1.582
    1LIG    C14   19  -1.628   0.199  -1.665
    1LIG    C15   20  -1.500   0.242  -1.635
    1LIG    C16   21  -1.827   0.353  -1.380
    1LIG    C17   22  -1.907   0.463  -1.415
    1LIG    C18   23  -2.014   0.503  -1.335
    1LIG    C19   24  -2.043   0.433  -1.218
    1LIG    C20   25  -1.964   0.325  -1.180
    1LIG    C21   26  -1.857   0.285  -1.260
    1LIG     O2   27  -2.097   0.609  -1.362
    1LIG    C22   28  -2.236   0.580  -1.370
    1LIG     N3   29  -1.284   0.728  -1.538
    1LIG     H1   30  -1.310   0.767  -1.447
    1LIG     H2   31  -1.201   0.771  -1.577
    1LIG    HC1   32  -1.113   0.475  -1.815
    1LIG    HC2   33  -1.207   0.626  -1.812
    1LIG    HC3   34  -1.062   0.609  -1.711
    1LIG     HC   35  -1.337   0.257  -1.317
    1LIG    HC4   36  -1.237   0.130  -1.513
    1LIG    HC5   37  -1.160   0.111  -1.355
    1LIG    HC6   38  -0.988   0.133  -1.522
    1LIG    HC7   39  -1.064   0.279  -1.588
    1LIG    HC8   40  -0.974   0.476  -1.295
    1LIG    HC9   41  -1.060   0.482  -1.451
    1LIG   HC10   42  -1.219   0.475  -1.265
    1LIG   HC11   43  -1.144   0.327  -1.203
    1LIG   HC12   44  -1.563   0.400  -1.342
    1LIG   HC13   45  -1.835   0.204  -1.608
    1LIG   HC14   46  -1.646   0.138  -1.752
    1LIG   HC15   47  -1.418   0.216  -1.700
    1LIG   HC16   48  -1.886   0.517  -1.506
    1LIG   HC17   49  -2.126   0.464  -1.156
    1LIG   HC18   50  -1.987   0.271  -1.089
    1LIG   HC19   51  -1.796   0.202  -1.229
    1LIG   HC20   52  -2.285   0.652  -1.435
    1LIG   HC21   53  -2.280   0.585  -1.270
    1LIG   HC22   54  -2.250   0.479  -1.411
   0.00000   0.00000   0.00000
