; Created by cgenff_charmm2gmx.py

[ moleculetype ]
; Name			   nrexcl
LIG				 3

[ atoms ]
;	 nr		  type	resnr residue  atom   cgnr	   charge		mass  typeB    chargeB		massB
; residue	 1 LIG rtp LIG q	qsum
     1     CG3C50      1    LIG     C1      1      0.762     12.011   ;
     2     NG3C51      1    LIG     N1      2     -0.577     14.007   ;
     3       HGP1      1    LIG    HN1      3      0.266      1.008   ;
     4     CG2R51      1    LIG     C2      4     -0.245     12.011   ;
     5      CG331      1    LIG     C3      5     -0.073     12.011   ;
     6     CG2R51      1    LIG     C4      6     -0.019     12.011   ;
     7     NG3C51      1    LIG     N2      7     -0.610     14.007   ;
     8       HGP1      1    LIG    HN2      8      0.266      1.008   ;
     9      CG311      1    LIG     C5      9      0.040     12.011   ;
    10      CG321      1    LIG     C6     10     -0.151     12.011   ;
    11      CG321      1    LIG     C7     11     -0.016     12.011   ;
    12     OG3C61      1    LIG     O1     12     -0.430     15.999   ;
    13      CG321      1    LIG     C8     13     -0.016     12.011   ;
    14      CG321      1    LIG     C9     14     -0.151     12.011   ;
    15     CG2R61      1    LIG    C10     15     -0.038     12.011   ;
    16     CG2R61      1    LIG    C11     16     -0.233     12.011   ;
    17     CG2R67      1    LIG    C12     17      0.014     12.011   ;
    18     CG2R61      1    LIG    C13     18     -0.119     12.011   ;
    19     CG2R61      1    LIG    C14     19     -0.108     12.011   ;
    20     CG2R61      1    LIG    C15     20     -0.226     12.011   ;
    21     CG2R67      1    LIG    C16     21      0.006     12.011   ;
    22     CG2R61      1    LIG    C17     22     -0.122     12.011   ;
    23     CG2R61      1    LIG    C18     23      0.209     12.011   ;
    24     CG2R61      1    LIG    C19     24     -0.115     12.011   ;
    25     CG2R61      1    LIG    C20     25     -0.116     12.011   ;
    26     CG2R61      1    LIG    C21     26     -0.119     12.011   ;
    27      OG301      1    LIG     O2     27     -0.383     15.999   ;
    28      CG331      1    LIG    C22     28     -0.094     12.011   ;
    29      NG321      1    LIG     N3     29     -0.622     14.007   ;
    30     HGPAM2      1    LIG     H1     30      0.371      1.008   ;
    31     HGPAM2      1    LIG     H2     31      0.371      1.008   ;
    32       HGA3      1    LIG    HC1     32      0.090      1.008   ;
    33       HGA3      1    LIG    HC2     33      0.090      1.008   ;
    34       HGA3      1    LIG    HC3     34      0.090      1.008   ;
    35       HGA1      1    LIG     HC     35      0.090      1.008   ;
    36       HGA2      1    LIG    HC4     36      0.090      1.008   ;
    37       HGA2      1    LIG    HC5     37      0.090      1.008   ;
    38       HGA2      1    LIG    HC6     38      0.090      1.008   ;
    39       HGA2      1    LIG    HC7     39      0.090      1.008   ;
    40       HGA2      1    LIG    HC8     40      0.090      1.008   ;
    41       HGA2      1    LIG    HC9     41      0.090      1.008   ;
    42       HGA2      1    LIG   HC10     42      0.090      1.008   ;
    43       HGA2      1    LIG   HC11     43      0.090      1.008   ;
    44      HGR61      1    LIG   HC12     44      0.116      1.008   ;
    45      HGR61      1    LIG   HC13     45      0.116      1.008   ;
    46      HGR61      1    LIG   HC14     46      0.116      1.008   ;
    47      HGR61      1    LIG   HC15     47      0.116      1.008   ;
    48      HGR61      1    LIG   HC16     48      0.116      1.008   ;
    49      HGR61      1    LIG   HC17     49      0.116      1.008   ;
    50      HGR61      1    LIG   HC18     50      0.116      1.008   ;
    51      HGR61      1    LIG   HC19     51      0.116      1.008   ;
    52       HGA3      1    LIG   HC20     52      0.090      1.008   ;
    53       HGA3      1    LIG   HC21     53      0.090      1.008   ;
    54       HGA3      1    LIG   HC22     54      0.090      1.008   ;

[ bonds ]
;	ai	  aj funct			  c0			c1			  c2			c3
    1     2	 1 ;      CG3C50     NG3C51
    1     7	 1 ;      CG3C50     NG3C51
    1     9	 1 ;      CG3C50      CG311
    1    15	 1 ;      CG3C50     CG2R61
    2     4	 1 ;      NG3C51     CG2R51
    2     3	 1 ;      NG3C51       HGP1
    4     5	 1 ;      CG2R51      CG331
    4     6	 1 ;      CG2R51     CG2R51
    5    32	 1 ;       CG331       HGA3
    5    33	 1 ;       CG331       HGA3
    5    34	 1 ;       CG331       HGA3
    6    29	 1 ;      CG2R51      NG321
    6     7	 1 ;      CG2R51     NG3C51
    7     8	 1 ;      NG3C51       HGP1
    9    10	 1 ;       CG311      CG321
    9    14	 1 ;       CG311      CG321
    9    35	 1 ;       CG311       HGA1
   10    11	 1 ;       CG321      CG321
   10    36	 1 ;       CG321       HGA2
   10    37	 1 ;       CG321       HGA2
   11    12	 1 ;       CG321     OG3C61
   11    38	 1 ;       CG321       HGA2
   11    39	 1 ;       CG321       HGA2
   12    13	 1 ;      OG3C61      CG321
   13    14	 1 ;       CG321      CG321
   13    40	 1 ;       CG321       HGA2
   13    41	 1 ;       CG321       HGA2
   14    42	 1 ;       CG321       HGA2
   14    43	 1 ;       CG321       HGA2
   15    20	 1 ;      CG2R61     CG2R61
   15    16	 1 ;      CG2R61     CG2R61
   16    17	 1 ;      CG2R61     CG2R67
   16    44	 1 ;      CG2R61      HGR61
   17    18	 1 ;      CG2R67     CG2R61
   17    21	 1 ;      CG2R67     CG2R67
   18    19	 1 ;      CG2R61     CG2R61
   18    45	 1 ;      CG2R61      HGR61
   19    20	 1 ;      CG2R61     CG2R61
   19    46	 1 ;      CG2R61      HGR61
   20    47	 1 ;      CG2R61      HGR61
   21    22	 1 ;      CG2R67     CG2R61
   21    26	 1 ;      CG2R67     CG2R61
   22    23	 1 ;      CG2R61     CG2R61
   22    48	 1 ;      CG2R61      HGR61
   23    27	 1 ;      CG2R61      OG301
   23    24	 1 ;      CG2R61     CG2R61
   24    25	 1 ;      CG2R61     CG2R61
   24    49	 1 ;      CG2R61      HGR61
   25    26	 1 ;      CG2R61     CG2R61
   25    50	 1 ;      CG2R61      HGR61
   26    51	 1 ;      CG2R61      HGR61
   27    28	 1 ;       OG301      CG331
   28    52	 1 ;       CG331       HGA3
   28    53	 1 ;       CG331       HGA3
   28    54	 1 ;       CG331       HGA3
   29    31	 1 ;       NG321     HGPAM2
   29    30	 1 ;       NG321     HGPAM2

[ pairs ]
;	ai	  aj funct			  c0			c1			  c2			c3
    1     5	 1
    1    29	 1
    1    11	 1
    1    36	 1
    1    37	 1
    1    13	 1
    1    42	 1
    1    43	 1
    1    19	 1
    1    47	 1
    1    17	 1
    1    44	 1
    2     8	 1
    2    10	 1
    2    14	 1
    2    35	 1
    2    20	 1
    2    16	 1
    2    32	 1
    2    33	 1
    2    34	 1
    2    29	 1
    3     7	 1
    3     9	 1
    3    15	 1
    3     5	 1
    3     6	 1
    4     9	 1
    4    15	 1
    4    31	 1
    4    30	 1
    4     8	 1
    5    29	 1
    5     7	 1
    6     9	 1
    6    15	 1
    6    32	 1
    6    33	 1
    6    34	 1
    7    10	 1
    7    14	 1
    7    35	 1
    7    20	 1
    7    16	 1
    7    31	 1
    7    30	 1
    8     9	 1
    8    15	 1
    8    29	 1
    9    20	 1
    9    16	 1
    9    12	 1
    9    38	 1
    9    39	 1
    9    40	 1
    9    41	 1
   10    15	 1
   10    13	 1
   10    42	 1
   10    43	 1
   11    14	 1
   11    35	 1
   11    40	 1
   11    41	 1
   12    36	 1
   12    37	 1
   12    42	 1
   12    43	 1
   13    35	 1
   13    38	 1
   13    39	 1
   14    15	 1
   14    36	 1
   14    37	 1
   15    35	 1
   15    18	 1
   15    21	 1
   15    46	 1
   16    19	 1
   16    47	 1
   16    45	 1
   16    22	 1
   16    26	 1
   17    20	 1
   17    46	 1
   17    23	 1
   17    48	 1
   17    25	 1
   17    51	 1
   18    44	 1
   18    22	 1
   18    26	 1
   18    47	 1
   19    21	 1
   20    44	 1
   20    45	 1
   21    44	 1
   21    45	 1
   21    27	 1
   21    24	 1
   21    50	 1
   22    25	 1
   22    51	 1
   22    28	 1
   22    49	 1
   23    26	 1
   23    50	 1
   23    52	 1
   23    53	 1
   23    54	 1
   24    48	 1
   24    28	 1
   24    51	 1
   25    27	 1
   26    48	 1
   26    49	 1
   27    48	 1
   27    49	 1
   35    36	 1
   35    37	 1
   35    42	 1
   35    43	 1
   36    38	 1
   36    39	 1
   37    38	 1
   37    39	 1
   40    42	 1
   40    43	 1
   41    42	 1
   41    43	 1
   45    46	 1
   46    47	 1
   49    50	 1
   50    51	 1

[ angles ]
;	ai	  aj	ak funct			c0			  c1			c2			  c3
    2     1     7	5 ;     NG3C51     CG3C50     NG3C51
    2     1     9	5 ;     NG3C51     CG3C50      CG311
    2     1    15	5 ;     NG3C51     CG3C50     CG2R61
    7     1     9	5 ;     NG3C51     CG3C50      CG311
    7     1    15	5 ;     NG3C51     CG3C50     CG2R61
    9     1    15	5 ;      CG311     CG3C50     CG2R61
    4     2     3	5 ;     CG2R51     NG3C51       HGP1
    4     2     1	5 ;     CG2R51     NG3C51     CG3C50
    3     2     1	5 ;       HGP1     NG3C51     CG3C50
    5     4     2	5 ;      CG331     CG2R51     NG3C51
    5     4     6	5 ;      CG331     CG2R51     CG2R51
    2     4     6	5 ;     NG3C51     CG2R51     CG2R51
    4     5    32	5 ;     CG2R51      CG331       HGA3
    4     5    33	5 ;     CG2R51      CG331       HGA3
    4     5    34	5 ;     CG2R51      CG331       HGA3
   32     5    33	5 ;       HGA3      CG331       HGA3
   32     5    34	5 ;       HGA3      CG331       HGA3
   33     5    34	5 ;       HGA3      CG331       HGA3
    4     6    29	5 ;     CG2R51     CG2R51      NG321
    4     6     7	5 ;     CG2R51     CG2R51     NG3C51
   29     6     7	5 ;      NG321     CG2R51     NG3C51
    6     7     1	5 ;     CG2R51     NG3C51     CG3C50
    6     7     8	5 ;     CG2R51     NG3C51       HGP1
    1     7     8	5 ;     CG3C50     NG3C51       HGP1
    1     9    10	5 ;     CG3C50      CG311      CG321
    1     9    14	5 ;     CG3C50      CG311      CG321
    1     9    35	5 ;     CG3C50      CG311       HGA1
   10     9    14	5 ;      CG321      CG311      CG321
   10     9    35	5 ;      CG321      CG311       HGA1
   14     9    35	5 ;      CG321      CG311       HGA1
   11    10     9	5 ;      CG321      CG321      CG311
   11    10    36	5 ;      CG321      CG321       HGA2
   11    10    37	5 ;      CG321      CG321       HGA2
    9    10    36	5 ;      CG311      CG321       HGA2
    9    10    37	5 ;      CG311      CG321       HGA2
   36    10    37	5 ;       HGA2      CG321       HGA2
   12    11    10	5 ;     OG3C61      CG321      CG321
   12    11    38	5 ;     OG3C61      CG321       HGA2
   12    11    39	5 ;     OG3C61      CG321       HGA2
   10    11    38	5 ;      CG321      CG321       HGA2
   10    11    39	5 ;      CG321      CG321       HGA2
   38    11    39	5 ;       HGA2      CG321       HGA2
   11    12    13	5 ;      CG321     OG3C61      CG321
   12    13    14	5 ;     OG3C61      CG321      CG321
   12    13    40	5 ;     OG3C61      CG321       HGA2
   12    13    41	5 ;     OG3C61      CG321       HGA2
   14    13    40	5 ;      CG321      CG321       HGA2
   14    13    41	5 ;      CG321      CG321       HGA2
   40    13    41	5 ;       HGA2      CG321       HGA2
   13    14     9	5 ;      CG321      CG321      CG311
   13    14    42	5 ;      CG321      CG321       HGA2
   13    14    43	5 ;      CG321      CG321       HGA2
    9    14    42	5 ;      CG311      CG321       HGA2
    9    14    43	5 ;      CG311      CG321       HGA2
   42    14    43	5 ;       HGA2      CG321       HGA2
    1    15    20	5 ;     CG3C50     CG2R61     CG2R61
    1    15    16	5 ;     CG3C50     CG2R61     CG2R61
   20    15    16	5 ;     CG2R61     CG2R61     CG2R61
   15    16    17	5 ;     CG2R61     CG2R61     CG2R67
   15    16    44	5 ;     CG2R61     CG2R61      HGR61
   17    16    44	5 ;     CG2R67     CG2R61      HGR61
   16    17    18	5 ;     CG2R61     CG2R67     CG2R61
   16    17    21	5 ;     CG2R61     CG2R67     CG2R67
   18    17    21	5 ;     CG2R61     CG2R67     CG2R67
   19    18    17	5 ;     CG2R61     CG2R61     CG2R67
   19    18    45	5 ;     CG2R61     CG2R61      HGR61
   17    18    45	5 ;     CG2R67     CG2R61      HGR61
   20    19    18	5 ;     CG2R61     CG2R61     CG2R61
   20    19    46	5 ;     CG2R61     CG2R61      HGR61
   18    19    46	5 ;     CG2R61     CG2R61      HGR61
   15    20    19	5 ;     CG2R61     CG2R61     CG2R61
   15    20    47	5 ;     CG2R61     CG2R61      HGR61
   19    20    47	5 ;     CG2R61     CG2R61      HGR61
   17    21    22	5 ;     CG2R67     CG2R67     CG2R61
   17    21    26	5 ;     CG2R67     CG2R67     CG2R61
   22    21    26	5 ;     CG2R61     CG2R67     CG2R61
   21    22    23	5 ;     CG2R67     CG2R61     CG2R61
   21    22    48	5 ;     CG2R67     CG2R61      HGR61
   23    22    48	5 ;     CG2R61     CG2R61      HGR61
   22    23    27	5 ;     CG2R61     CG2R61      OG301
   22    23    24	5 ;     CG2R61     CG2R61     CG2R61
   27    23    24	5 ;      OG301     CG2R61     CG2R61
   23    24    25	5 ;     CG2R61     CG2R61     CG2R61
   23    24    49	5 ;     CG2R61     CG2R61      HGR61
   25    24    49	5 ;     CG2R61     CG2R61      HGR61
   26    25    24	5 ;     CG2R61     CG2R61     CG2R61
   26    25    50	5 ;     CG2R61     CG2R61      HGR61
   24    25    50	5 ;     CG2R61     CG2R61      HGR61
   21    26    25	5 ;     CG2R67     CG2R61     CG2R61
   21    26    51	5 ;     CG2R67     CG2R61      HGR61
   25    26    51	5 ;     CG2R61     CG2R61      HGR61
   23    27    28	5 ;     CG2R61      OG301      CG331
   27    28    52	5 ;      OG301      CG331       HGA3
   27    28    53	5 ;      OG301      CG331       HGA3
   27    28    54	5 ;      OG301      CG331       HGA3
   52    28    53	5 ;       HGA3      CG331       HGA3
   52    28    54	5 ;       HGA3      CG331       HGA3
   53    28    54	5 ;       HGA3      CG331       HGA3
   31    29     6	5 ;     HGPAM2      NG321     CG2R51
   31    29    30	5 ;     HGPAM2      NG321     HGPAM2
    6    29    30	5 ;     CG2R51      NG321     HGPAM2

[ dihedrals ]
;	ai	  aj	ak	  al funct			  c0			c1			  c2			c3			  c4			c5
    7     1     2     4	 9 ;     NG3C51     CG3C50     NG3C51     CG2R51
    7     1     2     3	 9 ;     NG3C51     CG3C50     NG3C51       HGP1
    9     1     2     4	 9 ;      CG311     CG3C50     NG3C51     CG2R51
    9     1     2     3	 9 ;      CG311     CG3C50     NG3C51       HGP1
   15     1     2     4	 9 ;     CG2R61     CG3C50     NG3C51     CG2R51
   15     1     2     3	 9 ;     CG2R61     CG3C50     NG3C51       HGP1
    2     1     7     6	 9 ;     NG3C51     CG3C50     NG3C51     CG2R51
    2     1     7     8	 9 ;     NG3C51     CG3C50     NG3C51       HGP1
    9     1     7     6	 9 ;      CG311     CG3C50     NG3C51     CG2R51
    9     1     7     8	 9 ;      CG311     CG3C50     NG3C51       HGP1
   15     1     7     6	 9 ;     CG2R61     CG3C50     NG3C51     CG2R51
   15     1     7     8	 9 ;     CG2R61     CG3C50     NG3C51       HGP1
    2     1     9    10	 9 ;     NG3C51     CG3C50      CG311      CG321
    2     1     9    14	 9 ;     NG3C51     CG3C50      CG311      CG321
    2     1     9    35	 9 ;     NG3C51     CG3C50      CG311       HGA1
    7     1     9    10	 9 ;     NG3C51     CG3C50      CG311      CG321
    7     1     9    14	 9 ;     NG3C51     CG3C50      CG311      CG321
    7     1     9    35	 9 ;     NG3C51     CG3C50      CG311       HGA1
   15     1     9    10	 9 ;     CG2R61     CG3C50      CG311      CG321
   15     1     9    14	 9 ;     CG2R61     CG3C50      CG311      CG321
   15     1     9    35	 9 ;     CG2R61     CG3C50      CG311       HGA1
    2     1    15    20	 9 ;     NG3C51     CG3C50     CG2R61     CG2R61
    2     1    15    16	 9 ;     NG3C51     CG3C50     CG2R61     CG2R61
    7     1    15    20	 9 ;     NG3C51     CG3C50     CG2R61     CG2R61
    7     1    15    16	 9 ;     NG3C51     CG3C50     CG2R61     CG2R61
    9     1    15    20	 9 ;      CG311     CG3C50     CG2R61     CG2R61
    9     1    15    16	 9 ;      CG311     CG3C50     CG2R61     CG2R61
    3     2     4     5	 9 ;       HGP1     NG3C51     CG2R51      CG331
    3     2     4     6	 9 ;       HGP1     NG3C51     CG2R51     CG2R51
    1     2     4     5	 9 ;     CG3C50     NG3C51     CG2R51      CG331
    1     2     4     6	 9 ;     CG3C50     NG3C51     CG2R51     CG2R51
    2     4     5    32	 9 ;     NG3C51     CG2R51      CG331       HGA3
    2     4     5    33	 9 ;     NG3C51     CG2R51      CG331       HGA3
    2     4     5    34	 9 ;     NG3C51     CG2R51      CG331       HGA3
    6     4     5    32	 9 ;     CG2R51     CG2R51      CG331       HGA3
    6     4     5    33	 9 ;     CG2R51     CG2R51      CG331       HGA3
    6     4     5    34	 9 ;     CG2R51     CG2R51      CG331       HGA3
    5     4     6    29	 9 ;      CG331     CG2R51     CG2R51      NG321
    5     4     6     7	 9 ;      CG331     CG2R51     CG2R51     NG3C51
    2     4     6    29	 9 ;     NG3C51     CG2R51     CG2R51      NG321
    2     4     6     7	 9 ;     NG3C51     CG2R51     CG2R51     NG3C51
    4     6    29    31	 9 ;     CG2R51     CG2R51      NG321     HGPAM2
    4     6    29    30	 9 ;     CG2R51     CG2R51      NG321     HGPAM2
    7     6    29    31	 9 ;     NG3C51     CG2R51      NG321     HGPAM2
    7     6    29    30	 9 ;     NG3C51     CG2R51      NG321     HGPAM2
    4     6     7     1	 9 ;     CG2R51     CG2R51     NG3C51     CG3C50
    4     6     7     8	 9 ;     CG2R51     CG2R51     NG3C51       HGP1
   29     6     7     1	 9 ;      NG321     CG2R51     NG3C51     CG3C50
   29     6     7     8	 9 ;      NG321     CG2R51     NG3C51       HGP1
    1     9    10    11	 9 ;     CG3C50      CG311      CG321      CG321
    1     9    10    36	 9 ;     CG3C50      CG311      CG321       HGA2
    1     9    10    37	 9 ;     CG3C50      CG311      CG321       HGA2
   14     9    10    11	 9 ;      CG321      CG311      CG321      CG321
   14     9    10    36	 9 ;      CG321      CG311      CG321       HGA2
   14     9    10    37	 9 ;      CG321      CG311      CG321       HGA2
   35     9    10    11	 9 ;       HGA1      CG311      CG321      CG321
   35     9    10    36	 9 ;       HGA1      CG311      CG321       HGA2
   35     9    10    37	 9 ;       HGA1      CG311      CG321       HGA2
    1     9    14    13	 9 ;     CG3C50      CG311      CG321      CG321
    1     9    14    42	 9 ;     CG3C50      CG311      CG321       HGA2
    1     9    14    43	 9 ;     CG3C50      CG311      CG321       HGA2
   10     9    14    13	 9 ;      CG321      CG311      CG321      CG321
   10     9    14    42	 9 ;      CG321      CG311      CG321       HGA2
   10     9    14    43	 9 ;      CG321      CG311      CG321       HGA2
   35     9    14    13	 9 ;       HGA1      CG311      CG321      CG321
   35     9    14    42	 9 ;       HGA1      CG311      CG321       HGA2
   35     9    14    43	 9 ;       HGA1      CG311      CG321       HGA2
    9    10    11    12	 9 ;      CG311      CG321      CG321     OG3C61
    9    10    11    38	 9 ;      CG311      CG321      CG321       HGA2
    9    10    11    39	 9 ;      CG311      CG321      CG321       HGA2
   36    10    11    12	 9 ;       HGA2      CG321      CG321     OG3C61
   36    10    11    38	 9 ;       HGA2      CG321      CG321       HGA2
   36    10    11    39	 9 ;       HGA2      CG321      CG321       HGA2
   37    10    11    12	 9 ;       HGA2      CG321      CG321     OG3C61
   37    10    11    38	 9 ;       HGA2      CG321      CG321       HGA2
   37    10    11    39	 9 ;       HGA2      CG321      CG321       HGA2
   10    11    12    13	 9 ;      CG321      CG321     OG3C61      CG321
   38    11    12    13	 9 ;       HGA2      CG321     OG3C61      CG321
   39    11    12    13	 9 ;       HGA2      CG321     OG3C61      CG321
   11    12    13    14	 9 ;      CG321     OG3C61      CG321      CG321
   11    12    13    40	 9 ;      CG321     OG3C61      CG321       HGA2
   11    12    13    41	 9 ;      CG321     OG3C61      CG321       HGA2
   12    13    14     9	 9 ;     OG3C61      CG321      CG321      CG311
   12    13    14    42	 9 ;     OG3C61      CG321      CG321       HGA2
   12    13    14    43	 9 ;     OG3C61      CG321      CG321       HGA2
   40    13    14     9	 9 ;       HGA2      CG321      CG321      CG311
   40    13    14    42	 9 ;       HGA2      CG321      CG321       HGA2
   40    13    14    43	 9 ;       HGA2      CG321      CG321       HGA2
   41    13    14     9	 9 ;       HGA2      CG321      CG321      CG311
   41    13    14    42	 9 ;       HGA2      CG321      CG321       HGA2
   41    13    14    43	 9 ;       HGA2      CG321      CG321       HGA2
    1    15    20    19	 9 ;     CG3C50     CG2R61     CG2R61     CG2R61
    1    15    20    47	 9 ;     CG3C50     CG2R61     CG2R61      HGR61
   16    15    20    19	 9 ;     CG2R61     CG2R61     CG2R61     CG2R61
   16    15    20    47	 9 ;     CG2R61     CG2R61     CG2R61      HGR61
    1    15    16    17	 9 ;     CG3C50     CG2R61     CG2R61     CG2R67
    1    15    16    44	 9 ;     CG3C50     CG2R61     CG2R61      HGR61
   20    15    16    17	 9 ;     CG2R61     CG2R61     CG2R61     CG2R67
   20    15    16    44	 9 ;     CG2R61     CG2R61     CG2R61      HGR61
   15    16    17    18	 9 ;     CG2R61     CG2R61     CG2R67     CG2R61
   15    16    17    21	 9 ;     CG2R61     CG2R61     CG2R67     CG2R67
   44    16    17    18	 9 ;      HGR61     CG2R61     CG2R67     CG2R61
   44    16    17    21	 9 ;      HGR61     CG2R61     CG2R67     CG2R67
   16    17    18    19	 9 ;     CG2R61     CG2R67     CG2R61     CG2R61
   16    17    18    45	 9 ;     CG2R61     CG2R67     CG2R61      HGR61
   21    17    18    19	 9 ;     CG2R67     CG2R67     CG2R61     CG2R61
   21    17    18    45	 9 ;     CG2R67     CG2R67     CG2R61      HGR61
   16    17    21    22	 9 ;     CG2R61     CG2R67     CG2R67     CG2R61
   16    17    21    26	 9 ;     CG2R61     CG2R67     CG2R67     CG2R61
   18    17    21    22	 9 ;     CG2R61     CG2R67     CG2R67     CG2R61
   18    17    21    26	 9 ;     CG2R61     CG2R67     CG2R67     CG2R61
   17    18    19    20	 9 ;     CG2R67     CG2R61     CG2R61     CG2R61
   17    18    19    46	 9 ;     CG2R67     CG2R61     CG2R61      HGR61
   45    18    19    20	 9 ;      HGR61     CG2R61     CG2R61     CG2R61
   45    18    19    46	 9 ;      HGR61     CG2R61     CG2R61      HGR61
   18    19    20    15	 9 ;     CG2R61     CG2R61     CG2R61     CG2R61
   18    19    20    47	 9 ;     CG2R61     CG2R61     CG2R61      HGR61
   46    19    20    15	 9 ;      HGR61     CG2R61     CG2R61     CG2R61
   46    19    20    47	 9 ;      HGR61     CG2R61     CG2R61      HGR61
   17    21    22    23	 9 ;     CG2R67     CG2R67     CG2R61     CG2R61
   17    21    22    48	 9 ;     CG2R67     CG2R67     CG2R61      HGR61
   26    21    22    23	 9 ;     CG2R61     CG2R67     CG2R61     CG2R61
   26    21    22    48	 9 ;     CG2R61     CG2R67     CG2R61      HGR61
   17    21    26    25	 9 ;     CG2R67     CG2R67     CG2R61     CG2R61
   17    21    26    51	 9 ;     CG2R67     CG2R67     CG2R61      HGR61
   22    21    26    25	 9 ;     CG2R61     CG2R67     CG2R61     CG2R61
   22    21    26    51	 9 ;     CG2R61     CG2R67     CG2R61      HGR61
   21    22    23    27	 9 ;     CG2R67     CG2R61     CG2R61      OG301
   21    22    23    24	 9 ;     CG2R67     CG2R61     CG2R61     CG2R61
   48    22    23    27	 9 ;      HGR61     CG2R61     CG2R61      OG301
   48    22    23    24	 9 ;      HGR61     CG2R61     CG2R61     CG2R61
   22    23    27    28	 9 ;     CG2R61     CG2R61      OG301      CG331
   24    23    27    28	 9 ;     CG2R61     CG2R61      OG301      CG331
   22    23    24    25	 9 ;     CG2R61     CG2R61     CG2R61     CG2R61
   22    23    24    49	 9 ;     CG2R61     CG2R61     CG2R61      HGR61
   27    23    24    25	 9 ;      OG301     CG2R61     CG2R61     CG2R61
   27    23    24    49	 9 ;      OG301     CG2R61     CG2R61      HGR61
   23    24    25    26	 9 ;     CG2R61     CG2R61     CG2R61     CG2R61
   23    24    25    50	 9 ;     CG2R61     CG2R61     CG2R61      HGR61
   49    24    25    26	 9 ;      HGR61     CG2R61     CG2R61     CG2R61
   49    24    25    50	 9 ;      HGR61     CG2R61     CG2R61      HGR61
   24    25    26    21	 9 ;     CG2R61     CG2R61     CG2R61     CG2R67
   24    25    26    51	 9 ;     CG2R61     CG2R61     CG2R61      HGR61
   50    25    26    21	 9 ;      HGR61     CG2R61     CG2R61     CG2R67
   50    25    26    51	 9 ;      HGR61     CG2R61     CG2R61      HGR61
   23    27    28    52	 9 ;     CG2R61      OG301      CG331       HGA3
   23    27    28    53	 9 ;     CG2R61      OG301      CG331       HGA3
   23    27    28    54	 9 ;     CG2R61      OG301      CG331       HGA3

