; Created by cgenff_charmm2gmx.py

[ moleculetype ]
; Name			   nrexcl
LIG				 3

[ atoms ]
;	 nr		  type	resnr residue  atom   cgnr	   charge		mass  typeB    chargeB		massB
; residue	 1 LIG rtp LIG q	qsum
     1     CG2R61      1    LIG     C1      1      0.029     12.011   ;
     2     CG2R61      1    LIG     C2      2     -0.238     12.011   ;
     3     CG2R61      1    LIG     C3      3      0.126     12.011   ;
     4     CG2R61      1    LIG     C4      4     -0.234     12.011   ;
     5     CG2R61      1    LIG     C5      5     -0.102     12.011   ;
     6     CG2R61      1    LIG     C6      6     -0.120     12.011   ;
     7     CG3C50      1    LIG     C7      7      0.740     12.011   ;
     8     NG3C51      1    LIG     N1      8     -0.570     14.007   ;
     9     CG2R51      1    LIG     C8      9     -0.245     12.011   ;
    10       HGP1      1    LIG    HN1     10      0.293      1.008   ;
    11      CG331      1    LIG     C9     11     -0.073     12.011   ;
    12     CG2R51      1    LIG    C10     12     -0.019     12.011   ;
    13     NG3C51      1    LIG     N2     13     -0.603     14.007   ;
    14       HGP1      1    LIG    HN2     14      0.293      1.008   ;
    15      CG331      1    LIG    C11     15     -0.385     12.011   ;
    16      NG321      1    LIG     N3     16     -0.622     14.007   ;
    17     HGPAM2      1    LIG     H1     17      0.371      1.008   ;
    18     HGPAM2      1    LIG     H2     18      0.371      1.008   ;
    19     CG2DC1      1    LIG    C12     19     -0.144     12.011   ;
    20      CG321      1    LIG    C13     20     -0.002     12.011   ;
    21      NG311      1    LIG     N4     21     -0.548     14.007   ;
    22     CG2D2O      1    LIG    C14     22      0.008     12.011   ;
    23     HGPAM1      1    LIG    HN3     23      0.389      1.008   ;
    24     CG2DC2      1    LIG    C15     24     -0.239     12.011   ;
    25     CG2DC1      1    LIG    C16     25     -0.094     12.011   ;
    26      HGR61      1    LIG     HC     26      0.116      1.008   ;
    27      HGR61      1    LIG    HC1     27      0.116      1.008   ;
    28      HGR61      1    LIG    HC2     28      0.116      1.008   ;
    29      HGR61      1    LIG    HC3     29      0.116      1.008   ;
    30       HGA3      1    LIG    HC4     30      0.090      1.008   ;
    31       HGA3      1    LIG    HC5     31      0.090      1.008   ;
    32       HGA3      1    LIG    HC6     32      0.090      1.008   ;
    33       HGA3      1    LIG    HC7     33      0.090      1.008   ;
    34       HGA3      1    LIG    HC8     34      0.090      1.008   ;
    35       HGA3      1    LIG    HC9     35      0.090      1.008   ;
    36       HGA2      1    LIG   HC10     36      0.090      1.008   ;
    37       HGA4      1    LIG   HC11     37      0.152      1.008   ;
    38       HGA4      1    LIG   HC12     38      0.150      1.008   ;
    39       HGA4      1    LIG   HC13     39      0.132      1.008   ;
    40       HGA2      1    LIG    H20     40      0.090      1.008   ;

[ bonds ]
;	ai	  aj funct			  c0			c1			  c2			c3
    1     6	 1 ;      CG2R61     CG2R61
    1    19	 1 ;      CG2R61     CG2DC1
    1     2	 1 ;      CG2R61     CG2R61
    2     3	 1 ;      CG2R61     CG2R61
    2    26	 1 ;      CG2R61      HGR61
    3     4	 1 ;      CG2R61     CG2R61
    3     7	 1 ;      CG2R61     CG3C50
    4     5	 1 ;      CG2R61     CG2R61
    4    27	 1 ;      CG2R61      HGR61
    5     6	 1 ;      CG2R61     CG2R61
    5    28	 1 ;      CG2R61      HGR61
    6    29	 1 ;      CG2R61      HGR61
    7    15	 1 ;      CG3C50      CG331
    7    13	 1 ;      CG3C50     NG3C51
    7     8	 1 ;      CG3C50     NG3C51
    8    10	 1 ;      NG3C51       HGP1
    8     9	 1 ;      NG3C51     CG2R51
    9    12	 1 ;      CG2R51     CG2R51
    9    11	 1 ;      CG2R51      CG331
   11    30	 1 ;       CG331       HGA3
   11    31	 1 ;       CG331       HGA3
   11    32	 1 ;       CG331       HGA3
   12    13	 1 ;      CG2R51     NG3C51
   12    16	 1 ;      CG2R51      NG321
   13    14	 1 ;      NG3C51       HGP1
   15    33	 1 ;       CG331       HGA3
   15    34	 1 ;       CG331       HGA3
   15    35	 1 ;       CG331       HGA3
   16    17	 1 ;       NG321     HGPAM2
   16    18	 1 ;       NG321     HGPAM2
   19    20	 1 ;      CG2DC1      CG321
   19    25	 1 ;      CG2DC1     CG2DC1
   20    21	 1 ;       CG321      NG311
   20    36	 1 ;       CG321       HGA2
   20    40	 1 ;       CG321       HGA2
   21    23	 1 ;       NG311     HGPAM1
   21    22	 1 ;       NG311     CG2D2O
   22    24	 1 ;      CG2D2O     CG2DC2
   22    37	 1 ;      CG2D2O       HGA4
   24    25	 1 ;      CG2DC2     CG2DC1
   24    38	 1 ;      CG2DC2       HGA4
   25    39	 1 ;      CG2DC1       HGA4

[ pairs ]
;	ai	  aj funct			  c0			c1			  c2			c3
    1     4	 1
    1     7	 1
    1    28	 1
    1    21	 1
    1    36	 1
    1    40	 1
    1    24	 1
    1    39	 1
    2     5	 1
    2    29	 1
    2    20	 1
    2    25	 1
    2    27	 1
    2    15	 1
    2    13	 1
    2     8	 1
    3     6	 1
    3    19	 1
    3    28	 1
    3    33	 1
    3    34	 1
    3    35	 1
    3    14	 1
    3    12	 1
    3    10	 1
    3     9	 1
    4    26	 1
    4    15	 1
    4    13	 1
    4     8	 1
    4    29	 1
    5    19	 1
    5     7	 1
    6    20	 1
    6    25	 1
    6    26	 1
    6    27	 1
    7    26	 1
    7    27	 1
    7    11	 1
    7    16	 1
    8    33	 1
    8    34	 1
    8    35	 1
    8    14	 1
    8    16	 1
    8    30	 1
    8    31	 1
    8    32	 1
    9    15	 1
    9    14	 1
    9    17	 1
    9    18	 1
   10    15	 1
   10    13	 1
   10    12	 1
   10    11	 1
   11    13	 1
   11    16	 1
   12    15	 1
   12    30	 1
   12    31	 1
   12    32	 1
   13    33	 1
   13    34	 1
   13    35	 1
   13    17	 1
   13    18	 1
   14    15	 1
   14    16	 1
   19    29	 1
   19    26	 1
   19    23	 1
   19    22	 1
   19    38	 1
   20    24	 1
   20    39	 1
   20    37	 1
   21    25	 1
   21    38	 1
   22    36	 1
   22    40	 1
   22    39	 1
   23    36	 1
   23    40	 1
   23    24	 1
   23    37	 1
   25    36	 1
   25    40	 1
   25    37	 1
   27    28	 1
   28    29	 1
   37    38	 1
   38    39	 1

[ angles ]
;	ai	  aj	ak funct			c0			  c1			c2			  c3
    6     1    19	5 ;     CG2R61     CG2R61     CG2DC1
    6     1     2	5 ;     CG2R61     CG2R61     CG2R61
   19     1     2	5 ;     CG2DC1     CG2R61     CG2R61
    1     2     3	5 ;     CG2R61     CG2R61     CG2R61
    1     2    26	5 ;     CG2R61     CG2R61      HGR61
    3     2    26	5 ;     CG2R61     CG2R61      HGR61
    4     3     2	5 ;     CG2R61     CG2R61     CG2R61
    4     3     7	5 ;     CG2R61     CG2R61     CG3C50
    2     3     7	5 ;     CG2R61     CG2R61     CG3C50
    5     4     3	5 ;     CG2R61     CG2R61     CG2R61
    5     4    27	5 ;     CG2R61     CG2R61      HGR61
    3     4    27	5 ;     CG2R61     CG2R61      HGR61
    6     5     4	5 ;     CG2R61     CG2R61     CG2R61
    6     5    28	5 ;     CG2R61     CG2R61      HGR61
    4     5    28	5 ;     CG2R61     CG2R61      HGR61
    5     6     1	5 ;     CG2R61     CG2R61     CG2R61
    5     6    29	5 ;     CG2R61     CG2R61      HGR61
    1     6    29	5 ;     CG2R61     CG2R61      HGR61
    3     7    15	5 ;     CG2R61     CG3C50      CG331
    3     7    13	5 ;     CG2R61     CG3C50     NG3C51
    3     7     8	5 ;     CG2R61     CG3C50     NG3C51
   15     7    13	5 ;      CG331     CG3C50     NG3C51
   15     7     8	5 ;      CG331     CG3C50     NG3C51
   13     7     8	5 ;     NG3C51     CG3C50     NG3C51
    7     8    10	5 ;     CG3C50     NG3C51       HGP1
    7     8     9	5 ;     CG3C50     NG3C51     CG2R51
   10     8     9	5 ;       HGP1     NG3C51     CG2R51
   12     9     8	5 ;     CG2R51     CG2R51     NG3C51
   12     9    11	5 ;     CG2R51     CG2R51      CG331
    8     9    11	5 ;     NG3C51     CG2R51      CG331
    9    11    30	5 ;     CG2R51      CG331       HGA3
    9    11    31	5 ;     CG2R51      CG331       HGA3
    9    11    32	5 ;     CG2R51      CG331       HGA3
   30    11    31	5 ;       HGA3      CG331       HGA3
   30    11    32	5 ;       HGA3      CG331       HGA3
   31    11    32	5 ;       HGA3      CG331       HGA3
   13    12    16	5 ;     NG3C51     CG2R51      NG321
   13    12     9	5 ;     NG3C51     CG2R51     CG2R51
   16    12     9	5 ;      NG321     CG2R51     CG2R51
   14    13     7	5 ;       HGP1     NG3C51     CG3C50
   14    13    12	5 ;       HGP1     NG3C51     CG2R51
    7    13    12	5 ;     CG3C50     NG3C51     CG2R51
    7    15    33	5 ;     CG3C50      CG331       HGA3
    7    15    34	5 ;     CG3C50      CG331       HGA3
    7    15    35	5 ;     CG3C50      CG331       HGA3
   33    15    34	5 ;       HGA3      CG331       HGA3
   33    15    35	5 ;       HGA3      CG331       HGA3
   34    15    35	5 ;       HGA3      CG331       HGA3
   17    16    12	5 ;     HGPAM2      NG321     CG2R51
   17    16    18	5 ;     HGPAM2      NG321     HGPAM2
   12    16    18	5 ;     CG2R51      NG321     HGPAM2
   20    19     1	5 ;      CG321     CG2DC1     CG2R61
   20    19    25	5 ;      CG321     CG2DC1     CG2DC1
    1    19    25	5 ;     CG2R61     CG2DC1     CG2DC1
   21    20    19	5 ;      NG311      CG321     CG2DC1
   21    20    36	5 ;      NG311      CG321       HGA2
   21    20    40	5 ;      NG311      CG321       HGA2
   19    20    36	5 ;     CG2DC1      CG321       HGA2
   19    20    40	5 ;     CG2DC1      CG321       HGA2
   36    20    40	5 ;       HGA2      CG321       HGA2
   23    21    20	5 ;     HGPAM1      NG311      CG321
   23    21    22	5 ;     HGPAM1      NG311     CG2D2O
   20    21    22	5 ;      CG321      NG311     CG2D2O
   21    22    24	5 ;      NG311     CG2D2O     CG2DC2
   21    22    37	5 ;      NG311     CG2D2O       HGA4
   24    22    37	5 ;     CG2DC2     CG2D2O       HGA4
   22    24    25	5 ;     CG2D2O     CG2DC2     CG2DC1
   22    24    38	5 ;     CG2D2O     CG2DC2       HGA4
   25    24    38	5 ;     CG2DC1     CG2DC2       HGA4
   19    25    24	5 ;     CG2DC1     CG2DC1     CG2DC2
   19    25    39	5 ;     CG2DC1     CG2DC1       HGA4
   24    25    39	5 ;     CG2DC2     CG2DC1       HGA4

[ dihedrals ]
;	ai	  aj	ak	  al funct			  c0			c1			  c2			c3			  c4			c5
   19     1     6     5	 9 ;     CG2DC1     CG2R61     CG2R61     CG2R61
   19     1     6    29	 9 ;     CG2DC1     CG2R61     CG2R61      HGR61
    2     1     6     5	 9 ;     CG2R61     CG2R61     CG2R61     CG2R61
    2     1     6    29	 9 ;     CG2R61     CG2R61     CG2R61      HGR61
    6     1    19    20	 9 ;     CG2R61     CG2R61     CG2DC1      CG321
    6     1    19    25	 9 ;     CG2R61     CG2R61     CG2DC1     CG2DC1
    2     1    19    20	 9 ;     CG2R61     CG2R61     CG2DC1      CG321
    2     1    19    25	 9 ;     CG2R61     CG2R61     CG2DC1     CG2DC1
    6     1     2     3	 9 ;     CG2R61     CG2R61     CG2R61     CG2R61
    6     1     2    26	 9 ;     CG2R61     CG2R61     CG2R61      HGR61
   19     1     2     3	 9 ;     CG2DC1     CG2R61     CG2R61     CG2R61
   19     1     2    26	 9 ;     CG2DC1     CG2R61     CG2R61      HGR61
    1     2     3     4	 9 ;     CG2R61     CG2R61     CG2R61     CG2R61
    1     2     3     7	 9 ;     CG2R61     CG2R61     CG2R61     CG3C50
   26     2     3     4	 9 ;      HGR61     CG2R61     CG2R61     CG2R61
   26     2     3     7	 9 ;      HGR61     CG2R61     CG2R61     CG3C50
    2     3     4     5	 9 ;     CG2R61     CG2R61     CG2R61     CG2R61
    2     3     4    27	 9 ;     CG2R61     CG2R61     CG2R61      HGR61
    7     3     4     5	 9 ;     CG3C50     CG2R61     CG2R61     CG2R61
    7     3     4    27	 9 ;     CG3C50     CG2R61     CG2R61      HGR61
    4     3     7    15	 9 ;     CG2R61     CG2R61     CG3C50      CG331
    4     3     7    13	 9 ;     CG2R61     CG2R61     CG3C50     NG3C51
    4     3     7     8	 9 ;     CG2R61     CG2R61     CG3C50     NG3C51
    2     3     7    15	 9 ;     CG2R61     CG2R61     CG3C50      CG331
    2     3     7    13	 9 ;     CG2R61     CG2R61     CG3C50     NG3C51
    2     3     7     8	 9 ;     CG2R61     CG2R61     CG3C50     NG3C51
    3     4     5     6	 9 ;     CG2R61     CG2R61     CG2R61     CG2R61
    3     4     5    28	 9 ;     CG2R61     CG2R61     CG2R61      HGR61
   27     4     5     6	 9 ;      HGR61     CG2R61     CG2R61     CG2R61
   27     4     5    28	 9 ;      HGR61     CG2R61     CG2R61      HGR61
    4     5     6     1	 9 ;     CG2R61     CG2R61     CG2R61     CG2R61
    4     5     6    29	 9 ;     CG2R61     CG2R61     CG2R61      HGR61
   28     5     6     1	 9 ;      HGR61     CG2R61     CG2R61     CG2R61
   28     5     6    29	 9 ;      HGR61     CG2R61     CG2R61      HGR61
    3     7    15    33	 9 ;     CG2R61     CG3C50      CG331       HGA3
    3     7    15    34	 9 ;     CG2R61     CG3C50      CG331       HGA3
    3     7    15    35	 9 ;     CG2R61     CG3C50      CG331       HGA3
   13     7    15    33	 9 ;     NG3C51     CG3C50      CG331       HGA3
   13     7    15    34	 9 ;     NG3C51     CG3C50      CG331       HGA3
   13     7    15    35	 9 ;     NG3C51     CG3C50      CG331       HGA3
    8     7    15    33	 9 ;     NG3C51     CG3C50      CG331       HGA3
    8     7    15    34	 9 ;     NG3C51     CG3C50      CG331       HGA3
    8     7    15    35	 9 ;     NG3C51     CG3C50      CG331       HGA3
    3     7    13    14	 9 ;     CG2R61     CG3C50     NG3C51       HGP1
    3     7    13    12	 9 ;     CG2R61     CG3C50     NG3C51     CG2R51
   15     7    13    14	 9 ;      CG331     CG3C50     NG3C51       HGP1
   15     7    13    12	 9 ;      CG331     CG3C50     NG3C51     CG2R51
    8     7    13    14	 9 ;     NG3C51     CG3C50     NG3C51       HGP1
    8     7    13    12	 9 ;     NG3C51     CG3C50     NG3C51     CG2R51
    3     7     8    10	 9 ;     CG2R61     CG3C50     NG3C51       HGP1
    3     7     8     9	 9 ;     CG2R61     CG3C50     NG3C51     CG2R51
   15     7     8    10	 9 ;      CG331     CG3C50     NG3C51       HGP1
   15     7     8     9	 9 ;      CG331     CG3C50     NG3C51     CG2R51
   13     7     8    10	 9 ;     NG3C51     CG3C50     NG3C51       HGP1
   13     7     8     9	 9 ;     NG3C51     CG3C50     NG3C51     CG2R51
    7     8     9    12	 9 ;     CG3C50     NG3C51     CG2R51     CG2R51
    7     8     9    11	 9 ;     CG3C50     NG3C51     CG2R51      CG331
   10     8     9    12	 9 ;       HGP1     NG3C51     CG2R51     CG2R51
   10     8     9    11	 9 ;       HGP1     NG3C51     CG2R51      CG331
    8     9    12    13	 9 ;     NG3C51     CG2R51     CG2R51     NG3C51
    8     9    12    16	 9 ;     NG3C51     CG2R51     CG2R51      NG321
   11     9    12    13	 9 ;      CG331     CG2R51     CG2R51     NG3C51
   11     9    12    16	 9 ;      CG331     CG2R51     CG2R51      NG321
   12     9    11    30	 9 ;     CG2R51     CG2R51      CG331       HGA3
   12     9    11    31	 9 ;     CG2R51     CG2R51      CG331       HGA3
   12     9    11    32	 9 ;     CG2R51     CG2R51      CG331       HGA3
    8     9    11    30	 9 ;     NG3C51     CG2R51      CG331       HGA3
    8     9    11    31	 9 ;     NG3C51     CG2R51      CG331       HGA3
    8     9    11    32	 9 ;     NG3C51     CG2R51      CG331       HGA3
   16    12    13    14	 9 ;      NG321     CG2R51     NG3C51       HGP1
   16    12    13     7	 9 ;      NG321     CG2R51     NG3C51     CG3C50
    9    12    13    14	 9 ;     CG2R51     CG2R51     NG3C51       HGP1
    9    12    13     7	 9 ;     CG2R51     CG2R51     NG3C51     CG3C50
   13    12    16    17	 9 ;     NG3C51     CG2R51      NG321     HGPAM2
   13    12    16    18	 9 ;     NG3C51     CG2R51      NG321     HGPAM2
    9    12    16    17	 9 ;     CG2R51     CG2R51      NG321     HGPAM2
    9    12    16    18	 9 ;     CG2R51     CG2R51      NG321     HGPAM2
    1    19    20    21	 9 ;     CG2R61     CG2DC1      CG321      NG311
    1    19    20    36	 9 ;     CG2R61     CG2DC1      CG321       HGA2
    1    19    20    40	 9 ;     CG2R61     CG2DC1      CG321       HGA2
   25    19    20    21	 9 ;     CG2DC1     CG2DC1      CG321      NG311
   25    19    20    36	 9 ;     CG2DC1     CG2DC1      CG321       HGA2
   25    19    20    40	 9 ;     CG2DC1     CG2DC1      CG321       HGA2
   20    19    25    24	 9 ;      CG321     CG2DC1     CG2DC1     CG2DC2
   20    19    25    39	 9 ;      CG321     CG2DC1     CG2DC1       HGA4
    1    19    25    24	 9 ;     CG2R61     CG2DC1     CG2DC1     CG2DC2
    1    19    25    39	 9 ;     CG2R61     CG2DC1     CG2DC1       HGA4
   19    20    21    23	 9 ;     CG2DC1      CG321      NG311     HGPAM1
   19    20    21    22	 9 ;     CG2DC1      CG321      NG311     CG2D2O
   36    20    21    23	 9 ;       HGA2      CG321      NG311     HGPAM1
   36    20    21    22	 9 ;       HGA2      CG321      NG311     CG2D2O
   40    20    21    23	 9 ;       HGA2      CG321      NG311     HGPAM1
   40    20    21    22	 9 ;       HGA2      CG321      NG311     CG2D2O
   23    21    22    24	 9 ;     HGPAM1      NG311     CG2D2O     CG2DC2
   23    21    22    37	 9 ;     HGPAM1      NG311     CG2D2O       HGA4
   20    21    22    24	 9 ;      CG321      NG311     CG2D2O     CG2DC2
   20    21    22    37	 9 ;      CG321      NG311     CG2D2O       HGA4
   21    22    24    25	 9 ;      NG311     CG2D2O     CG2DC2     CG2DC1
   21    22    24    38	 9 ;      NG311     CG2D2O     CG2DC2       HGA4
   37    22    24    25	 9 ;       HGA4     CG2D2O     CG2DC2     CG2DC1
   37    22    24    38	 9 ;       HGA4     CG2D2O     CG2DC2       HGA4
   22    24    25    19	 9 ;     CG2D2O     CG2DC2     CG2DC1     CG2DC1
   22    24    25    39	 9 ;     CG2D2O     CG2DC2     CG2DC1       HGA4
   38    24    25    19	 9 ;       HGA4     CG2DC2     CG2DC1     CG2DC1
   38    24    25    39	 9 ;       HGA4     CG2DC2     CG2DC1       HGA4

[ dihedrals ]
;	ai	  aj	ak	  al funct			  c0			c1			  c2			c3
   22    24    21    37	 2

