Good ROcking Metal Altar for Chronical Sinners
   40
    1LIG     C1    1  -1.248   0.279  -1.483
    1LIG     C2    2  -1.380   0.290  -1.531
    1LIG     C3    3  -1.438   0.415  -1.563
    1LIG     C4    4  -1.362   0.531  -1.541
    1LIG     C5    5  -1.231   0.522  -1.495
    1LIG     C6    6  -1.174   0.398  -1.468
    1LIG     C7    7  -1.581   0.423  -1.618
    1LIG     N1    8  -1.676   0.344  -1.533
    1LIG     C8    9  -1.755   0.434  -1.486
    1LIG    HN1   10  -1.676   0.244  -1.516
    1LIG     C9   11  -1.867   0.410  -1.392
    1LIG    C10   12  -1.724   0.570  -1.538
    1LIG     N2   13  -1.627   0.565  -1.622
    1LIG    HN2   14  -1.589   0.642  -1.678
    1LIG    C11   15  -1.587   0.365  -1.759
    1LIG     N3   16  -1.791   0.683  -1.503
    1LIG     H1   17  -1.739   0.767  -1.527
    1LIG     H2   18  -1.828   0.687  -1.409
    1LIG    C12   19  -1.189   0.148  -1.446
    1LIG    C13   20  -1.097   0.080  -1.527
    1LIG     N4   21  -1.043  -0.041  -1.500
    1LIG    C14   22  -1.081  -0.100  -1.385
    1LIG    HN3   23  -0.976  -0.086  -1.563
    1LIG    C15   24  -1.170  -0.042  -1.296
    1LIG    C16   25  -1.224   0.082  -1.327
    1LIG     HC   26  -1.438   0.200  -1.545
    1LIG    HC1   27  -1.406   0.627  -1.561
    1LIG    HC2   28  -1.173   0.612  -1.481
    1LIG    HC3   29  -1.072   0.393  -1.434
    1LIG    HC4   30  -1.873   0.304  -1.368
    1LIG    HC5   31  -1.850   0.467  -1.300
    1LIG    HC6   32  -1.961   0.442  -1.437
    1LIG    HC7   33  -1.519   0.420  -1.824
    1LIG    HC8   34  -1.689   0.374  -1.798
    1LIG    HC9   35  -1.558   0.260  -1.757
    1LIG   HC10   36  -1.067   0.129  -1.619
    1LIG   HC11   37  -1.041  -0.197  -1.361
    1LIG   HC12   38  -1.197  -0.093  -1.204
    1LIG   HC13   39  -1.293   0.129  -1.259
    1LIG    H20   40  -1.015   0.129  -1.475
   0.00000   0.00000   0.00000
