Grunge ROck MAChoS
   98
    1LIG     C1    1  -1.258   0.273  -1.592
    1LIG     C2    2  -1.401   0.254  -1.615
    1LIG     C3    3  -1.508   0.353  -1.585
    1LIG     C4    4  -1.456   0.468  -1.523
    1LIG     C5    5  -1.313   0.499  -1.519
    1LIG     C6    6  -1.216   0.400  -1.552
    1LIG     C7    7  -1.255   0.642  -1.502
    1LIG     O1    8  -1.145   0.657  -1.451
    1LIG     N1    9  -1.317   0.756  -1.560
    1LIG     C8   10  -1.433   0.746  -1.643
    1LIG     C9   11  -1.492   0.858  -1.731
    1LIG    C10   12  -1.633   0.841  -1.749
    1LIG    C11   13  -1.693   0.845  -1.876
    1LIG    C12   14  -1.794   0.733  -1.918
    1LIG     O2   15  -1.914   0.708  -1.846
    1LIG    C13   16  -1.903   0.666  -1.710
    1LIG    C14   17  -1.912   0.513  -1.663
    1LIG     N2   18  -1.788   0.401  -1.681
    1LIG    C15   19  -1.661   0.333  -1.653
    1LIG     O3   20  -1.666   0.218  -1.707
    1LIG    C16   21  -1.620   0.911  -1.976
    1LIG    C17   22  -1.487   0.953  -1.952
    1LIG    C18   23  -1.422   0.923  -1.831
    1LIG     H1   24  -1.260   0.840  -1.562
    1LIG     H2   25  -1.833   0.328  -1.737
    1LIG    C19   26  -2.066   0.476  -1.724
    1LIG     O4   27  -2.059   0.428  -1.859
    1LIG     H3   28  -2.140   0.373  -1.872
    1LIG    C20   29  -2.175   0.396  -1.646
    1LIG    C21   30  -2.122   0.280  -1.547
    1LIG    C22   31  -2.090   0.329  -1.400
    1LIG    C23   32  -1.940   0.336  -1.370
    1LIG    C24   33  -2.155   0.463  -1.362
    1LIG    C25   34  -2.215   0.156  -1.533
    1LIG     O5   35  -2.282   0.116  -1.627
    1LIG     N3   36  -2.221   0.098  -1.407
    1LIG     H4   37  -2.175   0.146  -1.330
    1LIG    C26   38  -2.312  -0.010  -1.369
    1LIG    C27   39  -2.248  -0.125  -1.289
    1LIG    C28   40  -2.177  -0.225  -1.380
    1LIG    C29   41  -2.148  -0.072  -1.185
    1LIG     N4   42  -1.156   0.166  -1.616
    1LIG    C30   43  -1.022   0.191  -1.674
    1LIG      S   44  -1.162   0.024  -1.515
    1LIG     O6   45  -1.029  -0.020  -1.486
    1LIG     O7   46  -1.263  -0.066  -1.567
    1LIG    C31   47  -1.228   0.097  -1.366
    1LIG     O8   48  -1.397   0.643  -1.733
    1LIG    C32   49  -1.298   0.669  -1.830
    1LIG    C33   50  -1.246   0.540  -1.888
    1LIG     O9   51  -1.110   0.519  -1.857
    1LIG    C34   52  -1.048   0.636  -1.810
    1LIG     HC   53  -1.431   0.160  -1.659
    1LIG    HC1   54  -1.525   0.537  -1.475
    1LIG    HC2   55  -1.111   0.423  -1.546
    1LIG    HC3   56  -1.514   0.708  -1.581
    1LIG    HC4   57  -1.695   0.825  -1.662
    1LIG    HC5   58  -1.824   0.755  -2.020
    1LIG    HC6   59  -1.738   0.639  -1.920
    1LIG    HC7   60  -1.981   0.719  -1.655
    1LIG    HC8   61  -1.808   0.705  -1.672
    1LIG    HC9   62  -1.927   0.519  -1.556
    1LIG   HC10   63  -1.665   0.929  -2.073
    1LIG   HC11   64  -1.435   1.010  -2.027
    1LIG   HC12   65  -1.318   0.950  -1.816
    1LIG   HC13   66  -2.112   0.574  -1.736
    1LIG   HC14   67  -2.241   0.349  -1.719
    1LIG   HC15   68  -2.234   0.467  -1.587
    1LIG   HC16   69  -2.028   0.244  -1.589
    1LIG   HC17   70  -2.131   0.254  -1.332
    1LIG   HC18   71  -1.893   0.242  -1.396
    1LIG   HC19   72  -1.925   0.356  -1.263
    1LIG   HC20   73  -1.895   0.417  -1.428
    1LIG   HC21   74  -2.143   0.480  -1.255
    1LIG   HC22   75  -2.107   0.543  -1.418
    1LIG   HC23   76  -2.261   0.459  -1.387
    1LIG   HC24   77  -2.354  -0.052  -1.460
    1LIG   HC25   78  -2.394   0.032  -1.310
    1LIG   HC26   79  -2.327  -0.178  -1.236
    1LIG   HC27   80  -2.247  -0.264  -1.454
    1LIG   HC28   81  -2.138  -0.308  -1.320
    1LIG   HC29   82  -2.094  -0.176  -1.431
    1LIG   HC30   83  -2.198  -0.000  -1.120
    1LIG   HC31   84  -2.066  -0.022  -1.236
    1LIG   HC32   85  -2.109  -0.155  -1.126
    1LIG   HC33   86  -1.028   0.274  -1.745
    1LIG   HC34   87  -0.987   0.101  -1.725
    1LIG   HC35   88  -0.952   0.217  -1.594
    1LIG   HC36   89  -1.215   0.028  -1.283
    1LIG   HC37   90  -1.334   0.117  -1.379
    1LIG   HC38   91  -1.175   0.190  -1.344
    1LIG   HC39   92  -1.341   0.729  -1.910
    1LIG   HC40   93  -1.216   0.723  -1.784
    1LIG   HC41   94  -1.304   0.458  -1.847
    1LIG   HC42   95  -1.258   0.543  -1.996
    1LIG   HC43   96  -0.940   0.622  -1.811
    1LIG   HC44   97  -1.082   0.656  -1.709
    1LIG   HC45   98  -1.075   0.719  -1.875
   0.00000   0.00000   0.00000
