; Created by cgenff_charmm2gmx.py

[ moleculetype ]
; Name			   nrexcl
LIG				 3

[ atoms ]
;	 nr		  type	resnr residue  atom   cgnr	   charge		mass  typeB    chargeB		massB
; residue	 1 LIG rtp LIG q	qsum
     1     CG2R61      1    LIG     C1      1      0.138     12.011   ;
     2     CG2R61      1    LIG     C2      2     -0.064     12.011   ;
     3     CG2R61      1    LIG     C3      3     -0.101     12.011   ;
     4     CG2R61      1    LIG     C4      4     -0.004     12.011   ;
     5     CG2R61      1    LIG     C5      5     -0.101     12.011   ;
     6     CG2R61      1    LIG     C6      6     -0.064     12.011   ;
     7      CG2O1      1    LIG     C7      7      0.320     12.011   ;
     8      OG2D1      1    LIG     O1      8     -0.463     15.999   ;
     9      NG2S1      1    LIG     N1      9     -0.403     14.007   ;
    10      CG311      1    LIG     C8     10      0.352     12.011   ;
    11     CG2R61      1    LIG     C9     11     -0.127     12.011   ;
    12     CG2R61      1    LIG    C10     12     -0.092     12.011   ;
    13     CG2R61      1    LIG    C11     13     -0.006     12.011   ;
    14      CG321      1    LIG    C12     14      0.063     12.011   ;
    15      OG301      1    LIG     O2     15     -0.393     15.999   ;
    16      CG321      1    LIG    C13     16      0.012     12.011   ;
    17      CG311      1    LIG    C14     17     -0.001     12.011   ;
    18      NG2S1      1    LIG     N2     18     -0.238     14.007   ;
    19      CG2O1      1    LIG    C15     19      0.302     12.011   ;
    20      OG2D1      1    LIG     O3     20     -0.463     15.999   ;
    21     CG2R61      1    LIG    C16     21     -0.123     12.011   ;
    22     CG2R61      1    LIG    C17     22     -0.110     12.011   ;
    23     CG2R61      1    LIG    C18     23     -0.085     12.011   ;
    24       HGP1      1    LIG     H1     24      0.320      1.008   ;
    25       HGP1      1    LIG     H2     25      0.262      1.008   ;
    26      CG311      1    LIG    C19     26      0.110     12.011   ;
    27      OG311      1    LIG     O4     27     -0.648     15.999   ;
    28       HGP1      1    LIG     H3     28      0.421      1.008   ;
    29      CG321      1    LIG    C20     29     -0.155     12.011   ;
    30      CG311      1    LIG    C21     30     -0.022     12.011   ;
    31      CG311      1    LIG    C22     31     -0.108     12.011   ;
    32      CG331      1    LIG    C23     32     -0.270     12.011   ;
    33      CG331      1    LIG    C24     33     -0.270     12.011   ;
    34      CG2O1      1    LIG    C25     34      0.506     12.011   ;
    35      OG2D1      1    LIG     O5     35     -0.513     15.999   ;
    36      NG2S1      1    LIG     N3     36     -0.494     14.007   ;
    37       HGP1      1    LIG     H4     37      0.310      1.008   ;
    38      CG321      1    LIG    C26     38     -0.007     12.011   ;
    39      CG311      1    LIG    C27     39     -0.133     12.011   ;
    40      CG331      1    LIG    C28     40     -0.258     12.011   ;
    41      CG331      1    LIG    C29     41     -0.258     12.011   ;
    42      NG301      1    LIG     N4     42     -0.228     14.007   ;
    43      CG331      1    LIG    C30     43     -0.103     12.011   ;
    44      SG3O2      1    LIG      S     44      0.397     32.060   ;
    45      OG2P1      1    LIG     O6     45     -0.388     15.999   ;
    46      OG2P1      1    LIG     O7     46     -0.388     15.999   ;
    47      CG331      1    LIG    C31     47      0.036     12.011   ;
    48      OG301      1    LIG     O8     48     -0.340     15.999   ;
    49      CG321      1    LIG    C32     49     -0.004     12.011   ;
    50      CG321      1    LIG    C33     50     -0.007     12.011   ;
    51      OG301      1    LIG     O9     51     -0.339     15.999   ;
    52      CG331      1    LIG    C34     52     -0.100     12.011   ;
    53      HGR61      1    LIG     HC     53      0.116      1.008   ;
    54      HGR61      1    LIG    HC1     54      0.116      1.008   ;
    55      HGR61      1    LIG    HC2     55      0.116      1.008   ;
    56       HGA1      1    LIG    HC3     56      0.090      1.008   ;
    57      HGR61      1    LIG    HC4     57      0.116      1.008   ;
    58       HGA2      1    LIG    HC5     58      0.090      1.008   ;
    59       HGA2      1    LIG    HC6     59      0.090      1.008   ;
    60       HGA2      1    LIG    HC7     60      0.090      1.008   ;
    61       HGA2      1    LIG    HC8     61      0.090      1.008   ;
    62       HGA1      1    LIG    HC9     62      0.090      1.008   ;
    63      HGR61      1    LIG   HC10     63      0.116      1.008   ;
    64      HGR61      1    LIG   HC11     64      0.116      1.008   ;
    65      HGR61      1    LIG   HC12     65      0.116      1.008   ;
    66       HGA1      1    LIG   HC13     66      0.090      1.008   ;
    67       HGA2      1    LIG   HC14     67      0.090      1.008   ;
    68       HGA2      1    LIG   HC15     68      0.090      1.008   ;
    69       HGA1      1    LIG   HC16     69      0.090      1.008   ;
    70       HGA1      1    LIG   HC17     70      0.090      1.008   ;
    71       HGA3      1    LIG   HC18     71      0.090      1.008   ;
    72       HGA3      1    LIG   HC19     72      0.090      1.008   ;
    73       HGA3      1    LIG   HC20     73      0.090      1.008   ;
    74       HGA3      1    LIG   HC21     74      0.090      1.008   ;
    75       HGA3      1    LIG   HC22     75      0.090      1.008   ;
    76       HGA3      1    LIG   HC23     76      0.090      1.008   ;
    77       HGA2      1    LIG   HC24     77      0.090      1.008   ;
    78       HGA2      1    LIG   HC25     78      0.090      1.008   ;
    79       HGA1      1    LIG   HC26     79      0.090      1.008   ;
    80       HGA3      1    LIG   HC27     80      0.090      1.008   ;
    81       HGA3      1    LIG   HC28     81      0.090      1.008   ;
    82       HGA3      1    LIG   HC29     82      0.090      1.008   ;
    83       HGA3      1    LIG   HC30     83      0.090      1.008   ;
    84       HGA3      1    LIG   HC31     84      0.090      1.008   ;
    85       HGA3      1    LIG   HC32     85      0.090      1.008   ;
    86       HGA3      1    LIG   HC33     86      0.090      1.008   ;
    87       HGA3      1    LIG   HC34     87      0.090      1.008   ;
    88       HGA3      1    LIG   HC35     88      0.090      1.008   ;
    89       HGA3      1    LIG   HC36     89      0.090      1.008   ;
    90       HGA3      1    LIG   HC37     90      0.090      1.008   ;
    91       HGA3      1    LIG   HC38     91      0.090      1.008   ;
    92       HGA2      1    LIG   HC39     92      0.090      1.008   ;
    93       HGA2      1    LIG   HC40     93      0.090      1.008   ;
    94       HGA2      1    LIG   HC41     94      0.090      1.008   ;
    95       HGA2      1    LIG   HC42     95      0.090      1.008   ;
    96       HGA3      1    LIG   HC43     96      0.090      1.008   ;
    97       HGA3      1    LIG   HC44     97      0.090      1.008   ;
    98       HGA3      1    LIG   HC45     98      0.090      1.008   ;

[ bonds ]
;	ai	  aj funct			  c0			c1			  c2			c3
    1    42	 1 ;      CG2R61      NG301
    1     6	 1 ;      CG2R61     CG2R61
    1     2	 1 ;      CG2R61     CG2R61
    2     3	 1 ;      CG2R61     CG2R61
    2    53	 1 ;      CG2R61      HGR61
    3     4	 1 ;      CG2R61     CG2R61
    3    19	 1 ;      CG2R61      CG2O1
    4     5	 1 ;      CG2R61     CG2R61
    4    54	 1 ;      CG2R61      HGR61
    5     6	 1 ;      CG2R61     CG2R61
    5     7	 1 ;      CG2R61      CG2O1
    6    55	 1 ;      CG2R61      HGR61
    7     8	 1 ;       CG2O1      OG2D1
    7     9	 1 ;       CG2O1      NG2S1
    9    24	 1 ;       NG2S1       HGP1
    9    10	 1 ;       NG2S1      CG311
   10    48	 1 ;       CG311      OG301
   10    11	 1 ;       CG311     CG2R61
   10    56	 1 ;       CG311       HGA1
   11    23	 1 ;      CG2R61     CG2R61
   11    12	 1 ;      CG2R61     CG2R61
   12    13	 1 ;      CG2R61     CG2R61
   12    57	 1 ;      CG2R61      HGR61
   13    21	 1 ;      CG2R61     CG2R61
   13    14	 1 ;      CG2R61      CG321
   14    15	 1 ;       CG321      OG301
   14    58	 1 ;       CG321       HGA2
   14    59	 1 ;       CG321       HGA2
   15    16	 1 ;       OG301      CG321
   16    17	 1 ;       CG321      CG311
   16    60	 1 ;       CG321       HGA2
   16    61	 1 ;       CG321       HGA2
   17    18	 1 ;       CG311      NG2S1
   17    26	 1 ;       CG311      CG311
   17    62	 1 ;       CG311       HGA1
   18    19	 1 ;       NG2S1      CG2O1
   18    25	 1 ;       NG2S1       HGP1
   19    20	 1 ;       CG2O1      OG2D1
   21    22	 1 ;      CG2R61     CG2R61
   21    63	 1 ;      CG2R61      HGR61
   22    23	 1 ;      CG2R61     CG2R61
   22    64	 1 ;      CG2R61      HGR61
   23    65	 1 ;      CG2R61      HGR61
   26    27	 1 ;       CG311      OG311
   26    29	 1 ;       CG311      CG321
   26    66	 1 ;       CG311       HGA1
   27    28	 1 ;       OG311       HGP1
   29    30	 1 ;       CG321      CG311
   29    67	 1 ;       CG321       HGA2
   29    68	 1 ;       CG321       HGA2
   30    31	 1 ;       CG311      CG311
   30    34	 1 ;       CG311      CG2O1
   30    69	 1 ;       CG311       HGA1
   31    32	 1 ;       CG311      CG331
   31    33	 1 ;       CG311      CG331
   31    70	 1 ;       CG311       HGA1
   32    71	 1 ;       CG331       HGA3
   32    72	 1 ;       CG331       HGA3
   32    73	 1 ;       CG331       HGA3
   33    74	 1 ;       CG331       HGA3
   33    75	 1 ;       CG331       HGA3
   33    76	 1 ;       CG331       HGA3
   34    35	 1 ;       CG2O1      OG2D1
   34    36	 1 ;       CG2O1      NG2S1
   36    37	 1 ;       NG2S1       HGP1
   36    38	 1 ;       NG2S1      CG321
   38    39	 1 ;       CG321      CG311
   38    77	 1 ;       CG321       HGA2
   38    78	 1 ;       CG321       HGA2
   39    40	 1 ;       CG311      CG331
   39    41	 1 ;       CG311      CG331
   39    79	 1 ;       CG311       HGA1
   40    80	 1 ;       CG331       HGA3
   40    81	 1 ;       CG331       HGA3
   40    82	 1 ;       CG331       HGA3
   41    83	 1 ;       CG331       HGA3
   41    84	 1 ;       CG331       HGA3
   41    85	 1 ;       CG331       HGA3
   42    43	 1 ;       NG301      CG331
   42    44	 1 ;       NG301      SG3O2
   43    86	 1 ;       CG331       HGA3
   43    87	 1 ;       CG331       HGA3
   43    88	 1 ;       CG331       HGA3
   44    45	 1 ;       SG3O2      OG2P1
   44    46	 1 ;       SG3O2      OG2P1
   44    47	 1 ;       SG3O2      CG331
   47    89	 1 ;       CG331       HGA3
   47    90	 1 ;       CG331       HGA3
   47    91	 1 ;       CG331       HGA3
   48    49	 1 ;       OG301      CG321
   49    50	 1 ;       CG321      CG321
   49    92	 1 ;       CG321       HGA2
   49    93	 1 ;       CG321       HGA2
   50    51	 1 ;       CG321      OG301
   50    94	 1 ;       CG321       HGA2
   50    95	 1 ;       CG321       HGA2
   51    52	 1 ;       OG301      CG331
   52    96	 1 ;       CG331       HGA3
   52    97	 1 ;       CG331       HGA3
   52    98	 1 ;       CG331       HGA3

[ pairs ]
;	ai	  aj funct			  c0			c1			  c2			c3
    1     4	 1
    1    19	 1
    1     7	 1
    1    86	 1
    1    87	 1
    1    88	 1
    1    45	 1
    1    46	 1
    1    47	 1
    2    43	 1
    2    44	 1
    2     5	 1
    2    55	 1
    2    54	 1
    2    20	 1
    2    18	 1
    3    42	 1
    3     6	 1
    3     7	 1
    3    25	 1
    3    17	 1
    4    53	 1
    4    20	 1
    4    18	 1
    4    55	 1
    4     8	 1
    4     9	 1
    5    42	 1
    5    19	 1
    5    24	 1
    5    10	 1
    6    43	 1
    6    44	 1
    6    53	 1
    6    54	 1
    6     8	 1
    6     9	 1
    7    54	 1
    7    55	 1
    7    48	 1
    7    11	 1
    7    56	 1
    8    24	 1
    8    10	 1
    9    49	 1
    9    23	 1
    9    12	 1
   10    22	 1
   10    65	 1
   10    13	 1
   10    57	 1
   10    50	 1
   10    92	 1
   10    93	 1
   11    24	 1
   11    49	 1
   11    21	 1
   11    14	 1
   11    64	 1
   12    48	 1
   12    56	 1
   12    22	 1
   12    65	 1
   12    63	 1
   12    15	 1
   12    58	 1
   12    59	 1
   13    23	 1
   13    16	 1
   13    64	 1
   14    57	 1
   14    22	 1
   14    63	 1
   14    17	 1
   14    60	 1
   14    61	 1
   15    21	 1
   15    18	 1
   15    26	 1
   15    62	 1
   16    58	 1
   16    59	 1
   16    19	 1
   16    25	 1
   16    27	 1
   16    29	 1
   16    66	 1
   17    20	 1
   17    28	 1
   17    30	 1
   17    67	 1
   17    68	 1
   18    60	 1
   18    61	 1
   18    27	 1
   18    29	 1
   18    66	 1
   19    53	 1
   19    54	 1
   19    26	 1
   19    62	 1
   20    25	 1
   21    57	 1
   21    58	 1
   21    59	 1
   21    65	 1
   23    48	 1
   23    56	 1
   23    57	 1
   23    63	 1
   24    48	 1
   24    56	 1
   25    26	 1
   25    62	 1
   26    60	 1
   26    61	 1
   26    31	 1
   26    34	 1
   26    69	 1
   27    62	 1
   27    30	 1
   27    67	 1
   27    68	 1
   28    29	 1
   28    66	 1
   29    62	 1
   29    32	 1
   29    33	 1
   29    70	 1
   29    35	 1
   29    36	 1
   30    66	 1
   30    71	 1
   30    72	 1
   30    73	 1
   30    74	 1
   30    75	 1
   30    76	 1
   30    37	 1
   30    38	 1
   31    67	 1
   31    68	 1
   31    35	 1
   31    36	 1
   32    34	 1
   32    69	 1
   32    74	 1
   32    75	 1
   32    76	 1
   33    34	 1
   33    69	 1
   33    71	 1
   33    72	 1
   33    73	 1
   34    67	 1
   34    68	 1
   34    70	 1
   34    39	 1
   34    77	 1
   34    78	 1
   35    69	 1
   35    37	 1
   35    38	 1
   36    69	 1
   36    40	 1
   36    41	 1
   36    79	 1
   37    39	 1
   37    77	 1
   37    78	 1
   38    80	 1
   38    81	 1
   38    82	 1
   38    83	 1
   38    84	 1
   38    85	 1
   40    77	 1
   40    78	 1
   40    83	 1
   40    84	 1
   40    85	 1
   41    77	 1
   41    78	 1
   41    80	 1
   41    81	 1
   41    82	 1
   42    55	 1
   42    53	 1
   42    89	 1
   42    90	 1
   42    91	 1
   43    45	 1
   43    46	 1
   43    47	 1
   44    86	 1
   44    87	 1
   44    88	 1
   45    89	 1
   45    90	 1
   45    91	 1
   46    89	 1
   46    90	 1
   46    91	 1
   48    51	 1
   48    94	 1
   48    95	 1
   49    56	 1
   49    52	 1
   50    96	 1
   50    97	 1
   50    98	 1
   51    92	 1
   51    93	 1
   52    94	 1
   52    95	 1
   60    62	 1
   61    62	 1
   62    66	 1
   63    64	 1
   64    65	 1
   66    67	 1
   66    68	 1
   67    69	 1
   68    69	 1
   69    70	 1
   70    71	 1
   70    72	 1
   70    73	 1
   70    74	 1
   70    75	 1
   70    76	 1
   77    79	 1
   78    79	 1
   79    80	 1
   79    81	 1
   79    82	 1
   79    83	 1
   79    84	 1
   79    85	 1
   92    94	 1
   92    95	 1
   93    94	 1
   93    95	 1

[ angles ]
;	ai	  aj	ak funct			c0			  c1			c2			  c3
   42     1     6	5 ;      NG301     CG2R61     CG2R61
   42     1     2	5 ;      NG301     CG2R61     CG2R61
    6     1     2	5 ;     CG2R61     CG2R61     CG2R61
    1     2     3	5 ;     CG2R61     CG2R61     CG2R61
    1     2    53	5 ;     CG2R61     CG2R61      HGR61
    3     2    53	5 ;     CG2R61     CG2R61      HGR61
    2     3     4	5 ;     CG2R61     CG2R61     CG2R61
    2     3    19	5 ;     CG2R61     CG2R61      CG2O1
    4     3    19	5 ;     CG2R61     CG2R61      CG2O1
    5     4     3	5 ;     CG2R61     CG2R61     CG2R61
    5     4    54	5 ;     CG2R61     CG2R61      HGR61
    3     4    54	5 ;     CG2R61     CG2R61      HGR61
    6     5     7	5 ;     CG2R61     CG2R61      CG2O1
    6     5     4	5 ;     CG2R61     CG2R61     CG2R61
    7     5     4	5 ;      CG2O1     CG2R61     CG2R61
    1     6     5	5 ;     CG2R61     CG2R61     CG2R61
    1     6    55	5 ;     CG2R61     CG2R61      HGR61
    5     6    55	5 ;     CG2R61     CG2R61      HGR61
    8     7     9	5 ;      OG2D1      CG2O1      NG2S1
    8     7     5	5 ;      OG2D1      CG2O1     CG2R61
    9     7     5	5 ;      NG2S1      CG2O1     CG2R61
   24     9     7	5 ;       HGP1      NG2S1      CG2O1
   24     9    10	5 ;       HGP1      NG2S1      CG311
    7     9    10	5 ;      CG2O1      NG2S1      CG311
   48    10     9	5 ;      OG301      CG311      NG2S1
   48    10    11	5 ;      OG301      CG311     CG2R61
   48    10    56	5 ;      OG301      CG311       HGA1
    9    10    11	5 ;      NG2S1      CG311     CG2R61
    9    10    56	5 ;      NG2S1      CG311       HGA1
   11    10    56	5 ;     CG2R61      CG311       HGA1
   23    11    10	5 ;     CG2R61     CG2R61      CG311
   23    11    12	5 ;     CG2R61     CG2R61     CG2R61
   10    11    12	5 ;      CG311     CG2R61     CG2R61
   11    12    13	5 ;     CG2R61     CG2R61     CG2R61
   11    12    57	5 ;     CG2R61     CG2R61      HGR61
   13    12    57	5 ;     CG2R61     CG2R61      HGR61
   21    13    12	5 ;     CG2R61     CG2R61     CG2R61
   21    13    14	5 ;     CG2R61     CG2R61      CG321
   12    13    14	5 ;     CG2R61     CG2R61      CG321
   13    14    15	5 ;     CG2R61      CG321      OG301
   13    14    58	5 ;     CG2R61      CG321       HGA2
   13    14    59	5 ;     CG2R61      CG321       HGA2
   15    14    58	5 ;      OG301      CG321       HGA2
   15    14    59	5 ;      OG301      CG321       HGA2
   58    14    59	5 ;       HGA2      CG321       HGA2
   14    15    16	5 ;      CG321      OG301      CG321
   15    16    17	5 ;      OG301      CG321      CG311
   15    16    60	5 ;      OG301      CG321       HGA2
   15    16    61	5 ;      OG301      CG321       HGA2
   17    16    60	5 ;      CG311      CG321       HGA2
   17    16    61	5 ;      CG311      CG321       HGA2
   60    16    61	5 ;       HGA2      CG321       HGA2
   18    17    16	5 ;      NG2S1      CG311      CG321
   18    17    26	5 ;      NG2S1      CG311      CG311
   18    17    62	5 ;      NG2S1      CG311       HGA1
   16    17    26	5 ;      CG321      CG311      CG311
   16    17    62	5 ;      CG321      CG311       HGA1
   26    17    62	5 ;      CG311      CG311       HGA1
   19    18    25	5 ;      CG2O1      NG2S1       HGP1
   19    18    17	5 ;      CG2O1      NG2S1      CG311
   25    18    17	5 ;       HGP1      NG2S1      CG311
    3    19    20	5 ;     CG2R61      CG2O1      OG2D1
    3    19    18	5 ;     CG2R61      CG2O1      NG2S1
   20    19    18	5 ;      OG2D1      CG2O1      NG2S1
   22    21    13	5 ;     CG2R61     CG2R61     CG2R61
   22    21    63	5 ;     CG2R61     CG2R61      HGR61
   13    21    63	5 ;     CG2R61     CG2R61      HGR61
   23    22    21	5 ;     CG2R61     CG2R61     CG2R61
   23    22    64	5 ;     CG2R61     CG2R61      HGR61
   21    22    64	5 ;     CG2R61     CG2R61      HGR61
   22    23    11	5 ;     CG2R61     CG2R61     CG2R61
   22    23    65	5 ;     CG2R61     CG2R61      HGR61
   11    23    65	5 ;     CG2R61     CG2R61      HGR61
   17    26    27	5 ;      CG311      CG311      OG311
   17    26    29	5 ;      CG311      CG311      CG321
   17    26    66	5 ;      CG311      CG311       HGA1
   27    26    29	5 ;      OG311      CG311      CG321
   27    26    66	5 ;      OG311      CG311       HGA1
   29    26    66	5 ;      CG321      CG311       HGA1
   28    27    26	5 ;       HGP1      OG311      CG311
   26    29    30	5 ;      CG311      CG321      CG311
   26    29    67	5 ;      CG311      CG321       HGA2
   26    29    68	5 ;      CG311      CG321       HGA2
   30    29    67	5 ;      CG311      CG321       HGA2
   30    29    68	5 ;      CG311      CG321       HGA2
   67    29    68	5 ;       HGA2      CG321       HGA2
   29    30    31	5 ;      CG321      CG311      CG311
   29    30    34	5 ;      CG321      CG311      CG2O1
   29    30    69	5 ;      CG321      CG311       HGA1
   31    30    34	5 ;      CG311      CG311      CG2O1
   31    30    69	5 ;      CG311      CG311       HGA1
   34    30    69	5 ;      CG2O1      CG311       HGA1
   32    31    30	5 ;      CG331      CG311      CG311
   32    31    33	5 ;      CG331      CG311      CG331
   32    31    70	5 ;      CG331      CG311       HGA1
   30    31    33	5 ;      CG311      CG311      CG331
   30    31    70	5 ;      CG311      CG311       HGA1
   33    31    70	5 ;      CG331      CG311       HGA1
   31    32    71	5 ;      CG311      CG331       HGA3
   31    32    72	5 ;      CG311      CG331       HGA3
   31    32    73	5 ;      CG311      CG331       HGA3
   71    32    72	5 ;       HGA3      CG331       HGA3
   71    32    73	5 ;       HGA3      CG331       HGA3
   72    32    73	5 ;       HGA3      CG331       HGA3
   31    33    74	5 ;      CG311      CG331       HGA3
   31    33    75	5 ;      CG311      CG331       HGA3
   31    33    76	5 ;      CG311      CG331       HGA3
   74    33    75	5 ;       HGA3      CG331       HGA3
   74    33    76	5 ;       HGA3      CG331       HGA3
   75    33    76	5 ;       HGA3      CG331       HGA3
   30    34    35	5 ;      CG311      CG2O1      OG2D1
   30    34    36	5 ;      CG311      CG2O1      NG2S1
   35    34    36	5 ;      OG2D1      CG2O1      NG2S1
   34    36    37	5 ;      CG2O1      NG2S1       HGP1
   34    36    38	5 ;      CG2O1      NG2S1      CG321
   37    36    38	5 ;       HGP1      NG2S1      CG321
   36    38    39	5 ;      NG2S1      CG321      CG311
   36    38    77	5 ;      NG2S1      CG321       HGA2
   36    38    78	5 ;      NG2S1      CG321       HGA2
   39    38    77	5 ;      CG311      CG321       HGA2
   39    38    78	5 ;      CG311      CG321       HGA2
   77    38    78	5 ;       HGA2      CG321       HGA2
   40    39    41	5 ;      CG331      CG311      CG331
   40    39    38	5 ;      CG331      CG311      CG321
   40    39    79	5 ;      CG331      CG311       HGA1
   41    39    38	5 ;      CG331      CG311      CG321
   41    39    79	5 ;      CG331      CG311       HGA1
   38    39    79	5 ;      CG321      CG311       HGA1
   39    40    80	5 ;      CG311      CG331       HGA3
   39    40    81	5 ;      CG311      CG331       HGA3
   39    40    82	5 ;      CG311      CG331       HGA3
   80    40    81	5 ;       HGA3      CG331       HGA3
   80    40    82	5 ;       HGA3      CG331       HGA3
   81    40    82	5 ;       HGA3      CG331       HGA3
   39    41    83	5 ;      CG311      CG331       HGA3
   39    41    84	5 ;      CG311      CG331       HGA3
   39    41    85	5 ;      CG311      CG331       HGA3
   83    41    84	5 ;       HGA3      CG331       HGA3
   83    41    85	5 ;       HGA3      CG331       HGA3
   84    41    85	5 ;       HGA3      CG331       HGA3
   43    42     1	5 ;      CG331      NG301     CG2R61
   43    42    44	5 ;      CG331      NG301      SG3O2
    1    42    44	5 ;     CG2R61      NG301      SG3O2
   42    43    86	5 ;      NG301      CG331       HGA3
   42    43    87	5 ;      NG301      CG331       HGA3
   42    43    88	5 ;      NG301      CG331       HGA3
   86    43    87	5 ;       HGA3      CG331       HGA3
   86    43    88	5 ;       HGA3      CG331       HGA3
   87    43    88	5 ;       HGA3      CG331       HGA3
   42    44    45	5 ;      NG301      SG3O2      OG2P1
   42    44    46	5 ;      NG301      SG3O2      OG2P1
   42    44    47	5 ;      NG301      SG3O2      CG331
   45    44    46	5 ;      OG2P1      SG3O2      OG2P1
   45    44    47	5 ;      OG2P1      SG3O2      CG331
   46    44    47	5 ;      OG2P1      SG3O2      CG331
   44    47    89	5 ;      SG3O2      CG331       HGA3
   44    47    90	5 ;      SG3O2      CG331       HGA3
   44    47    91	5 ;      SG3O2      CG331       HGA3
   89    47    90	5 ;       HGA3      CG331       HGA3
   89    47    91	5 ;       HGA3      CG331       HGA3
   90    47    91	5 ;       HGA3      CG331       HGA3
   49    48    10	5 ;      CG321      OG301      CG311
   50    49    48	5 ;      CG321      CG321      OG301
   50    49    92	5 ;      CG321      CG321       HGA2
   50    49    93	5 ;      CG321      CG321       HGA2
   48    49    92	5 ;      OG301      CG321       HGA2
   48    49    93	5 ;      OG301      CG321       HGA2
   92    49    93	5 ;       HGA2      CG321       HGA2
   51    50    49	5 ;      OG301      CG321      CG321
   51    50    94	5 ;      OG301      CG321       HGA2
   51    50    95	5 ;      OG301      CG321       HGA2
   49    50    94	5 ;      CG321      CG321       HGA2
   49    50    95	5 ;      CG321      CG321       HGA2
   94    50    95	5 ;       HGA2      CG321       HGA2
   52    51    50	5 ;      CG331      OG301      CG321
   51    52    96	5 ;      OG301      CG331       HGA3
   51    52    97	5 ;      OG301      CG331       HGA3
   51    52    98	5 ;      OG301      CG331       HGA3
   96    52    97	5 ;       HGA3      CG331       HGA3
   96    52    98	5 ;       HGA3      CG331       HGA3
   97    52    98	5 ;       HGA3      CG331       HGA3

[ dihedrals ]
;	ai	  aj	ak	  al funct			  c0			c1			  c2			c3			  c4			c5
    6     1    42    43	 9 ;     CG2R61     CG2R61      NG301      CG331
    6     1    42    44	 9 ;     CG2R61     CG2R61      NG301      SG3O2
    2     1    42    43	 9 ;     CG2R61     CG2R61      NG301      CG331
    2     1    42    44	 9 ;     CG2R61     CG2R61      NG301      SG3O2
   42     1     6     5	 9 ;      NG301     CG2R61     CG2R61     CG2R61
   42     1     6    55	 9 ;      NG301     CG2R61     CG2R61      HGR61
    2     1     6     5	 9 ;     CG2R61     CG2R61     CG2R61     CG2R61
    2     1     6    55	 9 ;     CG2R61     CG2R61     CG2R61      HGR61
   42     1     2     3	 9 ;      NG301     CG2R61     CG2R61     CG2R61
   42     1     2    53	 9 ;      NG301     CG2R61     CG2R61      HGR61
    6     1     2     3	 9 ;     CG2R61     CG2R61     CG2R61     CG2R61
    6     1     2    53	 9 ;     CG2R61     CG2R61     CG2R61      HGR61
    1     2     3     4	 9 ;     CG2R61     CG2R61     CG2R61     CG2R61
    1     2     3    19	 9 ;     CG2R61     CG2R61     CG2R61      CG2O1
   53     2     3     4	 9 ;      HGR61     CG2R61     CG2R61     CG2R61
   53     2     3    19	 9 ;      HGR61     CG2R61     CG2R61      CG2O1
    2     3     4     5	 9 ;     CG2R61     CG2R61     CG2R61     CG2R61
    2     3     4    54	 9 ;     CG2R61     CG2R61     CG2R61      HGR61
   19     3     4     5	 9 ;      CG2O1     CG2R61     CG2R61     CG2R61
   19     3     4    54	 9 ;      CG2O1     CG2R61     CG2R61      HGR61
    2     3    19    20	 9 ;     CG2R61     CG2R61      CG2O1      OG2D1
    2     3    19    18	 9 ;     CG2R61     CG2R61      CG2O1      NG2S1
    4     3    19    20	 9 ;     CG2R61     CG2R61      CG2O1      OG2D1
    4     3    19    18	 9 ;     CG2R61     CG2R61      CG2O1      NG2S1
    3     4     5     6	 9 ;     CG2R61     CG2R61     CG2R61     CG2R61
    3     4     5     7	 9 ;     CG2R61     CG2R61     CG2R61      CG2O1
   54     4     5     6	 9 ;      HGR61     CG2R61     CG2R61     CG2R61
   54     4     5     7	 9 ;      HGR61     CG2R61     CG2R61      CG2O1
    7     5     6     1	 9 ;      CG2O1     CG2R61     CG2R61     CG2R61
    7     5     6    55	 9 ;      CG2O1     CG2R61     CG2R61      HGR61
    4     5     6     1	 9 ;     CG2R61     CG2R61     CG2R61     CG2R61
    4     5     6    55	 9 ;     CG2R61     CG2R61     CG2R61      HGR61
    6     5     7     8	 9 ;     CG2R61     CG2R61      CG2O1      OG2D1
    6     5     7     9	 9 ;     CG2R61     CG2R61      CG2O1      NG2S1
    4     5     7     8	 9 ;     CG2R61     CG2R61      CG2O1      OG2D1
    4     5     7     9	 9 ;     CG2R61     CG2R61      CG2O1      NG2S1
    8     7     9    24	 9 ;      OG2D1      CG2O1      NG2S1       HGP1
    8     7     9    10	 9 ;      OG2D1      CG2O1      NG2S1      CG311
    5     7     9    24	 9 ;     CG2R61      CG2O1      NG2S1       HGP1
    5     7     9    10	 9 ;     CG2R61      CG2O1      NG2S1      CG311
   24     9    10    48	 9 ;       HGP1      NG2S1      CG311      OG301
   24     9    10    11	 9 ;       HGP1      NG2S1      CG311     CG2R61
   24     9    10    56	 9 ;       HGP1      NG2S1      CG311       HGA1
    7     9    10    48	 9 ;      CG2O1      NG2S1      CG311      OG301
    7     9    10    11	 9 ;      CG2O1      NG2S1      CG311     CG2R61
    7     9    10    56	 9 ;      CG2O1      NG2S1      CG311       HGA1
    9    10    48    49	 9 ;      NG2S1      CG311      OG301      CG321
   11    10    48    49	 9 ;     CG2R61      CG311      OG301      CG321
   56    10    48    49	 9 ;       HGA1      CG311      OG301      CG321
   48    10    11    23	 9 ;      OG301      CG311     CG2R61     CG2R61
   48    10    11    12	 9 ;      OG301      CG311     CG2R61     CG2R61
    9    10    11    23	 9 ;      NG2S1      CG311     CG2R61     CG2R61
    9    10    11    12	 9 ;      NG2S1      CG311     CG2R61     CG2R61
   56    10    11    23	 9 ;       HGA1      CG311     CG2R61     CG2R61
   56    10    11    12	 9 ;       HGA1      CG311     CG2R61     CG2R61
   10    11    23    22	 9 ;      CG311     CG2R61     CG2R61     CG2R61
   10    11    23    65	 9 ;      CG311     CG2R61     CG2R61      HGR61
   12    11    23    22	 9 ;     CG2R61     CG2R61     CG2R61     CG2R61
   12    11    23    65	 9 ;     CG2R61     CG2R61     CG2R61      HGR61
   23    11    12    13	 9 ;     CG2R61     CG2R61     CG2R61     CG2R61
   23    11    12    57	 9 ;     CG2R61     CG2R61     CG2R61      HGR61
   10    11    12    13	 9 ;      CG311     CG2R61     CG2R61     CG2R61
   10    11    12    57	 9 ;      CG311     CG2R61     CG2R61      HGR61
   11    12    13    21	 9 ;     CG2R61     CG2R61     CG2R61     CG2R61
   11    12    13    14	 9 ;     CG2R61     CG2R61     CG2R61      CG321
   57    12    13    21	 9 ;      HGR61     CG2R61     CG2R61     CG2R61
   57    12    13    14	 9 ;      HGR61     CG2R61     CG2R61      CG321
   12    13    21    22	 9 ;     CG2R61     CG2R61     CG2R61     CG2R61
   12    13    21    63	 9 ;     CG2R61     CG2R61     CG2R61      HGR61
   14    13    21    22	 9 ;      CG321     CG2R61     CG2R61     CG2R61
   14    13    21    63	 9 ;      CG321     CG2R61     CG2R61      HGR61
   21    13    14    15	 9 ;     CG2R61     CG2R61      CG321      OG301
   21    13    14    58	 9 ;     CG2R61     CG2R61      CG321       HGA2
   21    13    14    59	 9 ;     CG2R61     CG2R61      CG321       HGA2
   12    13    14    15	 9 ;     CG2R61     CG2R61      CG321      OG301
   12    13    14    58	 9 ;     CG2R61     CG2R61      CG321       HGA2
   12    13    14    59	 9 ;     CG2R61     CG2R61      CG321       HGA2
   13    14    15    16	 9 ;     CG2R61      CG321      OG301      CG321
   58    14    15    16	 9 ;       HGA2      CG321      OG301      CG321
   59    14    15    16	 9 ;       HGA2      CG321      OG301      CG321
   14    15    16    17	 9 ;      CG321      OG301      CG321      CG311
   14    15    16    60	 9 ;      CG321      OG301      CG321       HGA2
   14    15    16    61	 9 ;      CG321      OG301      CG321       HGA2
   15    16    17    18	 9 ;      OG301      CG321      CG311      NG2S1
   15    16    17    26	 9 ;      OG301      CG321      CG311      CG311
   15    16    17    62	 9 ;      OG301      CG321      CG311       HGA1
   60    16    17    18	 9 ;       HGA2      CG321      CG311      NG2S1
   60    16    17    26	 9 ;       HGA2      CG321      CG311      CG311
   60    16    17    62	 9 ;       HGA2      CG321      CG311       HGA1
   61    16    17    18	 9 ;       HGA2      CG321      CG311      NG2S1
   61    16    17    26	 9 ;       HGA2      CG321      CG311      CG311
   61    16    17    62	 9 ;       HGA2      CG321      CG311       HGA1
   16    17    18    19	 9 ;      CG321      CG311      NG2S1      CG2O1
   16    17    18    25	 9 ;      CG321      CG311      NG2S1       HGP1
   26    17    18    19	 9 ;      CG311      CG311      NG2S1      CG2O1
   26    17    18    25	 9 ;      CG311      CG311      NG2S1       HGP1
   62    17    18    19	 9 ;       HGA1      CG311      NG2S1      CG2O1
   62    17    18    25	 9 ;       HGA1      CG311      NG2S1       HGP1
   18    17    26    27	 9 ;      NG2S1      CG311      CG311      OG311
   18    17    26    29	 9 ;      NG2S1      CG311      CG311      CG321
   18    17    26    66	 9 ;      NG2S1      CG311      CG311       HGA1
   16    17    26    27	 9 ;      CG321      CG311      CG311      OG311
   16    17    26    29	 9 ;      CG321      CG311      CG311      CG321
   16    17    26    66	 9 ;      CG321      CG311      CG311       HGA1
   62    17    26    27	 9 ;       HGA1      CG311      CG311      OG311
   62    17    26    29	 9 ;       HGA1      CG311      CG311      CG321
   62    17    26    66	 9 ;       HGA1      CG311      CG311       HGA1
   25    18    19     3	 9 ;       HGP1      NG2S1      CG2O1     CG2R61
   25    18    19    20	 9 ;       HGP1      NG2S1      CG2O1      OG2D1
   17    18    19     3	 9 ;      CG311      NG2S1      CG2O1     CG2R61
   17    18    19    20	 9 ;      CG311      NG2S1      CG2O1      OG2D1
   13    21    22    23	 9 ;     CG2R61     CG2R61     CG2R61     CG2R61
   13    21    22    64	 9 ;     CG2R61     CG2R61     CG2R61      HGR61
   63    21    22    23	 9 ;      HGR61     CG2R61     CG2R61     CG2R61
   63    21    22    64	 9 ;      HGR61     CG2R61     CG2R61      HGR61
   21    22    23    11	 9 ;     CG2R61     CG2R61     CG2R61     CG2R61
   21    22    23    65	 9 ;     CG2R61     CG2R61     CG2R61      HGR61
   64    22    23    11	 9 ;      HGR61     CG2R61     CG2R61     CG2R61
   64    22    23    65	 9 ;      HGR61     CG2R61     CG2R61      HGR61
   17    26    27    28	 9 ;      CG311      CG311      OG311       HGP1
   29    26    27    28	 9 ;      CG321      CG311      OG311       HGP1
   66    26    27    28	 9 ;       HGA1      CG311      OG311       HGP1
   17    26    29    30	 9 ;      CG311      CG311      CG321      CG311
   17    26    29    67	 9 ;      CG311      CG311      CG321       HGA2
   17    26    29    68	 9 ;      CG311      CG311      CG321       HGA2
   27    26    29    30	 9 ;      OG311      CG311      CG321      CG311
   27    26    29    67	 9 ;      OG311      CG311      CG321       HGA2
   27    26    29    68	 9 ;      OG311      CG311      CG321       HGA2
   66    26    29    30	 9 ;       HGA1      CG311      CG321      CG311
   66    26    29    67	 9 ;       HGA1      CG311      CG321       HGA2
   66    26    29    68	 9 ;       HGA1      CG311      CG321       HGA2
   26    29    30    31	 9 ;      CG311      CG321      CG311      CG311
   26    29    30    34	 9 ;      CG311      CG321      CG311      CG2O1
   26    29    30    69	 9 ;      CG311      CG321      CG311       HGA1
   67    29    30    31	 9 ;       HGA2      CG321      CG311      CG311
   67    29    30    34	 9 ;       HGA2      CG321      CG311      CG2O1
   67    29    30    69	 9 ;       HGA2      CG321      CG311       HGA1
   68    29    30    31	 9 ;       HGA2      CG321      CG311      CG311
   68    29    30    34	 9 ;       HGA2      CG321      CG311      CG2O1
   68    29    30    69	 9 ;       HGA2      CG321      CG311       HGA1
   29    30    31    32	 9 ;      CG321      CG311      CG311      CG331
   29    30    31    33	 9 ;      CG321      CG311      CG311      CG331
   29    30    31    70	 9 ;      CG321      CG311      CG311       HGA1
   34    30    31    32	 9 ;      CG2O1      CG311      CG311      CG331
   34    30    31    33	 9 ;      CG2O1      CG311      CG311      CG331
   34    30    31    70	 9 ;      CG2O1      CG311      CG311       HGA1
   69    30    31    32	 9 ;       HGA1      CG311      CG311      CG331
   69    30    31    33	 9 ;       HGA1      CG311      CG311      CG331
   69    30    31    70	 9 ;       HGA1      CG311      CG311       HGA1
   29    30    34    35	 9 ;      CG321      CG311      CG2O1      OG2D1
   29    30    34    36	 9 ;      CG321      CG311      CG2O1      NG2S1
   31    30    34    35	 9 ;      CG311      CG311      CG2O1      OG2D1
   31    30    34    36	 9 ;      CG311      CG311      CG2O1      NG2S1
   69    30    34    35	 9 ;       HGA1      CG311      CG2O1      OG2D1
   69    30    34    36	 9 ;       HGA1      CG311      CG2O1      NG2S1
   30    31    32    71	 9 ;      CG311      CG311      CG331       HGA3
   30    31    32    72	 9 ;      CG311      CG311      CG331       HGA3
   30    31    32    73	 9 ;      CG311      CG311      CG331       HGA3
   33    31    32    71	 9 ;      CG331      CG311      CG331       HGA3
   33    31    32    72	 9 ;      CG331      CG311      CG331       HGA3
   33    31    32    73	 9 ;      CG331      CG311      CG331       HGA3
   70    31    32    71	 9 ;       HGA1      CG311      CG331       HGA3
   70    31    32    72	 9 ;       HGA1      CG311      CG331       HGA3
   70    31    32    73	 9 ;       HGA1      CG311      CG331       HGA3
   32    31    33    74	 9 ;      CG331      CG311      CG331       HGA3
   32    31    33    75	 9 ;      CG331      CG311      CG331       HGA3
   32    31    33    76	 9 ;      CG331      CG311      CG331       HGA3
   30    31    33    74	 9 ;      CG311      CG311      CG331       HGA3
   30    31    33    75	 9 ;      CG311      CG311      CG331       HGA3
   30    31    33    76	 9 ;      CG311      CG311      CG331       HGA3
   70    31    33    74	 9 ;       HGA1      CG311      CG331       HGA3
   70    31    33    75	 9 ;       HGA1      CG311      CG331       HGA3
   70    31    33    76	 9 ;       HGA1      CG311      CG331       HGA3
   30    34    36    37	 9 ;      CG311      CG2O1      NG2S1       HGP1
   30    34    36    38	 9 ;      CG311      CG2O1      NG2S1      CG321
   35    34    36    37	 9 ;      OG2D1      CG2O1      NG2S1       HGP1
   35    34    36    38	 9 ;      OG2D1      CG2O1      NG2S1      CG321
   34    36    38    39	 9 ;      CG2O1      NG2S1      CG321      CG311
   34    36    38    77	 9 ;      CG2O1      NG2S1      CG321       HGA2
   34    36    38    78	 9 ;      CG2O1      NG2S1      CG321       HGA2
   37    36    38    39	 9 ;       HGP1      NG2S1      CG321      CG311
   37    36    38    77	 9 ;       HGP1      NG2S1      CG321       HGA2
   37    36    38    78	 9 ;       HGP1      NG2S1      CG321       HGA2
   36    38    39    40	 9 ;      NG2S1      CG321      CG311      CG331
   36    38    39    41	 9 ;      NG2S1      CG321      CG311      CG331
   36    38    39    79	 9 ;      NG2S1      CG321      CG311       HGA1
   77    38    39    40	 9 ;       HGA2      CG321      CG311      CG331
   77    38    39    41	 9 ;       HGA2      CG321      CG311      CG331
   77    38    39    79	 9 ;       HGA2      CG321      CG311       HGA1
   78    38    39    40	 9 ;       HGA2      CG321      CG311      CG331
   78    38    39    41	 9 ;       HGA2      CG321      CG311      CG331
   78    38    39    79	 9 ;       HGA2      CG321      CG311       HGA1
   41    39    40    80	 9 ;      CG331      CG311      CG331       HGA3
   41    39    40    81	 9 ;      CG331      CG311      CG331       HGA3
   41    39    40    82	 9 ;      CG331      CG311      CG331       HGA3
   38    39    40    80	 9 ;      CG321      CG311      CG331       HGA3
   38    39    40    81	 9 ;      CG321      CG311      CG331       HGA3
   38    39    40    82	 9 ;      CG321      CG311      CG331       HGA3
   79    39    40    80	 9 ;       HGA1      CG311      CG331       HGA3
   79    39    40    81	 9 ;       HGA1      CG311      CG331       HGA3
   79    39    40    82	 9 ;       HGA1      CG311      CG331       HGA3
   40    39    41    83	 9 ;      CG331      CG311      CG331       HGA3
   40    39    41    84	 9 ;      CG331      CG311      CG331       HGA3
   40    39    41    85	 9 ;      CG331      CG311      CG331       HGA3
   38    39    41    83	 9 ;      CG321      CG311      CG331       HGA3
   38    39    41    84	 9 ;      CG321      CG311      CG331       HGA3
   38    39    41    85	 9 ;      CG321      CG311      CG331       HGA3
   79    39    41    83	 9 ;       HGA1      CG311      CG331       HGA3
   79    39    41    84	 9 ;       HGA1      CG311      CG331       HGA3
   79    39    41    85	 9 ;       HGA1      CG311      CG331       HGA3
    1    42    43    86	 9 ;     CG2R61      NG301      CG331       HGA3
    1    42    43    87	 9 ;     CG2R61      NG301      CG331       HGA3
    1    42    43    88	 9 ;     CG2R61      NG301      CG331       HGA3
   44    42    43    86	 9 ;      SG3O2      NG301      CG331       HGA3
   44    42    43    87	 9 ;      SG3O2      NG301      CG331       HGA3
   44    42    43    88	 9 ;      SG3O2      NG301      CG331       HGA3
   43    42    44    45	 9 ;      CG331      NG301      SG3O2      OG2P1
   43    42    44    46	 9 ;      CG331      NG301      SG3O2      OG2P1
   43    42    44    47	 9 ;      CG331      NG301      SG3O2      CG331
    1    42    44    45	 9 ;     CG2R61      NG301      SG3O2      OG2P1
    1    42    44    46	 9 ;     CG2R61      NG301      SG3O2      OG2P1
    1    42    44    47	 9 ;     CG2R61      NG301      SG3O2      CG331
   42    44    47    89	 9 ;      NG301      SG3O2      CG331       HGA3
   42    44    47    90	 9 ;      NG301      SG3O2      CG331       HGA3
   42    44    47    91	 9 ;      NG301      SG3O2      CG331       HGA3
   45    44    47    89	 9 ;      OG2P1      SG3O2      CG331       HGA3
   45    44    47    90	 9 ;      OG2P1      SG3O2      CG331       HGA3
   45    44    47    91	 9 ;      OG2P1      SG3O2      CG331       HGA3
   46    44    47    89	 9 ;      OG2P1      SG3O2      CG331       HGA3
   46    44    47    90	 9 ;      OG2P1      SG3O2      CG331       HGA3
   46    44    47    91	 9 ;      OG2P1      SG3O2      CG331       HGA3
   10    48    49    50	 9 ;      CG311      OG301      CG321      CG321
   10    48    49    92	 9 ;      CG311      OG301      CG321       HGA2
   10    48    49    93	 9 ;      CG311      OG301      CG321       HGA2
   48    49    50    51	 9 ;      OG301      CG321      CG321      OG301
   48    49    50    94	 9 ;      OG301      CG321      CG321       HGA2
   48    49    50    95	 9 ;      OG301      CG321      CG321       HGA2
   92    49    50    51	 9 ;       HGA2      CG321      CG321      OG301
   92    49    50    94	 9 ;       HGA2      CG321      CG321       HGA2
   92    49    50    95	 9 ;       HGA2      CG321      CG321       HGA2
   93    49    50    51	 9 ;       HGA2      CG321      CG321      OG301
   93    49    50    94	 9 ;       HGA2      CG321      CG321       HGA2
   93    49    50    95	 9 ;       HGA2      CG321      CG321       HGA2
   49    50    51    52	 9 ;      CG321      CG321      OG301      CG331
   94    50    51    52	 9 ;       HGA2      CG321      OG301      CG331
   95    50    51    52	 9 ;       HGA2      CG321      OG301      CG331
   50    51    52    96	 9 ;      CG321      OG301      CG331       HGA3
   50    51    52    97	 9 ;      CG321      OG301      CG331       HGA3
   50    51    52    98	 9 ;      CG321      OG301      CG331       HGA3

[ dihedrals ]
;	ai	  aj	ak	  al funct			  c0			c1			  c2			c3
    7     5     9     8	 2
   19     3    18    20	 2
   34    30    36    35	 2

