GROwing Monsters And Cloning Shrimps
   45
    1LIG     C2    1   8.358   1.541   8.974
    1LIG     O5    2   8.276   1.770   9.104
    1LIG     C4    3   8.383   1.708   9.306
    1LIG     C5    4   8.462   1.613   9.374
    1LIG     C6    5   8.350   1.828   9.369
    1LIG     C7    6   8.508   1.642   9.504
    1LIG     C8    7   8.395   1.855   9.498
    1LIG     C9    8   8.474   1.762   9.566
    1LIG    C10    9   8.366   1.549   9.108
    1LIG    C11   10   8.396   1.440   9.206
    1LIG    C12   11   8.336   1.683   9.167
    1LIG    C13   12   8.502   1.485   9.306
    1LIG     N1   13   8.273   1.347   8.867
    1LIG     O4   14   8.500   1.386   8.863
    1LIG     C3   15   8.387   1.419   8.896
    1LIG     H5   16   8.195   1.366   8.930
    1LIG    C14   17   8.283   1.212   8.809
    1LIG    C16   18   8.245   1.208   8.658
    1LIG    C17   19   8.159   1.327   8.614
    1LIG    C18   20   8.371   1.204   8.570
    1LIG     O2   21   8.094   1.059   8.839
    1LIG    C15   22   8.187   1.122   8.888
    1LIG     O3   23   8.208   1.125   9.022
    1LIG     H4   24   8.127   1.110   9.073
    1LIG     C1   25   8.427   1.760   9.800
    1LIG     O1   26   8.511   1.800   9.692
    1LIG     H1   27   8.330   1.626   8.922
    1LIG     H2   28   8.292   1.898   9.319
    1LIG     H3   29   8.567   1.573   9.553
    1LIG     H6   30   8.369   1.944   9.544
    1LIG     H7   31   8.432   1.354   9.153
    1LIG     H8   32   8.307   1.416   9.260
    1LIG     H9   33   8.595   1.500   9.254
    1LIG    H10   34   8.513   1.409   9.381
    1LIG     HA   35   8.385   1.179   8.815
    1LIG     HB   36   8.188   1.119   8.646
    1LIG   HG21   37   8.215   1.417   8.625
    1LIG   HG22   38   8.071   1.331   8.674
    1LIG   HG23   39   8.131   1.314   8.511
    1LIG   HG11   40   8.427   1.294   8.583
    1LIG   HG12   41   8.342   1.194   8.467
    1LIG   HG13   42   8.431   1.120   8.597
    1LIG    H11   43   8.467   1.797   9.892
    1LIG    H12   44   8.422   1.654   9.803
    1LIG    H13   45   8.329   1.801   9.785
   0.00000   0.00000   0.00000
