; Created by cgenff_charmm2gmx.py

[ moleculetype ]
; Name			   nrexcl
LIG				 3

[ atoms ]
;	 nr		  type	resnr residue  atom   cgnr	   charge		mass  typeB    chargeB		massB
; residue	 1 LIG rtp LIG q	qsum
     1      CG311      1    LIG     C1      1      0.017     12.011   ;
     2      CG321      1    LIG     C2      2     -0.111     12.011   ;
     3     CG2R61      1    LIG     C3      3     -0.019     12.011   ;
     4     CG2R61      1    LIG     C4      4     -0.123     12.011   ;
     5     CG2R61      1    LIG     C5      5     -0.112     12.011   ;
     6     CG2R61      1    LIG     C6      6     -0.116     12.011   ;
     7     CG2R61      1    LIG     C7      7     -0.112     12.011   ;
     8     CG2R61      1    LIG     C8      8     -0.123     12.011   ;
     9      NG2S1      1    LIG     N1      9     -0.384     14.007   ;
    10      CG2O1      1    LIG     C9     10      0.491     12.011   ;
    11      OG2D1      1    LIG     O1     11     -0.486     15.999   ;
    12       HGP1      1    LIG     H1     12      0.263      1.008   ;
    13     CG3C51      1    LIG    C10     13     -0.149     12.011   ;
    14     CG2RC0      1    LIG    C11     14     -0.004     12.011   ;
    15     CG2RC0      1    LIG    C12     15      0.192     12.011   ;
    16     CG2R61      1    LIG    C13     16     -0.188     12.011   ;
    17      NG2S0      1    LIG     N2     17     -0.285     14.007   ;
    18     CG2R61      1    LIG    C14     18     -0.150     12.011   ;
    19     CG3C52      1    LIG    C15     19     -0.032     12.011   ;
    20      CG2O6      1    LIG    C16     20      0.717     12.011   ;
    21      OG2D1      1    LIG     O2     21     -0.582     15.999   ;
    22      NG2S0      1    LIG     N3     22     -0.444     14.007   ;
    23     CG2R61      1    LIG    C17     23     -0.165     12.011   ;
    24     CG2R61      1    LIG    C18     24     -0.152     12.011   ;
    25      CG321      1    LIG    C19     25      0.032     12.011   ;
    26      CG331      1    LIG    C20     26     -0.279     12.011   ;
    27      CG321      1    LIG    C21     27      0.032     12.011   ;
    28      CG331      1    LIG    C22     28     -0.279     12.011   ;
    29      CG311      1    LIG    C23     29      0.094     12.011   ;
    30      OG311      1    LIG     O3     30     -0.625     15.999   ;
    31       HGP1      1    LIG     H2     31      0.415      1.008   ;
    32      CG324      1    LIG    C24     32      0.178     12.011   ;
    33      NG3P2      1    LIG     N4     33     -0.444     14.007   ;
    34       HGP2      1    LIG     H3     34      0.348      1.008   ;
    35       HGP2      1    LIG     H4     35      0.348      1.008   ;
    36      CG324      1    LIG    C25     36      0.171     12.011   ;
    37     CG2R61      1    LIG    C26     37      0.036     12.011   ;
    38     CG2R61      1    LIG    C27     38     -0.124     12.011   ;
    39     CG2R61      1    LIG    C28     39      0.216     12.011   ;
    40     CG2R61      1    LIG    C29     40     -0.121     12.011   ;
    41     CG2R61      1    LIG    C30     41     -0.108     12.011   ;
    42     CG2R61      1    LIG    C31     42     -0.119     12.011   ;
    43      OG301      1    LIG     O4     43     -0.383     15.999   ;
    44      CG331      1    LIG    C32     44     -0.094     12.011   ;
    45       HGA1      1    LIG     HC     45      0.090      1.008   ;
    46       HGA2      1    LIG    HC2     46      0.090      1.008   ;
    47       HGA2      1    LIG    HC3     47      0.090      1.008   ;
    48      HGR61      1    LIG    HC1     48      0.116      1.008   ;
    49      HGR61      1    LIG    HC4     49      0.116      1.008   ;
    50      HGR61      1    LIG    HC5     50      0.116      1.008   ;
    51      HGR61      1    LIG    HC6     51      0.116      1.008   ;
    52      HGR61      1    LIG    HC7     52      0.116      1.008   ;
    53      HGR61      1    LIG    HC8     53      0.131      1.008   ;
    54      HGR61      1    LIG    HC9     54      0.160      1.008   ;
    55       HGA2      1    LIG   HC10     55      0.090      1.008   ;
    56      HGR61      1    LIG   HC11     56      0.134      1.008   ;
    57      HGR61      1    LIG   HC12     57      0.134      1.008   ;
    58       HGA2      1    LIG   HC13     58      0.090      1.008   ;
    59       HGA2      1    LIG   HC14     59      0.090      1.008   ;
    60       HGA3      1    LIG   HC15     60      0.090      1.008   ;
    61       HGA3      1    LIG   HC16     61      0.090      1.008   ;
    62       HGA3      1    LIG   HC17     62      0.090      1.008   ;
    63       HGA2      1    LIG   HC18     63      0.090      1.008   ;
    64       HGA2      1    LIG   HC19     64      0.090      1.008   ;
    65       HGA3      1    LIG   HC20     65      0.090      1.008   ;
    66       HGA3      1    LIG   HC21     66      0.090      1.008   ;
    67       HGA3      1    LIG   HC22     67      0.090      1.008   ;
    68       HGA1      1    LIG   HC23     68      0.090      1.008   ;
    69       HGA2      1    LIG   HC24     69      0.090      1.008   ;
    70       HGA2      1    LIG   HC25     70      0.090      1.008   ;
    71       HGA2      1    LIG   HC26     71      0.090      1.008   ;
    72       HGA2      1    LIG   HC27     72      0.090      1.008   ;
    73      HGR61      1    LIG   HC28     73      0.116      1.008   ;
    74      HGR61      1    LIG   HC29     74      0.116      1.008   ;
    75      HGR61      1    LIG   HC30     75      0.116      1.008   ;
    76      HGR61      1    LIG   HC31     76      0.116      1.008   ;
    77       HGA3      1    LIG   HC32     77      0.090      1.008   ;
    78       HGA3      1    LIG   HC33     78      0.090      1.008   ;
    79       HGA3      1    LIG   HC34     79      0.090      1.008   ;
    80       HGA1      1    LIG    H40     80      0.090      1.008   ;
    81       HGA2      1    LIG    H41     81      0.090      1.008   ;

[ bonds ]
;	ai	  aj funct			  c0			c1			  c2			c3
    1    29	 1 ;       CG311      CG311
    1     9	 1 ;       CG311      NG2S1
    1     2	 1 ;       CG311      CG321
    1    45	 1 ;       CG311       HGA1
    2     3	 1 ;       CG321     CG2R61
    2    46	 1 ;       CG321       HGA2
    2    47	 1 ;       CG321       HGA2
    3     8	 1 ;      CG2R61     CG2R61
    3     4	 1 ;      CG2R61     CG2R61
    4     5	 1 ;      CG2R61     CG2R61
    4    48	 1 ;      CG2R61      HGR61
    5     6	 1 ;      CG2R61     CG2R61
    5    49	 1 ;      CG2R61      HGR61
    6     7	 1 ;      CG2R61     CG2R61
    6    50	 1 ;      CG2R61      HGR61
    7     8	 1 ;      CG2R61     CG2R61
    7    51	 1 ;      CG2R61      HGR61
    8    52	 1 ;      CG2R61      HGR61
    9    12	 1 ;       NG2S1       HGP1
    9    10	 1 ;       NG2S1      CG2O1
   10    13	 1 ;       CG2O1     CG3C51
   10    11	 1 ;       CG2O1      OG2D1
   13    14	 1 ;      CG3C51     CG2RC0
   13    19	 1 ;      CG3C51     CG3C52
   13    80	 1 ;      CG3C51       HGA1
   14    15	 1 ;      CG2RC0     CG2RC0
   14    16	 1 ;      CG2RC0     CG2R61
   15    18	 1 ;      CG2RC0     CG2R61
   15    17	 1 ;      CG2RC0      NG2S0
   16    24	 1 ;      CG2R61     CG2R61
   16    53	 1 ;      CG2R61      HGR61
   17    20	 1 ;       NG2S0      CG2O6
   17    19	 1 ;       NG2S0     CG3C52
   18    23	 1 ;      CG2R61     CG2R61
   18    54	 1 ;      CG2R61      HGR61
   19    55	 1 ;      CG3C52       HGA2
   19    81	 1 ;      CG3C52       HGA2
   20    22	 1 ;       CG2O6      NG2S0
   20    21	 1 ;       CG2O6      OG2D1
   22    27	 1 ;       NG2S0      CG321
   22    25	 1 ;       NG2S0      CG321
   23    24	 1 ;      CG2R61     CG2R61
   23    56	 1 ;      CG2R61      HGR61
   24    57	 1 ;      CG2R61      HGR61
   25    26	 1 ;       CG321      CG331
   25    58	 1 ;       CG321       HGA2
   25    59	 1 ;       CG321       HGA2
   26    60	 1 ;       CG331       HGA3
   26    61	 1 ;       CG331       HGA3
   26    62	 1 ;       CG331       HGA3
   27    28	 1 ;       CG321      CG331
   27    63	 1 ;       CG321       HGA2
   27    64	 1 ;       CG321       HGA2
   28    65	 1 ;       CG331       HGA3
   28    66	 1 ;       CG331       HGA3
   28    67	 1 ;       CG331       HGA3
   29    30	 1 ;       CG311      OG311
   29    32	 1 ;       CG311      CG324
   29    68	 1 ;       CG311       HGA1
   30    31	 1 ;       OG311       HGP1
   32    33	 1 ;       CG324      NG3P2
   32    69	 1 ;       CG324       HGA2
   32    70	 1 ;       CG324       HGA2
   33    34	 1 ;       NG3P2       HGP2
   33    35	 1 ;       NG3P2       HGP2
   33    36	 1 ;       NG3P2      CG324
   36    37	 1 ;       CG324     CG2R61
   36    71	 1 ;       CG324       HGA2
   36    72	 1 ;       CG324       HGA2
   37    42	 1 ;      CG2R61     CG2R61
   37    38	 1 ;      CG2R61     CG2R61
   38    39	 1 ;      CG2R61     CG2R61
   38    73	 1 ;      CG2R61      HGR61
   39    40	 1 ;      CG2R61     CG2R61
   39    43	 1 ;      CG2R61      OG301
   40    41	 1 ;      CG2R61     CG2R61
   40    74	 1 ;      CG2R61      HGR61
   41    42	 1 ;      CG2R61     CG2R61
   41    75	 1 ;      CG2R61      HGR61
   42    76	 1 ;      CG2R61      HGR61
   43    44	 1 ;       OG301      CG331
   44    77	 1 ;       CG331       HGA3
   44    78	 1 ;       CG331       HGA3
   44    79	 1 ;       CG331       HGA3

[ pairs ]
;	ai	  aj funct			  c0			c1			  c2			c3
    1     8	 1
    1     4	 1
    1    13	 1
    1    11	 1
    1    31	 1
    1    33	 1
    1    69	 1
    1    70	 1
    2    30	 1
    2    32	 1
    2    68	 1
    2    12	 1
    2    10	 1
    2     7	 1
    2    52	 1
    2     5	 1
    2    48	 1
    3    29	 1
    3     9	 1
    3    45	 1
    3     6	 1
    3    49	 1
    3    51	 1
    4    46	 1
    4    47	 1
    4     7	 1
    4    52	 1
    4    50	 1
    5     8	 1
    5    51	 1
    6    48	 1
    6    52	 1
    7    49	 1
    8    46	 1
    8    47	 1
    8    48	 1
    8    50	 1
    9    30	 1
    9    32	 1
    9    68	 1
    9    46	 1
    9    47	 1
    9    14	 1
    9    19	 1
    9    80	 1
   10    29	 1
   10    45	 1
   10    15	 1
   10    16	 1
   10    17	 1
   10    55	 1
   10    81	 1
   11    12	 1
   11    14	 1
   11    19	 1
   11    80	 1
   12    29	 1
   12    45	 1
   12    13	 1
   13    18	 1
   13    24	 1
   13    53	 1
   13    20	 1
   14    55	 1
   14    81	 1
   14    23	 1
   14    54	 1
   14    20	 1
   14    57	 1
   15    80	 1
   15    24	 1
   15    53	 1
   15    22	 1
   15    21	 1
   15    55	 1
   15    81	 1
   15    56	 1
   16    19	 1
   16    80	 1
   16    18	 1
   16    17	 1
   16    56	 1
   17    80	 1
   17    23	 1
   17    54	 1
   17    27	 1
   17    25	 1
   18    20	 1
   18    19	 1
   18    57	 1
   19    22	 1
   19    21	 1
   20    55	 1
   20    81	 1
   20    28	 1
   20    63	 1
   20    64	 1
   20    26	 1
   20    58	 1
   20    59	 1
   21    27	 1
   21    25	 1
   22    60	 1
   22    61	 1
   22    62	 1
   22    65	 1
   22    66	 1
   22    67	 1
   23    53	 1
   24    54	 1
   25    28	 1
   25    63	 1
   25    64	 1
   26    27	 1
   27    58	 1
   27    59	 1
   29    46	 1
   29    47	 1
   29    34	 1
   29    35	 1
   29    36	 1
   30    45	 1
   30    33	 1
   30    69	 1
   30    70	 1
   31    32	 1
   31    68	 1
   32    45	 1
   32    37	 1
   32    71	 1
   32    72	 1
   33    68	 1
   33    42	 1
   33    38	 1
   34    69	 1
   34    70	 1
   34    37	 1
   34    71	 1
   34    72	 1
   35    69	 1
   35    70	 1
   35    37	 1
   35    71	 1
   35    72	 1
   36    69	 1
   36    70	 1
   36    41	 1
   36    76	 1
   36    39	 1
   36    73	 1
   37    40	 1
   37    43	 1
   37    75	 1
   38    71	 1
   38    72	 1
   38    41	 1
   38    76	 1
   38    74	 1
   38    44	 1
   39    42	 1
   39    75	 1
   39    77	 1
   39    78	 1
   39    79	 1
   40    73	 1
   40    44	 1
   40    76	 1
   41    43	 1
   42    71	 1
   42    72	 1
   42    73	 1
   42    74	 1
   43    73	 1
   43    74	 1
   45    68	 1
   45    46	 1
   45    47	 1
   48    49	 1
   49    50	 1
   50    51	 1
   51    52	 1
   53    57	 1
   54    56	 1
   55    80	 1
   56    57	 1
   58    60	 1
   58    61	 1
   58    62	 1
   59    60	 1
   59    61	 1
   59    62	 1
   63    65	 1
   63    66	 1
   63    67	 1
   64    65	 1
   64    66	 1
   64    67	 1
   68    69	 1
   68    70	 1
   74    75	 1
   75    76	 1
   80    81	 1

[ angles ]
;	ai	  aj	ak funct			c0			  c1			c2			  c3
   29     1     9	5 ;      CG311      CG311      NG2S1
   29     1     2	5 ;      CG311      CG311      CG321
   29     1    45	5 ;      CG311      CG311       HGA1
    9     1     2	5 ;      NG2S1      CG311      CG321
    9     1    45	5 ;      NG2S1      CG311       HGA1
    2     1    45	5 ;      CG321      CG311       HGA1
    1     2     3	5 ;      CG311      CG321     CG2R61
    1     2    46	5 ;      CG311      CG321       HGA2
    1     2    47	5 ;      CG311      CG321       HGA2
    3     2    46	5 ;     CG2R61      CG321       HGA2
    3     2    47	5 ;     CG2R61      CG321       HGA2
   46     2    47	5 ;       HGA2      CG321       HGA2
    2     3     8	5 ;      CG321     CG2R61     CG2R61
    2     3     4	5 ;      CG321     CG2R61     CG2R61
    8     3     4	5 ;     CG2R61     CG2R61     CG2R61
    3     4     5	5 ;     CG2R61     CG2R61     CG2R61
    3     4    48	5 ;     CG2R61     CG2R61      HGR61
    5     4    48	5 ;     CG2R61     CG2R61      HGR61
    4     5     6	5 ;     CG2R61     CG2R61     CG2R61
    4     5    49	5 ;     CG2R61     CG2R61      HGR61
    6     5    49	5 ;     CG2R61     CG2R61      HGR61
    7     6     5	5 ;     CG2R61     CG2R61     CG2R61
    7     6    50	5 ;     CG2R61     CG2R61      HGR61
    5     6    50	5 ;     CG2R61     CG2R61      HGR61
    8     7     6	5 ;     CG2R61     CG2R61     CG2R61
    8     7    51	5 ;     CG2R61     CG2R61      HGR61
    6     7    51	5 ;     CG2R61     CG2R61      HGR61
    3     8     7	5 ;     CG2R61     CG2R61     CG2R61
    3     8    52	5 ;     CG2R61     CG2R61      HGR61
    7     8    52	5 ;     CG2R61     CG2R61      HGR61
    1     9    12	5 ;      CG311      NG2S1       HGP1
    1     9    10	5 ;      CG311      NG2S1      CG2O1
   12     9    10	5 ;       HGP1      NG2S1      CG2O1
    9    10    13	5 ;      NG2S1      CG2O1     CG3C51
    9    10    11	5 ;      NG2S1      CG2O1      OG2D1
   13    10    11	5 ;     CG3C51      CG2O1      OG2D1
   14    13    19	5 ;     CG2RC0     CG3C51     CG3C52
   14    13    10	5 ;     CG2RC0     CG3C51      CG2O1
   14    13    80	5 ;     CG2RC0     CG3C51       HGA1
   19    13    10	5 ;     CG3C52     CG3C51      CG2O1
   19    13    80	5 ;     CG3C52     CG3C51       HGA1
   10    13    80	5 ;      CG2O1     CG3C51       HGA1
   15    14    16	5 ;     CG2RC0     CG2RC0     CG2R61
   15    14    13	5 ;     CG2RC0     CG2RC0     CG3C51
   16    14    13	5 ;     CG2R61     CG2RC0     CG3C51
   18    15    17	5 ;     CG2R61     CG2RC0      NG2S0
   18    15    14	5 ;     CG2R61     CG2RC0     CG2RC0
   17    15    14	5 ;      NG2S0     CG2RC0     CG2RC0
   24    16    14	5 ;     CG2R61     CG2R61     CG2RC0
   24    16    53	5 ;     CG2R61     CG2R61      HGR61
   14    16    53	5 ;     CG2RC0     CG2R61      HGR61
   20    17    15	5 ;      CG2O6      NG2S0     CG2RC0
   20    17    19	5 ;      CG2O6      NG2S0     CG3C52
   15    17    19	5 ;     CG2RC0      NG2S0     CG3C52
   23    18    15	5 ;     CG2R61     CG2R61     CG2RC0
   23    18    54	5 ;     CG2R61     CG2R61      HGR61
   15    18    54	5 ;     CG2RC0     CG2R61      HGR61
   17    19    13	5 ;      NG2S0     CG3C52     CG3C51
   17    19    55	5 ;      NG2S0     CG3C52       HGA2
   17    19    81	5 ;      NG2S0     CG3C52       HGA2
   13    19    55	5 ;     CG3C51     CG3C52       HGA2
   13    19    81	5 ;     CG3C51     CG3C52       HGA2
   55    19    81	5 ;       HGA2     CG3C52       HGA2
   22    20    21	5 ;      NG2S0      CG2O6      OG2D1
   22    20    17	5 ;      NG2S0      CG2O6      NG2S0
   21    20    17	5 ;      OG2D1      CG2O6      NG2S0
   27    22    20	5 ;      CG321      NG2S0      CG2O6
   27    22    25	5 ;      CG321      NG2S0      CG321
   20    22    25	5 ;      CG2O6      NG2S0      CG321
   18    23    24	5 ;     CG2R61     CG2R61     CG2R61
   18    23    56	5 ;     CG2R61     CG2R61      HGR61
   24    23    56	5 ;     CG2R61     CG2R61      HGR61
   23    24    16	5 ;     CG2R61     CG2R61     CG2R61
   23    24    57	5 ;     CG2R61     CG2R61      HGR61
   16    24    57	5 ;     CG2R61     CG2R61      HGR61
   22    25    26	5 ;      NG2S0      CG321      CG331
   22    25    58	5 ;      NG2S0      CG321       HGA2
   22    25    59	5 ;      NG2S0      CG321       HGA2
   26    25    58	5 ;      CG331      CG321       HGA2
   26    25    59	5 ;      CG331      CG321       HGA2
   58    25    59	5 ;       HGA2      CG321       HGA2
   25    26    60	5 ;      CG321      CG331       HGA3
   25    26    61	5 ;      CG321      CG331       HGA3
   25    26    62	5 ;      CG321      CG331       HGA3
   60    26    61	5 ;       HGA3      CG331       HGA3
   60    26    62	5 ;       HGA3      CG331       HGA3
   61    26    62	5 ;       HGA3      CG331       HGA3
   28    27    22	5 ;      CG331      CG321      NG2S0
   28    27    63	5 ;      CG331      CG321       HGA2
   28    27    64	5 ;      CG331      CG321       HGA2
   22    27    63	5 ;      NG2S0      CG321       HGA2
   22    27    64	5 ;      NG2S0      CG321       HGA2
   63    27    64	5 ;       HGA2      CG321       HGA2
   27    28    65	5 ;      CG321      CG331       HGA3
   27    28    66	5 ;      CG321      CG331       HGA3
   27    28    67	5 ;      CG321      CG331       HGA3
   65    28    66	5 ;       HGA3      CG331       HGA3
   65    28    67	5 ;       HGA3      CG331       HGA3
   66    28    67	5 ;       HGA3      CG331       HGA3
   30    29    32	5 ;      OG311      CG311      CG324
   30    29     1	5 ;      OG311      CG311      CG311
   30    29    68	5 ;      OG311      CG311       HGA1
   32    29     1	5 ;      CG324      CG311      CG311
   32    29    68	5 ;      CG324      CG311       HGA1
    1    29    68	5 ;      CG311      CG311       HGA1
   31    30    29	5 ;       HGP1      OG311      CG311
   33    32    29	5 ;      NG3P2      CG324      CG311
   33    32    69	5 ;      NG3P2      CG324       HGA2
   33    32    70	5 ;      NG3P2      CG324       HGA2
   29    32    69	5 ;      CG311      CG324       HGA2
   29    32    70	5 ;      CG311      CG324       HGA2
   69    32    70	5 ;       HGA2      CG324       HGA2
   34    33    35	5 ;       HGP2      NG3P2       HGP2
   34    33    32	5 ;       HGP2      NG3P2      CG324
   34    33    36	5 ;       HGP2      NG3P2      CG324
   35    33    32	5 ;       HGP2      NG3P2      CG324
   35    33    36	5 ;       HGP2      NG3P2      CG324
   32    33    36	5 ;      CG324      NG3P2      CG324
   33    36    37	5 ;      NG3P2      CG324     CG2R61
   33    36    71	5 ;      NG3P2      CG324       HGA2
   33    36    72	5 ;      NG3P2      CG324       HGA2
   37    36    71	5 ;     CG2R61      CG324       HGA2
   37    36    72	5 ;     CG2R61      CG324       HGA2
   71    36    72	5 ;       HGA2      CG324       HGA2
   36    37    42	5 ;      CG324     CG2R61     CG2R61
   36    37    38	5 ;      CG324     CG2R61     CG2R61
   42    37    38	5 ;     CG2R61     CG2R61     CG2R61
   37    38    39	5 ;     CG2R61     CG2R61     CG2R61
   37    38    73	5 ;     CG2R61     CG2R61      HGR61
   39    38    73	5 ;     CG2R61     CG2R61      HGR61
   38    39    40	5 ;     CG2R61     CG2R61     CG2R61
   38    39    43	5 ;     CG2R61     CG2R61      OG301
   40    39    43	5 ;     CG2R61     CG2R61      OG301
   41    40    39	5 ;     CG2R61     CG2R61     CG2R61
   41    40    74	5 ;     CG2R61     CG2R61      HGR61
   39    40    74	5 ;     CG2R61     CG2R61      HGR61
   42    41    40	5 ;     CG2R61     CG2R61     CG2R61
   42    41    75	5 ;     CG2R61     CG2R61      HGR61
   40    41    75	5 ;     CG2R61     CG2R61      HGR61
   37    42    41	5 ;     CG2R61     CG2R61     CG2R61
   37    42    76	5 ;     CG2R61     CG2R61      HGR61
   41    42    76	5 ;     CG2R61     CG2R61      HGR61
   39    43    44	5 ;     CG2R61      OG301      CG331
   43    44    77	5 ;      OG301      CG331       HGA3
   43    44    78	5 ;      OG301      CG331       HGA3
   43    44    79	5 ;      OG301      CG331       HGA3
   77    44    78	5 ;       HGA3      CG331       HGA3
   77    44    79	5 ;       HGA3      CG331       HGA3
   78    44    79	5 ;       HGA3      CG331       HGA3

[ dihedrals ]
;	ai	  aj	ak	  al funct			  c0			c1			  c2			c3			  c4			c5
    9     1    29    30	 9 ;      NG2S1      CG311      CG311      OG311
    9     1    29    32	 9 ;      NG2S1      CG311      CG311      CG324
    9     1    29    68	 9 ;      NG2S1      CG311      CG311       HGA1
    2     1    29    30	 9 ;      CG321      CG311      CG311      OG311
    2     1    29    32	 9 ;      CG321      CG311      CG311      CG324
    2     1    29    68	 9 ;      CG321      CG311      CG311       HGA1
   45     1    29    30	 9 ;       HGA1      CG311      CG311      OG311
   45     1    29    32	 9 ;       HGA1      CG311      CG311      CG324
   45     1    29    68	 9 ;       HGA1      CG311      CG311       HGA1
   29     1     9    12	 9 ;      CG311      CG311      NG2S1       HGP1
   29     1     9    10	 9 ;      CG311      CG311      NG2S1      CG2O1
    2     1     9    12	 9 ;      CG321      CG311      NG2S1       HGP1
    2     1     9    10	 9 ;      CG321      CG311      NG2S1      CG2O1
   45     1     9    12	 9 ;       HGA1      CG311      NG2S1       HGP1
   45     1     9    10	 9 ;       HGA1      CG311      NG2S1      CG2O1
   29     1     2     3	 9 ;      CG311      CG311      CG321     CG2R61
   29     1     2    46	 9 ;      CG311      CG311      CG321       HGA2
   29     1     2    47	 9 ;      CG311      CG311      CG321       HGA2
    9     1     2     3	 9 ;      NG2S1      CG311      CG321     CG2R61
    9     1     2    46	 9 ;      NG2S1      CG311      CG321       HGA2
    9     1     2    47	 9 ;      NG2S1      CG311      CG321       HGA2
   45     1     2     3	 9 ;       HGA1      CG311      CG321     CG2R61
   45     1     2    46	 9 ;       HGA1      CG311      CG321       HGA2
   45     1     2    47	 9 ;       HGA1      CG311      CG321       HGA2
    1     2     3     8	 9 ;      CG311      CG321     CG2R61     CG2R61
    1     2     3     4	 9 ;      CG311      CG321     CG2R61     CG2R61
   46     2     3     8	 9 ;       HGA2      CG321     CG2R61     CG2R61
   46     2     3     4	 9 ;       HGA2      CG321     CG2R61     CG2R61
   47     2     3     8	 9 ;       HGA2      CG321     CG2R61     CG2R61
   47     2     3     4	 9 ;       HGA2      CG321     CG2R61     CG2R61
    2     3     8     7	 9 ;      CG321     CG2R61     CG2R61     CG2R61
    2     3     8    52	 9 ;      CG321     CG2R61     CG2R61      HGR61
    4     3     8     7	 9 ;     CG2R61     CG2R61     CG2R61     CG2R61
    4     3     8    52	 9 ;     CG2R61     CG2R61     CG2R61      HGR61
    2     3     4     5	 9 ;      CG321     CG2R61     CG2R61     CG2R61
    2     3     4    48	 9 ;      CG321     CG2R61     CG2R61      HGR61
    8     3     4     5	 9 ;     CG2R61     CG2R61     CG2R61     CG2R61
    8     3     4    48	 9 ;     CG2R61     CG2R61     CG2R61      HGR61
    3     4     5     6	 9 ;     CG2R61     CG2R61     CG2R61     CG2R61
    3     4     5    49	 9 ;     CG2R61     CG2R61     CG2R61      HGR61
   48     4     5     6	 9 ;      HGR61     CG2R61     CG2R61     CG2R61
   48     4     5    49	 9 ;      HGR61     CG2R61     CG2R61      HGR61
    4     5     6     7	 9 ;     CG2R61     CG2R61     CG2R61     CG2R61
    4     5     6    50	 9 ;     CG2R61     CG2R61     CG2R61      HGR61
   49     5     6     7	 9 ;      HGR61     CG2R61     CG2R61     CG2R61
   49     5     6    50	 9 ;      HGR61     CG2R61     CG2R61      HGR61
    5     6     7     8	 9 ;     CG2R61     CG2R61     CG2R61     CG2R61
    5     6     7    51	 9 ;     CG2R61     CG2R61     CG2R61      HGR61
   50     6     7     8	 9 ;      HGR61     CG2R61     CG2R61     CG2R61
   50     6     7    51	 9 ;      HGR61     CG2R61     CG2R61      HGR61
    6     7     8     3	 9 ;     CG2R61     CG2R61     CG2R61     CG2R61
    6     7     8    52	 9 ;     CG2R61     CG2R61     CG2R61      HGR61
   51     7     8     3	 9 ;      HGR61     CG2R61     CG2R61     CG2R61
   51     7     8    52	 9 ;      HGR61     CG2R61     CG2R61      HGR61
    1     9    10    13	 9 ;      CG311      NG2S1      CG2O1     CG3C51
    1     9    10    11	 9 ;      CG311      NG2S1      CG2O1      OG2D1
   12     9    10    13	 9 ;       HGP1      NG2S1      CG2O1     CG3C51
   12     9    10    11	 9 ;       HGP1      NG2S1      CG2O1      OG2D1
    9    10    13    14	 9 ;      NG2S1      CG2O1     CG3C51     CG2RC0
    9    10    13    19	 9 ;      NG2S1      CG2O1     CG3C51     CG3C52
    9    10    13    80	 9 ;      NG2S1      CG2O1     CG3C51       HGA1
   11    10    13    14	 9 ;      OG2D1      CG2O1     CG3C51     CG2RC0
   11    10    13    19	 9 ;      OG2D1      CG2O1     CG3C51     CG3C52
   11    10    13    80	 9 ;      OG2D1      CG2O1     CG3C51       HGA1
   19    13    14    15	 9 ;     CG3C52     CG3C51     CG2RC0     CG2RC0
   19    13    14    16	 9 ;     CG3C52     CG3C51     CG2RC0     CG2R61
   10    13    14    15	 9 ;      CG2O1     CG3C51     CG2RC0     CG2RC0
   10    13    14    16	 9 ;      CG2O1     CG3C51     CG2RC0     CG2R61
   80    13    14    15	 9 ;       HGA1     CG3C51     CG2RC0     CG2RC0
   80    13    14    16	 9 ;       HGA1     CG3C51     CG2RC0     CG2R61
   14    13    19    17	 9 ;     CG2RC0     CG3C51     CG3C52      NG2S0
   14    13    19    55	 9 ;     CG2RC0     CG3C51     CG3C52       HGA2
   14    13    19    81	 9 ;     CG2RC0     CG3C51     CG3C52       HGA2
   10    13    19    17	 9 ;      CG2O1     CG3C51     CG3C52      NG2S0
   10    13    19    55	 9 ;      CG2O1     CG3C51     CG3C52       HGA2
   10    13    19    81	 9 ;      CG2O1     CG3C51     CG3C52       HGA2
   80    13    19    17	 9 ;       HGA1     CG3C51     CG3C52      NG2S0
   80    13    19    55	 9 ;       HGA1     CG3C51     CG3C52       HGA2
   80    13    19    81	 9 ;       HGA1     CG3C51     CG3C52       HGA2
   16    14    15    18	 9 ;     CG2R61     CG2RC0     CG2RC0     CG2R61
   16    14    15    17	 9 ;     CG2R61     CG2RC0     CG2RC0      NG2S0
   13    14    15    18	 9 ;     CG3C51     CG2RC0     CG2RC0     CG2R61
   13    14    15    17	 9 ;     CG3C51     CG2RC0     CG2RC0      NG2S0
   15    14    16    24	 9 ;     CG2RC0     CG2RC0     CG2R61     CG2R61
   15    14    16    53	 9 ;     CG2RC0     CG2RC0     CG2R61      HGR61
   13    14    16    24	 9 ;     CG3C51     CG2RC0     CG2R61     CG2R61
   13    14    16    53	 9 ;     CG3C51     CG2RC0     CG2R61      HGR61
   17    15    18    23	 9 ;      NG2S0     CG2RC0     CG2R61     CG2R61
   17    15    18    54	 9 ;      NG2S0     CG2RC0     CG2R61      HGR61
   14    15    18    23	 9 ;     CG2RC0     CG2RC0     CG2R61     CG2R61
   14    15    18    54	 9 ;     CG2RC0     CG2RC0     CG2R61      HGR61
   18    15    17    20	 9 ;     CG2R61     CG2RC0      NG2S0      CG2O6
   18    15    17    19	 9 ;     CG2R61     CG2RC0      NG2S0     CG3C52
   14    15    17    20	 9 ;     CG2RC0     CG2RC0      NG2S0      CG2O6
   14    15    17    19	 9 ;     CG2RC0     CG2RC0      NG2S0     CG3C52
   14    16    24    23	 9 ;     CG2RC0     CG2R61     CG2R61     CG2R61
   14    16    24    57	 9 ;     CG2RC0     CG2R61     CG2R61      HGR61
   53    16    24    23	 9 ;      HGR61     CG2R61     CG2R61     CG2R61
   53    16    24    57	 9 ;      HGR61     CG2R61     CG2R61      HGR61
   15    17    20    22	 9 ;     CG2RC0      NG2S0      CG2O6      NG2S0
   15    17    20    21	 9 ;     CG2RC0      NG2S0      CG2O6      OG2D1
   19    17    20    22	 9 ;     CG3C52      NG2S0      CG2O6      NG2S0
   19    17    20    21	 9 ;     CG3C52      NG2S0      CG2O6      OG2D1
   20    17    19    13	 9 ;      CG2O6      NG2S0     CG3C52     CG3C51
   20    17    19    55	 9 ;      CG2O6      NG2S0     CG3C52       HGA2
   20    17    19    81	 9 ;      CG2O6      NG2S0     CG3C52       HGA2
   15    17    19    13	 9 ;     CG2RC0      NG2S0     CG3C52     CG3C51
   15    17    19    55	 9 ;     CG2RC0      NG2S0     CG3C52       HGA2
   15    17    19    81	 9 ;     CG2RC0      NG2S0     CG3C52       HGA2
   15    18    23    24	 9 ;     CG2RC0     CG2R61     CG2R61     CG2R61
   15    18    23    56	 9 ;     CG2RC0     CG2R61     CG2R61      HGR61
   54    18    23    24	 9 ;      HGR61     CG2R61     CG2R61     CG2R61
   54    18    23    56	 9 ;      HGR61     CG2R61     CG2R61      HGR61
   21    20    22    27	 9 ;      OG2D1      CG2O6      NG2S0      CG321
   21    20    22    25	 9 ;      OG2D1      CG2O6      NG2S0      CG321
   17    20    22    27	 9 ;      NG2S0      CG2O6      NG2S0      CG321
   17    20    22    25	 9 ;      NG2S0      CG2O6      NG2S0      CG321
   20    22    27    28	 9 ;      CG2O6      NG2S0      CG321      CG331
   20    22    27    63	 9 ;      CG2O6      NG2S0      CG321       HGA2
   20    22    27    64	 9 ;      CG2O6      NG2S0      CG321       HGA2
   25    22    27    28	 9 ;      CG321      NG2S0      CG321      CG331
   25    22    27    63	 9 ;      CG321      NG2S0      CG321       HGA2
   25    22    27    64	 9 ;      CG321      NG2S0      CG321       HGA2
   27    22    25    26	 9 ;      CG321      NG2S0      CG321      CG331
   27    22    25    58	 9 ;      CG321      NG2S0      CG321       HGA2
   27    22    25    59	 9 ;      CG321      NG2S0      CG321       HGA2
   20    22    25    26	 9 ;      CG2O6      NG2S0      CG321      CG331
   20    22    25    58	 9 ;      CG2O6      NG2S0      CG321       HGA2
   20    22    25    59	 9 ;      CG2O6      NG2S0      CG321       HGA2
   18    23    24    16	 9 ;     CG2R61     CG2R61     CG2R61     CG2R61
   18    23    24    57	 9 ;     CG2R61     CG2R61     CG2R61      HGR61
   56    23    24    16	 9 ;      HGR61     CG2R61     CG2R61     CG2R61
   56    23    24    57	 9 ;      HGR61     CG2R61     CG2R61      HGR61
   22    25    26    60	 9 ;      NG2S0      CG321      CG331       HGA3
   22    25    26    61	 9 ;      NG2S0      CG321      CG331       HGA3
   22    25    26    62	 9 ;      NG2S0      CG321      CG331       HGA3
   58    25    26    60	 9 ;       HGA2      CG321      CG331       HGA3
   58    25    26    61	 9 ;       HGA2      CG321      CG331       HGA3
   58    25    26    62	 9 ;       HGA2      CG321      CG331       HGA3
   59    25    26    60	 9 ;       HGA2      CG321      CG331       HGA3
   59    25    26    61	 9 ;       HGA2      CG321      CG331       HGA3
   59    25    26    62	 9 ;       HGA2      CG321      CG331       HGA3
   22    27    28    65	 9 ;      NG2S0      CG321      CG331       HGA3
   22    27    28    66	 9 ;      NG2S0      CG321      CG331       HGA3
   22    27    28    67	 9 ;      NG2S0      CG321      CG331       HGA3
   63    27    28    65	 9 ;       HGA2      CG321      CG331       HGA3
   63    27    28    66	 9 ;       HGA2      CG321      CG331       HGA3
   63    27    28    67	 9 ;       HGA2      CG321      CG331       HGA3
   64    27    28    65	 9 ;       HGA2      CG321      CG331       HGA3
   64    27    28    66	 9 ;       HGA2      CG321      CG331       HGA3
   64    27    28    67	 9 ;       HGA2      CG321      CG331       HGA3
   32    29    30    31	 9 ;      CG324      CG311      OG311       HGP1
    1    29    30    31	 9 ;      CG311      CG311      OG311       HGP1
   68    29    30    31	 9 ;       HGA1      CG311      OG311       HGP1
   30    29    32    33	 9 ;      OG311      CG311      CG324      NG3P2
   30    29    32    69	 9 ;      OG311      CG311      CG324       HGA2
   30    29    32    70	 9 ;      OG311      CG311      CG324       HGA2
    1    29    32    33	 9 ;      CG311      CG311      CG324      NG3P2
    1    29    32    69	 9 ;      CG311      CG311      CG324       HGA2
    1    29    32    70	 9 ;      CG311      CG311      CG324       HGA2
   68    29    32    33	 9 ;       HGA1      CG311      CG324      NG3P2
   68    29    32    69	 9 ;       HGA1      CG311      CG324       HGA2
   68    29    32    70	 9 ;       HGA1      CG311      CG324       HGA2
   29    32    33    34	 9 ;      CG311      CG324      NG3P2       HGP2
   29    32    33    35	 9 ;      CG311      CG324      NG3P2       HGP2
   29    32    33    36	 9 ;      CG311      CG324      NG3P2      CG324
   69    32    33    34	 9 ;       HGA2      CG324      NG3P2       HGP2
   69    32    33    35	 9 ;       HGA2      CG324      NG3P2       HGP2
   69    32    33    36	 9 ;       HGA2      CG324      NG3P2      CG324
   70    32    33    34	 9 ;       HGA2      CG324      NG3P2       HGP2
   70    32    33    35	 9 ;       HGA2      CG324      NG3P2       HGP2
   70    32    33    36	 9 ;       HGA2      CG324      NG3P2      CG324
   34    33    36    37	 9 ;       HGP2      NG3P2      CG324     CG2R61
   34    33    36    71	 9 ;       HGP2      NG3P2      CG324       HGA2
   34    33    36    72	 9 ;       HGP2      NG3P2      CG324       HGA2
   35    33    36    37	 9 ;       HGP2      NG3P2      CG324     CG2R61
   35    33    36    71	 9 ;       HGP2      NG3P2      CG324       HGA2
   35    33    36    72	 9 ;       HGP2      NG3P2      CG324       HGA2
   32    33    36    37	 9 ;      CG324      NG3P2      CG324     CG2R61
   32    33    36    71	 9 ;      CG324      NG3P2      CG324       HGA2
   32    33    36    72	 9 ;      CG324      NG3P2      CG324       HGA2
   33    36    37    42	 9 ;      NG3P2      CG324     CG2R61     CG2R61
   33    36    37    38	 9 ;      NG3P2      CG324     CG2R61     CG2R61
   71    36    37    42	 9 ;       HGA2      CG324     CG2R61     CG2R61
   71    36    37    38	 9 ;       HGA2      CG324     CG2R61     CG2R61
   72    36    37    42	 9 ;       HGA2      CG324     CG2R61     CG2R61
   72    36    37    38	 9 ;       HGA2      CG324     CG2R61     CG2R61
   36    37    42    41	 9 ;      CG324     CG2R61     CG2R61     CG2R61
   36    37    42    76	 9 ;      CG324     CG2R61     CG2R61      HGR61
   38    37    42    41	 9 ;     CG2R61     CG2R61     CG2R61     CG2R61
   38    37    42    76	 9 ;     CG2R61     CG2R61     CG2R61      HGR61
   36    37    38    39	 9 ;      CG324     CG2R61     CG2R61     CG2R61
   36    37    38    73	 9 ;      CG324     CG2R61     CG2R61      HGR61
   42    37    38    39	 9 ;     CG2R61     CG2R61     CG2R61     CG2R61
   42    37    38    73	 9 ;     CG2R61     CG2R61     CG2R61      HGR61
   37    38    39    40	 9 ;     CG2R61     CG2R61     CG2R61     CG2R61
   37    38    39    43	 9 ;     CG2R61     CG2R61     CG2R61      OG301
   73    38    39    40	 9 ;      HGR61     CG2R61     CG2R61     CG2R61
   73    38    39    43	 9 ;      HGR61     CG2R61     CG2R61      OG301
   38    39    40    41	 9 ;     CG2R61     CG2R61     CG2R61     CG2R61
   38    39    40    74	 9 ;     CG2R61     CG2R61     CG2R61      HGR61
   43    39    40    41	 9 ;      OG301     CG2R61     CG2R61     CG2R61
   43    39    40    74	 9 ;      OG301     CG2R61     CG2R61      HGR61
   38    39    43    44	 9 ;     CG2R61     CG2R61      OG301      CG331
   40    39    43    44	 9 ;     CG2R61     CG2R61      OG301      CG331
   39    40    41    42	 9 ;     CG2R61     CG2R61     CG2R61     CG2R61
   39    40    41    75	 9 ;     CG2R61     CG2R61     CG2R61      HGR61
   74    40    41    42	 9 ;      HGR61     CG2R61     CG2R61     CG2R61
   74    40    41    75	 9 ;      HGR61     CG2R61     CG2R61      HGR61
   40    41    42    37	 9 ;     CG2R61     CG2R61     CG2R61     CG2R61
   40    41    42    76	 9 ;     CG2R61     CG2R61     CG2R61      HGR61
   75    41    42    37	 9 ;      HGR61     CG2R61     CG2R61     CG2R61
   75    41    42    76	 9 ;      HGR61     CG2R61     CG2R61      HGR61
   39    43    44    77	 9 ;     CG2R61      OG301      CG331       HGA3
   39    43    44    78	 9 ;     CG2R61      OG301      CG331       HGA3
   39    43    44    79	 9 ;     CG2R61      OG301      CG331       HGA3

[ dihedrals ]
;	ai	  aj	ak	  al funct			  c0			c1			  c2			c3
   10    13     9    11	 2
   20    22    17    21	 2

