Guyana Rwanda Oman Macau Angola Cameroon Senegal
   81
    1LIG     C1    1  -1.465   0.458  -1.747
    1LIG     C2    2  -1.615   0.502  -1.748
    1LIG     C3    3  -1.709   0.440  -1.646
    1LIG     C4    4  -1.803   0.345  -1.689
    1LIG     C5    5  -1.897   0.293  -1.600
    1LIG     C6    6  -1.897   0.334  -1.467
    1LIG     C7    7  -1.804   0.428  -1.423
    1LIG     C8    8  -1.709   0.481  -1.512
    1LIG     N1    9  -1.457   0.310  -1.768
    1LIG     C9   10  -1.458   0.208  -1.672
    1LIG     O1   11  -1.526   0.109  -1.699
    1LIG     H1   12  -1.504   0.271  -1.849
    1LIG    C10   13  -1.370   0.214  -1.556
    1LIG    C11   14  -1.262   0.126  -1.507
    1LIG    C12   15  -1.175   0.213  -1.438
    1LIG    C13   16  -1.218  -0.007  -1.520
    1LIG     N2   17  -1.209   0.337  -1.490
    1LIG    C14   18  -1.061   0.174  -1.367
    1LIG    C15   19  -1.351   0.331  -1.480
    1LIG    C16   20  -1.145   0.385  -1.609
    1LIG     O2   21  -1.128   0.309  -1.702
    1LIG     N3   22  -1.113   0.520  -1.607
    1LIG    C17   23  -1.027   0.040  -1.371
    1LIG    C18   24  -1.102  -0.049  -1.450
    1LIG    C19   25  -1.134   0.609  -1.493
    1LIG    C20   26  -1.247   0.709  -1.514
    1LIG    C21   27  -1.074   0.575  -1.736
    1LIG    C22   28  -0.941   0.649  -1.728
    1LIG    C23   29  -1.382   0.534  -1.858
    1LIG     O3   30  -1.309   0.447  -1.944
    1LIG     H2   31  -1.260   0.499  -2.010
    1LIG    C24   32  -1.464   0.617  -1.959
    1LIG     N4   33  -1.419   0.761  -1.957
    1LIG     H3   34  -1.371   0.784  -2.045
    1LIG     H4   35  -1.347   0.772  -1.884
    1LIG    C25   36  -1.518   0.873  -1.934
    1LIG    C26   37  -1.586   0.842  -1.803
    1LIG    C27   38  -1.725   0.817  -1.800
    1LIG    C28   39  -1.795   0.822  -1.679
    1LIG    C29   40  -1.725   0.850  -1.562
    1LIG    C30   41  -1.587   0.868  -1.563
    1LIG    C31   42  -1.516   0.863  -1.683
    1LIG     O4   43  -1.930   0.808  -1.664
    1LIG    C32   44  -1.985   0.678  -1.679
    1LIG     HC   45  -1.423   0.481  -1.649
    1LIG    HC2   46  -1.655   0.480  -1.847
    1LIG    HC3   47  -1.618   0.610  -1.734
    1LIG    HC1   48  -1.803   0.311  -1.792
    1LIG    HC4   49  -1.969   0.220  -1.633
    1LIG    HC5   50  -1.969   0.294  -1.398
    1LIG    HC6   51  -1.804   0.461  -1.320
    1LIG    HC7   52  -1.637   0.552  -1.477
    1LIG    HC8   53  -1.272  -0.077  -1.583
    1LIG    HC9   54  -1.002   0.245  -1.311
    1LIG   HC10   55  -1.422   0.395  -1.429
    1LIG   HC11   56  -0.944   0.003  -1.314
    1LIG   HC12   57  -1.070  -0.151  -1.459
    1LIG   HC13   58  -1.157   0.549  -1.405
    1LIG   HC14   59  -1.042   0.664  -1.474
    1LIG   HC15   60  -1.289   0.738  -1.418
    1LIG   HC16   61  -1.209   0.797  -1.565
    1LIG   HC17   62  -1.325   0.663  -1.575
    1LIG   HC18   63  -1.064   0.494  -1.808
    1LIG   HC19   64  -1.151   0.644  -1.771
    1LIG   HC20   65  -0.893   0.649  -1.826
    1LIG   HC21   66  -0.959   0.752  -1.697
    1LIG   HC22   67  -0.877   0.600  -1.655
    1LIG   HC23   68  -1.311   0.601  -1.808
    1LIG   HC24   69  -1.450   0.575  -2.059
    1LIG   HC25   70  -1.570   0.611  -1.932
    1LIG   HC26   71  -1.467   0.969  -1.928
    1LIG   HC27   72  -1.592   0.874  -2.014
    1LIG   HC28   73  -1.777   0.793  -1.891
    1LIG   HC29   74  -1.779   0.858  -1.469
    1LIG   HC30   75  -1.534   0.887  -1.470
    1LIG   HC31   76  -1.409   0.874  -1.684
    1LIG   HC32   77  -2.093   0.682  -1.663
    1LIG   HC33   78  -1.940   0.611  -1.605
    1LIG   HC34   79  -1.964   0.640  -1.779
    1LIG    H40   80  -1.445   0.173  -1.488
    1LIG    H41   81  -1.361   0.391  -1.570
   0.00000   0.00000   0.00000
