Gromacs Runs One Microsecond At Cannonball Speeds
   36
    1LIG     CL    1  -1.440   0.278  -1.568
    1LIG     C1    2  -1.332   0.398  -1.626
    1LIG     C2    3  -1.386   0.513  -1.686
    1LIG     C3    4  -1.302   0.612  -1.741
    1LIG     C4    5  -1.166   0.584  -1.751
    1LIG     C5    6  -1.112   0.471  -1.688
    1LIG     C6    7  -1.193   0.384  -1.615
    1LIG     C7    8  -1.357   0.743  -1.793
    1LIG      S    9  -1.537   0.760  -1.773
    1LIG     C8   10  -1.555   0.914  -1.697
    1LIG     N1   11  -1.521   0.925  -1.571
    1LIG     H1   12  -1.485   0.842  -1.523
    1LIG     H2   13  -1.524   1.012  -1.520
    1LIG     N2   14  -1.594   1.018  -1.765
    1LIG     H3   15  -1.530   1.083  -1.807
    1LIG     H4   16  -1.694   1.033  -1.779
    1LIG      O   17  -1.142   0.290  -1.527
    1LIG     C9   18  -1.061   0.191  -1.592
    1LIG    C10   19  -1.138   0.083  -1.668
    1LIG    C11   20  -1.103  -0.062  -1.639
    1LIG    C12   21  -0.956  -0.087  -1.615
    1LIG     H5   22  -1.489   0.526  -1.689
    1LIG     H6   23  -1.104   0.647  -1.804
    1LIG     H7   24  -1.011   0.452  -1.696
    1LIG     H8   25  -1.309   0.822  -1.741
    1LIG     H9   26  -1.337   0.745  -1.898
    1LIG    H10   27  -0.996   0.240  -1.661
    1LIG    H11   28  -1.008   0.140  -1.513
    1LIG    H12   29  -1.242   0.097  -1.645
    1LIG    H13   30  -1.112   0.098  -1.770
    1LIG    H14   31  -1.134  -0.121  -1.723
    1LIG    H15   32  -1.154  -0.090  -1.549
    1LIG    H16   33  -0.900  -0.061  -1.703
    1LIG    H17   34  -0.940  -0.190  -1.592
    1LIG    H18   35  -0.922  -0.027  -1.533
    1LIG    LP1   36  -1.544   0.163  -1.513
   0.00000   0.00000   0.00000
