; Created by cgenff_charmm2gmx.py

[ moleculetype ]
; Name			   nrexcl
LIG				 3

[ atoms ]
;	 nr		  type	resnr residue  atom   cgnr	   charge		mass  typeB    chargeB		massB
; residue	 1 LIG rtp LIG q	qsum
     1      CLGR1      1    LIG     CL      1     -0.167     35.453   ;
     2     CG2R61      1    LIG     C1      2      0.019     12.011   ;
     3     CG2R61      1    LIG     C2      3     -0.124     12.011   ;
     4     CG2R61      1    LIG     C3      4     -0.109     12.011   ;
     5     CG2R61      1    LIG     C4      5     -0.116     12.011   ;
     6     CG2R61      1    LIG     C5      6     -0.112     12.011   ;
     7     CG2R61      1    LIG     C6      7      0.267     12.011   ;
     8      CG321      1    LIG     C7      8      0.225     12.011   ;
     9      SG311      1    LIG      S      9     -0.098     32.060   ;
    10      CG2N2      1    LIG     C8     10      0.552     12.011   ;
    11      NG2P1      1    LIG     N1     11     -0.594     14.007   ;
    12       HGP2      1    LIG     H1     12      0.366      1.008   ;
    13       HGP2      1    LIG     H2     13      0.366      1.008   ;
    14      NG2P1      1    LIG     N2     14     -0.594     14.007   ;
    15       HGP2      1    LIG     H3     15      0.366      1.008   ;
    16       HGP2      1    LIG     H4     16      0.366      1.008   ;
    17      OG301      1    LIG      O     17     -0.396     15.999   ;
    18      CG321      1    LIG     C9     18     -0.006     12.011   ;
    19      CG321      1    LIG    C10     19     -0.182     12.011   ;
    20      CG321      1    LIG    C11     20     -0.176     12.011   ;
    21      CG331      1    LIG    C12     21     -0.270     12.011   ;
    22      HGR62      1    LIG     H5     22      0.145      1.008   ;
    23      HGR61      1    LIG     H6     23      0.116      1.008   ;
    24      HGR61      1    LIG     H7     24      0.116      1.008   ;
    25       HGA2      1    LIG     H8     25      0.090      1.008   ;
    26       HGA2      1    LIG     H9     26      0.090      1.008   ;
    27       HGA2      1    LIG    H10     27      0.090      1.008   ;
    28       HGA2      1    LIG    H11     28      0.090      1.008   ;
    29       HGA2      1    LIG    H12     29      0.090      1.008   ;
    30       HGA2      1    LIG    H13     30      0.090      1.008   ;
    31       HGA2      1    LIG    H14     31      0.090      1.008   ;
    32       HGA2      1    LIG    H15     32      0.090      1.008   ;
    33       HGA3      1    LIG    H16     33      0.090      1.008   ;
    34       HGA3      1    LIG    H17     34      0.090      1.008   ;
    35       HGA3      1    LIG    H18     35      0.090      1.008   ;
    36        LPH      1    LIG    LP1     36      0.050      0.000   ;

[ bonds ]
;	ai	  aj funct			  c0			c1			  c2			c3
    1     2	 1 ;       CLGR1     CG2R61
    2     3	 1 ;      CG2R61     CG2R61
    2     7	 1 ;      CG2R61     CG2R61
    3     4	 1 ;      CG2R61     CG2R61
    3    22	 1 ;      CG2R61      HGR62
    4     8	 1 ;      CG2R61      CG321
    4     5	 1 ;      CG2R61     CG2R61
    5     6	 1 ;      CG2R61     CG2R61
    5    23	 1 ;      CG2R61      HGR61
    6     7	 1 ;      CG2R61     CG2R61
    6    24	 1 ;      CG2R61      HGR61
    7    17	 1 ;      CG2R61      OG301
    8     9	 1 ;       CG321      SG311
    8    25	 1 ;       CG321       HGA2
    8    26	 1 ;       CG321       HGA2
    9    10	 1 ;       SG311      CG2N2
   10    14	 1 ;       CG2N2      NG2P1
   10    11	 1 ;       CG2N2      NG2P1
   11    12	 1 ;       NG2P1       HGP2
   11    13	 1 ;       NG2P1       HGP2
   14    15	 1 ;       NG2P1       HGP2
   14    16	 1 ;       NG2P1       HGP2
   17    18	 1 ;       OG301      CG321
   18    19	 1 ;       CG321      CG321
   18    27	 1 ;       CG321       HGA2
   18    28	 1 ;       CG321       HGA2
   19    20	 1 ;       CG321      CG321
   19    29	 1 ;       CG321       HGA2
   19    30	 1 ;       CG321       HGA2
   20    21	 1 ;       CG321      CG331
   20    31	 1 ;       CG321       HGA2
   20    32	 1 ;       CG321       HGA2
   21    33	 1 ;       CG331       HGA3
   21    34	 1 ;       CG331       HGA3
   21    35	 1 ;       CG331       HGA3

[ pairs ]
;	ai	  aj funct			  c0			c1			  c2			c3
    1     4	 1
   36     4	 1
    1    22	 1
   36    22	 1
    1     6	 1
   36     6	 1
    1    17	 1
   36    17	 1
    2     8	 1
    2     5	 1
    2    24	 1
    2    18	 1
    3     6	 1
    3    17	 1
    3     9	 1
    3    25	 1
    3    26	 1
    3    23	 1
    4     7	 1
    4    24	 1
    4    10	 1
    5    22	 1
    5     9	 1
    5    25	 1
    5    26	 1
    5    17	 1
    6     8	 1
    6    18	 1
    7    22	 1
    7    23	 1
    7    19	 1
    7    27	 1
    7    28	 1
    8    22	 1
    8    23	 1
    8    14	 1
    8    11	 1
    9    15	 1
    9    16	 1
    9    12	 1
    9    13	 1
   10    25	 1
   10    26	 1
   11    15	 1
   11    16	 1
   12    14	 1
   13    14	 1
   17    24	 1
   17    20	 1
   17    29	 1
   17    30	 1
   18    21	 1
   18    31	 1
   18    32	 1
   19    33	 1
   19    34	 1
   19    35	 1
   20    27	 1
   20    28	 1
   21    29	 1
   21    30	 1
   23    24	 1
   27    29	 1
   27    30	 1
   28    29	 1
   28    30	 1
   29    31	 1
   29    32	 1
   30    31	 1
   30    32	 1
   31    33	 1
   31    34	 1
   31    35	 1
   32    33	 1
   32    34	 1
   32    35	 1

[ angles ]
;	ai	  aj	ak funct			c0			  c1			c2			  c3
    3     2     7	5 ;     CG2R61     CG2R61     CG2R61
    3     2     1	5 ;     CG2R61     CG2R61      CLGR1
    7     2     1	5 ;     CG2R61     CG2R61      CLGR1
    4     3     2	5 ;     CG2R61     CG2R61     CG2R61
    4     3    22	5 ;     CG2R61     CG2R61      HGR62
    2     3    22	5 ;     CG2R61     CG2R61      HGR62
    8     4     5	5 ;      CG321     CG2R61     CG2R61
    8     4     3	5 ;      CG321     CG2R61     CG2R61
    5     4     3	5 ;     CG2R61     CG2R61     CG2R61
    4     5     6	5 ;     CG2R61     CG2R61     CG2R61
    4     5    23	5 ;     CG2R61     CG2R61      HGR61
    6     5    23	5 ;     CG2R61     CG2R61      HGR61
    5     6     7	5 ;     CG2R61     CG2R61     CG2R61
    5     6    24	5 ;     CG2R61     CG2R61      HGR61
    7     6    24	5 ;     CG2R61     CG2R61      HGR61
    6     7     2	5 ;     CG2R61     CG2R61     CG2R61
    6     7    17	5 ;     CG2R61     CG2R61      OG301
    2     7    17	5 ;     CG2R61     CG2R61      OG301
    9     8     4	5 ;      SG311      CG321     CG2R61
    9     8    25	5 ;      SG311      CG321       HGA2
    9     8    26	5 ;      SG311      CG321       HGA2
    4     8    25	5 ;     CG2R61      CG321       HGA2
    4     8    26	5 ;     CG2R61      CG321       HGA2
   25     8    26	5 ;       HGA2      CG321       HGA2
    8     9    10	5 ;      CG321      SG311      CG2N2
    9    10    14	5 ;      SG311      CG2N2      NG2P1
    9    10    11	5 ;      SG311      CG2N2      NG2P1
   14    10    11	5 ;      NG2P1      CG2N2      NG2P1
   10    11    12	5 ;      CG2N2      NG2P1       HGP2
   10    11    13	5 ;      CG2N2      NG2P1       HGP2
   12    11    13	5 ;       HGP2      NG2P1       HGP2
   15    14    16	5 ;       HGP2      NG2P1       HGP2
   15    14    10	5 ;       HGP2      NG2P1      CG2N2
   16    14    10	5 ;       HGP2      NG2P1      CG2N2
    7    17    18	5 ;     CG2R61      OG301      CG321
   19    18    17	5 ;      CG321      CG321      OG301
   19    18    27	5 ;      CG321      CG321       HGA2
   19    18    28	5 ;      CG321      CG321       HGA2
   17    18    27	5 ;      OG301      CG321       HGA2
   17    18    28	5 ;      OG301      CG321       HGA2
   27    18    28	5 ;       HGA2      CG321       HGA2
   20    19    18	5 ;      CG321      CG321      CG321
   20    19    29	5 ;      CG321      CG321       HGA2
   20    19    30	5 ;      CG321      CG321       HGA2
   18    19    29	5 ;      CG321      CG321       HGA2
   18    19    30	5 ;      CG321      CG321       HGA2
   29    19    30	5 ;       HGA2      CG321       HGA2
   19    20    21	5 ;      CG321      CG321      CG331
   19    20    31	5 ;      CG321      CG321       HGA2
   19    20    32	5 ;      CG321      CG321       HGA2
   21    20    31	5 ;      CG331      CG321       HGA2
   21    20    32	5 ;      CG331      CG321       HGA2
   31    20    32	5 ;       HGA2      CG321       HGA2
   20    21    33	5 ;      CG321      CG331       HGA3
   20    21    34	5 ;      CG321      CG331       HGA3
   20    21    35	5 ;      CG321      CG331       HGA3
   33    21    34	5 ;       HGA3      CG331       HGA3
   33    21    35	5 ;       HGA3      CG331       HGA3
   34    21    35	5 ;       HGA3      CG331       HGA3

[ dihedrals ]
;	ai	  aj	ak	  al funct			  c0			c1			  c2			c3			  c4			c5
    7     2     3     4	 9 ;     CG2R61     CG2R61     CG2R61     CG2R61
    7     2     3    22	 9 ;     CG2R61     CG2R61     CG2R61      HGR62
    1     2     3     4	 9 ;      CLGR1     CG2R61     CG2R61     CG2R61
    1     2     3    22	 9 ;      CLGR1     CG2R61     CG2R61      HGR62
    3     2     7     6	 9 ;     CG2R61     CG2R61     CG2R61     CG2R61
    3     2     7    17	 9 ;     CG2R61     CG2R61     CG2R61      OG301
    1     2     7     6	 9 ;      CLGR1     CG2R61     CG2R61     CG2R61
    1     2     7    17	 9 ;      CLGR1     CG2R61     CG2R61      OG301
    2     3     4     8	 9 ;     CG2R61     CG2R61     CG2R61      CG321
    2     3     4     5	 9 ;     CG2R61     CG2R61     CG2R61     CG2R61
   22     3     4     8	 9 ;      HGR62     CG2R61     CG2R61      CG321
   22     3     4     5	 9 ;      HGR62     CG2R61     CG2R61     CG2R61
    5     4     8     9	 9 ;     CG2R61     CG2R61      CG321      SG311
    5     4     8    25	 9 ;     CG2R61     CG2R61      CG321       HGA2
    5     4     8    26	 9 ;     CG2R61     CG2R61      CG321       HGA2
    3     4     8     9	 9 ;     CG2R61     CG2R61      CG321      SG311
    3     4     8    25	 9 ;     CG2R61     CG2R61      CG321       HGA2
    3     4     8    26	 9 ;     CG2R61     CG2R61      CG321       HGA2
    8     4     5     6	 9 ;      CG321     CG2R61     CG2R61     CG2R61
    8     4     5    23	 9 ;      CG321     CG2R61     CG2R61      HGR61
    3     4     5     6	 9 ;     CG2R61     CG2R61     CG2R61     CG2R61
    3     4     5    23	 9 ;     CG2R61     CG2R61     CG2R61      HGR61
    4     5     6     7	 9 ;     CG2R61     CG2R61     CG2R61     CG2R61
    4     5     6    24	 9 ;     CG2R61     CG2R61     CG2R61      HGR61
   23     5     6     7	 9 ;      HGR61     CG2R61     CG2R61     CG2R61
   23     5     6    24	 9 ;      HGR61     CG2R61     CG2R61      HGR61
    5     6     7     2	 9 ;     CG2R61     CG2R61     CG2R61     CG2R61
    5     6     7    17	 9 ;     CG2R61     CG2R61     CG2R61      OG301
   24     6     7     2	 9 ;      HGR61     CG2R61     CG2R61     CG2R61
   24     6     7    17	 9 ;      HGR61     CG2R61     CG2R61      OG301
    6     7    17    18	 9 ;     CG2R61     CG2R61      OG301      CG321
    2     7    17    18	 9 ;     CG2R61     CG2R61      OG301      CG321
    4     8     9    10	 9 ;     CG2R61      CG321      SG311      CG2N2
   25     8     9    10	 9 ;       HGA2      CG321      SG311      CG2N2
   26     8     9    10	 9 ;       HGA2      CG321      SG311      CG2N2
    8     9    10    14	 9 ;      CG321      SG311      CG2N2      NG2P1
    8     9    10    11	 9 ;      CG321      SG311      CG2N2      NG2P1
    9    10    14    15	 9 ;      SG311      CG2N2      NG2P1       HGP2
    9    10    14    16	 9 ;      SG311      CG2N2      NG2P1       HGP2
   11    10    14    15	 9 ;      NG2P1      CG2N2      NG2P1       HGP2
   11    10    14    16	 9 ;      NG2P1      CG2N2      NG2P1       HGP2
    9    10    11    12	 9 ;      SG311      CG2N2      NG2P1       HGP2
    9    10    11    13	 9 ;      SG311      CG2N2      NG2P1       HGP2
   14    10    11    12	 9 ;      NG2P1      CG2N2      NG2P1       HGP2
   14    10    11    13	 9 ;      NG2P1      CG2N2      NG2P1       HGP2
    7    17    18    19	 9 ;     CG2R61      OG301      CG321      CG321
    7    17    18    27	 9 ;     CG2R61      OG301      CG321       HGA2
    7    17    18    28	 9 ;     CG2R61      OG301      CG321       HGA2
   17    18    19    20	 9 ;      OG301      CG321      CG321      CG321
   17    18    19    29	 9 ;      OG301      CG321      CG321       HGA2
   17    18    19    30	 9 ;      OG301      CG321      CG321       HGA2
   27    18    19    20	 9 ;       HGA2      CG321      CG321      CG321
   27    18    19    29	 9 ;       HGA2      CG321      CG321       HGA2
   27    18    19    30	 9 ;       HGA2      CG321      CG321       HGA2
   28    18    19    20	 9 ;       HGA2      CG321      CG321      CG321
   28    18    19    29	 9 ;       HGA2      CG321      CG321       HGA2
   28    18    19    30	 9 ;       HGA2      CG321      CG321       HGA2
   18    19    20    21	 9 ;      CG321      CG321      CG321      CG331
   18    19    20    31	 9 ;      CG321      CG321      CG321       HGA2
   18    19    20    32	 9 ;      CG321      CG321      CG321       HGA2
   29    19    20    21	 9 ;       HGA2      CG321      CG321      CG331
   29    19    20    31	 9 ;       HGA2      CG321      CG321       HGA2
   29    19    20    32	 9 ;       HGA2      CG321      CG321       HGA2
   30    19    20    21	 9 ;       HGA2      CG321      CG321      CG331
   30    19    20    31	 9 ;       HGA2      CG321      CG321       HGA2
   30    19    20    32	 9 ;       HGA2      CG321      CG321       HGA2
   19    20    21    33	 9 ;      CG321      CG321      CG331       HGA3
   19    20    21    34	 9 ;      CG321      CG321      CG331       HGA3
   19    20    21    35	 9 ;      CG321      CG321      CG331       HGA3
   31    20    21    33	 9 ;       HGA2      CG321      CG331       HGA3
   31    20    21    34	 9 ;       HGA2      CG321      CG331       HGA3
   31    20    21    35	 9 ;       HGA2      CG321      CG331       HGA3
   32    20    21    33	 9 ;       HGA2      CG321      CG331       HGA3
   32    20    21    34	 9 ;       HGA2      CG321      CG331       HGA3
   32    20    21    35	 9 ;       HGA2      CG321      CG331       HGA3

[ dihedrals ]
;	ai	  aj	ak	  al funct			  c0			c1			  c2			c3
   10    14    11     9	 2

[ virtual_sites2 ]
; Site   from				funct a
   36     1     2     2   -0.164

[ exclusions ]
;	ai	  aj
    1    36
   36     2
   36     3
   36     7
   36     4
   36    22
   36     6
   36    17

