; Created by cgenff_charmm2gmx.py

[ moleculetype ]
; Name			   nrexcl
LIG				 3

[ atoms ]
;	 nr		  type	resnr residue  atom   cgnr	   charge		mass  typeB    chargeB		massB
; residue	 1 LIG rtp LIG q	qsum
     1     CG3C50      1    LIG     C1      1      0.762     12.011   ;
     2     NG3C51      1    LIG     N1      2     -0.577     14.007   ;
     3       HGP1      1    LIG    HN1      3      0.266      1.008   ;
     4     CG2R51      1    LIG     C2      4     -0.245     12.011   ;
     5      CG331      1    LIG     C3      5     -0.073     12.011   ;
     6     CG2R51      1    LIG     C4      6     -0.019     12.011   ;
     7     NG3C51      1    LIG     N2      7     -0.610     14.007   ;
     8       HGP1      1    LIG    HN2      8      0.266      1.008   ;
     9      NG321      1    LIG     N3      9     -0.622     14.007   ;
    10     HGPAM2      1    LIG     H1     10      0.371      1.008   ;
    11     HGPAM2      1    LIG     H2     11      0.371      1.008   ;
    12     CG2R61      1    LIG     C5     12     -0.033     12.011   ;
    13     CG2R61      1    LIG     C6     13     -0.236     12.011   ;
    14     CG2R61      1    LIG     C7     14      0.029     12.011   ;
    15     CG2R61      1    LIG     C8     15     -0.120     12.011   ;
    16     CG2R61      1    LIG     C9     16     -0.102     12.011   ;
    17     CG2R61      1    LIG    C10     17     -0.232     12.011   ;
    18     CG2DC1      1    LIG    C11     18     -0.144     12.011   ;
    19      CG321      1    LIG    C12     19     -0.002     12.011   ;
    20      NG311      1    LIG     N4     20     -0.548     14.007   ;
    21     CG2D2O      1    LIG    C13     21      0.008     12.011   ;
    22     HGPAM1      1    LIG    HN3     22      0.389      1.008   ;
    23     CG2DC2      1    LIG    C14     23     -0.239     12.011   ;
    24     CG2DC1      1    LIG    C15     24     -0.094     12.011   ;
    25      CG311      1    LIG    C16     25      0.000     12.011   ;
    26      CG321      1    LIG    C17     26     -0.134     12.011   ;
    27      CG321      1    LIG    C18     27     -0.241     12.011   ;
    28      CG321      1    LIG    C19     28     -0.154     12.011   ;
    29      CG321      1    LIG    C20     29     -0.241     12.011   ;
    30      CG321      1    LIG    C21     30     -0.134     12.011   ;
    31       HGA3      1    LIG    HC1     31      0.090      1.008   ;
    32       HGA3      1    LIG    HC2     32      0.090      1.008   ;
    33       HGA3      1    LIG    HC3     33      0.090      1.008   ;
    34      HGR61      1    LIG     HC     34      0.116      1.008   ;
    35      HGR61      1    LIG    HC4     35      0.116      1.008   ;
    36      HGR61      1    LIG    HC5     36      0.116      1.008   ;
    37      HGR61      1    LIG    HC6     37      0.116      1.008   ;
    38       HGA2      1    LIG    HC7     38      0.090      1.008   ;
    39       HGA4      1    LIG    HC8     39      0.152      1.008   ;
    40       HGA4      1    LIG    HC9     40      0.150      1.008   ;
    41       HGA4      1    LIG   HC10     41      0.132      1.008   ;
    42       HGA1      1    LIG   HC11     42      0.090      1.008   ;
    43       HGA2      1    LIG   HC12     43      0.090      1.008   ;
    44       HGA2      1    LIG   HC13     44      0.090      1.008   ;
    45       HGA2      1    LIG   HC14     45      0.090      1.008   ;
    46       HGA2      1    LIG   HC15     46      0.090      1.008   ;
    47       HGA2      1    LIG   HC16     47      0.090      1.008   ;
    48       HGA2      1    LIG   HC17     48      0.090      1.008   ;
    49       HGA2      1    LIG   HC18     49      0.090      1.008   ;
    50       HGA2      1    LIG   HC19     50      0.090      1.008   ;
    51       HGA2      1    LIG   HC20     51      0.090      1.008   ;
    52       HGA2      1    LIG   HC21     52      0.090      1.008   ;
    53       HGA2      1    LIG    H28     53      0.090      1.008   ;

[ bonds ]
;	ai	  aj funct			  c0			c1			  c2			c3
    1     7	 1 ;      CG3C50     NG3C51
    1     2	 1 ;      CG3C50     NG3C51
    1    25	 1 ;      CG3C50      CG311
    1    12	 1 ;      CG3C50     CG2R61
    2     4	 1 ;      NG3C51     CG2R51
    2     3	 1 ;      NG3C51       HGP1
    4     6	 1 ;      CG2R51     CG2R51
    4     5	 1 ;      CG2R51      CG331
    5    31	 1 ;       CG331       HGA3
    5    32	 1 ;       CG331       HGA3
    5    33	 1 ;       CG331       HGA3
    6     9	 1 ;      CG2R51      NG321
    6     7	 1 ;      CG2R51     NG3C51
    7     8	 1 ;      NG3C51       HGP1
    9    10	 1 ;       NG321     HGPAM2
    9    11	 1 ;       NG321     HGPAM2
   12    17	 1 ;      CG2R61     CG2R61
   12    13	 1 ;      CG2R61     CG2R61
   13    14	 1 ;      CG2R61     CG2R61
   13    34	 1 ;      CG2R61      HGR61
   14    15	 1 ;      CG2R61     CG2R61
   14    18	 1 ;      CG2R61     CG2DC1
   15    16	 1 ;      CG2R61     CG2R61
   15    35	 1 ;      CG2R61      HGR61
   16    17	 1 ;      CG2R61     CG2R61
   16    36	 1 ;      CG2R61      HGR61
   17    37	 1 ;      CG2R61      HGR61
   18    19	 1 ;      CG2DC1      CG321
   18    24	 1 ;      CG2DC1     CG2DC1
   19    20	 1 ;       CG321      NG311
   19    38	 1 ;       CG321       HGA2
   19    53	 1 ;       CG321       HGA2
   20    22	 1 ;       NG311     HGPAM1
   20    21	 1 ;       NG311     CG2D2O
   21    23	 1 ;      CG2D2O     CG2DC2
   21    39	 1 ;      CG2D2O       HGA4
   23    24	 1 ;      CG2DC2     CG2DC1
   23    40	 1 ;      CG2DC2       HGA4
   24    41	 1 ;      CG2DC1       HGA4
   25    30	 1 ;       CG311      CG321
   25    26	 1 ;       CG311      CG321
   25    42	 1 ;       CG311       HGA1
   26    27	 1 ;       CG321      CG321
   26    43	 1 ;       CG321       HGA2
   26    44	 1 ;       CG321       HGA2
   27    28	 1 ;       CG321      CG321
   27    45	 1 ;       CG321       HGA2
   27    46	 1 ;       CG321       HGA2
   28    29	 1 ;       CG321      CG321
   28    47	 1 ;       CG321       HGA2
   28    48	 1 ;       CG321       HGA2
   29    30	 1 ;       CG321      CG321
   29    49	 1 ;       CG321       HGA2
   29    50	 1 ;       CG321       HGA2
   30    51	 1 ;       CG321       HGA2
   30    52	 1 ;       CG321       HGA2

[ pairs ]
;	ai	  aj funct			  c0			c1			  c2			c3
    1     5	 1
    1     9	 1
    1    16	 1
    1    37	 1
    1    14	 1
    1    34	 1
    1    29	 1
    1    51	 1
    1    52	 1
    1    27	 1
    1    43	 1
    1    44	 1
    2     8	 1
    2    30	 1
    2    26	 1
    2    42	 1
    2    17	 1
    2    13	 1
    2     9	 1
    2    31	 1
    2    32	 1
    2    33	 1
    3     7	 1
    3    25	 1
    3    12	 1
    3     6	 1
    3     5	 1
    4    25	 1
    4    12	 1
    4    10	 1
    4    11	 1
    4     8	 1
    5     9	 1
    5     7	 1
    6    25	 1
    6    12	 1
    6    31	 1
    6    32	 1
    6    33	 1
    7    30	 1
    7    26	 1
    7    42	 1
    7    17	 1
    7    13	 1
    7    10	 1
    7    11	 1
    8    25	 1
    8    12	 1
    8     9	 1
   12    30	 1
   12    26	 1
   12    42	 1
   12    15	 1
   12    18	 1
   12    36	 1
   13    25	 1
   13    16	 1
   13    37	 1
   13    35	 1
   13    19	 1
   13    24	 1
   14    17	 1
   14    36	 1
   14    20	 1
   14    38	 1
   14    53	 1
   14    23	 1
   14    41	 1
   15    34	 1
   15    19	 1
   15    24	 1
   15    37	 1
   16    18	 1
   17    25	 1
   17    34	 1
   17    35	 1
   18    34	 1
   18    35	 1
   18    22	 1
   18    21	 1
   18    40	 1
   19    23	 1
   19    41	 1
   19    39	 1
   20    24	 1
   20    40	 1
   21    38	 1
   21    53	 1
   21    41	 1
   22    38	 1
   22    53	 1
   22    23	 1
   22    39	 1
   24    38	 1
   24    53	 1
   24    39	 1
   25    28	 1
   25    45	 1
   25    46	 1
   25    49	 1
   25    50	 1
   26    29	 1
   26    51	 1
   26    52	 1
   26    47	 1
   26    48	 1
   27    30	 1
   27    42	 1
   27    49	 1
   27    50	 1
   28    43	 1
   28    44	 1
   28    51	 1
   28    52	 1
   29    42	 1
   29    45	 1
   29    46	 1
   30    43	 1
   30    44	 1
   30    47	 1
   30    48	 1
   35    36	 1
   36    37	 1
   39    40	 1
   40    41	 1
   42    51	 1
   42    52	 1
   42    43	 1
   42    44	 1
   43    45	 1
   43    46	 1
   44    45	 1
   44    46	 1
   45    47	 1
   45    48	 1
   46    47	 1
   46    48	 1
   47    49	 1
   47    50	 1
   48    49	 1
   48    50	 1
   49    51	 1
   49    52	 1
   50    51	 1
   50    52	 1

[ angles ]
;	ai	  aj	ak funct			c0			  c1			c2			  c3
    7     1     2	5 ;     NG3C51     CG3C50     NG3C51
    7     1    25	5 ;     NG3C51     CG3C50      CG311
    7     1    12	5 ;     NG3C51     CG3C50     CG2R61
    2     1    25	5 ;     NG3C51     CG3C50      CG311
    2     1    12	5 ;     NG3C51     CG3C50     CG2R61
   25     1    12	5 ;      CG311     CG3C50     CG2R61
    4     2     1	5 ;     CG2R51     NG3C51     CG3C50
    4     2     3	5 ;     CG2R51     NG3C51       HGP1
    1     2     3	5 ;     CG3C50     NG3C51       HGP1
    6     4     5	5 ;     CG2R51     CG2R51      CG331
    6     4     2	5 ;     CG2R51     CG2R51     NG3C51
    5     4     2	5 ;      CG331     CG2R51     NG3C51
    4     5    31	5 ;     CG2R51      CG331       HGA3
    4     5    32	5 ;     CG2R51      CG331       HGA3
    4     5    33	5 ;     CG2R51      CG331       HGA3
   31     5    32	5 ;       HGA3      CG331       HGA3
   31     5    33	5 ;       HGA3      CG331       HGA3
   32     5    33	5 ;       HGA3      CG331       HGA3
    9     6     7	5 ;      NG321     CG2R51     NG3C51
    9     6     4	5 ;      NG321     CG2R51     CG2R51
    7     6     4	5 ;     NG3C51     CG2R51     CG2R51
    8     7     6	5 ;       HGP1     NG3C51     CG2R51
    8     7     1	5 ;       HGP1     NG3C51     CG3C50
    6     7     1	5 ;     CG2R51     NG3C51     CG3C50
   10     9    11	5 ;     HGPAM2      NG321     HGPAM2
   10     9     6	5 ;     HGPAM2      NG321     CG2R51
   11     9     6	5 ;     HGPAM2      NG321     CG2R51
   17    12     1	5 ;     CG2R61     CG2R61     CG3C50
   17    12    13	5 ;     CG2R61     CG2R61     CG2R61
    1    12    13	5 ;     CG3C50     CG2R61     CG2R61
   12    13    14	5 ;     CG2R61     CG2R61     CG2R61
   12    13    34	5 ;     CG2R61     CG2R61      HGR61
   14    13    34	5 ;     CG2R61     CG2R61      HGR61
   15    14    13	5 ;     CG2R61     CG2R61     CG2R61
   15    14    18	5 ;     CG2R61     CG2R61     CG2DC1
   13    14    18	5 ;     CG2R61     CG2R61     CG2DC1
   16    15    14	5 ;     CG2R61     CG2R61     CG2R61
   16    15    35	5 ;     CG2R61     CG2R61      HGR61
   14    15    35	5 ;     CG2R61     CG2R61      HGR61
   17    16    15	5 ;     CG2R61     CG2R61     CG2R61
   17    16    36	5 ;     CG2R61     CG2R61      HGR61
   15    16    36	5 ;     CG2R61     CG2R61      HGR61
   16    17    12	5 ;     CG2R61     CG2R61     CG2R61
   16    17    37	5 ;     CG2R61     CG2R61      HGR61
   12    17    37	5 ;     CG2R61     CG2R61      HGR61
   14    18    19	5 ;     CG2R61     CG2DC1      CG321
   14    18    24	5 ;     CG2R61     CG2DC1     CG2DC1
   19    18    24	5 ;      CG321     CG2DC1     CG2DC1
   18    19    20	5 ;     CG2DC1      CG321      NG311
   18    19    38	5 ;     CG2DC1      CG321       HGA2
   18    19    53	5 ;     CG2DC1      CG321       HGA2
   20    19    38	5 ;      NG311      CG321       HGA2
   20    19    53	5 ;      NG311      CG321       HGA2
   38    19    53	5 ;       HGA2      CG321       HGA2
   19    20    22	5 ;      CG321      NG311     HGPAM1
   19    20    21	5 ;      CG321      NG311     CG2D2O
   22    20    21	5 ;     HGPAM1      NG311     CG2D2O
   20    21    23	5 ;      NG311     CG2D2O     CG2DC2
   20    21    39	5 ;      NG311     CG2D2O       HGA4
   23    21    39	5 ;     CG2DC2     CG2D2O       HGA4
   24    23    21	5 ;     CG2DC1     CG2DC2     CG2D2O
   24    23    40	5 ;     CG2DC1     CG2DC2       HGA4
   21    23    40	5 ;     CG2D2O     CG2DC2       HGA4
   18    24    23	5 ;     CG2DC1     CG2DC1     CG2DC2
   18    24    41	5 ;     CG2DC1     CG2DC1       HGA4
   23    24    41	5 ;     CG2DC2     CG2DC1       HGA4
   30    25     1	5 ;      CG321      CG311     CG3C50
   30    25    26	5 ;      CG321      CG311      CG321
   30    25    42	5 ;      CG321      CG311       HGA1
    1    25    26	5 ;     CG3C50      CG311      CG321
    1    25    42	5 ;     CG3C50      CG311       HGA1
   26    25    42	5 ;      CG321      CG311       HGA1
   25    26    27	5 ;      CG311      CG321      CG321
   25    26    43	5 ;      CG311      CG321       HGA2
   25    26    44	5 ;      CG311      CG321       HGA2
   27    26    43	5 ;      CG321      CG321       HGA2
   27    26    44	5 ;      CG321      CG321       HGA2
   43    26    44	5 ;       HGA2      CG321       HGA2
   28    27    26	5 ;      CG321      CG321      CG321
   28    27    45	5 ;      CG321      CG321       HGA2
   28    27    46	5 ;      CG321      CG321       HGA2
   26    27    45	5 ;      CG321      CG321       HGA2
   26    27    46	5 ;      CG321      CG321       HGA2
   45    27    46	5 ;       HGA2      CG321       HGA2
   29    28    27	5 ;      CG321      CG321      CG321
   29    28    47	5 ;      CG321      CG321       HGA2
   29    28    48	5 ;      CG321      CG321       HGA2
   27    28    47	5 ;      CG321      CG321       HGA2
   27    28    48	5 ;      CG321      CG321       HGA2
   47    28    48	5 ;       HGA2      CG321       HGA2
   30    29    28	5 ;      CG321      CG321      CG321
   30    29    49	5 ;      CG321      CG321       HGA2
   30    29    50	5 ;      CG321      CG321       HGA2
   28    29    49	5 ;      CG321      CG321       HGA2
   28    29    50	5 ;      CG321      CG321       HGA2
   49    29    50	5 ;       HGA2      CG321       HGA2
   29    30    25	5 ;      CG321      CG321      CG311
   29    30    51	5 ;      CG321      CG321       HGA2
   29    30    52	5 ;      CG321      CG321       HGA2
   25    30    51	5 ;      CG311      CG321       HGA2
   25    30    52	5 ;      CG311      CG321       HGA2
   51    30    52	5 ;       HGA2      CG321       HGA2

[ dihedrals ]
;	ai	  aj	ak	  al funct			  c0			c1			  c2			c3			  c4			c5
    2     1     7     8	 9 ;     NG3C51     CG3C50     NG3C51       HGP1
    2     1     7     6	 9 ;     NG3C51     CG3C50     NG3C51     CG2R51
   25     1     7     8	 9 ;      CG311     CG3C50     NG3C51       HGP1
   25     1     7     6	 9 ;      CG311     CG3C50     NG3C51     CG2R51
   12     1     7     8	 9 ;     CG2R61     CG3C50     NG3C51       HGP1
   12     1     7     6	 9 ;     CG2R61     CG3C50     NG3C51     CG2R51
    7     1     2     4	 9 ;     NG3C51     CG3C50     NG3C51     CG2R51
    7     1     2     3	 9 ;     NG3C51     CG3C50     NG3C51       HGP1
   25     1     2     4	 9 ;      CG311     CG3C50     NG3C51     CG2R51
   25     1     2     3	 9 ;      CG311     CG3C50     NG3C51       HGP1
   12     1     2     4	 9 ;     CG2R61     CG3C50     NG3C51     CG2R51
   12     1     2     3	 9 ;     CG2R61     CG3C50     NG3C51       HGP1
    7     1    25    30	 9 ;     NG3C51     CG3C50      CG311      CG321
    7     1    25    26	 9 ;     NG3C51     CG3C50      CG311      CG321
    7     1    25    42	 9 ;     NG3C51     CG3C50      CG311       HGA1
    2     1    25    30	 9 ;     NG3C51     CG3C50      CG311      CG321
    2     1    25    26	 9 ;     NG3C51     CG3C50      CG311      CG321
    2     1    25    42	 9 ;     NG3C51     CG3C50      CG311       HGA1
   12     1    25    30	 9 ;     CG2R61     CG3C50      CG311      CG321
   12     1    25    26	 9 ;     CG2R61     CG3C50      CG311      CG321
   12     1    25    42	 9 ;     CG2R61     CG3C50      CG311       HGA1
    7     1    12    17	 9 ;     NG3C51     CG3C50     CG2R61     CG2R61
    7     1    12    13	 9 ;     NG3C51     CG3C50     CG2R61     CG2R61
    2     1    12    17	 9 ;     NG3C51     CG3C50     CG2R61     CG2R61
    2     1    12    13	 9 ;     NG3C51     CG3C50     CG2R61     CG2R61
   25     1    12    17	 9 ;      CG311     CG3C50     CG2R61     CG2R61
   25     1    12    13	 9 ;      CG311     CG3C50     CG2R61     CG2R61
    1     2     4     6	 9 ;     CG3C50     NG3C51     CG2R51     CG2R51
    1     2     4     5	 9 ;     CG3C50     NG3C51     CG2R51      CG331
    3     2     4     6	 9 ;       HGP1     NG3C51     CG2R51     CG2R51
    3     2     4     5	 9 ;       HGP1     NG3C51     CG2R51      CG331
    5     4     6     9	 9 ;      CG331     CG2R51     CG2R51      NG321
    5     4     6     7	 9 ;      CG331     CG2R51     CG2R51     NG3C51
    2     4     6     9	 9 ;     NG3C51     CG2R51     CG2R51      NG321
    2     4     6     7	 9 ;     NG3C51     CG2R51     CG2R51     NG3C51
    6     4     5    31	 9 ;     CG2R51     CG2R51      CG331       HGA3
    6     4     5    32	 9 ;     CG2R51     CG2R51      CG331       HGA3
    6     4     5    33	 9 ;     CG2R51     CG2R51      CG331       HGA3
    2     4     5    31	 9 ;     NG3C51     CG2R51      CG331       HGA3
    2     4     5    32	 9 ;     NG3C51     CG2R51      CG331       HGA3
    2     4     5    33	 9 ;     NG3C51     CG2R51      CG331       HGA3
    7     6     9    10	 9 ;     NG3C51     CG2R51      NG321     HGPAM2
    7     6     9    11	 9 ;     NG3C51     CG2R51      NG321     HGPAM2
    4     6     9    10	 9 ;     CG2R51     CG2R51      NG321     HGPAM2
    4     6     9    11	 9 ;     CG2R51     CG2R51      NG321     HGPAM2
    9     6     7     8	 9 ;      NG321     CG2R51     NG3C51       HGP1
    9     6     7     1	 9 ;      NG321     CG2R51     NG3C51     CG3C50
    4     6     7     8	 9 ;     CG2R51     CG2R51     NG3C51       HGP1
    4     6     7     1	 9 ;     CG2R51     CG2R51     NG3C51     CG3C50
    1    12    17    16	 9 ;     CG3C50     CG2R61     CG2R61     CG2R61
    1    12    17    37	 9 ;     CG3C50     CG2R61     CG2R61      HGR61
   13    12    17    16	 9 ;     CG2R61     CG2R61     CG2R61     CG2R61
   13    12    17    37	 9 ;     CG2R61     CG2R61     CG2R61      HGR61
   17    12    13    14	 9 ;     CG2R61     CG2R61     CG2R61     CG2R61
   17    12    13    34	 9 ;     CG2R61     CG2R61     CG2R61      HGR61
    1    12    13    14	 9 ;     CG3C50     CG2R61     CG2R61     CG2R61
    1    12    13    34	 9 ;     CG3C50     CG2R61     CG2R61      HGR61
   12    13    14    15	 9 ;     CG2R61     CG2R61     CG2R61     CG2R61
   12    13    14    18	 9 ;     CG2R61     CG2R61     CG2R61     CG2DC1
   34    13    14    15	 9 ;      HGR61     CG2R61     CG2R61     CG2R61
   34    13    14    18	 9 ;      HGR61     CG2R61     CG2R61     CG2DC1
   13    14    15    16	 9 ;     CG2R61     CG2R61     CG2R61     CG2R61
   13    14    15    35	 9 ;     CG2R61     CG2R61     CG2R61      HGR61
   18    14    15    16	 9 ;     CG2DC1     CG2R61     CG2R61     CG2R61
   18    14    15    35	 9 ;     CG2DC1     CG2R61     CG2R61      HGR61
   15    14    18    19	 9 ;     CG2R61     CG2R61     CG2DC1      CG321
   15    14    18    24	 9 ;     CG2R61     CG2R61     CG2DC1     CG2DC1
   13    14    18    19	 9 ;     CG2R61     CG2R61     CG2DC1      CG321
   13    14    18    24	 9 ;     CG2R61     CG2R61     CG2DC1     CG2DC1
   14    15    16    17	 9 ;     CG2R61     CG2R61     CG2R61     CG2R61
   14    15    16    36	 9 ;     CG2R61     CG2R61     CG2R61      HGR61
   35    15    16    17	 9 ;      HGR61     CG2R61     CG2R61     CG2R61
   35    15    16    36	 9 ;      HGR61     CG2R61     CG2R61      HGR61
   15    16    17    12	 9 ;     CG2R61     CG2R61     CG2R61     CG2R61
   15    16    17    37	 9 ;     CG2R61     CG2R61     CG2R61      HGR61
   36    16    17    12	 9 ;      HGR61     CG2R61     CG2R61     CG2R61
   36    16    17    37	 9 ;      HGR61     CG2R61     CG2R61      HGR61
   14    18    19    20	 9 ;     CG2R61     CG2DC1      CG321      NG311
   14    18    19    38	 9 ;     CG2R61     CG2DC1      CG321       HGA2
   14    18    19    53	 9 ;     CG2R61     CG2DC1      CG321       HGA2
   24    18    19    20	 9 ;     CG2DC1     CG2DC1      CG321      NG311
   24    18    19    38	 9 ;     CG2DC1     CG2DC1      CG321       HGA2
   24    18    19    53	 9 ;     CG2DC1     CG2DC1      CG321       HGA2
   14    18    24    23	 9 ;     CG2R61     CG2DC1     CG2DC1     CG2DC2
   14    18    24    41	 9 ;     CG2R61     CG2DC1     CG2DC1       HGA4
   19    18    24    23	 9 ;      CG321     CG2DC1     CG2DC1     CG2DC2
   19    18    24    41	 9 ;      CG321     CG2DC1     CG2DC1       HGA4
   18    19    20    22	 9 ;     CG2DC1      CG321      NG311     HGPAM1
   18    19    20    21	 9 ;     CG2DC1      CG321      NG311     CG2D2O
   38    19    20    22	 9 ;       HGA2      CG321      NG311     HGPAM1
   38    19    20    21	 9 ;       HGA2      CG321      NG311     CG2D2O
   53    19    20    22	 9 ;       HGA2      CG321      NG311     HGPAM1
   53    19    20    21	 9 ;       HGA2      CG321      NG311     CG2D2O
   19    20    21    23	 9 ;      CG321      NG311     CG2D2O     CG2DC2
   19    20    21    39	 9 ;      CG321      NG311     CG2D2O       HGA4
   22    20    21    23	 9 ;     HGPAM1      NG311     CG2D2O     CG2DC2
   22    20    21    39	 9 ;     HGPAM1      NG311     CG2D2O       HGA4
   20    21    23    24	 9 ;      NG311     CG2D2O     CG2DC2     CG2DC1
   20    21    23    40	 9 ;      NG311     CG2D2O     CG2DC2       HGA4
   39    21    23    24	 9 ;       HGA4     CG2D2O     CG2DC2     CG2DC1
   39    21    23    40	 9 ;       HGA4     CG2D2O     CG2DC2       HGA4
   21    23    24    18	 9 ;     CG2D2O     CG2DC2     CG2DC1     CG2DC1
   21    23    24    41	 9 ;     CG2D2O     CG2DC2     CG2DC1       HGA4
   40    23    24    18	 9 ;       HGA4     CG2DC2     CG2DC1     CG2DC1
   40    23    24    41	 9 ;       HGA4     CG2DC2     CG2DC1       HGA4
    1    25    30    29	 9 ;     CG3C50      CG311      CG321      CG321
    1    25    30    51	 9 ;     CG3C50      CG311      CG321       HGA2
    1    25    30    52	 9 ;     CG3C50      CG311      CG321       HGA2
   26    25    30    29	 9 ;      CG321      CG311      CG321      CG321
   26    25    30    51	 9 ;      CG321      CG311      CG321       HGA2
   26    25    30    52	 9 ;      CG321      CG311      CG321       HGA2
   42    25    30    29	 9 ;       HGA1      CG311      CG321      CG321
   42    25    30    51	 9 ;       HGA1      CG311      CG321       HGA2
   42    25    30    52	 9 ;       HGA1      CG311      CG321       HGA2
   30    25    26    27	 9 ;      CG321      CG311      CG321      CG321
   30    25    26    43	 9 ;      CG321      CG311      CG321       HGA2
   30    25    26    44	 9 ;      CG321      CG311      CG321       HGA2
    1    25    26    27	 9 ;     CG3C50      CG311      CG321      CG321
    1    25    26    43	 9 ;     CG3C50      CG311      CG321       HGA2
    1    25    26    44	 9 ;     CG3C50      CG311      CG321       HGA2
   42    25    26    27	 9 ;       HGA1      CG311      CG321      CG321
   42    25    26    43	 9 ;       HGA1      CG311      CG321       HGA2
   42    25    26    44	 9 ;       HGA1      CG311      CG321       HGA2
   25    26    27    28	 9 ;      CG311      CG321      CG321      CG321
   25    26    27    45	 9 ;      CG311      CG321      CG321       HGA2
   25    26    27    46	 9 ;      CG311      CG321      CG321       HGA2
   43    26    27    28	 9 ;       HGA2      CG321      CG321      CG321
   43    26    27    45	 9 ;       HGA2      CG321      CG321       HGA2
   43    26    27    46	 9 ;       HGA2      CG321      CG321       HGA2
   44    26    27    28	 9 ;       HGA2      CG321      CG321      CG321
   44    26    27    45	 9 ;       HGA2      CG321      CG321       HGA2
   44    26    27    46	 9 ;       HGA2      CG321      CG321       HGA2
   26    27    28    29	 9 ;      CG321      CG321      CG321      CG321
   26    27    28    47	 9 ;      CG321      CG321      CG321       HGA2
   26    27    28    48	 9 ;      CG321      CG321      CG321       HGA2
   45    27    28    29	 9 ;       HGA2      CG321      CG321      CG321
   45    27    28    47	 9 ;       HGA2      CG321      CG321       HGA2
   45    27    28    48	 9 ;       HGA2      CG321      CG321       HGA2
   46    27    28    29	 9 ;       HGA2      CG321      CG321      CG321
   46    27    28    47	 9 ;       HGA2      CG321      CG321       HGA2
   46    27    28    48	 9 ;       HGA2      CG321      CG321       HGA2
   27    28    29    30	 9 ;      CG321      CG321      CG321      CG321
   27    28    29    49	 9 ;      CG321      CG321      CG321       HGA2
   27    28    29    50	 9 ;      CG321      CG321      CG321       HGA2
   47    28    29    30	 9 ;       HGA2      CG321      CG321      CG321
   47    28    29    49	 9 ;       HGA2      CG321      CG321       HGA2
   47    28    29    50	 9 ;       HGA2      CG321      CG321       HGA2
   48    28    29    30	 9 ;       HGA2      CG321      CG321      CG321
   48    28    29    49	 9 ;       HGA2      CG321      CG321       HGA2
   48    28    29    50	 9 ;       HGA2      CG321      CG321       HGA2
   28    29    30    25	 9 ;      CG321      CG321      CG321      CG311
   28    29    30    51	 9 ;      CG321      CG321      CG321       HGA2
   28    29    30    52	 9 ;      CG321      CG321      CG321       HGA2
   49    29    30    25	 9 ;       HGA2      CG321      CG321      CG311
   49    29    30    51	 9 ;       HGA2      CG321      CG321       HGA2
   49    29    30    52	 9 ;       HGA2      CG321      CG321       HGA2
   50    29    30    25	 9 ;       HGA2      CG321      CG321      CG311
   50    29    30    51	 9 ;       HGA2      CG321      CG321       HGA2
   50    29    30    52	 9 ;       HGA2      CG321      CG321       HGA2

[ dihedrals ]
;	ai	  aj	ak	  al funct			  c0			c1			  c2			c3
   21    23    20    39	 2

