GROningen MAchine for Chemical Simulation
   53
    1LIG     C1    1  -1.332   0.352  -1.583
    1LIG     N1    2  -1.325   0.461  -1.480
    1LIG    HN1    3  -1.386   0.475  -1.399
    1LIG     C2    4  -1.225   0.533  -1.517
    1LIG     C3    5  -1.177   0.656  -1.450
    1LIG     C4    6  -1.159   0.478  -1.639
    1LIG     N2    7  -1.220   0.373  -1.680
    1LIG    HN2    8  -1.197   0.316  -1.762
    1LIG     N3    9  -1.048   0.532  -1.698
    1LIG     H1   10  -1.033   0.498  -1.792
    1LIG     H2   11  -1.032   0.631  -1.687
    1LIG     C5   12  -1.468   0.353  -1.654
    1LIG     C6   13  -1.587   0.338  -1.581
    1LIG     C7   14  -1.713   0.326  -1.641
    1LIG     C8   15  -1.717   0.332  -1.782
    1LIG     C9   16  -1.601   0.351  -1.857
    1LIG    C10   17  -1.477   0.363  -1.793
    1LIG    C11   18  -1.835   0.308  -1.560
    1LIG    C12   19  -1.850   0.365  -1.434
    1LIG     N4   20  -1.959   0.352  -1.354
    1LIG    C13   21  -2.059   0.275  -1.401
    1LIG    HN3   22  -1.965   0.397  -1.263
    1LIG    C14   23  -2.056   0.212  -1.524
    1LIG    C15   24  -1.943   0.229  -1.604
    1LIG    C16   25  -1.305   0.216  -1.508
    1LIG    C17   26  -1.262   0.234  -1.361
    1LIG    C18   27  -1.256   0.100  -1.290
    1LIG    C19   28  -1.158   0.005  -1.359
    1LIG    C20   29  -1.190  -0.010  -1.507
    1LIG    C21   30  -1.202   0.124  -1.579
    1LIG    HC1   31  -1.240   0.678  -1.365
    1LIG    HC2   32  -1.074   0.642  -1.416
    1LIG    HC3   33  -1.181   0.739  -1.521
    1LIG     HC   34  -1.581   0.336  -1.473
    1LIG    HC4   35  -1.811   0.320  -1.832
    1LIG    HC5   36  -1.607   0.358  -1.965
    1LIG    HC6   37  -1.388   0.379  -1.852
    1LIG    HC7   38  -1.769   0.426  -1.397
    1LIG    HC8   39  -2.147   0.263  -1.340
    1LIG    HC9   40  -2.139   0.152  -1.558
    1LIG   HC10   41  -1.938   0.182  -1.701
    1LIG   HC11   42  -1.399   0.162  -1.507
    1LIG   HC12   43  -1.334   0.299  -1.311
    1LIG   HC13   44  -1.164   0.281  -1.358
    1LIG   HC14   45  -1.224   0.116  -1.187
    1LIG   HC15   46  -1.356   0.055  -1.290
    1LIG   HC16   47  -1.164  -0.093  -1.311
    1LIG   HC17   48  -1.057   0.044  -1.347
    1LIG   HC18   49  -1.110  -0.068  -1.554
    1LIG   HC19   50  -1.284  -0.065  -1.518
    1LIG   HC20   51  -1.234   0.107  -1.681
    1LIG   HC21   52  -1.105   0.173  -1.579
    1LIG    H28   53  -1.895   0.454  -1.480
   0.00000   0.00000   0.00000
