; Created by cgenff_charmm2gmx.py

[ moleculetype ]
; Name			   nrexcl
LIG				 3

[ atoms ]
;	 nr		  type	resnr residue  atom   cgnr	   charge		mass  typeB    chargeB		massB
; residue	 1 LIG rtp LIG q	qsum
     1      NG3P1      1    LIG     N1      1     -0.462     14.007   ;
     2      CG324      1    LIG     C1      2      0.103     12.011   ;
     3      CG321      1    LIG     C2      3     -0.123     12.011   ;
     4     CG3C50      1    LIG     C3      4      0.255     12.011   ;
     5     NG3C51      1    LIG     N2      5     -0.405     14.007   ;
     6      SG3O2      1    LIG      S      6      0.301     32.060   ;
     7      OG2P1      1    LIG     O1      7     -0.242     15.999   ;
     8      OG2P1      1    LIG     O2      8     -0.242     15.999   ;
     9     NG3C51      1    LIG     N3      9     -0.309     14.007   ;
    10     CG3C52      1    LIG     C4     10     -0.072     12.011   ;
    11      CG331      1    LIG     C5     11     -0.027     12.011   ;
    12      CG321      1    LIG     C6     12     -0.124     12.011   ;
    13      CG314      1    LIG     C7     13      0.198     12.011   ;
    14      CG331      1    LIG     C8     14     -0.213     12.011   ;
    15       HGP2      1    LIG     H1     15      0.319      1.008   ;
    16     CG2R61      1    LIG     C9     16      0.378     12.011   ;
    17     CG2R61      1    LIG    C10     17     -0.169     12.011   ;
    18     CG2R66      1    LIG    C11     18      0.105     12.011   ;
    19       FGR1      1    LIG      F     19     -0.211     18.998   ;
    20     CG2R61      1    LIG    C12     20     -0.107     12.011   ;
    21     CG2R61      1    LIG    C13     21     -0.149     12.011   ;
    22     CG2R61      1    LIG    C14     22     -0.107     12.011   ;
    23      CG324      1    LIG    C15     23      0.119     12.011   ;
    24     CG2R61      1    LIG    C16     24      0.064     12.011   ;
    25     CG2R61      1    LIG    C17     25     -0.105     12.011   ;
    26     CG2R61      1    LIG    C18     26      0.022     12.011   ;
    27      CLGR1      1    LIG     CL     27     -0.167     35.453   ;
    28     CG2R61      1    LIG    C19     28      0.159     12.011   ;
    29     CG2R61      1    LIG    C20     29     -0.109     12.011   ;
    30     CG2R61      1    LIG    C21     30     -0.114     12.011   ;
    31      OG311      1    LIG     O3     31     -0.535     15.999   ;
    32       HGP1      1    LIG     H2     32      0.421      1.008   ;
    33       HGA2      1    LIG    HC2     33      0.090      1.008   ;
    34       HGA2      1    LIG    HC3     34      0.090      1.008   ;
    35       HGA2      1    LIG    HC4     35      0.090      1.008   ;
    36       HGA2      1    LIG    HC5     36      0.090      1.008   ;
    37       HGA2      1    LIG    HC6     37      0.090      1.008   ;
    38       HGA2      1    LIG    HC7     38      0.090      1.008   ;
    39       HGA3      1    LIG    HC1     39      0.090      1.008   ;
    40       HGA3      1    LIG    HC8     40      0.090      1.008   ;
    41       HGA3      1    LIG    HC9     41      0.090      1.008   ;
    42       HGA2      1    LIG   HC10     42      0.090      1.008   ;
    43       HGA2      1    LIG   HC11     43      0.090      1.008   ;
    44       HGA1      1    LIG     HC     44      0.090      1.008   ;
    45       HGA3      1    LIG   HC12     45      0.090      1.008   ;
    46       HGA3      1    LIG   HC13     46      0.090      1.008   ;
    47       HGA3      1    LIG   HC14     47      0.090      1.008   ;
    48      HGR62      1    LIG   HC15     48      0.175      1.008   ;
    49      HGR62      1    LIG   HC16     49      0.179      1.008   ;
    50      HGR61      1    LIG   HC17     50      0.116      1.008   ;
    51      HGR61      1    LIG   HC18     51      0.116      1.008   ;
    52       HGA2      1    LIG   HC19     52      0.090      1.008   ;
    53       HGA2      1    LIG   HC20     53      0.090      1.008   ;
    54      HGR62      1    LIG   HC21     54      0.150      1.008   ;
    55      HGR61      1    LIG   HC22     55      0.116      1.008   ;
    56      HGR61      1    LIG   HC23     56      0.116      1.008   ;
    57        LPH      1    LIG    LP1     57      0.050      0.000   ;

[ bonds ]
;	ai	  aj funct			  c0			c1			  c2			c3
    1    23	 1 ;       NG3P1      CG324
    1    15	 1 ;       NG3P1       HGP2
    1    13	 1 ;       NG3P1      CG314
    1     2	 1 ;       NG3P1      CG324
    2     3	 1 ;       CG324      CG321
    2    33	 1 ;       CG324       HGA2
    2    34	 1 ;       CG324       HGA2
    3     4	 1 ;       CG321     CG3C50
    3    35	 1 ;       CG321       HGA2
    3    36	 1 ;       CG321       HGA2
    4    12	 1 ;      CG3C50      CG321
    4     5	 1 ;      CG3C50     NG3C51
    4    10	 1 ;      CG3C50     CG3C52
    5    16	 1 ;      NG3C51     CG2R61
    5     6	 1 ;      NG3C51      SG3O2
    6     7	 1 ;       SG3O2      OG2P1
    6     8	 1 ;       SG3O2      OG2P1
    6     9	 1 ;       SG3O2     NG3C51
    9    10	 1 ;      NG3C51     CG3C52
    9    11	 1 ;      NG3C51      CG331
   10    37	 1 ;      CG3C52       HGA2
   10    38	 1 ;      CG3C52       HGA2
   11    39	 1 ;       CG331       HGA3
   11    40	 1 ;       CG331       HGA3
   11    41	 1 ;       CG331       HGA3
   12    13	 1 ;       CG321      CG314
   12    42	 1 ;       CG321       HGA2
   12    43	 1 ;       CG321       HGA2
   13    14	 1 ;       CG314      CG331
   13    44	 1 ;       CG314       HGA1
   14    45	 1 ;       CG331       HGA3
   14    46	 1 ;       CG331       HGA3
   14    47	 1 ;       CG331       HGA3
   16    22	 1 ;      CG2R61     CG2R61
   16    17	 1 ;      CG2R61     CG2R61
   17    18	 1 ;      CG2R61     CG2R66
   17    48	 1 ;      CG2R61      HGR62
   18    20	 1 ;      CG2R66     CG2R61
   18    19	 1 ;      CG2R66       FGR1
   20    21	 1 ;      CG2R61     CG2R61
   20    49	 1 ;      CG2R61      HGR62
   21    22	 1 ;      CG2R61     CG2R61
   21    50	 1 ;      CG2R61      HGR61
   22    51	 1 ;      CG2R61      HGR61
   23    24	 1 ;       CG324     CG2R61
   23    52	 1 ;       CG324       HGA2
   23    53	 1 ;       CG324       HGA2
   24    30	 1 ;      CG2R61     CG2R61
   24    25	 1 ;      CG2R61     CG2R61
   25    26	 1 ;      CG2R61     CG2R61
   25    54	 1 ;      CG2R61      HGR62
   26    28	 1 ;      CG2R61     CG2R61
   26    27	 1 ;      CG2R61      CLGR1
   28    31	 1 ;      CG2R61      OG311
   28    29	 1 ;      CG2R61     CG2R61
   29    30	 1 ;      CG2R61     CG2R61
   29    55	 1 ;      CG2R61      HGR61
   30    56	 1 ;      CG2R61      HGR61
   31    32	 1 ;       OG311       HGP1

[ pairs ]
;	ai	  aj funct			  c0			c1			  c2			c3
    1     4	 1
    1    35	 1
    1    36	 1
    1    42	 1
    1    43	 1
    1    45	 1
    1    46	 1
    1    47	 1
    1    30	 1
    1    25	 1
    2    24	 1
    2    52	 1
    2    53	 1
    2    14	 1
    2    12	 1
    2    44	 1
    2     5	 1
    2    10	 1
    3    23	 1
    3    15	 1
    3    13	 1
    3    42	 1
    3    43	 1
    3    16	 1
    3     6	 1
    3     9	 1
    3    37	 1
    3    38	 1
    4    33	 1
    4    34	 1
    4    22	 1
    4    17	 1
    4     7	 1
    4     8	 1
    4    11	 1
    4    14	 1
    4    44	 1
    5    35	 1
    5    36	 1
    5    13	 1
    5    42	 1
    5    43	 1
    5    37	 1
    5    38	 1
    5    11	 1
    5    21	 1
    5    51	 1
    5    18	 1
    5    48	 1
    6    12	 1
    6    22	 1
    6    17	 1
    6    37	 1
    6    38	 1
    6    39	 1
    6    40	 1
    6    41	 1
    7    16	 1
    7    10	 1
    7    11	 1
    8    16	 1
    8    10	 1
    8    11	 1
    9    12	 1
    9    16	 1
   10    35	 1
   10    36	 1
   10    13	 1
   10    42	 1
   10    43	 1
   10    16	 1
   10    39	 1
   10    40	 1
   10    41	 1
   11    37	 1
   11    38	 1
   12    23	 1
   12    15	 1
   12    35	 1
   12    36	 1
   12    16	 1
   12    37	 1
   12    38	 1
   12    45	 1
   12    46	 1
   12    47	 1
   13    24	 1
   13    52	 1
   13    53	 1
   13    33	 1
   13    34	 1
   14    23	 1
   14    15	 1
   14    42	 1
   14    43	 1
   15    24	 1
   15    52	 1
   15    53	 1
   15    44	 1
   15    33	 1
   15    34	 1
   16    20	 1
   16    19	 1
   16    50	 1
   17    21	 1
   17    51	 1
   17    49	 1
   18    22	 1
   18    50	 1
   19    48	 1
   19    21	 1
   19    49	 1
   20    48	 1
   20    51	 1
   22    48	 1
   22    49	 1
   23    44	 1
   23    33	 1
   23    34	 1
   23    29	 1
   23    56	 1
   23    26	 1
   23    54	 1
   24    28	 1
   24    27	 1
   57    24	 1
   24    55	 1
   25    52	 1
   25    53	 1
   25    29	 1
   25    56	 1
   25    31	 1
   26    30	 1
   26    32	 1
   26    55	 1
   27    54	 1
   57    54	 1
   27    31	 1
   57    31	 1
   27    29	 1
   57    29	 1
   28    54	 1
   28    56	 1
   29    32	 1
   30    52	 1
   30    53	 1
   30    54	 1
   30    31	 1
   31    55	 1
   33    35	 1
   33    36	 1
   34    35	 1
   34    36	 1
   42    44	 1
   43    44	 1
   44    45	 1
   44    46	 1
   44    47	 1
   49    50	 1
   50    51	 1
   55    56	 1

[ angles ]
;	ai	  aj	ak funct			c0			  c1			c2			  c3
   23     1    15	5 ;      CG324      NG3P1       HGP2
   23     1    13	5 ;      CG324      NG3P1      CG314
   23     1     2	5 ;      CG324      NG3P1      CG324
   15     1    13	5 ;       HGP2      NG3P1      CG314
   15     1     2	5 ;       HGP2      NG3P1      CG324
   13     1     2	5 ;      CG314      NG3P1      CG324
    1     2     3	5 ;      NG3P1      CG324      CG321
    1     2    33	5 ;      NG3P1      CG324       HGA2
    1     2    34	5 ;      NG3P1      CG324       HGA2
    3     2    33	5 ;      CG321      CG324       HGA2
    3     2    34	5 ;      CG321      CG324       HGA2
   33     2    34	5 ;       HGA2      CG324       HGA2
    2     3     4	5 ;      CG324      CG321     CG3C50
    2     3    35	5 ;      CG324      CG321       HGA2
    2     3    36	5 ;      CG324      CG321       HGA2
    4     3    35	5 ;     CG3C50      CG321       HGA2
    4     3    36	5 ;     CG3C50      CG321       HGA2
   35     3    36	5 ;       HGA2      CG321       HGA2
   12     4     3	5 ;      CG321     CG3C50      CG321
   12     4     5	5 ;      CG321     CG3C50     NG3C51
   12     4    10	5 ;      CG321     CG3C50     CG3C52
    3     4     5	5 ;      CG321     CG3C50     NG3C51
    3     4    10	5 ;      CG321     CG3C50     CG3C52
    5     4    10	5 ;     NG3C51     CG3C50     CG3C52
   16     5     4	5 ;     CG2R61     NG3C51     CG3C50
   16     5     6	5 ;     CG2R61     NG3C51      SG3O2
    4     5     6	5 ;     CG3C50     NG3C51      SG3O2
    5     6     7	5 ;     NG3C51      SG3O2      OG2P1
    5     6     8	5 ;     NG3C51      SG3O2      OG2P1
    5     6     9	5 ;     NG3C51      SG3O2     NG3C51
    7     6     8	5 ;      OG2P1      SG3O2      OG2P1
    7     6     9	5 ;      OG2P1      SG3O2     NG3C51
    8     6     9	5 ;      OG2P1      SG3O2     NG3C51
    6     9    10	5 ;      SG3O2     NG3C51     CG3C52
    6     9    11	5 ;      SG3O2     NG3C51      CG331
   10     9    11	5 ;     CG3C52     NG3C51      CG331
    4    10     9	5 ;     CG3C50     CG3C52     NG3C51
    4    10    37	5 ;     CG3C50     CG3C52       HGA2
    4    10    38	5 ;     CG3C50     CG3C52       HGA2
    9    10    37	5 ;     NG3C51     CG3C52       HGA2
    9    10    38	5 ;     NG3C51     CG3C52       HGA2
   37    10    38	5 ;       HGA2     CG3C52       HGA2
    9    11    39	5 ;     NG3C51      CG331       HGA3
    9    11    40	5 ;     NG3C51      CG331       HGA3
    9    11    41	5 ;     NG3C51      CG331       HGA3
   39    11    40	5 ;       HGA3      CG331       HGA3
   39    11    41	5 ;       HGA3      CG331       HGA3
   40    11    41	5 ;       HGA3      CG331       HGA3
   13    12     4	5 ;      CG314      CG321     CG3C50
   13    12    42	5 ;      CG314      CG321       HGA2
   13    12    43	5 ;      CG314      CG321       HGA2
    4    12    42	5 ;     CG3C50      CG321       HGA2
    4    12    43	5 ;     CG3C50      CG321       HGA2
   42    12    43	5 ;       HGA2      CG321       HGA2
   14    13     1	5 ;      CG331      CG314      NG3P1
   14    13    12	5 ;      CG331      CG314      CG321
   14    13    44	5 ;      CG331      CG314       HGA1
    1    13    12	5 ;      NG3P1      CG314      CG321
    1    13    44	5 ;      NG3P1      CG314       HGA1
   12    13    44	5 ;      CG321      CG314       HGA1
   13    14    45	5 ;      CG314      CG331       HGA3
   13    14    46	5 ;      CG314      CG331       HGA3
   13    14    47	5 ;      CG314      CG331       HGA3
   45    14    46	5 ;       HGA3      CG331       HGA3
   45    14    47	5 ;       HGA3      CG331       HGA3
   46    14    47	5 ;       HGA3      CG331       HGA3
   22    16    17	5 ;     CG2R61     CG2R61     CG2R61
   22    16     5	5 ;     CG2R61     CG2R61     NG3C51
   17    16     5	5 ;     CG2R61     CG2R61     NG3C51
   18    17    16	5 ;     CG2R66     CG2R61     CG2R61
   18    17    48	5 ;     CG2R66     CG2R61      HGR62
   16    17    48	5 ;     CG2R61     CG2R61      HGR62
   20    18    19	5 ;     CG2R61     CG2R66       FGR1
   20    18    17	5 ;     CG2R61     CG2R66     CG2R61
   19    18    17	5 ;       FGR1     CG2R66     CG2R61
   21    20    18	5 ;     CG2R61     CG2R61     CG2R66
   21    20    49	5 ;     CG2R61     CG2R61      HGR62
   18    20    49	5 ;     CG2R66     CG2R61      HGR62
   20    21    22	5 ;     CG2R61     CG2R61     CG2R61
   20    21    50	5 ;     CG2R61     CG2R61      HGR61
   22    21    50	5 ;     CG2R61     CG2R61      HGR61
   21    22    16	5 ;     CG2R61     CG2R61     CG2R61
   21    22    51	5 ;     CG2R61     CG2R61      HGR61
   16    22    51	5 ;     CG2R61     CG2R61      HGR61
   24    23     1	5 ;     CG2R61      CG324      NG3P1
   24    23    52	5 ;     CG2R61      CG324       HGA2
   24    23    53	5 ;     CG2R61      CG324       HGA2
    1    23    52	5 ;      NG3P1      CG324       HGA2
    1    23    53	5 ;      NG3P1      CG324       HGA2
   52    23    53	5 ;       HGA2      CG324       HGA2
   30    24    25	5 ;     CG2R61     CG2R61     CG2R61
   30    24    23	5 ;     CG2R61     CG2R61      CG324
   25    24    23	5 ;     CG2R61     CG2R61      CG324
   26    25    24	5 ;     CG2R61     CG2R61     CG2R61
   26    25    54	5 ;     CG2R61     CG2R61      HGR62
   24    25    54	5 ;     CG2R61     CG2R61      HGR62
   28    26    27	5 ;     CG2R61     CG2R61      CLGR1
   28    26    25	5 ;     CG2R61     CG2R61     CG2R61
   27    26    25	5 ;      CLGR1     CG2R61     CG2R61
   31    28    29	5 ;      OG311     CG2R61     CG2R61
   31    28    26	5 ;      OG311     CG2R61     CG2R61
   29    28    26	5 ;     CG2R61     CG2R61     CG2R61
   28    29    30	5 ;     CG2R61     CG2R61     CG2R61
   28    29    55	5 ;     CG2R61     CG2R61      HGR61
   30    29    55	5 ;     CG2R61     CG2R61      HGR61
   29    30    24	5 ;     CG2R61     CG2R61     CG2R61
   29    30    56	5 ;     CG2R61     CG2R61      HGR61
   24    30    56	5 ;     CG2R61     CG2R61      HGR61
   32    31    28	5 ;       HGP1      OG311     CG2R61

[ dihedrals ]
;	ai	  aj	ak	  al funct			  c0			c1			  c2			c3			  c4			c5
   15     1    23    24	 9 ;       HGP2      NG3P1      CG324     CG2R61
   15     1    23    52	 9 ;       HGP2      NG3P1      CG324       HGA2
   15     1    23    53	 9 ;       HGP2      NG3P1      CG324       HGA2
   13     1    23    24	 9 ;      CG314      NG3P1      CG324     CG2R61
   13     1    23    52	 9 ;      CG314      NG3P1      CG324       HGA2
   13     1    23    53	 9 ;      CG314      NG3P1      CG324       HGA2
    2     1    23    24	 9 ;      CG324      NG3P1      CG324     CG2R61
    2     1    23    52	 9 ;      CG324      NG3P1      CG324       HGA2
    2     1    23    53	 9 ;      CG324      NG3P1      CG324       HGA2
   23     1    13    14	 9 ;      CG324      NG3P1      CG314      CG331
   23     1    13    12	 9 ;      CG324      NG3P1      CG314      CG321
   23     1    13    44	 9 ;      CG324      NG3P1      CG314       HGA1
   15     1    13    14	 9 ;       HGP2      NG3P1      CG314      CG331
   15     1    13    12	 9 ;       HGP2      NG3P1      CG314      CG321
   15     1    13    44	 9 ;       HGP2      NG3P1      CG314       HGA1
    2     1    13    14	 9 ;      CG324      NG3P1      CG314      CG331
    2     1    13    12	 9 ;      CG324      NG3P1      CG314      CG321
    2     1    13    44	 9 ;      CG324      NG3P1      CG314       HGA1
   23     1     2     3	 9 ;      CG324      NG3P1      CG324      CG321
   23     1     2    33	 9 ;      CG324      NG3P1      CG324       HGA2
   23     1     2    34	 9 ;      CG324      NG3P1      CG324       HGA2
   15     1     2     3	 9 ;       HGP2      NG3P1      CG324      CG321
   15     1     2    33	 9 ;       HGP2      NG3P1      CG324       HGA2
   15     1     2    34	 9 ;       HGP2      NG3P1      CG324       HGA2
   13     1     2     3	 9 ;      CG314      NG3P1      CG324      CG321
   13     1     2    33	 9 ;      CG314      NG3P1      CG324       HGA2
   13     1     2    34	 9 ;      CG314      NG3P1      CG324       HGA2
    1     2     3     4	 9 ;      NG3P1      CG324      CG321     CG3C50
    1     2     3    35	 9 ;      NG3P1      CG324      CG321       HGA2
    1     2     3    36	 9 ;      NG3P1      CG324      CG321       HGA2
   33     2     3     4	 9 ;       HGA2      CG324      CG321     CG3C50
   33     2     3    35	 9 ;       HGA2      CG324      CG321       HGA2
   33     2     3    36	 9 ;       HGA2      CG324      CG321       HGA2
   34     2     3     4	 9 ;       HGA2      CG324      CG321     CG3C50
   34     2     3    35	 9 ;       HGA2      CG324      CG321       HGA2
   34     2     3    36	 9 ;       HGA2      CG324      CG321       HGA2
    2     3     4    12	 9 ;      CG324      CG321     CG3C50      CG321
    2     3     4     5	 9 ;      CG324      CG321     CG3C50     NG3C51
    2     3     4    10	 9 ;      CG324      CG321     CG3C50     CG3C52
   35     3     4    12	 9 ;       HGA2      CG321     CG3C50      CG321
   35     3     4     5	 9 ;       HGA2      CG321     CG3C50     NG3C51
   35     3     4    10	 9 ;       HGA2      CG321     CG3C50     CG3C52
   36     3     4    12	 9 ;       HGA2      CG321     CG3C50      CG321
   36     3     4     5	 9 ;       HGA2      CG321     CG3C50     NG3C51
   36     3     4    10	 9 ;       HGA2      CG321     CG3C50     CG3C52
    3     4    12    13	 9 ;      CG321     CG3C50      CG321      CG314
    3     4    12    42	 9 ;      CG321     CG3C50      CG321       HGA2
    3     4    12    43	 9 ;      CG321     CG3C50      CG321       HGA2
    5     4    12    13	 9 ;     NG3C51     CG3C50      CG321      CG314
    5     4    12    42	 9 ;     NG3C51     CG3C50      CG321       HGA2
    5     4    12    43	 9 ;     NG3C51     CG3C50      CG321       HGA2
   10     4    12    13	 9 ;     CG3C52     CG3C50      CG321      CG314
   10     4    12    42	 9 ;     CG3C52     CG3C50      CG321       HGA2
   10     4    12    43	 9 ;     CG3C52     CG3C50      CG321       HGA2
   12     4     5    16	 9 ;      CG321     CG3C50     NG3C51     CG2R61
   12     4     5     6	 9 ;      CG321     CG3C50     NG3C51      SG3O2
    3     4     5    16	 9 ;      CG321     CG3C50     NG3C51     CG2R61
    3     4     5     6	 9 ;      CG321     CG3C50     NG3C51      SG3O2
   10     4     5    16	 9 ;     CG3C52     CG3C50     NG3C51     CG2R61
   10     4     5     6	 9 ;     CG3C52     CG3C50     NG3C51      SG3O2
   12     4    10     9	 9 ;      CG321     CG3C50     CG3C52     NG3C51
   12     4    10    37	 9 ;      CG321     CG3C50     CG3C52       HGA2
   12     4    10    38	 9 ;      CG321     CG3C50     CG3C52       HGA2
    3     4    10     9	 9 ;      CG321     CG3C50     CG3C52     NG3C51
    3     4    10    37	 9 ;      CG321     CG3C50     CG3C52       HGA2
    3     4    10    38	 9 ;      CG321     CG3C50     CG3C52       HGA2
    5     4    10     9	 9 ;     NG3C51     CG3C50     CG3C52     NG3C51
    5     4    10    37	 9 ;     NG3C51     CG3C50     CG3C52       HGA2
    5     4    10    38	 9 ;     NG3C51     CG3C50     CG3C52       HGA2
    4     5    16    22	 9 ;     CG3C50     NG3C51     CG2R61     CG2R61
    4     5    16    17	 9 ;     CG3C50     NG3C51     CG2R61     CG2R61
    6     5    16    22	 9 ;      SG3O2     NG3C51     CG2R61     CG2R61
    6     5    16    17	 9 ;      SG3O2     NG3C51     CG2R61     CG2R61
   16     5     6     7	 9 ;     CG2R61     NG3C51      SG3O2      OG2P1
   16     5     6     8	 9 ;     CG2R61     NG3C51      SG3O2      OG2P1
   16     5     6     9	 9 ;     CG2R61     NG3C51      SG3O2     NG3C51
    4     5     6     7	 9 ;     CG3C50     NG3C51      SG3O2      OG2P1
    4     5     6     8	 9 ;     CG3C50     NG3C51      SG3O2      OG2P1
    4     5     6     9	 9 ;     CG3C50     NG3C51      SG3O2     NG3C51
    5     6     9    10	 9 ;     NG3C51      SG3O2     NG3C51     CG3C52
    5     6     9    11	 9 ;     NG3C51      SG3O2     NG3C51      CG331
    7     6     9    10	 9 ;      OG2P1      SG3O2     NG3C51     CG3C52
    7     6     9    11	 9 ;      OG2P1      SG3O2     NG3C51      CG331
    8     6     9    10	 9 ;      OG2P1      SG3O2     NG3C51     CG3C52
    8     6     9    11	 9 ;      OG2P1      SG3O2     NG3C51      CG331
    6     9    10     4	 9 ;      SG3O2     NG3C51     CG3C52     CG3C50
    6     9    10    37	 9 ;      SG3O2     NG3C51     CG3C52       HGA2
    6     9    10    38	 9 ;      SG3O2     NG3C51     CG3C52       HGA2
   11     9    10     4	 9 ;      CG331     NG3C51     CG3C52     CG3C50
   11     9    10    37	 9 ;      CG331     NG3C51     CG3C52       HGA2
   11     9    10    38	 9 ;      CG331     NG3C51     CG3C52       HGA2
    6     9    11    39	 9 ;      SG3O2     NG3C51      CG331       HGA3
    6     9    11    40	 9 ;      SG3O2     NG3C51      CG331       HGA3
    6     9    11    41	 9 ;      SG3O2     NG3C51      CG331       HGA3
   10     9    11    39	 9 ;     CG3C52     NG3C51      CG331       HGA3
   10     9    11    40	 9 ;     CG3C52     NG3C51      CG331       HGA3
   10     9    11    41	 9 ;     CG3C52     NG3C51      CG331       HGA3
    4    12    13    14	 9 ;     CG3C50      CG321      CG314      CG331
    4    12    13     1	 9 ;     CG3C50      CG321      CG314      NG3P1
    4    12    13    44	 9 ;     CG3C50      CG321      CG314       HGA1
   42    12    13    14	 9 ;       HGA2      CG321      CG314      CG331
   42    12    13     1	 9 ;       HGA2      CG321      CG314      NG3P1
   42    12    13    44	 9 ;       HGA2      CG321      CG314       HGA1
   43    12    13    14	 9 ;       HGA2      CG321      CG314      CG331
   43    12    13     1	 9 ;       HGA2      CG321      CG314      NG3P1
   43    12    13    44	 9 ;       HGA2      CG321      CG314       HGA1
    1    13    14    45	 9 ;      NG3P1      CG314      CG331       HGA3
    1    13    14    46	 9 ;      NG3P1      CG314      CG331       HGA3
    1    13    14    47	 9 ;      NG3P1      CG314      CG331       HGA3
   12    13    14    45	 9 ;      CG321      CG314      CG331       HGA3
   12    13    14    46	 9 ;      CG321      CG314      CG331       HGA3
   12    13    14    47	 9 ;      CG321      CG314      CG331       HGA3
   44    13    14    45	 9 ;       HGA1      CG314      CG331       HGA3
   44    13    14    46	 9 ;       HGA1      CG314      CG331       HGA3
   44    13    14    47	 9 ;       HGA1      CG314      CG331       HGA3
   17    16    22    21	 9 ;     CG2R61     CG2R61     CG2R61     CG2R61
   17    16    22    51	 9 ;     CG2R61     CG2R61     CG2R61      HGR61
    5    16    22    21	 9 ;     NG3C51     CG2R61     CG2R61     CG2R61
    5    16    22    51	 9 ;     NG3C51     CG2R61     CG2R61      HGR61
   22    16    17    18	 9 ;     CG2R61     CG2R61     CG2R61     CG2R66
   22    16    17    48	 9 ;     CG2R61     CG2R61     CG2R61      HGR62
    5    16    17    18	 9 ;     NG3C51     CG2R61     CG2R61     CG2R66
    5    16    17    48	 9 ;     NG3C51     CG2R61     CG2R61      HGR62
   16    17    18    20	 9 ;     CG2R61     CG2R61     CG2R66     CG2R61
   16    17    18    19	 9 ;     CG2R61     CG2R61     CG2R66       FGR1
   48    17    18    20	 9 ;      HGR62     CG2R61     CG2R66     CG2R61
   48    17    18    19	 9 ;      HGR62     CG2R61     CG2R66       FGR1
   19    18    20    21	 9 ;       FGR1     CG2R66     CG2R61     CG2R61
   19    18    20    49	 9 ;       FGR1     CG2R66     CG2R61      HGR62
   17    18    20    21	 9 ;     CG2R61     CG2R66     CG2R61     CG2R61
   17    18    20    49	 9 ;     CG2R61     CG2R66     CG2R61      HGR62
   18    20    21    22	 9 ;     CG2R66     CG2R61     CG2R61     CG2R61
   18    20    21    50	 9 ;     CG2R66     CG2R61     CG2R61      HGR61
   49    20    21    22	 9 ;      HGR62     CG2R61     CG2R61     CG2R61
   49    20    21    50	 9 ;      HGR62     CG2R61     CG2R61      HGR61
   20    21    22    16	 9 ;     CG2R61     CG2R61     CG2R61     CG2R61
   20    21    22    51	 9 ;     CG2R61     CG2R61     CG2R61      HGR61
   50    21    22    16	 9 ;      HGR61     CG2R61     CG2R61     CG2R61
   50    21    22    51	 9 ;      HGR61     CG2R61     CG2R61      HGR61
    1    23    24    30	 9 ;      NG3P1      CG324     CG2R61     CG2R61
    1    23    24    25	 9 ;      NG3P1      CG324     CG2R61     CG2R61
   52    23    24    30	 9 ;       HGA2      CG324     CG2R61     CG2R61
   52    23    24    25	 9 ;       HGA2      CG324     CG2R61     CG2R61
   53    23    24    30	 9 ;       HGA2      CG324     CG2R61     CG2R61
   53    23    24    25	 9 ;       HGA2      CG324     CG2R61     CG2R61
   25    24    30    29	 9 ;     CG2R61     CG2R61     CG2R61     CG2R61
   25    24    30    56	 9 ;     CG2R61     CG2R61     CG2R61      HGR61
   23    24    30    29	 9 ;      CG324     CG2R61     CG2R61     CG2R61
   23    24    30    56	 9 ;      CG324     CG2R61     CG2R61      HGR61
   30    24    25    26	 9 ;     CG2R61     CG2R61     CG2R61     CG2R61
   30    24    25    54	 9 ;     CG2R61     CG2R61     CG2R61      HGR62
   23    24    25    26	 9 ;      CG324     CG2R61     CG2R61     CG2R61
   23    24    25    54	 9 ;      CG324     CG2R61     CG2R61      HGR62
   24    25    26    28	 9 ;     CG2R61     CG2R61     CG2R61     CG2R61
   24    25    26    27	 9 ;     CG2R61     CG2R61     CG2R61      CLGR1
   54    25    26    28	 9 ;      HGR62     CG2R61     CG2R61     CG2R61
   54    25    26    27	 9 ;      HGR62     CG2R61     CG2R61      CLGR1
   27    26    28    31	 9 ;      CLGR1     CG2R61     CG2R61      OG311
   27    26    28    29	 9 ;      CLGR1     CG2R61     CG2R61     CG2R61
   25    26    28    31	 9 ;     CG2R61     CG2R61     CG2R61      OG311
   25    26    28    29	 9 ;     CG2R61     CG2R61     CG2R61     CG2R61
   29    28    31    32	 9 ;     CG2R61     CG2R61      OG311       HGP1
   26    28    31    32	 9 ;     CG2R61     CG2R61      OG311       HGP1
   31    28    29    30	 9 ;      OG311     CG2R61     CG2R61     CG2R61
   31    28    29    55	 9 ;      OG311     CG2R61     CG2R61      HGR61
   26    28    29    30	 9 ;     CG2R61     CG2R61     CG2R61     CG2R61
   26    28    29    55	 9 ;     CG2R61     CG2R61     CG2R61      HGR61
   28    29    30    24	 9 ;     CG2R61     CG2R61     CG2R61     CG2R61
   28    29    30    56	 9 ;     CG2R61     CG2R61     CG2R61      HGR61
   55    29    30    24	 9 ;      HGR61     CG2R61     CG2R61     CG2R61
   55    29    30    56	 9 ;      HGR61     CG2R61     CG2R61      HGR61

[ virtual_sites2 ]
; Site   from				funct a
   57    27    26     2   -0.164

[ exclusions ]
;	ai	  aj
   27    57
   57    26
   57    28
   57    25
   57    24
   57    54
   57    31
   57    29

