Gallium Rubidium Oxygen Manganese Argon Carbon Silicon
   57
    1LIG     N1    1  -1.655   0.302  -1.447
    1LIG     C1    2  -1.706   0.398  -1.343
    1LIG     C2    3  -1.808   0.334  -1.250
    1LIG     C3    4  -1.928   0.273  -1.324
    1LIG     N2    5  -2.030   0.374  -1.364
    1LIG      S    6  -2.144   0.407  -1.243
    1LIG     O1    7  -2.101   0.526  -1.173
    1LIG     O2    8  -2.275   0.389  -1.299
    1LIG     N3    9  -2.103   0.272  -1.148
    1LIG     C4   10  -2.011   0.184  -1.222
    1LIG     C5   11  -2.217   0.204  -1.086
    1LIG     C6   12  -1.880   0.182  -1.437
    1LIG     C7   13  -1.763   0.228  -1.526
    1LIG     C8   14  -1.806   0.301  -1.652
    1LIG     H1   15  -1.602   0.231  -1.396
    1LIG     C9   16  -2.029   0.464  -1.474
    1LIG    C10   17  -2.107   0.435  -1.585
    1LIG    C11   18  -2.102   0.518  -1.696
    1LIG      F   19  -2.173   0.487  -1.805
    1LIG    C12   20  -2.020   0.631  -1.698
    1LIG    C13   21  -1.948   0.665  -1.583
    1LIG    C14   22  -1.956   0.583  -1.470
    1LIG    C15   23  -1.549   0.376  -1.532
    1LIG    C16   24  -1.405   0.341  -1.505
    1LIG    C17   25  -1.327   0.410  -1.412
    1LIG    C18   26  -1.200   0.364  -1.376
    1LIG     CL   27  -1.119   0.442  -1.246
    1LIG    C19   28  -1.144   0.255  -1.442
    1LIG    C20   29  -1.215   0.191  -1.544
    1LIG    C21   30  -1.345   0.233  -1.575
    1LIG     O3   31  -1.020   0.210  -1.407
    1LIG     H2   32  -1.016   0.113  -1.412
    1LIG    HC2   33  -1.753   0.483  -1.393
    1LIG    HC3   34  -1.622   0.434  -1.283
    1LIG    HC4   35  -1.845   0.410  -1.181
    1LIG    HC5   36  -1.759   0.255  -1.193
    1LIG    HC6   37  -1.943   0.134  -1.153
    1LIG    HC7   38  -2.068   0.109  -1.277
    1LIG    HC1   39  -2.280   0.277  -1.034
    1LIG    HC8   40  -2.276   0.155  -1.163
    1LIG    HC9   41  -2.181   0.130  -1.015
    1LIG   HC10   42  -1.965   0.164  -1.502
    1LIG   HC11   43  -1.851   0.086  -1.392
    1LIG     HC   44  -1.716   0.137  -1.561
    1LIG   HC12   45  -1.903   0.263  -1.685
    1LIG   HC13   46  -1.814   0.408  -1.632
    1LIG   HC14   47  -1.732   0.284  -1.731
    1LIG   HC15   48  -2.172   0.348  -1.585
    1LIG   HC16   49  -2.013   0.692  -1.787
    1LIG   HC17   50  -1.887   0.754  -1.582
    1LIG   HC18   51  -1.905   0.612  -1.380
    1LIG   HC19   52  -1.569   0.354  -1.637
    1LIG   HC20   53  -1.561   0.483  -1.517
    1LIG   HC21   54  -1.366   0.500  -1.366
    1LIG   HC22   55  -1.170   0.109  -1.599
    1LIG   HC23   56  -1.400   0.183  -1.653
    1LIG    LP1   57  -1.042   0.517  -1.122
   0.00000   0.00000   0.00000
