GRoups of Organic Molecules in ACtion for Science
   83
    1LIG     C1    1  -1.253   0.315  -1.575
    1LIG     O1    2  -1.275   0.195  -1.597
    1LIG     N1    3  -1.205   0.390  -1.679
    1LIG     H1    4  -1.196   0.330  -1.760
    1LIG     C2    5  -1.275   0.373  -1.434
    1LIG     N2    6  -1.417   0.358  -1.399
    1LIG     C3    7  -1.520   0.428  -1.460
    1LIG     O2    8  -1.503   0.526  -1.531
    1LIG     H2    9  -1.439   0.267  -1.359
    1LIG     C4   10  -1.656   0.365  -1.445
    1LIG     C5   11  -1.729   0.377  -1.326
    1LIG     C6   12  -1.841   0.295  -1.308
    1LIG     O3   13  -1.917   0.289  -1.196
    1LIG     C7   14  -1.883   0.209  -1.406
    1LIG     C8   15  -2.003   0.178  -1.229
    1LIG     O4   16  -1.990   0.135  -1.366
    1LIG     C9   17  -1.818   0.201  -1.528
    1LIG    C10   18  -1.704   0.280  -1.547
    1LIG    C11   19  -1.174   0.317  -1.331
    1LIG    C12   20  -1.075   0.205  -1.358
    1LIG    C13   21  -0.953   0.217  -1.426
    1LIG    C14   22  -0.874   0.104  -1.450
    1LIG    C15   23  -0.915  -0.023  -1.406
    1LIG    C16   24  -1.033  -0.036  -1.334
    1LIG    C17   25  -1.112   0.077  -1.310
    1LIG    C18   26  -1.230   0.534  -1.711
    1LIG    C19   27  -1.101   0.620  -1.691
    1LIG    C20   28  -1.076   0.721  -1.574
    1LIG    C21   29  -1.014   0.850  -1.634
    1LIG    C22   30  -1.197   0.766  -1.493
    1LIG    C23   31  -1.316   0.542  -1.844
    1LIG     O5   32  -1.446   0.485  -1.810
    1LIG     H3   33  -1.470   0.513  -1.720
    1LIG    C24   34  -1.356   0.678  -1.911
    1LIG    C25   35  -1.352   0.803  -1.823
    1LIG    C26   36  -1.287   0.921  -1.895
    1LIG    C27   37  -1.485   0.851  -1.760
    1LIG     O6   38  -1.523   0.967  -1.779
    1LIG     N3   39  -1.564   0.760  -1.693
    1LIG     H4   40  -1.518   0.683  -1.648
    1LIG    C28   41  -1.697   0.796  -1.638
    1LIG    C29   42  -1.697   0.854  -1.495
    1LIG    C30   43  -1.801   0.965  -1.476
    1LIG    C31   44  -1.724   0.744  -1.390
    1LIG     HC   45  -1.256   0.480  -1.441
    1LIG    HC1   46  -1.700   0.448  -1.250
    1LIG    HC2   47  -2.106   0.209  -1.212
    1LIG    HC3   48  -1.980   0.094  -1.163
    1LIG    HC4   49  -1.855   0.135  -1.606
    1LIG    HC5   50  -1.652   0.276  -1.642
    1LIG    HC6   51  -1.114   0.402  -1.300
    1LIG    HC7   52  -1.232   0.287  -1.244
    1LIG    HC8   53  -0.920   0.314  -1.460
    1LIG    HC9   54  -0.781   0.114  -1.503
    1LIG   HC10   55  -0.855  -0.110  -1.428
    1LIG   HC11   56  -1.064  -0.132  -1.298
    1LIG   HC12   57  -1.203   0.067  -1.253
    1LIG   HC13   58  -1.297   0.567  -1.632
    1LIG   HC14   59  -1.019   0.548  -1.685
    1LIG   HC15   60  -1.087   0.675  -1.783
    1LIG   HC16   61  -1.003   0.677  -1.506
    1LIG   HC17   62  -0.926   0.825  -1.693
    1LIG   HC18   63  -0.985   0.917  -1.553
    1LIG   HC19   64  -1.088   0.900  -1.697
    1LIG   HC20   65  -1.245   0.679  -1.449
    1LIG   HC21   66  -1.165   0.834  -1.415
    1LIG   HC22   67  -1.268   0.817  -1.559
    1LIG   HC23   68  -1.269   0.479  -1.920
    1LIG   HC24   69  -1.458   0.667  -1.948
    1LIG   HC25   70  -1.291   0.694  -1.997
    1LIG   HC26   71  -1.287   0.779  -1.740
    1LIG   HC27   72  -1.191   0.890  -1.937
    1LIG   HC28   73  -1.270   1.002  -1.823
    1LIG   HC29   74  -1.352   0.956  -1.974
    1LIG   HC30   75  -1.741   0.871  -1.704
    1LIG   HC31   76  -1.760   0.707  -1.640
    1LIG   HC32   77  -1.599   0.897  -1.475
    1LIG   HC33   78  -1.784   1.044  -1.549
    1LIG   HC34   79  -1.793   1.006  -1.375
    1LIG   HC35   80  -1.901   0.923  -1.490
    1LIG   HC36   81  -1.651   0.664  -1.402
    1LIG   HC37   82  -1.824   0.704  -1.405
    1LIG   HC38   83  -1.716   0.787  -1.290
   0.00000   0.00000   0.00000
