; Created by cgenff_charmm2gmx.py

[ moleculetype ]
; Name			   nrexcl
LIG				 3

[ atoms ]
;	 nr		  type	resnr residue  atom   cgnr	   charge		mass  typeB    chargeB		massB
; residue	 1 LIG rtp LIG q	qsum
     1      CG2O1      1    LIG     C1      1      0.495     12.011   ;
     2      OG2D1      1    LIG     O1      2     -0.509     15.999   ;
     3      NG2S1      1    LIG     N1      3     -0.401     14.007   ;
     4       HGP1      1    LIG     H1      4      0.269      1.008   ;
     5      CG311      1    LIG     C2      5      0.079     12.011   ;
     6      NG2S1      1    LIG     N2      6     -0.308     14.007   ;
     7      CG2O1      1    LIG     C3      7      0.300     12.011   ;
     8      OG2D1      1    LIG     O2      8     -0.463     15.999   ;
     9       HGP1      1    LIG     H2      9      0.309      1.008   ;
    10     CG2R61      1    LIG     C4     10     -0.110     12.011   ;
    11     CG2R61      1    LIG     C5     11     -0.302     12.011   ;
    12     CG2RC0      1    LIG     C6     12      0.095     12.011   ;
    13     OG3C51      1    LIG     O3     13     -0.274     15.999   ;
    14     CG2RC0      1    LIG     C7     14      0.093     12.011   ;
    15     CG3C52      1    LIG     C8     15      0.410     12.011   ;
    16     OG3C51      1    LIG     O4     16     -0.274     15.999   ;
    17     CG2R61      1    LIG     C9     17     -0.356     12.011   ;
    18     CG2R61      1    LIG    C10     18     -0.101     12.011   ;
    19      CG321      1    LIG    C11     19     -0.180     12.011   ;
    20     CG2R61      1    LIG    C12     20     -0.003     12.011   ;
    21     CG2R61      1    LIG    C13     21     -0.123     12.011   ;
    22     CG2R61      1    LIG    C14     22     -0.112     12.011   ;
    23     CG2R61      1    LIG    C15     23     -0.116     12.011   ;
    24     CG2R61      1    LIG    C16     24     -0.112     12.011   ;
    25     CG2R61      1    LIG    C17     25     -0.123     12.011   ;
    26      CG311      1    LIG    C18     26     -0.042     12.011   ;
    27      CG321      1    LIG    C19     27     -0.101     12.011   ;
    28      CG311      1    LIG    C20     28     -0.109     12.011   ;
    29      CG331      1    LIG    C21     29     -0.268     12.011   ;
    30      CG331      1    LIG    C22     30     -0.268     12.011   ;
    31      CG311      1    LIG    C23     31      0.119     12.011   ;
    32      OG311      1    LIG     O5     32     -0.648     15.999   ;
    33       HGP1      1    LIG     H3     33      0.421      1.008   ;
    34      CG321      1    LIG    C24     34     -0.187     12.011   ;
    35      CG311      1    LIG    C25     35     -0.033     12.011   ;
    36      CG331      1    LIG    C26     36     -0.266     12.011   ;
    37      CG2O1      1    LIG    C27     37      0.492     12.011   ;
    38      OG2D1      1    LIG     O6     38     -0.514     15.999   ;
    39      NG2S1      1    LIG     N3     39     -0.471     14.007   ;
    40       HGP1      1    LIG     H4     40      0.310      1.008   ;
    41      CG321      1    LIG    C28     41     -0.007     12.011   ;
    42      CG311      1    LIG    C29     42     -0.133     12.011   ;
    43      CG331      1    LIG    C30     43     -0.258     12.011   ;
    44      CG331      1    LIG    C31     44     -0.258     12.011   ;
    45       HGA1      1    LIG     HC     45      0.090      1.008   ;
    46      HGR61      1    LIG    HC1     46      0.267      1.008   ;
    47       HGA2      1    LIG    HC2     47      0.090      1.008   ;
    48       HGA2      1    LIG    HC3     48      0.090      1.008   ;
    49      HGR61      1    LIG    HC4     49      0.267      1.008   ;
    50      HGR61      1    LIG    HC5     50      0.134      1.008   ;
    51       HGA2      1    LIG    HC6     51      0.090      1.008   ;
    52       HGA2      1    LIG    HC7     52      0.090      1.008   ;
    53      HGR61      1    LIG    HC8     53      0.116      1.008   ;
    54      HGR61      1    LIG    HC9     54      0.116      1.008   ;
    55      HGR61      1    LIG   HC10     55      0.116      1.008   ;
    56      HGR61      1    LIG   HC11     56      0.116      1.008   ;
    57      HGR61      1    LIG   HC12     57      0.116      1.008   ;
    58       HGA1      1    LIG   HC13     58      0.090      1.008   ;
    59       HGA2      1    LIG   HC14     59      0.090      1.008   ;
    60       HGA2      1    LIG   HC15     60      0.090      1.008   ;
    61       HGA1      1    LIG   HC16     61      0.090      1.008   ;
    62       HGA3      1    LIG   HC17     62      0.090      1.008   ;
    63       HGA3      1    LIG   HC18     63      0.090      1.008   ;
    64       HGA3      1    LIG   HC19     64      0.090      1.008   ;
    65       HGA3      1    LIG   HC20     65      0.090      1.008   ;
    66       HGA3      1    LIG   HC21     66      0.090      1.008   ;
    67       HGA3      1    LIG   HC22     67      0.090      1.008   ;
    68       HGA1      1    LIG   HC23     68      0.090      1.008   ;
    69       HGA2      1    LIG   HC24     69      0.090      1.008   ;
    70       HGA2      1    LIG   HC25     70      0.090      1.008   ;
    71       HGA1      1    LIG   HC26     71      0.090      1.008   ;
    72       HGA3      1    LIG   HC27     72      0.090      1.008   ;
    73       HGA3      1    LIG   HC28     73      0.090      1.008   ;
    74       HGA3      1    LIG   HC29     74      0.090      1.008   ;
    75       HGA2      1    LIG   HC30     75      0.090      1.008   ;
    76       HGA2      1    LIG   HC31     76      0.090      1.008   ;
    77       HGA1      1    LIG   HC32     77      0.090      1.008   ;
    78       HGA3      1    LIG   HC33     78      0.090      1.008   ;
    79       HGA3      1    LIG   HC34     79      0.090      1.008   ;
    80       HGA3      1    LIG   HC35     80      0.090      1.008   ;
    81       HGA3      1    LIG   HC36     81      0.090      1.008   ;
    82       HGA3      1    LIG   HC37     82      0.090      1.008   ;
    83       HGA3      1    LIG   HC38     83      0.090      1.008   ;

[ bonds ]
;	ai	  aj funct			  c0			c1			  c2			c3
    1     3	 1 ;       CG2O1      NG2S1
    1     2	 1 ;       CG2O1      OG2D1
    1     5	 1 ;       CG2O1      CG311
    3    26	 1 ;       NG2S1      CG311
    3     4	 1 ;       NG2S1       HGP1
    5    19	 1 ;       CG311      CG321
    5     6	 1 ;       CG311      NG2S1
    5    45	 1 ;       CG311       HGA1
    6     7	 1 ;       NG2S1      CG2O1
    6     9	 1 ;       NG2S1       HGP1
    7     8	 1 ;       CG2O1      OG2D1
    7    10	 1 ;       CG2O1     CG2R61
   10    18	 1 ;      CG2R61     CG2R61
   10    11	 1 ;      CG2R61     CG2R61
   11    12	 1 ;      CG2R61     CG2RC0
   11    46	 1 ;      CG2R61      HGR61
   12    14	 1 ;      CG2RC0     CG2RC0
   12    13	 1 ;      CG2RC0     OG3C51
   13    15	 1 ;      OG3C51     CG3C52
   14    17	 1 ;      CG2RC0     CG2R61
   14    16	 1 ;      CG2RC0     OG3C51
   15    16	 1 ;      CG3C52     OG3C51
   15    47	 1 ;      CG3C52       HGA2
   15    48	 1 ;      CG3C52       HGA2
   17    18	 1 ;      CG2R61     CG2R61
   17    49	 1 ;      CG2R61      HGR61
   18    50	 1 ;      CG2R61      HGR61
   19    20	 1 ;       CG321     CG2R61
   19    51	 1 ;       CG321       HGA2
   19    52	 1 ;       CG321       HGA2
   20    21	 1 ;      CG2R61     CG2R61
   20    25	 1 ;      CG2R61     CG2R61
   21    22	 1 ;      CG2R61     CG2R61
   21    53	 1 ;      CG2R61      HGR61
   22    23	 1 ;      CG2R61     CG2R61
   22    54	 1 ;      CG2R61      HGR61
   23    24	 1 ;      CG2R61     CG2R61
   23    55	 1 ;      CG2R61      HGR61
   24    25	 1 ;      CG2R61     CG2R61
   24    56	 1 ;      CG2R61      HGR61
   25    57	 1 ;      CG2R61      HGR61
   26    27	 1 ;       CG311      CG321
   26    31	 1 ;       CG311      CG311
   26    58	 1 ;       CG311       HGA1
   27    28	 1 ;       CG321      CG311
   27    59	 1 ;       CG321       HGA2
   27    60	 1 ;       CG321       HGA2
   28    29	 1 ;       CG311      CG331
   28    30	 1 ;       CG311      CG331
   28    61	 1 ;       CG311       HGA1
   29    62	 1 ;       CG331       HGA3
   29    63	 1 ;       CG331       HGA3
   29    64	 1 ;       CG331       HGA3
   30    65	 1 ;       CG331       HGA3
   30    66	 1 ;       CG331       HGA3
   30    67	 1 ;       CG331       HGA3
   31    34	 1 ;       CG311      CG321
   31    32	 1 ;       CG311      OG311
   31    68	 1 ;       CG311       HGA1
   32    33	 1 ;       OG311       HGP1
   34    35	 1 ;       CG321      CG311
   34    69	 1 ;       CG321       HGA2
   34    70	 1 ;       CG321       HGA2
   35    36	 1 ;       CG311      CG331
   35    37	 1 ;       CG311      CG2O1
   35    71	 1 ;       CG311       HGA1
   36    72	 1 ;       CG331       HGA3
   36    73	 1 ;       CG331       HGA3
   36    74	 1 ;       CG331       HGA3
   37    38	 1 ;       CG2O1      OG2D1
   37    39	 1 ;       CG2O1      NG2S1
   39    40	 1 ;       NG2S1       HGP1
   39    41	 1 ;       NG2S1      CG321
   41    42	 1 ;       CG321      CG311
   41    75	 1 ;       CG321       HGA2
   41    76	 1 ;       CG321       HGA2
   42    43	 1 ;       CG311      CG331
   42    44	 1 ;       CG311      CG331
   42    77	 1 ;       CG311       HGA1
   43    78	 1 ;       CG331       HGA3
   43    79	 1 ;       CG331       HGA3
   43    80	 1 ;       CG331       HGA3
   44    81	 1 ;       CG331       HGA3
   44    82	 1 ;       CG331       HGA3
   44    83	 1 ;       CG331       HGA3

[ pairs ]
;	ai	  aj funct			  c0			c1			  c2			c3
    1    27	 1
    1    31	 1
    1    58	 1
    1    20	 1
    1    51	 1
    1    52	 1
    1     7	 1
    1     9	 1
    2    26	 1
    2     4	 1
    2    19	 1
    2     6	 1
    2    45	 1
    3    19	 1
    3     6	 1
    3    45	 1
    3    28	 1
    3    59	 1
    3    60	 1
    3    34	 1
    3    32	 1
    3    68	 1
    4     5	 1
    4    27	 1
    4    31	 1
    4    58	 1
    5    26	 1
    5     8	 1
    5    10	 1
    5    21	 1
    5    25	 1
    6    20	 1
    6    51	 1
    6    52	 1
    6    18	 1
    6    11	 1
    7    19	 1
    7    45	 1
    7    17	 1
    7    50	 1
    7    12	 1
    7    46	 1
    8     9	 1
    8    18	 1
    8    11	 1
    9    19	 1
    9    45	 1
    9    10	 1
   10    14	 1
   10    13	 1
   10    49	 1
   11    17	 1
   11    50	 1
   11    16	 1
   11    15	 1
   12    18	 1
   12    47	 1
   12    48	 1
   12    49	 1
   13    46	 1
   13    17	 1
   14    46	 1
   14    47	 1
   14    48	 1
   14    50	 1
   15    17	 1
   16    18	 1
   16    49	 1
   18    46	 1
   19    22	 1
   19    53	 1
   19    24	 1
   19    57	 1
   20    45	 1
   20    23	 1
   20    54	 1
   20    56	 1
   21    51	 1
   21    52	 1
   21    24	 1
   21    57	 1
   21    55	 1
   22    25	 1
   22    56	 1
   23    53	 1
   23    57	 1
   24    54	 1
   25    51	 1
   25    52	 1
   25    53	 1
   25    55	 1
   26    29	 1
   26    30	 1
   26    61	 1
   26    35	 1
   26    69	 1
   26    70	 1
   26    33	 1
   27    34	 1
   27    32	 1
   27    68	 1
   27    62	 1
   27    63	 1
   27    64	 1
   27    65	 1
   27    66	 1
   27    67	 1
   28    31	 1
   28    58	 1
   29    59	 1
   29    60	 1
   29    65	 1
   29    66	 1
   29    67	 1
   30    59	 1
   30    60	 1
   30    62	 1
   30    63	 1
   30    64	 1
   31    59	 1
   31    60	 1
   31    36	 1
   31    37	 1
   31    71	 1
   32    58	 1
   32    35	 1
   32    69	 1
   32    70	 1
   33    34	 1
   33    68	 1
   34    58	 1
   34    72	 1
   34    73	 1
   34    74	 1
   34    38	 1
   34    39	 1
   35    68	 1
   35    40	 1
   35    41	 1
   36    69	 1
   36    70	 1
   36    38	 1
   36    39	 1
   37    69	 1
   37    70	 1
   37    72	 1
   37    73	 1
   37    74	 1
   37    42	 1
   37    75	 1
   37    76	 1
   38    71	 1
   38    40	 1
   38    41	 1
   39    71	 1
   39    43	 1
   39    44	 1
   39    77	 1
   40    42	 1
   40    75	 1
   40    76	 1
   41    78	 1
   41    79	 1
   41    80	 1
   41    81	 1
   41    82	 1
   41    83	 1
   43    75	 1
   43    76	 1
   43    81	 1
   43    82	 1
   43    83	 1
   44    75	 1
   44    76	 1
   44    78	 1
   44    79	 1
   44    80	 1
   45    51	 1
   45    52	 1
   49    50	 1
   53    54	 1
   54    55	 1
   55    56	 1
   56    57	 1
   58    59	 1
   58    60	 1
   58    68	 1
   59    61	 1
   60    61	 1
   61    62	 1
   61    63	 1
   61    64	 1
   61    65	 1
   61    66	 1
   61    67	 1
   68    69	 1
   68    70	 1
   69    71	 1
   70    71	 1
   71    72	 1
   71    73	 1
   71    74	 1
   75    77	 1
   76    77	 1
   77    78	 1
   77    79	 1
   77    80	 1
   77    81	 1
   77    82	 1
   77    83	 1

[ angles ]
;	ai	  aj	ak funct			c0			  c1			c2			  c3
    3     1     2	5 ;      NG2S1      CG2O1      OG2D1
    3     1     5	5 ;      NG2S1      CG2O1      CG311
    2     1     5	5 ;      OG2D1      CG2O1      CG311
   26     3     4	5 ;      CG311      NG2S1       HGP1
   26     3     1	5 ;      CG311      NG2S1      CG2O1
    4     3     1	5 ;       HGP1      NG2S1      CG2O1
    1     5    19	5 ;      CG2O1      CG311      CG321
    1     5     6	5 ;      CG2O1      CG311      NG2S1
    1     5    45	5 ;      CG2O1      CG311       HGA1
   19     5     6	5 ;      CG321      CG311      NG2S1
   19     5    45	5 ;      CG321      CG311       HGA1
    6     5    45	5 ;      NG2S1      CG311       HGA1
    5     6     7	5 ;      CG311      NG2S1      CG2O1
    5     6     9	5 ;      CG311      NG2S1       HGP1
    7     6     9	5 ;      CG2O1      NG2S1       HGP1
    8     7     6	5 ;      OG2D1      CG2O1      NG2S1
    8     7    10	5 ;      OG2D1      CG2O1     CG2R61
    6     7    10	5 ;      NG2S1      CG2O1     CG2R61
    7    10    18	5 ;      CG2O1     CG2R61     CG2R61
    7    10    11	5 ;      CG2O1     CG2R61     CG2R61
   18    10    11	5 ;     CG2R61     CG2R61     CG2R61
   10    11    12	5 ;     CG2R61     CG2R61     CG2RC0
   10    11    46	5 ;     CG2R61     CG2R61      HGR61
   12    11    46	5 ;     CG2RC0     CG2R61      HGR61
   11    12    14	5 ;     CG2R61     CG2RC0     CG2RC0
   11    12    13	5 ;     CG2R61     CG2RC0     OG3C51
   14    12    13	5 ;     CG2RC0     CG2RC0     OG3C51
   12    13    15	5 ;     CG2RC0     OG3C51     CG3C52
   17    14    12	5 ;     CG2R61     CG2RC0     CG2RC0
   17    14    16	5 ;     CG2R61     CG2RC0     OG3C51
   12    14    16	5 ;     CG2RC0     CG2RC0     OG3C51
   16    15    13	5 ;     OG3C51     CG3C52     OG3C51
   16    15    47	5 ;     OG3C51     CG3C52       HGA2
   16    15    48	5 ;     OG3C51     CG3C52       HGA2
   13    15    47	5 ;     OG3C51     CG3C52       HGA2
   13    15    48	5 ;     OG3C51     CG3C52       HGA2
   47    15    48	5 ;       HGA2     CG3C52       HGA2
   14    16    15	5 ;     CG2RC0     OG3C51     CG3C52
   18    17    14	5 ;     CG2R61     CG2R61     CG2RC0
   18    17    49	5 ;     CG2R61     CG2R61      HGR61
   14    17    49	5 ;     CG2RC0     CG2R61      HGR61
   10    18    17	5 ;     CG2R61     CG2R61     CG2R61
   10    18    50	5 ;     CG2R61     CG2R61      HGR61
   17    18    50	5 ;     CG2R61     CG2R61      HGR61
   20    19     5	5 ;     CG2R61      CG321      CG311
   20    19    51	5 ;     CG2R61      CG321       HGA2
   20    19    52	5 ;     CG2R61      CG321       HGA2
    5    19    51	5 ;      CG311      CG321       HGA2
    5    19    52	5 ;      CG311      CG321       HGA2
   51    19    52	5 ;       HGA2      CG321       HGA2
   21    20    19	5 ;     CG2R61     CG2R61      CG321
   21    20    25	5 ;     CG2R61     CG2R61     CG2R61
   19    20    25	5 ;      CG321     CG2R61     CG2R61
   22    21    20	5 ;     CG2R61     CG2R61     CG2R61
   22    21    53	5 ;     CG2R61     CG2R61      HGR61
   20    21    53	5 ;     CG2R61     CG2R61      HGR61
   21    22    23	5 ;     CG2R61     CG2R61     CG2R61
   21    22    54	5 ;     CG2R61     CG2R61      HGR61
   23    22    54	5 ;     CG2R61     CG2R61      HGR61
   22    23    24	5 ;     CG2R61     CG2R61     CG2R61
   22    23    55	5 ;     CG2R61     CG2R61      HGR61
   24    23    55	5 ;     CG2R61     CG2R61      HGR61
   23    24    25	5 ;     CG2R61     CG2R61     CG2R61
   23    24    56	5 ;     CG2R61     CG2R61      HGR61
   25    24    56	5 ;     CG2R61     CG2R61      HGR61
   20    25    24	5 ;     CG2R61     CG2R61     CG2R61
   20    25    57	5 ;     CG2R61     CG2R61      HGR61
   24    25    57	5 ;     CG2R61     CG2R61      HGR61
   27    26    31	5 ;      CG321      CG311      CG311
   27    26     3	5 ;      CG321      CG311      NG2S1
   27    26    58	5 ;      CG321      CG311       HGA1
   31    26     3	5 ;      CG311      CG311      NG2S1
   31    26    58	5 ;      CG311      CG311       HGA1
    3    26    58	5 ;      NG2S1      CG311       HGA1
   28    27    26	5 ;      CG311      CG321      CG311
   28    27    59	5 ;      CG311      CG321       HGA2
   28    27    60	5 ;      CG311      CG321       HGA2
   26    27    59	5 ;      CG311      CG321       HGA2
   26    27    60	5 ;      CG311      CG321       HGA2
   59    27    60	5 ;       HGA2      CG321       HGA2
   29    28    27	5 ;      CG331      CG311      CG321
   29    28    30	5 ;      CG331      CG311      CG331
   29    28    61	5 ;      CG331      CG311       HGA1
   27    28    30	5 ;      CG321      CG311      CG331
   27    28    61	5 ;      CG321      CG311       HGA1
   30    28    61	5 ;      CG331      CG311       HGA1
   28    29    62	5 ;      CG311      CG331       HGA3
   28    29    63	5 ;      CG311      CG331       HGA3
   28    29    64	5 ;      CG311      CG331       HGA3
   62    29    63	5 ;       HGA3      CG331       HGA3
   62    29    64	5 ;       HGA3      CG331       HGA3
   63    29    64	5 ;       HGA3      CG331       HGA3
   28    30    65	5 ;      CG311      CG331       HGA3
   28    30    66	5 ;      CG311      CG331       HGA3
   28    30    67	5 ;      CG311      CG331       HGA3
   65    30    66	5 ;       HGA3      CG331       HGA3
   65    30    67	5 ;       HGA3      CG331       HGA3
   66    30    67	5 ;       HGA3      CG331       HGA3
   34    31    26	5 ;      CG321      CG311      CG311
   34    31    32	5 ;      CG321      CG311      OG311
   34    31    68	5 ;      CG321      CG311       HGA1
   26    31    32	5 ;      CG311      CG311      OG311
   26    31    68	5 ;      CG311      CG311       HGA1
   32    31    68	5 ;      OG311      CG311       HGA1
   31    32    33	5 ;      CG311      OG311       HGP1
   35    34    31	5 ;      CG311      CG321      CG311
   35    34    69	5 ;      CG311      CG321       HGA2
   35    34    70	5 ;      CG311      CG321       HGA2
   31    34    69	5 ;      CG311      CG321       HGA2
   31    34    70	5 ;      CG311      CG321       HGA2
   69    34    70	5 ;       HGA2      CG321       HGA2
   36    35    34	5 ;      CG331      CG311      CG321
   36    35    37	5 ;      CG331      CG311      CG2O1
   36    35    71	5 ;      CG331      CG311       HGA1
   34    35    37	5 ;      CG321      CG311      CG2O1
   34    35    71	5 ;      CG321      CG311       HGA1
   37    35    71	5 ;      CG2O1      CG311       HGA1
   35    36    72	5 ;      CG311      CG331       HGA3
   35    36    73	5 ;      CG311      CG331       HGA3
   35    36    74	5 ;      CG311      CG331       HGA3
   72    36    73	5 ;       HGA3      CG331       HGA3
   72    36    74	5 ;       HGA3      CG331       HGA3
   73    36    74	5 ;       HGA3      CG331       HGA3
   35    37    38	5 ;      CG311      CG2O1      OG2D1
   35    37    39	5 ;      CG311      CG2O1      NG2S1
   38    37    39	5 ;      OG2D1      CG2O1      NG2S1
   37    39    40	5 ;      CG2O1      NG2S1       HGP1
   37    39    41	5 ;      CG2O1      NG2S1      CG321
   40    39    41	5 ;       HGP1      NG2S1      CG321
   39    41    42	5 ;      NG2S1      CG321      CG311
   39    41    75	5 ;      NG2S1      CG321       HGA2
   39    41    76	5 ;      NG2S1      CG321       HGA2
   42    41    75	5 ;      CG311      CG321       HGA2
   42    41    76	5 ;      CG311      CG321       HGA2
   75    41    76	5 ;       HGA2      CG321       HGA2
   41    42    43	5 ;      CG321      CG311      CG331
   41    42    44	5 ;      CG321      CG311      CG331
   41    42    77	5 ;      CG321      CG311       HGA1
   43    42    44	5 ;      CG331      CG311      CG331
   43    42    77	5 ;      CG331      CG311       HGA1
   44    42    77	5 ;      CG331      CG311       HGA1
   42    43    78	5 ;      CG311      CG331       HGA3
   42    43    79	5 ;      CG311      CG331       HGA3
   42    43    80	5 ;      CG311      CG331       HGA3
   78    43    79	5 ;       HGA3      CG331       HGA3
   78    43    80	5 ;       HGA3      CG331       HGA3
   79    43    80	5 ;       HGA3      CG331       HGA3
   42    44    81	5 ;      CG311      CG331       HGA3
   42    44    82	5 ;      CG311      CG331       HGA3
   42    44    83	5 ;      CG311      CG331       HGA3
   81    44    82	5 ;       HGA3      CG331       HGA3
   81    44    83	5 ;       HGA3      CG331       HGA3
   82    44    83	5 ;       HGA3      CG331       HGA3

[ dihedrals ]
;	ai	  aj	ak	  al funct			  c0			c1			  c2			c3			  c4			c5
    2     1     3    26	 9 ;      OG2D1      CG2O1      NG2S1      CG311
    2     1     3     4	 9 ;      OG2D1      CG2O1      NG2S1       HGP1
    5     1     3    26	 9 ;      CG311      CG2O1      NG2S1      CG311
    5     1     3     4	 9 ;      CG311      CG2O1      NG2S1       HGP1
    3     1     5    19	 9 ;      NG2S1      CG2O1      CG311      CG321
    3     1     5     6	 9 ;      NG2S1      CG2O1      CG311      NG2S1
    3     1     5    45	 9 ;      NG2S1      CG2O1      CG311       HGA1
    2     1     5    19	 9 ;      OG2D1      CG2O1      CG311      CG321
    2     1     5     6	 9 ;      OG2D1      CG2O1      CG311      NG2S1
    2     1     5    45	 9 ;      OG2D1      CG2O1      CG311       HGA1
    4     3    26    27	 9 ;       HGP1      NG2S1      CG311      CG321
    4     3    26    31	 9 ;       HGP1      NG2S1      CG311      CG311
    4     3    26    58	 9 ;       HGP1      NG2S1      CG311       HGA1
    1     3    26    27	 9 ;      CG2O1      NG2S1      CG311      CG321
    1     3    26    31	 9 ;      CG2O1      NG2S1      CG311      CG311
    1     3    26    58	 9 ;      CG2O1      NG2S1      CG311       HGA1
    1     5    19    20	 9 ;      CG2O1      CG311      CG321     CG2R61
    1     5    19    51	 9 ;      CG2O1      CG311      CG321       HGA2
    1     5    19    52	 9 ;      CG2O1      CG311      CG321       HGA2
    6     5    19    20	 9 ;      NG2S1      CG311      CG321     CG2R61
    6     5    19    51	 9 ;      NG2S1      CG311      CG321       HGA2
    6     5    19    52	 9 ;      NG2S1      CG311      CG321       HGA2
   45     5    19    20	 9 ;       HGA1      CG311      CG321     CG2R61
   45     5    19    51	 9 ;       HGA1      CG311      CG321       HGA2
   45     5    19    52	 9 ;       HGA1      CG311      CG321       HGA2
    1     5     6     7	 9 ;      CG2O1      CG311      NG2S1      CG2O1
    1     5     6     9	 9 ;      CG2O1      CG311      NG2S1       HGP1
   19     5     6     7	 9 ;      CG321      CG311      NG2S1      CG2O1
   19     5     6     9	 9 ;      CG321      CG311      NG2S1       HGP1
   45     5     6     7	 9 ;       HGA1      CG311      NG2S1      CG2O1
   45     5     6     9	 9 ;       HGA1      CG311      NG2S1       HGP1
    5     6     7     8	 9 ;      CG311      NG2S1      CG2O1      OG2D1
    5     6     7    10	 9 ;      CG311      NG2S1      CG2O1     CG2R61
    9     6     7     8	 9 ;       HGP1      NG2S1      CG2O1      OG2D1
    9     6     7    10	 9 ;       HGP1      NG2S1      CG2O1     CG2R61
    8     7    10    18	 9 ;      OG2D1      CG2O1     CG2R61     CG2R61
    8     7    10    11	 9 ;      OG2D1      CG2O1     CG2R61     CG2R61
    6     7    10    18	 9 ;      NG2S1      CG2O1     CG2R61     CG2R61
    6     7    10    11	 9 ;      NG2S1      CG2O1     CG2R61     CG2R61
    7    10    18    17	 9 ;      CG2O1     CG2R61     CG2R61     CG2R61
    7    10    18    50	 9 ;      CG2O1     CG2R61     CG2R61      HGR61
   11    10    18    17	 9 ;     CG2R61     CG2R61     CG2R61     CG2R61
   11    10    18    50	 9 ;     CG2R61     CG2R61     CG2R61      HGR61
    7    10    11    12	 9 ;      CG2O1     CG2R61     CG2R61     CG2RC0
    7    10    11    46	 9 ;      CG2O1     CG2R61     CG2R61      HGR61
   18    10    11    12	 9 ;     CG2R61     CG2R61     CG2R61     CG2RC0
   18    10    11    46	 9 ;     CG2R61     CG2R61     CG2R61      HGR61
   10    11    12    14	 9 ;     CG2R61     CG2R61     CG2RC0     CG2RC0
   10    11    12    13	 9 ;     CG2R61     CG2R61     CG2RC0     OG3C51
   46    11    12    14	 9 ;      HGR61     CG2R61     CG2RC0     CG2RC0
   46    11    12    13	 9 ;      HGR61     CG2R61     CG2RC0     OG3C51
   11    12    14    17	 9 ;     CG2R61     CG2RC0     CG2RC0     CG2R61
   11    12    14    16	 9 ;     CG2R61     CG2RC0     CG2RC0     OG3C51
   13    12    14    17	 9 ;     OG3C51     CG2RC0     CG2RC0     CG2R61
   13    12    14    16	 9 ;     OG3C51     CG2RC0     CG2RC0     OG3C51
   11    12    13    15	 9 ;     CG2R61     CG2RC0     OG3C51     CG3C52
   14    12    13    15	 9 ;     CG2RC0     CG2RC0     OG3C51     CG3C52
   12    13    15    16	 9 ;     CG2RC0     OG3C51     CG3C52     OG3C51
   12    13    15    47	 9 ;     CG2RC0     OG3C51     CG3C52       HGA2
   12    13    15    48	 9 ;     CG2RC0     OG3C51     CG3C52       HGA2
   12    14    17    18	 9 ;     CG2RC0     CG2RC0     CG2R61     CG2R61
   12    14    17    49	 9 ;     CG2RC0     CG2RC0     CG2R61      HGR61
   16    14    17    18	 9 ;     OG3C51     CG2RC0     CG2R61     CG2R61
   16    14    17    49	 9 ;     OG3C51     CG2RC0     CG2R61      HGR61
   17    14    16    15	 9 ;     CG2R61     CG2RC0     OG3C51     CG3C52
   12    14    16    15	 9 ;     CG2RC0     CG2RC0     OG3C51     CG3C52
   13    15    16    14	 9 ;     OG3C51     CG3C52     OG3C51     CG2RC0
   47    15    16    14	 9 ;       HGA2     CG3C52     OG3C51     CG2RC0
   48    15    16    14	 9 ;       HGA2     CG3C52     OG3C51     CG2RC0
   14    17    18    10	 9 ;     CG2RC0     CG2R61     CG2R61     CG2R61
   14    17    18    50	 9 ;     CG2RC0     CG2R61     CG2R61      HGR61
   49    17    18    10	 9 ;      HGR61     CG2R61     CG2R61     CG2R61
   49    17    18    50	 9 ;      HGR61     CG2R61     CG2R61      HGR61
    5    19    20    21	 9 ;      CG311      CG321     CG2R61     CG2R61
    5    19    20    25	 9 ;      CG311      CG321     CG2R61     CG2R61
   51    19    20    21	 9 ;       HGA2      CG321     CG2R61     CG2R61
   51    19    20    25	 9 ;       HGA2      CG321     CG2R61     CG2R61
   52    19    20    21	 9 ;       HGA2      CG321     CG2R61     CG2R61
   52    19    20    25	 9 ;       HGA2      CG321     CG2R61     CG2R61
   19    20    21    22	 9 ;      CG321     CG2R61     CG2R61     CG2R61
   19    20    21    53	 9 ;      CG321     CG2R61     CG2R61      HGR61
   25    20    21    22	 9 ;     CG2R61     CG2R61     CG2R61     CG2R61
   25    20    21    53	 9 ;     CG2R61     CG2R61     CG2R61      HGR61
   21    20    25    24	 9 ;     CG2R61     CG2R61     CG2R61     CG2R61
   21    20    25    57	 9 ;     CG2R61     CG2R61     CG2R61      HGR61
   19    20    25    24	 9 ;      CG321     CG2R61     CG2R61     CG2R61
   19    20    25    57	 9 ;      CG321     CG2R61     CG2R61      HGR61
   20    21    22    23	 9 ;     CG2R61     CG2R61     CG2R61     CG2R61
   20    21    22    54	 9 ;     CG2R61     CG2R61     CG2R61      HGR61
   53    21    22    23	 9 ;      HGR61     CG2R61     CG2R61     CG2R61
   53    21    22    54	 9 ;      HGR61     CG2R61     CG2R61      HGR61
   21    22    23    24	 9 ;     CG2R61     CG2R61     CG2R61     CG2R61
   21    22    23    55	 9 ;     CG2R61     CG2R61     CG2R61      HGR61
   54    22    23    24	 9 ;      HGR61     CG2R61     CG2R61     CG2R61
   54    22    23    55	 9 ;      HGR61     CG2R61     CG2R61      HGR61
   22    23    24    25	 9 ;     CG2R61     CG2R61     CG2R61     CG2R61
   22    23    24    56	 9 ;     CG2R61     CG2R61     CG2R61      HGR61
   55    23    24    25	 9 ;      HGR61     CG2R61     CG2R61     CG2R61
   55    23    24    56	 9 ;      HGR61     CG2R61     CG2R61      HGR61
   23    24    25    20	 9 ;     CG2R61     CG2R61     CG2R61     CG2R61
   23    24    25    57	 9 ;     CG2R61     CG2R61     CG2R61      HGR61
   56    24    25    20	 9 ;      HGR61     CG2R61     CG2R61     CG2R61
   56    24    25    57	 9 ;      HGR61     CG2R61     CG2R61      HGR61
   31    26    27    28	 9 ;      CG311      CG311      CG321      CG311
   31    26    27    59	 9 ;      CG311      CG311      CG321       HGA2
   31    26    27    60	 9 ;      CG311      CG311      CG321       HGA2
    3    26    27    28	 9 ;      NG2S1      CG311      CG321      CG311
    3    26    27    59	 9 ;      NG2S1      CG311      CG321       HGA2
    3    26    27    60	 9 ;      NG2S1      CG311      CG321       HGA2
   58    26    27    28	 9 ;       HGA1      CG311      CG321      CG311
   58    26    27    59	 9 ;       HGA1      CG311      CG321       HGA2
   58    26    27    60	 9 ;       HGA1      CG311      CG321       HGA2
   27    26    31    34	 9 ;      CG321      CG311      CG311      CG321
   27    26    31    32	 9 ;      CG321      CG311      CG311      OG311
   27    26    31    68	 9 ;      CG321      CG311      CG311       HGA1
    3    26    31    34	 9 ;      NG2S1      CG311      CG311      CG321
    3    26    31    32	 9 ;      NG2S1      CG311      CG311      OG311
    3    26    31    68	 9 ;      NG2S1      CG311      CG311       HGA1
   58    26    31    34	 9 ;       HGA1      CG311      CG311      CG321
   58    26    31    32	 9 ;       HGA1      CG311      CG311      OG311
   58    26    31    68	 9 ;       HGA1      CG311      CG311       HGA1
   26    27    28    29	 9 ;      CG311      CG321      CG311      CG331
   26    27    28    30	 9 ;      CG311      CG321      CG311      CG331
   26    27    28    61	 9 ;      CG311      CG321      CG311       HGA1
   59    27    28    29	 9 ;       HGA2      CG321      CG311      CG331
   59    27    28    30	 9 ;       HGA2      CG321      CG311      CG331
   59    27    28    61	 9 ;       HGA2      CG321      CG311       HGA1
   60    27    28    29	 9 ;       HGA2      CG321      CG311      CG331
   60    27    28    30	 9 ;       HGA2      CG321      CG311      CG331
   60    27    28    61	 9 ;       HGA2      CG321      CG311       HGA1
   27    28    29    62	 9 ;      CG321      CG311      CG331       HGA3
   27    28    29    63	 9 ;      CG321      CG311      CG331       HGA3
   27    28    29    64	 9 ;      CG321      CG311      CG331       HGA3
   30    28    29    62	 9 ;      CG331      CG311      CG331       HGA3
   30    28    29    63	 9 ;      CG331      CG311      CG331       HGA3
   30    28    29    64	 9 ;      CG331      CG311      CG331       HGA3
   61    28    29    62	 9 ;       HGA1      CG311      CG331       HGA3
   61    28    29    63	 9 ;       HGA1      CG311      CG331       HGA3
   61    28    29    64	 9 ;       HGA1      CG311      CG331       HGA3
   29    28    30    65	 9 ;      CG331      CG311      CG331       HGA3
   29    28    30    66	 9 ;      CG331      CG311      CG331       HGA3
   29    28    30    67	 9 ;      CG331      CG311      CG331       HGA3
   27    28    30    65	 9 ;      CG321      CG311      CG331       HGA3
   27    28    30    66	 9 ;      CG321      CG311      CG331       HGA3
   27    28    30    67	 9 ;      CG321      CG311      CG331       HGA3
   61    28    30    65	 9 ;       HGA1      CG311      CG331       HGA3
   61    28    30    66	 9 ;       HGA1      CG311      CG331       HGA3
   61    28    30    67	 9 ;       HGA1      CG311      CG331       HGA3
   26    31    34    35	 9 ;      CG311      CG311      CG321      CG311
   26    31    34    69	 9 ;      CG311      CG311      CG321       HGA2
   26    31    34    70	 9 ;      CG311      CG311      CG321       HGA2
   32    31    34    35	 9 ;      OG311      CG311      CG321      CG311
   32    31    34    69	 9 ;      OG311      CG311      CG321       HGA2
   32    31    34    70	 9 ;      OG311      CG311      CG321       HGA2
   68    31    34    35	 9 ;       HGA1      CG311      CG321      CG311
   68    31    34    69	 9 ;       HGA1      CG311      CG321       HGA2
   68    31    34    70	 9 ;       HGA1      CG311      CG321       HGA2
   34    31    32    33	 9 ;      CG321      CG311      OG311       HGP1
   26    31    32    33	 9 ;      CG311      CG311      OG311       HGP1
   68    31    32    33	 9 ;       HGA1      CG311      OG311       HGP1
   31    34    35    36	 9 ;      CG311      CG321      CG311      CG331
   31    34    35    37	 9 ;      CG311      CG321      CG311      CG2O1
   31    34    35    71	 9 ;      CG311      CG321      CG311       HGA1
   69    34    35    36	 9 ;       HGA2      CG321      CG311      CG331
   69    34    35    37	 9 ;       HGA2      CG321      CG311      CG2O1
   69    34    35    71	 9 ;       HGA2      CG321      CG311       HGA1
   70    34    35    36	 9 ;       HGA2      CG321      CG311      CG331
   70    34    35    37	 9 ;       HGA2      CG321      CG311      CG2O1
   70    34    35    71	 9 ;       HGA2      CG321      CG311       HGA1
   34    35    36    72	 9 ;      CG321      CG311      CG331       HGA3
   34    35    36    73	 9 ;      CG321      CG311      CG331       HGA3
   34    35    36    74	 9 ;      CG321      CG311      CG331       HGA3
   37    35    36    72	 9 ;      CG2O1      CG311      CG331       HGA3
   37    35    36    73	 9 ;      CG2O1      CG311      CG331       HGA3
   37    35    36    74	 9 ;      CG2O1      CG311      CG331       HGA3
   71    35    36    72	 9 ;       HGA1      CG311      CG331       HGA3
   71    35    36    73	 9 ;       HGA1      CG311      CG331       HGA3
   71    35    36    74	 9 ;       HGA1      CG311      CG331       HGA3
   36    35    37    38	 9 ;      CG331      CG311      CG2O1      OG2D1
   36    35    37    39	 9 ;      CG331      CG311      CG2O1      NG2S1
   34    35    37    38	 9 ;      CG321      CG311      CG2O1      OG2D1
   34    35    37    39	 9 ;      CG321      CG311      CG2O1      NG2S1
   71    35    37    38	 9 ;       HGA1      CG311      CG2O1      OG2D1
   71    35    37    39	 9 ;       HGA1      CG311      CG2O1      NG2S1
   35    37    39    40	 9 ;      CG311      CG2O1      NG2S1       HGP1
   35    37    39    41	 9 ;      CG311      CG2O1      NG2S1      CG321
   38    37    39    40	 9 ;      OG2D1      CG2O1      NG2S1       HGP1
   38    37    39    41	 9 ;      OG2D1      CG2O1      NG2S1      CG321
   37    39    41    42	 9 ;      CG2O1      NG2S1      CG321      CG311
   37    39    41    75	 9 ;      CG2O1      NG2S1      CG321       HGA2
   37    39    41    76	 9 ;      CG2O1      NG2S1      CG321       HGA2
   40    39    41    42	 9 ;       HGP1      NG2S1      CG321      CG311
   40    39    41    75	 9 ;       HGP1      NG2S1      CG321       HGA2
   40    39    41    76	 9 ;       HGP1      NG2S1      CG321       HGA2
   39    41    42    43	 9 ;      NG2S1      CG321      CG311      CG331
   39    41    42    44	 9 ;      NG2S1      CG321      CG311      CG331
   39    41    42    77	 9 ;      NG2S1      CG321      CG311       HGA1
   75    41    42    43	 9 ;       HGA2      CG321      CG311      CG331
   75    41    42    44	 9 ;       HGA2      CG321      CG311      CG331
   75    41    42    77	 9 ;       HGA2      CG321      CG311       HGA1
   76    41    42    43	 9 ;       HGA2      CG321      CG311      CG331
   76    41    42    44	 9 ;       HGA2      CG321      CG311      CG331
   76    41    42    77	 9 ;       HGA2      CG321      CG311       HGA1
   41    42    43    78	 9 ;      CG321      CG311      CG331       HGA3
   41    42    43    79	 9 ;      CG321      CG311      CG331       HGA3
   41    42    43    80	 9 ;      CG321      CG311      CG331       HGA3
   44    42    43    78	 9 ;      CG331      CG311      CG331       HGA3
   44    42    43    79	 9 ;      CG331      CG311      CG331       HGA3
   44    42    43    80	 9 ;      CG331      CG311      CG331       HGA3
   77    42    43    78	 9 ;       HGA1      CG311      CG331       HGA3
   77    42    43    79	 9 ;       HGA1      CG311      CG331       HGA3
   77    42    43    80	 9 ;       HGA1      CG311      CG331       HGA3
   41    42    44    81	 9 ;      CG321      CG311      CG331       HGA3
   41    42    44    82	 9 ;      CG321      CG311      CG331       HGA3
   41    42    44    83	 9 ;      CG321      CG311      CG331       HGA3
   43    42    44    81	 9 ;      CG331      CG311      CG331       HGA3
   43    42    44    82	 9 ;      CG331      CG311      CG331       HGA3
   43    42    44    83	 9 ;      CG331      CG311      CG331       HGA3
   77    42    44    81	 9 ;       HGA1      CG311      CG331       HGA3
   77    42    44    82	 9 ;       HGA1      CG311      CG331       HGA3
   77    42    44    83	 9 ;       HGA1      CG311      CG331       HGA3

[ dihedrals ]
;	ai	  aj	ak	  al funct			  c0			c1			  c2			c3
    1     5     3     2	 2
    7    10     6     8	 2
   37    35    39    38	 2

