Gromacs Runs One Microsecond At Cannonball Speeds
   87
    1LIG     N1    1  -1.333   0.419  -1.607
    1LIG     C1    2  -1.454   0.362  -1.586
    1LIG     O1    3  -1.465   0.241  -1.568
    1LIG     H1    4  -1.315   0.501  -1.552
    1LIG     C2    5  -1.208   0.354  -1.650
    1LIG     C3    6  -1.098   0.449  -1.703
    1LIG     C4    7  -1.145   0.587  -1.751
    1LIG     N2    8  -1.245   0.569  -1.856
    1LIG     H2    9  -1.323   0.508  -1.833
    1LIG     C5   10  -1.228   0.607  -1.988
    1LIG     C6   11  -1.142   0.713  -2.016
    1LIG     C7   12  -1.119   0.754  -2.147
    1LIG      F   13  -1.037   0.857  -2.170
    1LIG     C8   14  -1.180   0.689  -2.254
    1LIG     C9   15  -1.266   0.582  -2.228
    1LIG    C10   16  -1.289   0.542  -2.096
    1LIG     O2   17  -0.995   0.465  -1.603
    1LIG     H3   18  -1.010   0.555  -1.566
    1LIG    C11   19  -1.231   0.236  -1.746
    1LIG    C12   20  -1.142   0.117  -1.719
    1LIG    C13   21  -1.008   0.120  -1.760
    1LIG    C14   22  -0.922   0.017  -1.725
    1LIG    C15   23  -0.968  -0.090  -1.649
    1LIG    C16   24  -1.103  -0.097  -1.613
    1LIG    C17   25  -1.190   0.006  -1.649
    1LIG    C18   26  -1.574   0.457  -1.574
    1LIG    C19   27  -1.592   0.530  -1.438
    1LIG    C20   28  -1.725   0.611  -1.429
    1LIG    C21   29  -1.796   0.638  -1.543
    1LIG     N3   30  -1.753   0.588  -1.668
    1LIG    C22   31  -1.927   0.715  -1.546
    1LIG    C23   32  -1.662   0.480  -1.676
    1LIG    C24   33  -1.674   0.396  -1.802
    1LIG    C25   34  -1.570   0.438  -1.313
    1LIG    C26   35  -1.484   0.495  -1.201
    1LIG    C27   36  -1.550   0.467  -1.065
    1LIG    C28   37  -1.782   0.655  -1.296
    1LIG     O3   38  -1.749   0.763  -1.246
    1LIG    C29   39  -1.883   0.570  -1.222
    1LIG    C30   40  -1.781   0.665  -1.794
    1LIG    C31   41  -1.670   0.757  -1.843
    1LIG     O4   42  -1.601   0.731  -1.941
    1LIG     O5   43  -1.664   0.874  -1.774
    1LIG    C32   44  -1.557   0.902  -1.681
    1LIG    C33   45  -1.609   0.948  -1.546
    1LIG    C34   46  -1.456   0.788  -1.671
    1LIG     H4   47  -1.169   0.316  -1.559
    1LIG     H5   48  -1.060   0.400  -1.791
    1LIG     H6   49  -1.189   0.641  -1.669
    1LIG     H7   50  -1.062   0.643  -1.789
    1LIG     H8   51  -1.095   0.763  -1.938
    1LIG     H9   52  -1.163   0.720  -2.351
    1LIG    H10   53  -1.312   0.534  -2.306
    1LIG    H11   54  -1.352   0.462  -2.078
    1LIG    H12   55  -1.333   0.205  -1.736
    1LIG    H13   56  -1.207   0.271  -1.844
    1LIG    H14   57  -0.974   0.199  -1.817
    1LIG    H15   58  -0.823   0.020  -1.755
    1LIG    H16   59  -0.903  -0.165  -1.620
    1LIG    H17   60  -1.138  -0.178  -1.559
    1LIG    H18   61  -1.290  -0.000  -1.623
    1LIG    H19   62  -1.513   0.602  -1.434
    1LIG    H20   63  -1.962   0.722  -1.647
    1LIG    H21   64  -1.911   0.813  -1.507
    1LIG    H22   65  -2.000   0.664  -1.487
    1LIG    H23   66  -1.750   0.437  -1.865
    1LIG    H24   67  -1.700   0.295  -1.775
    1LIG    H25   68  -1.581   0.396  -1.854
    1LIG    H26   69  -1.523   0.348  -1.348
    1LIG    H27   70  -1.667   0.424  -1.271
    1LIG    H28   71  -1.474   0.600  -1.214
    1LIG    H29   72  -1.388   0.448  -1.203
    1LIG    H30   73  -1.646   0.514  -1.062
    1LIG    H31   74  -1.488   0.507  -0.987
    1LIG    H32   75  -1.561   0.362  -1.052
    1LIG    H33   76  -1.901   0.480  -1.277
    1LIG    H34   77  -1.974   0.625  -1.211
    1LIG    H35   78  -1.844   0.545  -1.125
    1LIG    H36   79  -1.802   0.595  -1.872
    1LIG    H37   80  -1.863   0.730  -1.771
    1LIG    H38   81  -1.502   0.985  -1.722
    1LIG    H39   82  -1.665   0.869  -1.500
    1LIG    H40   83  -1.672   1.034  -1.559
    1LIG    H41   84  -1.527   0.975  -1.483
    1LIG    H42   85  -1.504   0.701  -1.631
    1LIG    H43   86  -1.376   0.817  -1.607
    1LIG    H44   87  -1.418   0.766  -1.769
   0.00000   0.00000   0.00000
