; Created by cgenff_charmm2gmx.py

[ moleculetype ]
; Name			   nrexcl
LIG				 3

[ atoms ]
;	 nr		  type	resnr residue  atom   cgnr	   charge		mass  typeB    chargeB		massB
; residue	 1 LIG rtp LIG q	qsum
     1      NG2S1      1    LIG     N1      1     -0.347     14.007   ;
     2      CG2O1      1    LIG     C1      2      0.372     12.011   ;
     3      OG2D1      1    LIG     O1      3     -0.485     15.999   ;
     4       HGP1      1    LIG     H1      4      0.232      1.008   ;
     5      CG311      1    LIG     C2      5      0.003     12.011   ;
     6      CG311      1    LIG     C3      6      0.137     12.011   ;
     7      CG321      1    LIG     C4      7     -0.032     12.011   ;
     8      NG311      1    LIG     N2      8     -0.569     14.007   ;
     9     HGPAM1      1    LIG     H2      9      0.363      1.008   ;
    10     CG2R61      1    LIG     C5     10      0.090     12.011   ;
    11     CG2R61      1    LIG     C6     11     -0.162     12.011   ;
    12     CG2R66      1    LIG     C7     12      0.106     12.011   ;
    13       FGR1      1    LIG      F     13     -0.211     18.998   ;
    14     CG2R61      1    LIG     C8     14     -0.107     12.011   ;
    15     CG2R61      1    LIG     C9     15     -0.148     12.011   ;
    16     CG2R61      1    LIG    C10     16     -0.098     12.011   ;
    17      OG311      1    LIG     O2     17     -0.656     15.999   ;
    18       HGP1      1    LIG     H3     18      0.421      1.008   ;
    19      CG321      1    LIG    C11     19     -0.134     12.011   ;
    20     CG2R61      1    LIG    C12     20     -0.019     12.011   ;
    21     CG2R61      1    LIG    C13     21     -0.123     12.011   ;
    22     CG2R61      1    LIG    C14     22     -0.112     12.011   ;
    23     CG2R61      1    LIG    C15     23     -0.116     12.011   ;
    24     CG2R61      1    LIG    C16     24     -0.112     12.011   ;
    25     CG2R61      1    LIG    C17     25     -0.123     12.011   ;
    26     CG2DC1      1    LIG    C18     26      0.315     12.011   ;
    27      CG311      1    LIG    C19     27     -0.381     12.011   ;
    28     CG2DC1      1    LIG    C20     28      0.271     12.011   ;
    29     CG2D1O      1    LIG    C21     29      0.462     12.011   ;
    30      NG301      1    LIG     N3     30     -0.416     14.007   ;
    31      CG331      1    LIG    C22     31     -0.277     12.011   ;
    32     CG2D1O      1    LIG    C23     32      0.251     12.011   ;
    33      CG331      1    LIG    C24     33     -0.277     12.011   ;
    34      CG321      1    LIG    C25     34     -0.273     12.011   ;
    35      CG321      1    LIG    C26     35     -0.190     12.011   ;
    36      CG331      1    LIG    C27     36     -0.270     12.011   ;
    37      CG2O5      1    LIG    C28     37      0.010     12.011   ;
    38      OG2D3      1    LIG     O3     38     -0.503     15.999   ;
    39      CG331      1    LIG    C29     39     -0.234     12.011   ;
    40      CG321      1    LIG    C30     40     -0.138     12.011   ;
    41      CG2O2      1    LIG    C31     41      0.911     12.011   ;
    42      OG2D1      1    LIG     O4     42     -0.615     15.999   ;
    43      OG302      1    LIG     O5     43     -0.479     15.999   ;
    44      CG311      1    LIG    C32     44      0.165     12.011   ;
    45      CG331      1    LIG    C33     45     -0.273     12.011   ;
    46      CG331      1    LIG    C34     46     -0.273     12.011   ;
    47       HGA1      1    LIG     H4     47      0.090      1.008   ;
    48       HGA1      1    LIG     H5     48      0.090      1.008   ;
    49       HGA2      1    LIG     H6     49      0.090      1.008   ;
    50       HGA2      1    LIG     H7     50      0.090      1.008   ;
    51      HGR62      1    LIG     H8     51      0.173      1.008   ;
    52      HGR62      1    LIG     H9     52      0.179      1.008   ;
    53      HGR61      1    LIG    H10     53      0.116      1.008   ;
    54      HGR61      1    LIG    H11     54      0.116      1.008   ;
    55       HGA2      1    LIG    H12     55      0.090      1.008   ;
    56       HGA2      1    LIG    H13     56      0.090      1.008   ;
    57      HGR61      1    LIG    H14     57      0.116      1.008   ;
    58      HGR61      1    LIG    H15     58      0.116      1.008   ;
    59      HGR61      1    LIG    H16     59      0.116      1.008   ;
    60      HGR61      1    LIG    H17     60      0.116      1.008   ;
    61      HGR61      1    LIG    H18     61      0.116      1.008   ;
    62       HGA1      1    LIG    H19     62      0.090      1.008   ;
    63       HGA3      1    LIG    H20     63      0.090      1.008   ;
    64       HGA3      1    LIG    H21     64      0.090      1.008   ;
    65       HGA3      1    LIG    H22     65      0.090      1.008   ;
    66       HGA3      1    LIG    H23     66      0.090      1.008   ;
    67       HGA3      1    LIG    H24     67      0.090      1.008   ;
    68       HGA3      1    LIG    H25     68      0.090      1.008   ;
    69       HGA2      1    LIG    H26     69      0.090      1.008   ;
    70       HGA2      1    LIG    H27     70      0.090      1.008   ;
    71       HGA2      1    LIG    H28     71      0.090      1.008   ;
    72       HGA2      1    LIG    H29     72      0.090      1.008   ;
    73       HGA3      1    LIG    H30     73      0.090      1.008   ;
    74       HGA3      1    LIG    H31     74      0.090      1.008   ;
    75       HGA3      1    LIG    H32     75      0.090      1.008   ;
    76       HGA3      1    LIG    H33     76      0.090      1.008   ;
    77       HGA3      1    LIG    H34     77      0.090      1.008   ;
    78       HGA3      1    LIG    H35     78      0.090      1.008   ;
    79       HGA2      1    LIG    H36     79      0.090      1.008   ;
    80       HGA2      1    LIG    H37     80      0.090      1.008   ;
    81       HGA1      1    LIG    H38     81      0.090      1.008   ;
    82       HGA3      1    LIG    H39     82      0.090      1.008   ;
    83       HGA3      1    LIG    H40     83      0.090      1.008   ;
    84       HGA3      1    LIG    H41     84      0.090      1.008   ;
    85       HGA3      1    LIG    H42     85      0.090      1.008   ;
    86       HGA3      1    LIG    H43     86      0.090      1.008   ;
    87       HGA3      1    LIG    H44     87      0.090      1.008   ;

[ bonds ]
;	ai	  aj funct			  c0			c1			  c2			c3
    1     5	 1 ;       NG2S1      CG311
    1     2	 1 ;       NG2S1      CG2O1
    1     4	 1 ;       NG2S1       HGP1
    2    26	 1 ;       CG2O1     CG2DC1
    2     3	 1 ;       CG2O1      OG2D1
    5    19	 1 ;       CG311      CG321
    5     6	 1 ;       CG311      CG311
    5    47	 1 ;       CG311       HGA1
    6     7	 1 ;       CG311      CG321
    6    17	 1 ;       CG311      OG311
    6    48	 1 ;       CG311       HGA1
    7     8	 1 ;       CG321      NG311
    7    49	 1 ;       CG321       HGA2
    7    50	 1 ;       CG321       HGA2
    8    10	 1 ;       NG311     CG2R61
    8     9	 1 ;       NG311     HGPAM1
   10    16	 1 ;      CG2R61     CG2R61
   10    11	 1 ;      CG2R61     CG2R61
   11    12	 1 ;      CG2R61     CG2R66
   11    51	 1 ;      CG2R61      HGR62
   12    14	 1 ;      CG2R66     CG2R61
   12    13	 1 ;      CG2R66       FGR1
   14    15	 1 ;      CG2R61     CG2R61
   14    52	 1 ;      CG2R61      HGR62
   15    16	 1 ;      CG2R61     CG2R61
   15    53	 1 ;      CG2R61      HGR61
   16    54	 1 ;      CG2R61      HGR61
   17    18	 1 ;       OG311       HGP1
   19    20	 1 ;       CG321     CG2R61
   19    55	 1 ;       CG321       HGA2
   19    56	 1 ;       CG321       HGA2
   20    21	 1 ;      CG2R61     CG2R61
   20    25	 1 ;      CG2R61     CG2R61
   21    22	 1 ;      CG2R61     CG2R61
   21    57	 1 ;      CG2R61      HGR61
   22    23	 1 ;      CG2R61     CG2R61
   22    58	 1 ;      CG2R61      HGR61
   23    24	 1 ;      CG2R61     CG2R61
   23    59	 1 ;      CG2R61      HGR61
   24    25	 1 ;      CG2R61     CG2R61
   24    60	 1 ;      CG2R61      HGR61
   25    61	 1 ;      CG2R61      HGR61
   26    32	 1 ;      CG2DC1     CG2D1O
   26    27	 1 ;      CG2DC1      CG311
   27    28	 1 ;       CG311     CG2DC1
   27    34	 1 ;       CG311      CG321
   27    62	 1 ;       CG311       HGA1
   28    29	 1 ;      CG2DC1     CG2D1O
   28    37	 1 ;      CG2DC1      CG2O5
   29    30	 1 ;      CG2D1O      NG301
   29    31	 1 ;      CG2D1O      CG331
   30    40	 1 ;       NG301      CG321
   30    32	 1 ;       NG301     CG2D1O
   31    63	 1 ;       CG331       HGA3
   31    64	 1 ;       CG331       HGA3
   31    65	 1 ;       CG331       HGA3
   32    33	 1 ;      CG2D1O      CG331
   33    66	 1 ;       CG331       HGA3
   33    67	 1 ;       CG331       HGA3
   33    68	 1 ;       CG331       HGA3
   34    35	 1 ;       CG321      CG321
   34    69	 1 ;       CG321       HGA2
   34    70	 1 ;       CG321       HGA2
   35    36	 1 ;       CG321      CG331
   35    71	 1 ;       CG321       HGA2
   35    72	 1 ;       CG321       HGA2
   36    73	 1 ;       CG331       HGA3
   36    74	 1 ;       CG331       HGA3
   36    75	 1 ;       CG331       HGA3
   37    38	 1 ;       CG2O5      OG2D3
   37    39	 1 ;       CG2O5      CG331
   39    76	 1 ;       CG331       HGA3
   39    77	 1 ;       CG331       HGA3
   39    78	 1 ;       CG331       HGA3
   40    41	 1 ;       CG321      CG2O2
   40    79	 1 ;       CG321       HGA2
   40    80	 1 ;       CG321       HGA2
   41    42	 1 ;       CG2O2      OG2D1
   41    43	 1 ;       CG2O2      OG302
   43    44	 1 ;       OG302      CG311
   44    46	 1 ;       CG311      CG331
   44    45	 1 ;       CG311      CG331
   44    81	 1 ;       CG311       HGA1
   45    82	 1 ;       CG331       HGA3
   45    83	 1 ;       CG331       HGA3
   45    84	 1 ;       CG331       HGA3
   46    85	 1 ;       CG331       HGA3
   46    86	 1 ;       CG331       HGA3
   46    87	 1 ;       CG331       HGA3

[ pairs ]
;	ai	  aj funct			  c0			c1			  c2			c3
    1    32	 1
    1    27	 1
    1    20	 1
    1    55	 1
    1    56	 1
    1     7	 1
    1    17	 1
    1    48	 1
    2    19	 1
    2     6	 1
    2    47	 1
    2    33	 1
    2    30	 1
    2    28	 1
    2    34	 1
    2    62	 1
    3     5	 1
    3     4	 1
    3    32	 1
    3    27	 1
    4    19	 1
    4     6	 1
    4    47	 1
    4    26	 1
    5    26	 1
    5     8	 1
    5    49	 1
    5    50	 1
    5    18	 1
    5    21	 1
    5    25	 1
    6    20	 1
    6    55	 1
    6    56	 1
    6    10	 1
    6     9	 1
    7    19	 1
    7    47	 1
    7    18	 1
    7    16	 1
    7    11	 1
    8    17	 1
    8    48	 1
    8    15	 1
    8    54	 1
    8    12	 1
    8    51	 1
    9    49	 1
    9    50	 1
    9    16	 1
    9    11	 1
   10    49	 1
   10    50	 1
   10    14	 1
   10    13	 1
   10    53	 1
   11    15	 1
   11    54	 1
   11    52	 1
   12    16	 1
   12    53	 1
   13    51	 1
   13    15	 1
   13    52	 1
   14    51	 1
   14    54	 1
   16    51	 1
   16    52	 1
   17    19	 1
   17    47	 1
   17    49	 1
   17    50	 1
   18    48	 1
   19    48	 1
   19    22	 1
   19    57	 1
   19    24	 1
   19    61	 1
   20    47	 1
   20    23	 1
   20    58	 1
   20    60	 1
   21    55	 1
   21    56	 1
   21    24	 1
   21    61	 1
   21    59	 1
   22    25	 1
   22    60	 1
   23    57	 1
   23    61	 1
   24    58	 1
   25    55	 1
   25    56	 1
   25    57	 1
   25    59	 1
   26    29	 1
   26    37	 1
   26    35	 1
   26    69	 1
   26    70	 1
   26    40	 1
   26    66	 1
   26    67	 1
   26    68	 1
   27    33	 1
   27    30	 1
   27    31	 1
   27    38	 1
   27    39	 1
   27    36	 1
   27    71	 1
   27    72	 1
   28    32	 1
   28    35	 1
   28    69	 1
   28    70	 1
   28    40	 1
   28    63	 1
   28    64	 1
   28    65	 1
   28    76	 1
   28    77	 1
   28    78	 1
   29    34	 1
   29    62	 1
   29    38	 1
   29    39	 1
   29    41	 1
   29    79	 1
   29    80	 1
   29    33	 1
   30    37	 1
   30    63	 1
   30    64	 1
   30    65	 1
   30    66	 1
   30    67	 1
   30    68	 1
   30    42	 1
   30    43	 1
   31    37	 1
   31    40	 1
   31    32	 1
   32    34	 1
   32    62	 1
   32    41	 1
   32    79	 1
   32    80	 1
   33    40	 1
   34    37	 1
   34    73	 1
   34    74	 1
   34    75	 1
   35    62	 1
   36    69	 1
   36    70	 1
   37    62	 1
   38    76	 1
   38    77	 1
   38    78	 1
   40    44	 1
   41    46	 1
   41    45	 1
   41    81	 1
   42    79	 1
   42    80	 1
   42    44	 1
   43    79	 1
   43    80	 1
   43    85	 1
   43    86	 1
   43    87	 1
   43    82	 1
   43    83	 1
   43    84	 1
   45    85	 1
   45    86	 1
   45    87	 1
   46    82	 1
   46    83	 1
   46    84	 1
   47    55	 1
   47    56	 1
   47    48	 1
   48    49	 1
   48    50	 1
   52    53	 1
   53    54	 1
   57    58	 1
   58    59	 1
   59    60	 1
   60    61	 1
   62    69	 1
   62    70	 1
   69    71	 1
   69    72	 1
   70    71	 1
   70    72	 1
   71    73	 1
   71    74	 1
   71    75	 1
   72    73	 1
   72    74	 1
   72    75	 1
   81    85	 1
   81    86	 1
   81    87	 1
   81    82	 1
   81    83	 1
   81    84	 1

[ angles ]
;	ai	  aj	ak funct			c0			  c1			c2			  c3
    5     1     2	5 ;      CG311      NG2S1      CG2O1
    5     1     4	5 ;      CG311      NG2S1       HGP1
    2     1     4	5 ;      CG2O1      NG2S1       HGP1
    1     2    26	5 ;      NG2S1      CG2O1     CG2DC1
    1     2     3	5 ;      NG2S1      CG2O1      OG2D1
   26     2     3	5 ;     CG2DC1      CG2O1      OG2D1
   19     5     6	5 ;      CG321      CG311      CG311
   19     5     1	5 ;      CG321      CG311      NG2S1
   19     5    47	5 ;      CG321      CG311       HGA1
    6     5     1	5 ;      CG311      CG311      NG2S1
    6     5    47	5 ;      CG311      CG311       HGA1
    1     5    47	5 ;      NG2S1      CG311       HGA1
    7     6     5	5 ;      CG321      CG311      CG311
    7     6    17	5 ;      CG321      CG311      OG311
    7     6    48	5 ;      CG321      CG311       HGA1
    5     6    17	5 ;      CG311      CG311      OG311
    5     6    48	5 ;      CG311      CG311       HGA1
   17     6    48	5 ;      OG311      CG311       HGA1
    8     7     6	5 ;      NG311      CG321      CG311
    8     7    49	5 ;      NG311      CG321       HGA2
    8     7    50	5 ;      NG311      CG321       HGA2
    6     7    49	5 ;      CG311      CG321       HGA2
    6     7    50	5 ;      CG311      CG321       HGA2
   49     7    50	5 ;       HGA2      CG321       HGA2
   10     8     9	5 ;     CG2R61      NG311     HGPAM1
   10     8     7	5 ;     CG2R61      NG311      CG321
    9     8     7	5 ;     HGPAM1      NG311      CG321
   16    10    11	5 ;     CG2R61     CG2R61     CG2R61
   16    10     8	5 ;     CG2R61     CG2R61      NG311
   11    10     8	5 ;     CG2R61     CG2R61      NG311
   12    11    10	5 ;     CG2R66     CG2R61     CG2R61
   12    11    51	5 ;     CG2R66     CG2R61      HGR62
   10    11    51	5 ;     CG2R61     CG2R61      HGR62
   14    12    13	5 ;     CG2R61     CG2R66       FGR1
   14    12    11	5 ;     CG2R61     CG2R66     CG2R61
   13    12    11	5 ;       FGR1     CG2R66     CG2R61
   15    14    12	5 ;     CG2R61     CG2R61     CG2R66
   15    14    52	5 ;     CG2R61     CG2R61      HGR62
   12    14    52	5 ;     CG2R66     CG2R61      HGR62
   14    15    16	5 ;     CG2R61     CG2R61     CG2R61
   14    15    53	5 ;     CG2R61     CG2R61      HGR61
   16    15    53	5 ;     CG2R61     CG2R61      HGR61
   15    16    10	5 ;     CG2R61     CG2R61     CG2R61
   15    16    54	5 ;     CG2R61     CG2R61      HGR61
   10    16    54	5 ;     CG2R61     CG2R61      HGR61
    6    17    18	5 ;      CG311      OG311       HGP1
   20    19     5	5 ;     CG2R61      CG321      CG311
   20    19    55	5 ;     CG2R61      CG321       HGA2
   20    19    56	5 ;     CG2R61      CG321       HGA2
    5    19    55	5 ;      CG311      CG321       HGA2
    5    19    56	5 ;      CG311      CG321       HGA2
   55    19    56	5 ;       HGA2      CG321       HGA2
   21    20    19	5 ;     CG2R61     CG2R61      CG321
   21    20    25	5 ;     CG2R61     CG2R61     CG2R61
   19    20    25	5 ;      CG321     CG2R61     CG2R61
   22    21    20	5 ;     CG2R61     CG2R61     CG2R61
   22    21    57	5 ;     CG2R61     CG2R61      HGR61
   20    21    57	5 ;     CG2R61     CG2R61      HGR61
   21    22    23	5 ;     CG2R61     CG2R61     CG2R61
   21    22    58	5 ;     CG2R61     CG2R61      HGR61
   23    22    58	5 ;     CG2R61     CG2R61      HGR61
   22    23    24	5 ;     CG2R61     CG2R61     CG2R61
   22    23    59	5 ;     CG2R61     CG2R61      HGR61
   24    23    59	5 ;     CG2R61     CG2R61      HGR61
   23    24    25	5 ;     CG2R61     CG2R61     CG2R61
   23    24    60	5 ;     CG2R61     CG2R61      HGR61
   25    24    60	5 ;     CG2R61     CG2R61      HGR61
   20    25    24	5 ;     CG2R61     CG2R61     CG2R61
   20    25    61	5 ;     CG2R61     CG2R61      HGR61
   24    25    61	5 ;     CG2R61     CG2R61      HGR61
   32    26     2	5 ;     CG2D1O     CG2DC1      CG2O1
   32    26    27	5 ;     CG2D1O     CG2DC1      CG311
    2    26    27	5 ;      CG2O1     CG2DC1      CG311
   26    27    28	5 ;     CG2DC1      CG311     CG2DC1
   26    27    34	5 ;     CG2DC1      CG311      CG321
   26    27    62	5 ;     CG2DC1      CG311       HGA1
   28    27    34	5 ;     CG2DC1      CG311      CG321
   28    27    62	5 ;     CG2DC1      CG311       HGA1
   34    27    62	5 ;      CG321      CG311       HGA1
   29    28    27	5 ;     CG2D1O     CG2DC1      CG311
   29    28    37	5 ;     CG2D1O     CG2DC1      CG2O5
   27    28    37	5 ;      CG311     CG2DC1      CG2O5
   30    29    31	5 ;      NG301     CG2D1O      CG331
   30    29    28	5 ;      NG301     CG2D1O     CG2DC1
   31    29    28	5 ;      CG331     CG2D1O     CG2DC1
   40    30    32	5 ;      CG321      NG301     CG2D1O
   40    30    29	5 ;      CG321      NG301     CG2D1O
   32    30    29	5 ;     CG2D1O      NG301     CG2D1O
   29    31    63	5 ;     CG2D1O      CG331       HGA3
   29    31    64	5 ;     CG2D1O      CG331       HGA3
   29    31    65	5 ;     CG2D1O      CG331       HGA3
   63    31    64	5 ;       HGA3      CG331       HGA3
   63    31    65	5 ;       HGA3      CG331       HGA3
   64    31    65	5 ;       HGA3      CG331       HGA3
   33    32    30	5 ;      CG331     CG2D1O      NG301
   33    32    26	5 ;      CG331     CG2D1O     CG2DC1
   30    32    26	5 ;      NG301     CG2D1O     CG2DC1
   32    33    66	5 ;     CG2D1O      CG331       HGA3
   32    33    67	5 ;     CG2D1O      CG331       HGA3
   32    33    68	5 ;     CG2D1O      CG331       HGA3
   66    33    67	5 ;       HGA3      CG331       HGA3
   66    33    68	5 ;       HGA3      CG331       HGA3
   67    33    68	5 ;       HGA3      CG331       HGA3
   27    34    35	5 ;      CG311      CG321      CG321
   27    34    69	5 ;      CG311      CG321       HGA2
   27    34    70	5 ;      CG311      CG321       HGA2
   35    34    69	5 ;      CG321      CG321       HGA2
   35    34    70	5 ;      CG321      CG321       HGA2
   69    34    70	5 ;       HGA2      CG321       HGA2
   34    35    36	5 ;      CG321      CG321      CG331
   34    35    71	5 ;      CG321      CG321       HGA2
   34    35    72	5 ;      CG321      CG321       HGA2
   36    35    71	5 ;      CG331      CG321       HGA2
   36    35    72	5 ;      CG331      CG321       HGA2
   71    35    72	5 ;       HGA2      CG321       HGA2
   35    36    73	5 ;      CG321      CG331       HGA3
   35    36    74	5 ;      CG321      CG331       HGA3
   35    36    75	5 ;      CG321      CG331       HGA3
   73    36    74	5 ;       HGA3      CG331       HGA3
   73    36    75	5 ;       HGA3      CG331       HGA3
   74    36    75	5 ;       HGA3      CG331       HGA3
   28    37    38	5 ;     CG2DC1      CG2O5      OG2D3
   28    37    39	5 ;     CG2DC1      CG2O5      CG331
   38    37    39	5 ;      OG2D3      CG2O5      CG331
   37    39    76	5 ;      CG2O5      CG331       HGA3
   37    39    77	5 ;      CG2O5      CG331       HGA3
   37    39    78	5 ;      CG2O5      CG331       HGA3
   76    39    77	5 ;       HGA3      CG331       HGA3
   76    39    78	5 ;       HGA3      CG331       HGA3
   77    39    78	5 ;       HGA3      CG331       HGA3
   41    40    30	5 ;      CG2O2      CG321      NG301
   41    40    79	5 ;      CG2O2      CG321       HGA2
   41    40    80	5 ;      CG2O2      CG321       HGA2
   30    40    79	5 ;      NG301      CG321       HGA2
   30    40    80	5 ;      NG301      CG321       HGA2
   79    40    80	5 ;       HGA2      CG321       HGA2
   42    41    40	5 ;      OG2D1      CG2O2      CG321
   42    41    43	5 ;      OG2D1      CG2O2      OG302
   40    41    43	5 ;      CG321      CG2O2      OG302
   41    43    44	5 ;      CG2O2      OG302      CG311
   43    44    46	5 ;      OG302      CG311      CG331
   43    44    45	5 ;      OG302      CG311      CG331
   43    44    81	5 ;      OG302      CG311       HGA1
   46    44    45	5 ;      CG331      CG311      CG331
   46    44    81	5 ;      CG331      CG311       HGA1
   45    44    81	5 ;      CG331      CG311       HGA1
   44    45    82	5 ;      CG311      CG331       HGA3
   44    45    83	5 ;      CG311      CG331       HGA3
   44    45    84	5 ;      CG311      CG331       HGA3
   82    45    83	5 ;       HGA3      CG331       HGA3
   82    45    84	5 ;       HGA3      CG331       HGA3
   83    45    84	5 ;       HGA3      CG331       HGA3
   44    46    85	5 ;      CG311      CG331       HGA3
   44    46    86	5 ;      CG311      CG331       HGA3
   44    46    87	5 ;      CG311      CG331       HGA3
   85    46    86	5 ;       HGA3      CG331       HGA3
   85    46    87	5 ;       HGA3      CG331       HGA3
   86    46    87	5 ;       HGA3      CG331       HGA3

[ dihedrals ]
;	ai	  aj	ak	  al funct			  c0			c1			  c2			c3			  c4			c5
    2     1     5    19	 9 ;      CG2O1      NG2S1      CG311      CG321
    2     1     5     6	 9 ;      CG2O1      NG2S1      CG311      CG311
    2     1     5    47	 9 ;      CG2O1      NG2S1      CG311       HGA1
    4     1     5    19	 9 ;       HGP1      NG2S1      CG311      CG321
    4     1     5     6	 9 ;       HGP1      NG2S1      CG311      CG311
    4     1     5    47	 9 ;       HGP1      NG2S1      CG311       HGA1
    5     1     2    26	 9 ;      CG311      NG2S1      CG2O1     CG2DC1
    5     1     2     3	 9 ;      CG311      NG2S1      CG2O1      OG2D1
    4     1     2    26	 9 ;       HGP1      NG2S1      CG2O1     CG2DC1
    4     1     2     3	 9 ;       HGP1      NG2S1      CG2O1      OG2D1
    1     2    26    32	 9 ;      NG2S1      CG2O1     CG2DC1     CG2D1O
    1     2    26    27	 9 ;      NG2S1      CG2O1     CG2DC1      CG311
    3     2    26    32	 9 ;      OG2D1      CG2O1     CG2DC1     CG2D1O
    3     2    26    27	 9 ;      OG2D1      CG2O1     CG2DC1      CG311
    6     5    19    20	 9 ;      CG311      CG311      CG321     CG2R61
    6     5    19    55	 9 ;      CG311      CG311      CG321       HGA2
    6     5    19    56	 9 ;      CG311      CG311      CG321       HGA2
    1     5    19    20	 9 ;      NG2S1      CG311      CG321     CG2R61
    1     5    19    55	 9 ;      NG2S1      CG311      CG321       HGA2
    1     5    19    56	 9 ;      NG2S1      CG311      CG321       HGA2
   47     5    19    20	 9 ;       HGA1      CG311      CG321     CG2R61
   47     5    19    55	 9 ;       HGA1      CG311      CG321       HGA2
   47     5    19    56	 9 ;       HGA1      CG311      CG321       HGA2
   19     5     6     7	 9 ;      CG321      CG311      CG311      CG321
   19     5     6    17	 9 ;      CG321      CG311      CG311      OG311
   19     5     6    48	 9 ;      CG321      CG311      CG311       HGA1
    1     5     6     7	 9 ;      NG2S1      CG311      CG311      CG321
    1     5     6    17	 9 ;      NG2S1      CG311      CG311      OG311
    1     5     6    48	 9 ;      NG2S1      CG311      CG311       HGA1
   47     5     6     7	 9 ;       HGA1      CG311      CG311      CG321
   47     5     6    17	 9 ;       HGA1      CG311      CG311      OG311
   47     5     6    48	 9 ;       HGA1      CG311      CG311       HGA1
    5     6     7     8	 9 ;      CG311      CG311      CG321      NG311
    5     6     7    49	 9 ;      CG311      CG311      CG321       HGA2
    5     6     7    50	 9 ;      CG311      CG311      CG321       HGA2
   17     6     7     8	 9 ;      OG311      CG311      CG321      NG311
   17     6     7    49	 9 ;      OG311      CG311      CG321       HGA2
   17     6     7    50	 9 ;      OG311      CG311      CG321       HGA2
   48     6     7     8	 9 ;       HGA1      CG311      CG321      NG311
   48     6     7    49	 9 ;       HGA1      CG311      CG321       HGA2
   48     6     7    50	 9 ;       HGA1      CG311      CG321       HGA2
    7     6    17    18	 9 ;      CG321      CG311      OG311       HGP1
    5     6    17    18	 9 ;      CG311      CG311      OG311       HGP1
   48     6    17    18	 9 ;       HGA1      CG311      OG311       HGP1
    6     7     8    10	 9 ;      CG311      CG321      NG311     CG2R61
    6     7     8     9	 9 ;      CG311      CG321      NG311     HGPAM1
   49     7     8    10	 9 ;       HGA2      CG321      NG311     CG2R61
   49     7     8     9	 9 ;       HGA2      CG321      NG311     HGPAM1
   50     7     8    10	 9 ;       HGA2      CG321      NG311     CG2R61
   50     7     8     9	 9 ;       HGA2      CG321      NG311     HGPAM1
    9     8    10    16	 9 ;     HGPAM1      NG311     CG2R61     CG2R61
    9     8    10    11	 9 ;     HGPAM1      NG311     CG2R61     CG2R61
    7     8    10    16	 9 ;      CG321      NG311     CG2R61     CG2R61
    7     8    10    11	 9 ;      CG321      NG311     CG2R61     CG2R61
   11    10    16    15	 9 ;     CG2R61     CG2R61     CG2R61     CG2R61
   11    10    16    54	 9 ;     CG2R61     CG2R61     CG2R61      HGR61
    8    10    16    15	 9 ;      NG311     CG2R61     CG2R61     CG2R61
    8    10    16    54	 9 ;      NG311     CG2R61     CG2R61      HGR61
   16    10    11    12	 9 ;     CG2R61     CG2R61     CG2R61     CG2R66
   16    10    11    51	 9 ;     CG2R61     CG2R61     CG2R61      HGR62
    8    10    11    12	 9 ;      NG311     CG2R61     CG2R61     CG2R66
    8    10    11    51	 9 ;      NG311     CG2R61     CG2R61      HGR62
   10    11    12    14	 9 ;     CG2R61     CG2R61     CG2R66     CG2R61
   10    11    12    13	 9 ;     CG2R61     CG2R61     CG2R66       FGR1
   51    11    12    14	 9 ;      HGR62     CG2R61     CG2R66     CG2R61
   51    11    12    13	 9 ;      HGR62     CG2R61     CG2R66       FGR1
   13    12    14    15	 9 ;       FGR1     CG2R66     CG2R61     CG2R61
   13    12    14    52	 9 ;       FGR1     CG2R66     CG2R61      HGR62
   11    12    14    15	 9 ;     CG2R61     CG2R66     CG2R61     CG2R61
   11    12    14    52	 9 ;     CG2R61     CG2R66     CG2R61      HGR62
   12    14    15    16	 9 ;     CG2R66     CG2R61     CG2R61     CG2R61
   12    14    15    53	 9 ;     CG2R66     CG2R61     CG2R61      HGR61
   52    14    15    16	 9 ;      HGR62     CG2R61     CG2R61     CG2R61
   52    14    15    53	 9 ;      HGR62     CG2R61     CG2R61      HGR61
   14    15    16    10	 9 ;     CG2R61     CG2R61     CG2R61     CG2R61
   14    15    16    54	 9 ;     CG2R61     CG2R61     CG2R61      HGR61
   53    15    16    10	 9 ;      HGR61     CG2R61     CG2R61     CG2R61
   53    15    16    54	 9 ;      HGR61     CG2R61     CG2R61      HGR61
    5    19    20    21	 9 ;      CG311      CG321     CG2R61     CG2R61
    5    19    20    25	 9 ;      CG311      CG321     CG2R61     CG2R61
   55    19    20    21	 9 ;       HGA2      CG321     CG2R61     CG2R61
   55    19    20    25	 9 ;       HGA2      CG321     CG2R61     CG2R61
   56    19    20    21	 9 ;       HGA2      CG321     CG2R61     CG2R61
   56    19    20    25	 9 ;       HGA2      CG321     CG2R61     CG2R61
   19    20    21    22	 9 ;      CG321     CG2R61     CG2R61     CG2R61
   19    20    21    57	 9 ;      CG321     CG2R61     CG2R61      HGR61
   25    20    21    22	 9 ;     CG2R61     CG2R61     CG2R61     CG2R61
   25    20    21    57	 9 ;     CG2R61     CG2R61     CG2R61      HGR61
   21    20    25    24	 9 ;     CG2R61     CG2R61     CG2R61     CG2R61
   21    20    25    61	 9 ;     CG2R61     CG2R61     CG2R61      HGR61
   19    20    25    24	 9 ;      CG321     CG2R61     CG2R61     CG2R61
   19    20    25    61	 9 ;      CG321     CG2R61     CG2R61      HGR61
   20    21    22    23	 9 ;     CG2R61     CG2R61     CG2R61     CG2R61
   20    21    22    58	 9 ;     CG2R61     CG2R61     CG2R61      HGR61
   57    21    22    23	 9 ;      HGR61     CG2R61     CG2R61     CG2R61
   57    21    22    58	 9 ;      HGR61     CG2R61     CG2R61      HGR61
   21    22    23    24	 9 ;     CG2R61     CG2R61     CG2R61     CG2R61
   21    22    23    59	 9 ;     CG2R61     CG2R61     CG2R61      HGR61
   58    22    23    24	 9 ;      HGR61     CG2R61     CG2R61     CG2R61
   58    22    23    59	 9 ;      HGR61     CG2R61     CG2R61      HGR61
   22    23    24    25	 9 ;     CG2R61     CG2R61     CG2R61     CG2R61
   22    23    24    60	 9 ;     CG2R61     CG2R61     CG2R61      HGR61
   59    23    24    25	 9 ;      HGR61     CG2R61     CG2R61     CG2R61
   59    23    24    60	 9 ;      HGR61     CG2R61     CG2R61      HGR61
   23    24    25    20	 9 ;     CG2R61     CG2R61     CG2R61     CG2R61
   23    24    25    61	 9 ;     CG2R61     CG2R61     CG2R61      HGR61
   60    24    25    20	 9 ;      HGR61     CG2R61     CG2R61     CG2R61
   60    24    25    61	 9 ;      HGR61     CG2R61     CG2R61      HGR61
    2    26    32    33	 9 ;      CG2O1     CG2DC1     CG2D1O      CG331
    2    26    32    30	 9 ;      CG2O1     CG2DC1     CG2D1O      NG301
   27    26    32    33	 9 ;      CG311     CG2DC1     CG2D1O      CG331
   27    26    32    30	 9 ;      CG311     CG2DC1     CG2D1O      NG301
   32    26    27    28	 9 ;     CG2D1O     CG2DC1      CG311     CG2DC1
   32    26    27    34	 9 ;     CG2D1O     CG2DC1      CG311      CG321
   32    26    27    62	 9 ;     CG2D1O     CG2DC1      CG311       HGA1
    2    26    27    28	 9 ;      CG2O1     CG2DC1      CG311     CG2DC1
    2    26    27    34	 9 ;      CG2O1     CG2DC1      CG311      CG321
    2    26    27    62	 9 ;      CG2O1     CG2DC1      CG311       HGA1
   26    27    28    29	 9 ;     CG2DC1      CG311     CG2DC1     CG2D1O
   26    27    28    37	 9 ;     CG2DC1      CG311     CG2DC1      CG2O5
   34    27    28    29	 9 ;      CG321      CG311     CG2DC1     CG2D1O
   34    27    28    37	 9 ;      CG321      CG311     CG2DC1      CG2O5
   62    27    28    29	 9 ;       HGA1      CG311     CG2DC1     CG2D1O
   62    27    28    37	 9 ;       HGA1      CG311     CG2DC1      CG2O5
   26    27    34    35	 9 ;     CG2DC1      CG311      CG321      CG321
   26    27    34    69	 9 ;     CG2DC1      CG311      CG321       HGA2
   26    27    34    70	 9 ;     CG2DC1      CG311      CG321       HGA2
   28    27    34    35	 9 ;     CG2DC1      CG311      CG321      CG321
   28    27    34    69	 9 ;     CG2DC1      CG311      CG321       HGA2
   28    27    34    70	 9 ;     CG2DC1      CG311      CG321       HGA2
   62    27    34    35	 9 ;       HGA1      CG311      CG321      CG321
   62    27    34    69	 9 ;       HGA1      CG311      CG321       HGA2
   62    27    34    70	 9 ;       HGA1      CG311      CG321       HGA2
   27    28    29    30	 9 ;      CG311     CG2DC1     CG2D1O      NG301
   27    28    29    31	 9 ;      CG311     CG2DC1     CG2D1O      CG331
   37    28    29    30	 9 ;      CG2O5     CG2DC1     CG2D1O      NG301
   37    28    29    31	 9 ;      CG2O5     CG2DC1     CG2D1O      CG331
   29    28    37    38	 9 ;     CG2D1O     CG2DC1      CG2O5      OG2D3
   29    28    37    39	 9 ;     CG2D1O     CG2DC1      CG2O5      CG331
   27    28    37    38	 9 ;      CG311     CG2DC1      CG2O5      OG2D3
   27    28    37    39	 9 ;      CG311     CG2DC1      CG2O5      CG331
   31    29    30    40	 9 ;      CG331     CG2D1O      NG301      CG321
   31    29    30    32	 9 ;      CG331     CG2D1O      NG301     CG2D1O
   28    29    30    40	 9 ;     CG2DC1     CG2D1O      NG301      CG321
   28    29    30    32	 9 ;     CG2DC1     CG2D1O      NG301     CG2D1O
   30    29    31    63	 9 ;      NG301     CG2D1O      CG331       HGA3
   30    29    31    64	 9 ;      NG301     CG2D1O      CG331       HGA3
   30    29    31    65	 9 ;      NG301     CG2D1O      CG331       HGA3
   28    29    31    63	 9 ;     CG2DC1     CG2D1O      CG331       HGA3
   28    29    31    64	 9 ;     CG2DC1     CG2D1O      CG331       HGA3
   28    29    31    65	 9 ;     CG2DC1     CG2D1O      CG331       HGA3
   32    30    40    41	 9 ;     CG2D1O      NG301      CG321      CG2O2
   32    30    40    79	 9 ;     CG2D1O      NG301      CG321       HGA2
   32    30    40    80	 9 ;     CG2D1O      NG301      CG321       HGA2
   29    30    40    41	 9 ;     CG2D1O      NG301      CG321      CG2O2
   29    30    40    79	 9 ;     CG2D1O      NG301      CG321       HGA2
   29    30    40    80	 9 ;     CG2D1O      NG301      CG321       HGA2
   40    30    32    33	 9 ;      CG321      NG301     CG2D1O      CG331
   40    30    32    26	 9 ;      CG321      NG301     CG2D1O     CG2DC1
   29    30    32    33	 9 ;     CG2D1O      NG301     CG2D1O      CG331
   29    30    32    26	 9 ;     CG2D1O      NG301     CG2D1O     CG2DC1
   30    32    33    66	 9 ;      NG301     CG2D1O      CG331       HGA3
   30    32    33    67	 9 ;      NG301     CG2D1O      CG331       HGA3
   30    32    33    68	 9 ;      NG301     CG2D1O      CG331       HGA3
   26    32    33    66	 9 ;     CG2DC1     CG2D1O      CG331       HGA3
   26    32    33    67	 9 ;     CG2DC1     CG2D1O      CG331       HGA3
   26    32    33    68	 9 ;     CG2DC1     CG2D1O      CG331       HGA3
   27    34    35    36	 9 ;      CG311      CG321      CG321      CG331
   27    34    35    71	 9 ;      CG311      CG321      CG321       HGA2
   27    34    35    72	 9 ;      CG311      CG321      CG321       HGA2
   69    34    35    36	 9 ;       HGA2      CG321      CG321      CG331
   69    34    35    71	 9 ;       HGA2      CG321      CG321       HGA2
   69    34    35    72	 9 ;       HGA2      CG321      CG321       HGA2
   70    34    35    36	 9 ;       HGA2      CG321      CG321      CG331
   70    34    35    71	 9 ;       HGA2      CG321      CG321       HGA2
   70    34    35    72	 9 ;       HGA2      CG321      CG321       HGA2
   34    35    36    73	 9 ;      CG321      CG321      CG331       HGA3
   34    35    36    74	 9 ;      CG321      CG321      CG331       HGA3
   34    35    36    75	 9 ;      CG321      CG321      CG331       HGA3
   71    35    36    73	 9 ;       HGA2      CG321      CG331       HGA3
   71    35    36    74	 9 ;       HGA2      CG321      CG331       HGA3
   71    35    36    75	 9 ;       HGA2      CG321      CG331       HGA3
   72    35    36    73	 9 ;       HGA2      CG321      CG331       HGA3
   72    35    36    74	 9 ;       HGA2      CG321      CG331       HGA3
   72    35    36    75	 9 ;       HGA2      CG321      CG331       HGA3
   28    37    39    76	 9 ;     CG2DC1      CG2O5      CG331       HGA3
   28    37    39    77	 9 ;     CG2DC1      CG2O5      CG331       HGA3
   28    37    39    78	 9 ;     CG2DC1      CG2O5      CG331       HGA3
   38    37    39    76	 9 ;      OG2D3      CG2O5      CG331       HGA3
   38    37    39    77	 9 ;      OG2D3      CG2O5      CG331       HGA3
   38    37    39    78	 9 ;      OG2D3      CG2O5      CG331       HGA3
   30    40    41    42	 9 ;      NG301      CG321      CG2O2      OG2D1
   30    40    41    43	 9 ;      NG301      CG321      CG2O2      OG302
   79    40    41    42	 9 ;       HGA2      CG321      CG2O2      OG2D1
   79    40    41    43	 9 ;       HGA2      CG321      CG2O2      OG302
   80    40    41    42	 9 ;       HGA2      CG321      CG2O2      OG2D1
   80    40    41    43	 9 ;       HGA2      CG321      CG2O2      OG302
   42    41    43    44	 9 ;      OG2D1      CG2O2      OG302      CG311
   40    41    43    44	 9 ;      CG321      CG2O2      OG302      CG311
   41    43    44    46	 9 ;      CG2O2      OG302      CG311      CG331
   41    43    44    45	 9 ;      CG2O2      OG302      CG311      CG331
   41    43    44    81	 9 ;      CG2O2      OG302      CG311       HGA1
   43    44    46    85	 9 ;      OG302      CG311      CG331       HGA3
   43    44    46    86	 9 ;      OG302      CG311      CG331       HGA3
   43    44    46    87	 9 ;      OG302      CG311      CG331       HGA3
   45    44    46    85	 9 ;      CG331      CG311      CG331       HGA3
   45    44    46    86	 9 ;      CG331      CG311      CG331       HGA3
   45    44    46    87	 9 ;      CG331      CG311      CG331       HGA3
   81    44    46    85	 9 ;       HGA1      CG311      CG331       HGA3
   81    44    46    86	 9 ;       HGA1      CG311      CG331       HGA3
   81    44    46    87	 9 ;       HGA1      CG311      CG331       HGA3
   43    44    45    82	 9 ;      OG302      CG311      CG331       HGA3
   43    44    45    83	 9 ;      OG302      CG311      CG331       HGA3
   43    44    45    84	 9 ;      OG302      CG311      CG331       HGA3
   46    44    45    82	 9 ;      CG331      CG311      CG331       HGA3
   46    44    45    83	 9 ;      CG331      CG311      CG331       HGA3
   46    44    45    84	 9 ;      CG331      CG311      CG331       HGA3
   81    44    45    82	 9 ;       HGA1      CG311      CG331       HGA3
   81    44    45    83	 9 ;       HGA1      CG311      CG331       HGA3
   81    44    45    84	 9 ;       HGA1      CG311      CG331       HGA3

[ dihedrals ]
;	ai	  aj	ak	  al funct			  c0			c1			  c2			c3
    2    26     1     3	 2
   29    28    31    30	 2
   32    26    33    30	 2
   37    28    39    38	 2
   41    40    42    43	 2

