GRowing Old MAkes el Chrono Sweat
   72
    1LIG     N1    1  -1.766   0.643  -1.642
    1LIG     H1    2  -1.748   0.735  -1.601
    1LIG     H2    3  -1.855   0.655  -1.692
    1LIG     C1    4  -1.661   0.627  -1.758
    1LIG     C2    5  -1.600   0.760  -1.814
    1LIG     C3    6  -1.470   0.818  -1.738
    1LIG     N2    7  -1.475   0.961  -1.697
    1LIG     C4    8  -1.593   1.012  -1.643
    1LIG     O1    9  -1.686   0.939  -1.609
    1LIG     C5   10  -1.600   1.164  -1.630
    1LIG     H3   11  -1.417   1.028  -1.747
    1LIG     C6   12  -1.434   0.731  -1.611
    1LIG     C7   13  -1.307   0.653  -1.638
    1LIG     C8   14  -1.317   0.518  -1.673
    1LIG     C9   15  -1.206   0.435  -1.660
    1LIG     F1   16  -1.220   0.304  -1.680
    1LIG    C10   17  -1.084   0.485  -1.616
    1LIG    C11   18  -1.072   0.622  -1.593
    1LIG    C12   19  -1.182   0.707  -1.606
    1LIG     F2   20  -0.957   0.671  -1.545
    1LIG     O2   21  -1.576   0.747  -1.954
    1LIG     H4   22  -1.505   0.811  -1.978
    1LIG    C13   23  -1.807   0.546  -1.525
    1LIG    C14   24  -1.949   0.491  -1.550
    1LIG    C15   25  -1.999   0.401  -1.434
    1LIG    C16   26  -2.001   0.475  -1.300
    1LIG    C17   27  -1.866   0.542  -1.272
    1LIG    C18   28  -1.816   0.627  -1.391
    1LIG    C19   29  -1.701   0.427  -1.515
    1LIG    C20   30  -1.589   0.428  -1.425
    1LIG    C21   31  -1.489   0.327  -1.422
    1LIG    C22   32  -1.503   0.219  -1.510
    1LIG    C23   33  -1.611   0.213  -1.597
    1LIG    C24   34  -1.709   0.314  -1.599
    1LIG    C25   35  -1.372   0.331  -1.324
    1LIG     O3   36  -1.278   0.226  -1.352
    1LIG    C26   37  -1.146   0.271  -1.314
    1LIG    C27   38  -1.164   0.405  -1.245
    1LIG    C28   39  -1.287   0.458  -1.316
    1LIG    HC2   40  -1.580   0.565  -1.721
    1LIG    HC3   41  -1.709   0.574  -1.841
    1LIG     HC   42  -1.678   0.836  -1.803
    1LIG    HC1   43  -1.387   0.808  -1.807
    1LIG    HC4   44  -1.515   0.662  -1.590
    1LIG    HC5   45  -1.418   0.797  -1.526
    1LIG    HC6   46  -1.410   0.478  -1.709
    1LIG    HC7   47  -1.000   0.419  -1.601
    1LIG    HC8   48  -1.170   0.813  -1.592
    1LIG    HC9   49  -2.018   0.574  -1.562
    1LIG   HC10   50  -1.949   0.432  -1.642
    1LIG   HC11   51  -2.101   0.368  -1.456
    1LIG   HC12   52  -1.934   0.314  -1.425
    1LIG   HC13   53  -2.022   0.404  -1.221
    1LIG   HC14   54  -2.079   0.552  -1.303
    1LIG   HC15   55  -1.878   0.608  -1.185
    1LIG   HC16   56  -1.793   0.465  -1.249
    1LIG   HC17   57  -1.717   0.665  -1.367
    1LIG   HC18   58  -1.884   0.711  -1.406
    1LIG   HC19   59  -1.580   0.511  -1.356
    1LIG   HC20   60  -1.429   0.140  -1.509
    1LIG   HC21   61  -1.620   0.130  -1.665
    1LIG   HC22   62  -1.794   0.305  -1.666
    1LIG   HC23   63  -1.413   0.313  -1.224
    1LIG   HC24   64  -1.083   0.283  -1.402
    1LIG   HC25   65  -1.100   0.200  -1.245
    1LIG   HC26   66  -1.182   0.393  -1.138
    1LIG   HC27   67  -1.078   0.470  -1.263
    1LIG   HC28   68  -1.336   0.536  -1.258
    1LIG   HC29   69  -1.262   0.494  -1.416
    1LIG   HC30   70  -1.696   1.192  -1.587
    1LIG   HC31   71  -1.520   1.199  -1.566
    1LIG   HC32   72  -1.590   1.209  -1.729
   0.00000   0.00000   0.00000
