; Created by cgenff_charmm2gmx.py

[ moleculetype ]
; Name			   nrexcl
LIG				 3

[ atoms ]
;	 nr		  type	resnr residue  atom   cgnr	   charge		mass  typeB    chargeB		massB
; residue	 1 LIG rtp LIG q	qsum
     1      NG3P2      1    LIG     N1      1     -0.450     14.007   ;
     2       HGP2      1    LIG     H1      2      0.341      1.008   ;
     3       HGP2      1    LIG     H2      3      0.341      1.008   ;
     4      CG324      1    LIG     C1      4      0.208     12.011   ;
     5      CG311      1    LIG     C2      5      0.089     12.011   ;
     6      CG311      1    LIG     C3      6     -0.007     12.011   ;
     7      NG2S1      1    LIG     N2      7     -0.339     14.007   ;
     8      CG2O1      1    LIG     C4      8      0.488     12.011   ;
     9      OG2D1      1    LIG     O1      9     -0.509     15.999   ;
    10      CG331      1    LIG     C5     10     -0.270     12.011   ;
    11       HGP1      1    LIG     H3     11      0.261      1.008   ;
    12      CG321      1    LIG     C6     12     -0.153     12.011   ;
    13     CG2R61      1    LIG     C7     13      0.057     12.011   ;
    14     CG2R61      1    LIG     C8     14     -0.218     12.011   ;
    15     CG2R66      1    LIG     C9     15      0.261     12.011   ;
    16       FGR1      1    LIG     F1     16     -0.210     18.998   ;
    17     CG2R61      1    LIG    C10     17     -0.240     12.011   ;
    18     CG2R66      1    LIG    C11     18      0.261     12.011   ;
    19     CG2R61      1    LIG    C12     19     -0.218     12.011   ;
    20       FGR1      1    LIG     F2     20     -0.210     18.998   ;
    21      OG311      1    LIG     O2     21     -0.625     15.999   ;
    22       HGP1      1    LIG     H4     22      0.415      1.008   ;
    23      CG301      1    LIG    C13     23      0.295     12.011   ;
    24      CG321      1    LIG    C14     24     -0.147     12.011   ;
    25      CG321      1    LIG    C15     25     -0.202     12.011   ;
    26      CG321      1    LIG    C16     26     -0.176     12.011   ;
    27      CG321      1    LIG    C17     27     -0.202     12.011   ;
    28      CG321      1    LIG    C18     28     -0.147     12.011   ;
    29     CG2R61      1    LIG    C19     29      0.086     12.011   ;
    30     CG2R61      1    LIG    C20     30     -0.136     12.011   ;
    31     CG2R61      1    LIG    C21     31      0.157     12.011   ;
    32     CG2R61      1    LIG    C22     32     -0.123     12.011   ;
    33     CG2R61      1    LIG    C23     33     -0.109     12.011   ;
    34     CG2R61      1    LIG    C24     34     -0.129     12.011   ;
    35     CG3C51      1    LIG    C25     35      0.025     12.011   ;
    36     OG3C51      1    LIG     O3     36     -0.391     15.999   ;
    37     CG3C52      1    LIG    C26     37     -0.072     12.011   ;
    38     CG3C52      1    LIG    C27     38     -0.158     12.011   ;
    39     CG3C52      1    LIG    C28     39     -0.182     12.011   ;
    40       HGA2      1    LIG    HC2     40      0.090      1.008   ;
    41       HGA2      1    LIG    HC3     41      0.090      1.008   ;
    42       HGA1      1    LIG     HC     42      0.090      1.008   ;
    43       HGA1      1    LIG    HC1     43      0.090      1.008   ;
    44       HGA2      1    LIG    HC4     44      0.090      1.008   ;
    45       HGA2      1    LIG    HC5     45      0.090      1.008   ;
    46      HGR62      1    LIG    HC6     46      0.174      1.008   ;
    47      HGR62      1    LIG    HC7     47      0.186      1.008   ;
    48      HGR62      1    LIG    HC8     48      0.174      1.008   ;
    49       HGA2      1    LIG    HC9     49      0.090      1.008   ;
    50       HGA2      1    LIG   HC10     50      0.090      1.008   ;
    51       HGA2      1    LIG   HC11     51      0.090      1.008   ;
    52       HGA2      1    LIG   HC12     52      0.090      1.008   ;
    53       HGA2      1    LIG   HC13     53      0.090      1.008   ;
    54       HGA2      1    LIG   HC14     54      0.090      1.008   ;
    55       HGA2      1    LIG   HC15     55      0.090      1.008   ;
    56       HGA2      1    LIG   HC16     56      0.090      1.008   ;
    57       HGA2      1    LIG   HC17     57      0.090      1.008   ;
    58       HGA2      1    LIG   HC18     58      0.090      1.008   ;
    59      HGR61      1    LIG   HC19     59      0.116      1.008   ;
    60      HGR61      1    LIG   HC20     60      0.116      1.008   ;
    61      HGR61      1    LIG   HC21     61      0.116      1.008   ;
    62      HGR61      1    LIG   HC22     62      0.116      1.008   ;
    63       HGA1      1    LIG   HC23     63      0.090      1.008   ;
    64       HGA2      1    LIG   HC24     64      0.090      1.008   ;
    65       HGA2      1    LIG   HC25     65      0.090      1.008   ;
    66       HGA2      1    LIG   HC26     66      0.090      1.008   ;
    67       HGA2      1    LIG   HC27     67      0.090      1.008   ;
    68       HGA2      1    LIG   HC28     68      0.090      1.008   ;
    69       HGA2      1    LIG   HC29     69      0.090      1.008   ;
    70       HGA3      1    LIG   HC30     70      0.090      1.008   ;
    71       HGA3      1    LIG   HC31     71      0.090      1.008   ;
    72       HGA3      1    LIG   HC32     72      0.090      1.008   ;

[ bonds ]
;	ai	  aj funct			  c0			c1			  c2			c3
    1     4	 1 ;       NG3P2      CG324
    1     2	 1 ;       NG3P2       HGP2
    1     3	 1 ;       NG3P2       HGP2
    1    23	 1 ;       NG3P2      CG301
    4     5	 1 ;       CG324      CG311
    4    40	 1 ;       CG324       HGA2
    4    41	 1 ;       CG324       HGA2
    5    21	 1 ;       CG311      OG311
    5     6	 1 ;       CG311      CG311
    5    42	 1 ;       CG311       HGA1
    6    12	 1 ;       CG311      CG321
    6     7	 1 ;       CG311      NG2S1
    6    43	 1 ;       CG311       HGA1
    7    11	 1 ;       NG2S1       HGP1
    7     8	 1 ;       NG2S1      CG2O1
    8    10	 1 ;       CG2O1      CG331
    8     9	 1 ;       CG2O1      OG2D1
   10    70	 1 ;       CG331       HGA3
   10    71	 1 ;       CG331       HGA3
   10    72	 1 ;       CG331       HGA3
   12    13	 1 ;       CG321     CG2R61
   12    44	 1 ;       CG321       HGA2
   12    45	 1 ;       CG321       HGA2
   13    19	 1 ;      CG2R61     CG2R61
   13    14	 1 ;      CG2R61     CG2R61
   14    15	 1 ;      CG2R61     CG2R66
   14    46	 1 ;      CG2R61      HGR62
   15    17	 1 ;      CG2R66     CG2R61
   15    16	 1 ;      CG2R66       FGR1
   17    18	 1 ;      CG2R61     CG2R66
   17    47	 1 ;      CG2R61      HGR62
   18    20	 1 ;      CG2R66       FGR1
   18    19	 1 ;      CG2R66     CG2R61
   19    48	 1 ;      CG2R61      HGR62
   21    22	 1 ;       OG311       HGP1
   23    29	 1 ;       CG301     CG2R61
   23    24	 1 ;       CG301      CG321
   23    28	 1 ;       CG301      CG321
   24    25	 1 ;       CG321      CG321
   24    49	 1 ;       CG321       HGA2
   24    50	 1 ;       CG321       HGA2
   25    26	 1 ;       CG321      CG321
   25    51	 1 ;       CG321       HGA2
   25    52	 1 ;       CG321       HGA2
   26    27	 1 ;       CG321      CG321
   26    53	 1 ;       CG321       HGA2
   26    54	 1 ;       CG321       HGA2
   27    28	 1 ;       CG321      CG321
   27    55	 1 ;       CG321       HGA2
   27    56	 1 ;       CG321       HGA2
   28    57	 1 ;       CG321       HGA2
   28    58	 1 ;       CG321       HGA2
   29    34	 1 ;      CG2R61     CG2R61
   29    30	 1 ;      CG2R61     CG2R61
   30    31	 1 ;      CG2R61     CG2R61
   30    59	 1 ;      CG2R61      HGR61
   31    32	 1 ;      CG2R61     CG2R61
   31    35	 1 ;      CG2R61     CG3C51
   32    33	 1 ;      CG2R61     CG2R61
   32    60	 1 ;      CG2R61      HGR61
   33    34	 1 ;      CG2R61     CG2R61
   33    61	 1 ;      CG2R61      HGR61
   34    62	 1 ;      CG2R61      HGR61
   35    36	 1 ;      CG3C51     OG3C51
   35    39	 1 ;      CG3C51     CG3C52
   35    63	 1 ;      CG3C51       HGA1
   36    37	 1 ;      OG3C51     CG3C52
   37    38	 1 ;      CG3C52     CG3C52
   37    64	 1 ;      CG3C52       HGA2
   37    65	 1 ;      CG3C52       HGA2
   38    39	 1 ;      CG3C52     CG3C52
   38    66	 1 ;      CG3C52       HGA2
   38    67	 1 ;      CG3C52       HGA2
   39    68	 1 ;      CG3C52       HGA2
   39    69	 1 ;      CG3C52       HGA2

[ pairs ]
;	ai	  aj funct			  c0			c1			  c2			c3
    1    21	 1
    1     6	 1
    1    42	 1
    1    34	 1
    1    30	 1
    1    25	 1
    1    49	 1
    1    50	 1
    1    27	 1
    1    57	 1
    1    58	 1
    2     5	 1
    2    40	 1
    2    41	 1
    2    29	 1
    2    24	 1
    2    28	 1
    3     5	 1
    3    40	 1
    3    41	 1
    3    29	 1
    3    24	 1
    3    28	 1
    4    29	 1
    4    24	 1
    4    28	 1
    4    22	 1
    4    12	 1
    4     7	 1
    4    43	 1
    5    23	 1
    5    13	 1
    5    44	 1
    5    45	 1
    5    11	 1
    5     8	 1
    6    40	 1
    6    41	 1
    6    22	 1
    6    10	 1
    6     9	 1
    6    19	 1
    6    14	 1
    7    21	 1
    7    42	 1
    7    13	 1
    7    44	 1
    7    45	 1
    7    70	 1
    7    71	 1
    7    72	 1
    8    12	 1
    8    43	 1
    9    11	 1
    9    70	 1
    9    71	 1
    9    72	 1
   10    11	 1
   11    12	 1
   11    43	 1
   12    21	 1
   12    42	 1
   12    18	 1
   12    48	 1
   12    15	 1
   12    46	 1
   13    43	 1
   13    17	 1
   13    16	 1
   13    20	 1
   14    44	 1
   14    45	 1
   14    18	 1
   14    48	 1
   14    47	 1
   15    19	 1
   15    20	 1
   16    46	 1
   16    18	 1
   16    47	 1
   17    46	 1
   17    48	 1
   19    44	 1
   19    45	 1
   19    46	 1
   19    47	 1
   20    47	 1
   20    48	 1
   21    40	 1
   21    41	 1
   21    43	 1
   22    42	 1
   23    40	 1
   23    41	 1
   23    26	 1
   23    51	 1
   23    52	 1
   23    55	 1
   23    56	 1
   23    33	 1
   23    62	 1
   23    31	 1
   23    59	 1
   24    34	 1
   24    30	 1
   24    27	 1
   24    57	 1
   24    58	 1
   24    53	 1
   24    54	 1
   25    29	 1
   25    28	 1
   25    55	 1
   25    56	 1
   26    49	 1
   26    50	 1
   26    57	 1
   26    58	 1
   27    29	 1
   27    51	 1
   27    52	 1
   28    34	 1
   28    30	 1
   28    49	 1
   28    50	 1
   28    53	 1
   28    54	 1
   29    49	 1
   29    50	 1
   29    57	 1
   29    58	 1
   29    32	 1
   29    35	 1
   29    61	 1
   30    33	 1
   30    62	 1
   30    60	 1
   30    36	 1
   30    39	 1
   30    63	 1
   31    34	 1
   31    61	 1
   31    37	 1
   31    38	 1
   31    68	 1
   31    69	 1
   32    59	 1
   32    36	 1
   32    39	 1
   32    63	 1
   32    62	 1
   33    35	 1
   34    59	 1
   34    60	 1
   35    59	 1
   35    60	 1
   35    64	 1
   35    65	 1
   35    66	 1
   35    67	 1
   36    68	 1
   36    69	 1
   36    66	 1
   36    67	 1
   37    63	 1
   37    68	 1
   37    69	 1
   38    63	 1
   39    64	 1
   39    65	 1
   40    42	 1
   41    42	 1
   42    43	 1
   43    44	 1
   43    45	 1
   49    51	 1
   49    52	 1
   50    51	 1
   50    52	 1
   51    53	 1
   51    54	 1
   52    53	 1
   52    54	 1
   53    55	 1
   53    56	 1
   54    55	 1
   54    56	 1
   55    57	 1
   55    58	 1
   56    57	 1
   56    58	 1
   60    61	 1
   61    62	 1
   63    68	 1
   63    69	 1
   64    66	 1
   64    67	 1
   65    66	 1
   65    67	 1
   66    68	 1
   66    69	 1
   67    68	 1
   67    69	 1

[ angles ]
;	ai	  aj	ak funct			c0			  c1			c2			  c3
    4     1     2	5 ;      CG324      NG3P2       HGP2
    4     1     3	5 ;      CG324      NG3P2       HGP2
    4     1    23	5 ;      CG324      NG3P2      CG301
    2     1     3	5 ;       HGP2      NG3P2       HGP2
    2     1    23	5 ;       HGP2      NG3P2      CG301
    3     1    23	5 ;       HGP2      NG3P2      CG301
    5     4     1	5 ;      CG311      CG324      NG3P2
    5     4    40	5 ;      CG311      CG324       HGA2
    5     4    41	5 ;      CG311      CG324       HGA2
    1     4    40	5 ;      NG3P2      CG324       HGA2
    1     4    41	5 ;      NG3P2      CG324       HGA2
   40     4    41	5 ;       HGA2      CG324       HGA2
   21     5     6	5 ;      OG311      CG311      CG311
   21     5     4	5 ;      OG311      CG311      CG324
   21     5    42	5 ;      OG311      CG311       HGA1
    6     5     4	5 ;      CG311      CG311      CG324
    6     5    42	5 ;      CG311      CG311       HGA1
    4     5    42	5 ;      CG324      CG311       HGA1
    5     6    12	5 ;      CG311      CG311      CG321
    5     6     7	5 ;      CG311      CG311      NG2S1
    5     6    43	5 ;      CG311      CG311       HGA1
   12     6     7	5 ;      CG321      CG311      NG2S1
   12     6    43	5 ;      CG321      CG311       HGA1
    7     6    43	5 ;      NG2S1      CG311       HGA1
   11     7     6	5 ;       HGP1      NG2S1      CG311
   11     7     8	5 ;       HGP1      NG2S1      CG2O1
    6     7     8	5 ;      CG311      NG2S1      CG2O1
    7     8    10	5 ;      NG2S1      CG2O1      CG331
    7     8     9	5 ;      NG2S1      CG2O1      OG2D1
   10     8     9	5 ;      CG331      CG2O1      OG2D1
    8    10    70	5 ;      CG2O1      CG331       HGA3
    8    10    71	5 ;      CG2O1      CG331       HGA3
    8    10    72	5 ;      CG2O1      CG331       HGA3
   70    10    71	5 ;       HGA3      CG331       HGA3
   70    10    72	5 ;       HGA3      CG331       HGA3
   71    10    72	5 ;       HGA3      CG331       HGA3
   13    12     6	5 ;     CG2R61      CG321      CG311
   13    12    44	5 ;     CG2R61      CG321       HGA2
   13    12    45	5 ;     CG2R61      CG321       HGA2
    6    12    44	5 ;      CG311      CG321       HGA2
    6    12    45	5 ;      CG311      CG321       HGA2
   44    12    45	5 ;       HGA2      CG321       HGA2
   19    13    14	5 ;     CG2R61     CG2R61     CG2R61
   19    13    12	5 ;     CG2R61     CG2R61      CG321
   14    13    12	5 ;     CG2R61     CG2R61      CG321
   15    14    13	5 ;     CG2R66     CG2R61     CG2R61
   15    14    46	5 ;     CG2R66     CG2R61      HGR62
   13    14    46	5 ;     CG2R61     CG2R61      HGR62
   17    15    16	5 ;     CG2R61     CG2R66       FGR1
   17    15    14	5 ;     CG2R61     CG2R66     CG2R61
   16    15    14	5 ;       FGR1     CG2R66     CG2R61
   18    17    15	5 ;     CG2R66     CG2R61     CG2R66
   18    17    47	5 ;     CG2R66     CG2R61      HGR62
   15    17    47	5 ;     CG2R66     CG2R61      HGR62
   20    18    17	5 ;       FGR1     CG2R66     CG2R61
   20    18    19	5 ;       FGR1     CG2R66     CG2R61
   17    18    19	5 ;     CG2R61     CG2R66     CG2R61
   18    19    13	5 ;     CG2R66     CG2R61     CG2R61
   18    19    48	5 ;     CG2R66     CG2R61      HGR62
   13    19    48	5 ;     CG2R61     CG2R61      HGR62
   22    21     5	5 ;       HGP1      OG311      CG311
    1    23    29	5 ;      NG3P2      CG301     CG2R61
    1    23    24	5 ;      NG3P2      CG301      CG321
    1    23    28	5 ;      NG3P2      CG301      CG321
   29    23    24	5 ;     CG2R61      CG301      CG321
   29    23    28	5 ;     CG2R61      CG301      CG321
   24    23    28	5 ;      CG321      CG301      CG321
   23    24    25	5 ;      CG301      CG321      CG321
   23    24    49	5 ;      CG301      CG321       HGA2
   23    24    50	5 ;      CG301      CG321       HGA2
   25    24    49	5 ;      CG321      CG321       HGA2
   25    24    50	5 ;      CG321      CG321       HGA2
   49    24    50	5 ;       HGA2      CG321       HGA2
   24    25    26	5 ;      CG321      CG321      CG321
   24    25    51	5 ;      CG321      CG321       HGA2
   24    25    52	5 ;      CG321      CG321       HGA2
   26    25    51	5 ;      CG321      CG321       HGA2
   26    25    52	5 ;      CG321      CG321       HGA2
   51    25    52	5 ;       HGA2      CG321       HGA2
   25    26    27	5 ;      CG321      CG321      CG321
   25    26    53	5 ;      CG321      CG321       HGA2
   25    26    54	5 ;      CG321      CG321       HGA2
   27    26    53	5 ;      CG321      CG321       HGA2
   27    26    54	5 ;      CG321      CG321       HGA2
   53    26    54	5 ;       HGA2      CG321       HGA2
   28    27    26	5 ;      CG321      CG321      CG321
   28    27    55	5 ;      CG321      CG321       HGA2
   28    27    56	5 ;      CG321      CG321       HGA2
   26    27    55	5 ;      CG321      CG321       HGA2
   26    27    56	5 ;      CG321      CG321       HGA2
   55    27    56	5 ;       HGA2      CG321       HGA2
   23    28    27	5 ;      CG301      CG321      CG321
   23    28    57	5 ;      CG301      CG321       HGA2
   23    28    58	5 ;      CG301      CG321       HGA2
   27    28    57	5 ;      CG321      CG321       HGA2
   27    28    58	5 ;      CG321      CG321       HGA2
   57    28    58	5 ;       HGA2      CG321       HGA2
   34    29    30	5 ;     CG2R61     CG2R61     CG2R61
   34    29    23	5 ;     CG2R61     CG2R61      CG301
   30    29    23	5 ;     CG2R61     CG2R61      CG301
   31    30    29	5 ;     CG2R61     CG2R61     CG2R61
   31    30    59	5 ;     CG2R61     CG2R61      HGR61
   29    30    59	5 ;     CG2R61     CG2R61      HGR61
   32    31    35	5 ;     CG2R61     CG2R61     CG3C51
   32    31    30	5 ;     CG2R61     CG2R61     CG2R61
   35    31    30	5 ;     CG3C51     CG2R61     CG2R61
   33    32    31	5 ;     CG2R61     CG2R61     CG2R61
   33    32    60	5 ;     CG2R61     CG2R61      HGR61
   31    32    60	5 ;     CG2R61     CG2R61      HGR61
   32    33    34	5 ;     CG2R61     CG2R61     CG2R61
   32    33    61	5 ;     CG2R61     CG2R61      HGR61
   34    33    61	5 ;     CG2R61     CG2R61      HGR61
   33    34    29	5 ;     CG2R61     CG2R61     CG2R61
   33    34    62	5 ;     CG2R61     CG2R61      HGR61
   29    34    62	5 ;     CG2R61     CG2R61      HGR61
   36    35    39	5 ;     OG3C51     CG3C51     CG3C52
   36    35    31	5 ;     OG3C51     CG3C51     CG2R61
   36    35    63	5 ;     OG3C51     CG3C51       HGA1
   39    35    31	5 ;     CG3C52     CG3C51     CG2R61
   39    35    63	5 ;     CG3C52     CG3C51       HGA1
   31    35    63	5 ;     CG2R61     CG3C51       HGA1
   37    36    35	5 ;     CG3C52     OG3C51     CG3C51
   36    37    38	5 ;     OG3C51     CG3C52     CG3C52
   36    37    64	5 ;     OG3C51     CG3C52       HGA2
   36    37    65	5 ;     OG3C51     CG3C52       HGA2
   38    37    64	5 ;     CG3C52     CG3C52       HGA2
   38    37    65	5 ;     CG3C52     CG3C52       HGA2
   64    37    65	5 ;       HGA2     CG3C52       HGA2
   37    38    39	5 ;     CG3C52     CG3C52     CG3C52
   37    38    66	5 ;     CG3C52     CG3C52       HGA2
   37    38    67	5 ;     CG3C52     CG3C52       HGA2
   39    38    66	5 ;     CG3C52     CG3C52       HGA2
   39    38    67	5 ;     CG3C52     CG3C52       HGA2
   66    38    67	5 ;       HGA2     CG3C52       HGA2
   38    39    35	5 ;     CG3C52     CG3C52     CG3C51
   38    39    68	5 ;     CG3C52     CG3C52       HGA2
   38    39    69	5 ;     CG3C52     CG3C52       HGA2
   35    39    68	5 ;     CG3C51     CG3C52       HGA2
   35    39    69	5 ;     CG3C51     CG3C52       HGA2
   68    39    69	5 ;       HGA2     CG3C52       HGA2

[ dihedrals ]
;	ai	  aj	ak	  al funct			  c0			c1			  c2			c3			  c4			c5
    2     1     4     5	 9 ;       HGP2      NG3P2      CG324      CG311
    2     1     4    40	 9 ;       HGP2      NG3P2      CG324       HGA2
    2     1     4    41	 9 ;       HGP2      NG3P2      CG324       HGA2
    3     1     4     5	 9 ;       HGP2      NG3P2      CG324      CG311
    3     1     4    40	 9 ;       HGP2      NG3P2      CG324       HGA2
    3     1     4    41	 9 ;       HGP2      NG3P2      CG324       HGA2
   23     1     4     5	 9 ;      CG301      NG3P2      CG324      CG311
   23     1     4    40	 9 ;      CG301      NG3P2      CG324       HGA2
   23     1     4    41	 9 ;      CG301      NG3P2      CG324       HGA2
    4     1    23    29	 9 ;      CG324      NG3P2      CG301     CG2R61
    4     1    23    24	 9 ;      CG324      NG3P2      CG301      CG321
    4     1    23    28	 9 ;      CG324      NG3P2      CG301      CG321
    2     1    23    29	 9 ;       HGP2      NG3P2      CG301     CG2R61
    2     1    23    24	 9 ;       HGP2      NG3P2      CG301      CG321
    2     1    23    28	 9 ;       HGP2      NG3P2      CG301      CG321
    3     1    23    29	 9 ;       HGP2      NG3P2      CG301     CG2R61
    3     1    23    24	 9 ;       HGP2      NG3P2      CG301      CG321
    3     1    23    28	 9 ;       HGP2      NG3P2      CG301      CG321
    1     4     5    21	 9 ;      NG3P2      CG324      CG311      OG311
    1     4     5     6	 9 ;      NG3P2      CG324      CG311      CG311
    1     4     5    42	 9 ;      NG3P2      CG324      CG311       HGA1
   40     4     5    21	 9 ;       HGA2      CG324      CG311      OG311
   40     4     5     6	 9 ;       HGA2      CG324      CG311      CG311
   40     4     5    42	 9 ;       HGA2      CG324      CG311       HGA1
   41     4     5    21	 9 ;       HGA2      CG324      CG311      OG311
   41     4     5     6	 9 ;       HGA2      CG324      CG311      CG311
   41     4     5    42	 9 ;       HGA2      CG324      CG311       HGA1
    6     5    21    22	 9 ;      CG311      CG311      OG311       HGP1
    4     5    21    22	 9 ;      CG324      CG311      OG311       HGP1
   42     5    21    22	 9 ;       HGA1      CG311      OG311       HGP1
   21     5     6    12	 9 ;      OG311      CG311      CG311      CG321
   21     5     6     7	 9 ;      OG311      CG311      CG311      NG2S1
   21     5     6    43	 9 ;      OG311      CG311      CG311       HGA1
    4     5     6    12	 9 ;      CG324      CG311      CG311      CG321
    4     5     6     7	 9 ;      CG324      CG311      CG311      NG2S1
    4     5     6    43	 9 ;      CG324      CG311      CG311       HGA1
   42     5     6    12	 9 ;       HGA1      CG311      CG311      CG321
   42     5     6     7	 9 ;       HGA1      CG311      CG311      NG2S1
   42     5     6    43	 9 ;       HGA1      CG311      CG311       HGA1
    5     6    12    13	 9 ;      CG311      CG311      CG321     CG2R61
    5     6    12    44	 9 ;      CG311      CG311      CG321       HGA2
    5     6    12    45	 9 ;      CG311      CG311      CG321       HGA2
    7     6    12    13	 9 ;      NG2S1      CG311      CG321     CG2R61
    7     6    12    44	 9 ;      NG2S1      CG311      CG321       HGA2
    7     6    12    45	 9 ;      NG2S1      CG311      CG321       HGA2
   43     6    12    13	 9 ;       HGA1      CG311      CG321     CG2R61
   43     6    12    44	 9 ;       HGA1      CG311      CG321       HGA2
   43     6    12    45	 9 ;       HGA1      CG311      CG321       HGA2
    5     6     7    11	 9 ;      CG311      CG311      NG2S1       HGP1
    5     6     7     8	 9 ;      CG311      CG311      NG2S1      CG2O1
   12     6     7    11	 9 ;      CG321      CG311      NG2S1       HGP1
   12     6     7     8	 9 ;      CG321      CG311      NG2S1      CG2O1
   43     6     7    11	 9 ;       HGA1      CG311      NG2S1       HGP1
   43     6     7     8	 9 ;       HGA1      CG311      NG2S1      CG2O1
   11     7     8    10	 9 ;       HGP1      NG2S1      CG2O1      CG331
   11     7     8     9	 9 ;       HGP1      NG2S1      CG2O1      OG2D1
    6     7     8    10	 9 ;      CG311      NG2S1      CG2O1      CG331
    6     7     8     9	 9 ;      CG311      NG2S1      CG2O1      OG2D1
    7     8    10    70	 9 ;      NG2S1      CG2O1      CG331       HGA3
    7     8    10    71	 9 ;      NG2S1      CG2O1      CG331       HGA3
    7     8    10    72	 9 ;      NG2S1      CG2O1      CG331       HGA3
    9     8    10    70	 9 ;      OG2D1      CG2O1      CG331       HGA3
    9     8    10    71	 9 ;      OG2D1      CG2O1      CG331       HGA3
    9     8    10    72	 9 ;      OG2D1      CG2O1      CG331       HGA3
    6    12    13    19	 9 ;      CG311      CG321     CG2R61     CG2R61
    6    12    13    14	 9 ;      CG311      CG321     CG2R61     CG2R61
   44    12    13    19	 9 ;       HGA2      CG321     CG2R61     CG2R61
   44    12    13    14	 9 ;       HGA2      CG321     CG2R61     CG2R61
   45    12    13    19	 9 ;       HGA2      CG321     CG2R61     CG2R61
   45    12    13    14	 9 ;       HGA2      CG321     CG2R61     CG2R61
   14    13    19    18	 9 ;     CG2R61     CG2R61     CG2R61     CG2R66
   14    13    19    48	 9 ;     CG2R61     CG2R61     CG2R61      HGR62
   12    13    19    18	 9 ;      CG321     CG2R61     CG2R61     CG2R66
   12    13    19    48	 9 ;      CG321     CG2R61     CG2R61      HGR62
   19    13    14    15	 9 ;     CG2R61     CG2R61     CG2R61     CG2R66
   19    13    14    46	 9 ;     CG2R61     CG2R61     CG2R61      HGR62
   12    13    14    15	 9 ;      CG321     CG2R61     CG2R61     CG2R66
   12    13    14    46	 9 ;      CG321     CG2R61     CG2R61      HGR62
   13    14    15    17	 9 ;     CG2R61     CG2R61     CG2R66     CG2R61
   13    14    15    16	 9 ;     CG2R61     CG2R61     CG2R66       FGR1
   46    14    15    17	 9 ;      HGR62     CG2R61     CG2R66     CG2R61
   46    14    15    16	 9 ;      HGR62     CG2R61     CG2R66       FGR1
   16    15    17    18	 9 ;       FGR1     CG2R66     CG2R61     CG2R66
   16    15    17    47	 9 ;       FGR1     CG2R66     CG2R61      HGR62
   14    15    17    18	 9 ;     CG2R61     CG2R66     CG2R61     CG2R66
   14    15    17    47	 9 ;     CG2R61     CG2R66     CG2R61      HGR62
   15    17    18    20	 9 ;     CG2R66     CG2R61     CG2R66       FGR1
   15    17    18    19	 9 ;     CG2R66     CG2R61     CG2R66     CG2R61
   47    17    18    20	 9 ;      HGR62     CG2R61     CG2R66       FGR1
   47    17    18    19	 9 ;      HGR62     CG2R61     CG2R66     CG2R61
   20    18    19    13	 9 ;       FGR1     CG2R66     CG2R61     CG2R61
   20    18    19    48	 9 ;       FGR1     CG2R66     CG2R61      HGR62
   17    18    19    13	 9 ;     CG2R61     CG2R66     CG2R61     CG2R61
   17    18    19    48	 9 ;     CG2R61     CG2R66     CG2R61      HGR62
    1    23    29    34	 9 ;      NG3P2      CG301     CG2R61     CG2R61
    1    23    29    30	 9 ;      NG3P2      CG301     CG2R61     CG2R61
   24    23    29    34	 9 ;      CG321      CG301     CG2R61     CG2R61
   24    23    29    30	 9 ;      CG321      CG301     CG2R61     CG2R61
   28    23    29    34	 9 ;      CG321      CG301     CG2R61     CG2R61
   28    23    29    30	 9 ;      CG321      CG301     CG2R61     CG2R61
    1    23    24    25	 9 ;      NG3P2      CG301      CG321      CG321
    1    23    24    49	 9 ;      NG3P2      CG301      CG321       HGA2
    1    23    24    50	 9 ;      NG3P2      CG301      CG321       HGA2
   29    23    24    25	 9 ;     CG2R61      CG301      CG321      CG321
   29    23    24    49	 9 ;     CG2R61      CG301      CG321       HGA2
   29    23    24    50	 9 ;     CG2R61      CG301      CG321       HGA2
   28    23    24    25	 9 ;      CG321      CG301      CG321      CG321
   28    23    24    49	 9 ;      CG321      CG301      CG321       HGA2
   28    23    24    50	 9 ;      CG321      CG301      CG321       HGA2
    1    23    28    27	 9 ;      NG3P2      CG301      CG321      CG321
    1    23    28    57	 9 ;      NG3P2      CG301      CG321       HGA2
    1    23    28    58	 9 ;      NG3P2      CG301      CG321       HGA2
   29    23    28    27	 9 ;     CG2R61      CG301      CG321      CG321
   29    23    28    57	 9 ;     CG2R61      CG301      CG321       HGA2
   29    23    28    58	 9 ;     CG2R61      CG301      CG321       HGA2
   24    23    28    27	 9 ;      CG321      CG301      CG321      CG321
   24    23    28    57	 9 ;      CG321      CG301      CG321       HGA2
   24    23    28    58	 9 ;      CG321      CG301      CG321       HGA2
   23    24    25    26	 9 ;      CG301      CG321      CG321      CG321
   23    24    25    51	 9 ;      CG301      CG321      CG321       HGA2
   23    24    25    52	 9 ;      CG301      CG321      CG321       HGA2
   49    24    25    26	 9 ;       HGA2      CG321      CG321      CG321
   49    24    25    51	 9 ;       HGA2      CG321      CG321       HGA2
   49    24    25    52	 9 ;       HGA2      CG321      CG321       HGA2
   50    24    25    26	 9 ;       HGA2      CG321      CG321      CG321
   50    24    25    51	 9 ;       HGA2      CG321      CG321       HGA2
   50    24    25    52	 9 ;       HGA2      CG321      CG321       HGA2
   24    25    26    27	 9 ;      CG321      CG321      CG321      CG321
   24    25    26    53	 9 ;      CG321      CG321      CG321       HGA2
   24    25    26    54	 9 ;      CG321      CG321      CG321       HGA2
   51    25    26    27	 9 ;       HGA2      CG321      CG321      CG321
   51    25    26    53	 9 ;       HGA2      CG321      CG321       HGA2
   51    25    26    54	 9 ;       HGA2      CG321      CG321       HGA2
   52    25    26    27	 9 ;       HGA2      CG321      CG321      CG321
   52    25    26    53	 9 ;       HGA2      CG321      CG321       HGA2
   52    25    26    54	 9 ;       HGA2      CG321      CG321       HGA2
   25    26    27    28	 9 ;      CG321      CG321      CG321      CG321
   25    26    27    55	 9 ;      CG321      CG321      CG321       HGA2
   25    26    27    56	 9 ;      CG321      CG321      CG321       HGA2
   53    26    27    28	 9 ;       HGA2      CG321      CG321      CG321
   53    26    27    55	 9 ;       HGA2      CG321      CG321       HGA2
   53    26    27    56	 9 ;       HGA2      CG321      CG321       HGA2
   54    26    27    28	 9 ;       HGA2      CG321      CG321      CG321
   54    26    27    55	 9 ;       HGA2      CG321      CG321       HGA2
   54    26    27    56	 9 ;       HGA2      CG321      CG321       HGA2
   26    27    28    23	 9 ;      CG321      CG321      CG321      CG301
   26    27    28    57	 9 ;      CG321      CG321      CG321       HGA2
   26    27    28    58	 9 ;      CG321      CG321      CG321       HGA2
   55    27    28    23	 9 ;       HGA2      CG321      CG321      CG301
   55    27    28    57	 9 ;       HGA2      CG321      CG321       HGA2
   55    27    28    58	 9 ;       HGA2      CG321      CG321       HGA2
   56    27    28    23	 9 ;       HGA2      CG321      CG321      CG301
   56    27    28    57	 9 ;       HGA2      CG321      CG321       HGA2
   56    27    28    58	 9 ;       HGA2      CG321      CG321       HGA2
   30    29    34    33	 9 ;     CG2R61     CG2R61     CG2R61     CG2R61
   30    29    34    62	 9 ;     CG2R61     CG2R61     CG2R61      HGR61
   23    29    34    33	 9 ;      CG301     CG2R61     CG2R61     CG2R61
   23    29    34    62	 9 ;      CG301     CG2R61     CG2R61      HGR61
   34    29    30    31	 9 ;     CG2R61     CG2R61     CG2R61     CG2R61
   34    29    30    59	 9 ;     CG2R61     CG2R61     CG2R61      HGR61
   23    29    30    31	 9 ;      CG301     CG2R61     CG2R61     CG2R61
   23    29    30    59	 9 ;      CG301     CG2R61     CG2R61      HGR61
   29    30    31    32	 9 ;     CG2R61     CG2R61     CG2R61     CG2R61
   29    30    31    35	 9 ;     CG2R61     CG2R61     CG2R61     CG3C51
   59    30    31    32	 9 ;      HGR61     CG2R61     CG2R61     CG2R61
   59    30    31    35	 9 ;      HGR61     CG2R61     CG2R61     CG3C51
   35    31    32    33	 9 ;     CG3C51     CG2R61     CG2R61     CG2R61
   35    31    32    60	 9 ;     CG3C51     CG2R61     CG2R61      HGR61
   30    31    32    33	 9 ;     CG2R61     CG2R61     CG2R61     CG2R61
   30    31    32    60	 9 ;     CG2R61     CG2R61     CG2R61      HGR61
   32    31    35    36	 9 ;     CG2R61     CG2R61     CG3C51     OG3C51
   32    31    35    39	 9 ;     CG2R61     CG2R61     CG3C51     CG3C52
   32    31    35    63	 9 ;     CG2R61     CG2R61     CG3C51       HGA1
   30    31    35    36	 9 ;     CG2R61     CG2R61     CG3C51     OG3C51
   30    31    35    39	 9 ;     CG2R61     CG2R61     CG3C51     CG3C52
   30    31    35    63	 9 ;     CG2R61     CG2R61     CG3C51       HGA1
   31    32    33    34	 9 ;     CG2R61     CG2R61     CG2R61     CG2R61
   31    32    33    61	 9 ;     CG2R61     CG2R61     CG2R61      HGR61
   60    32    33    34	 9 ;      HGR61     CG2R61     CG2R61     CG2R61
   60    32    33    61	 9 ;      HGR61     CG2R61     CG2R61      HGR61
   32    33    34    29	 9 ;     CG2R61     CG2R61     CG2R61     CG2R61
   32    33    34    62	 9 ;     CG2R61     CG2R61     CG2R61      HGR61
   61    33    34    29	 9 ;      HGR61     CG2R61     CG2R61     CG2R61
   61    33    34    62	 9 ;      HGR61     CG2R61     CG2R61      HGR61
   39    35    36    37	 9 ;     CG3C52     CG3C51     OG3C51     CG3C52
   31    35    36    37	 9 ;     CG2R61     CG3C51     OG3C51     CG3C52
   63    35    36    37	 9 ;       HGA1     CG3C51     OG3C51     CG3C52
   36    35    39    38	 9 ;     OG3C51     CG3C51     CG3C52     CG3C52
   36    35    39    68	 9 ;     OG3C51     CG3C51     CG3C52       HGA2
   36    35    39    69	 9 ;     OG3C51     CG3C51     CG3C52       HGA2
   31    35    39    38	 9 ;     CG2R61     CG3C51     CG3C52     CG3C52
   31    35    39    68	 9 ;     CG2R61     CG3C51     CG3C52       HGA2
   31    35    39    69	 9 ;     CG2R61     CG3C51     CG3C52       HGA2
   63    35    39    38	 9 ;       HGA1     CG3C51     CG3C52     CG3C52
   63    35    39    68	 9 ;       HGA1     CG3C51     CG3C52       HGA2
   63    35    39    69	 9 ;       HGA1     CG3C51     CG3C52       HGA2
   35    36    37    38	 9 ;     CG3C51     OG3C51     CG3C52     CG3C52
   35    36    37    64	 9 ;     CG3C51     OG3C51     CG3C52       HGA2
   35    36    37    65	 9 ;     CG3C51     OG3C51     CG3C52       HGA2
   36    37    38    39	 9 ;     OG3C51     CG3C52     CG3C52     CG3C52
   36    37    38    66	 9 ;     OG3C51     CG3C52     CG3C52       HGA2
   36    37    38    67	 9 ;     OG3C51     CG3C52     CG3C52       HGA2
   64    37    38    39	 9 ;       HGA2     CG3C52     CG3C52     CG3C52
   64    37    38    66	 9 ;       HGA2     CG3C52     CG3C52       HGA2
   64    37    38    67	 9 ;       HGA2     CG3C52     CG3C52       HGA2
   65    37    38    39	 9 ;       HGA2     CG3C52     CG3C52     CG3C52
   65    37    38    66	 9 ;       HGA2     CG3C52     CG3C52       HGA2
   65    37    38    67	 9 ;       HGA2     CG3C52     CG3C52       HGA2
   37    38    39    35	 9 ;     CG3C52     CG3C52     CG3C52     CG3C51
   37    38    39    68	 9 ;     CG3C52     CG3C52     CG3C52       HGA2
   37    38    39    69	 9 ;     CG3C52     CG3C52     CG3C52       HGA2
   66    38    39    35	 9 ;       HGA2     CG3C52     CG3C52     CG3C51
   66    38    39    68	 9 ;       HGA2     CG3C52     CG3C52       HGA2
   66    38    39    69	 9 ;       HGA2     CG3C52     CG3C52       HGA2
   67    38    39    35	 9 ;       HGA2     CG3C52     CG3C52     CG3C51
   67    38    39    68	 9 ;       HGA2     CG3C52     CG3C52       HGA2
   67    38    39    69	 9 ;       HGA2     CG3C52     CG3C52       HGA2

[ dihedrals ]
;	ai	  aj	ak	  al funct			  c0			c1			  c2			c3
    8    10     7     9	 2

