Green Red Orange Magenta Azure Cyan Skyblue
   57
    1LIG     C1    1  -1.221   0.442  -1.673
    1LIG     N1    2  -1.252   0.339  -1.583
    1LIG     C2    3  -1.160   0.234  -1.597
    1LIG     C3    4  -1.075   0.270  -1.701
    1LIG     C4    5  -1.112   0.397  -1.747
    1LIG     C5    6  -1.291   0.571  -1.696
    1LIG     C6    7  -1.298   0.674  -1.600
    1LIG     C7    8  -1.375   0.789  -1.623
    1LIG     C8    9  -1.441   0.806  -1.745
    1LIG     C9   10  -1.422   0.713  -1.847
    1LIG    C10   11  -1.350   0.596  -1.821
    1LIG    C11   12  -1.533   0.922  -1.762
    1LIG      O   13  -1.527   0.992  -1.862
    1LIG     N2   14  -1.617   0.947  -1.654
    1LIG     H1   15  -1.604   0.892  -1.570
    1LIG    C12   16  -1.696   1.065  -1.643
    1LIG    C13   17  -1.638   1.188  -1.579
    1LIG    C14   18  -1.745   1.110  -1.508
    1LIG    C15   19  -1.366   0.339  -1.489
    1LIG    C16   20  -1.499   0.309  -1.554
    1LIG     N3   21  -1.609   0.368  -1.498
    1LIG    C17   22  -1.728   0.354  -1.561
    1LIG     HN   23  -1.602   0.422  -1.412
    1LIG    C18   24  -1.742   0.283  -1.679
    1LIG    C19   25  -1.631   0.216  -1.731
    1LIG    C20   26  -1.509   0.227  -1.666
    1LIG     N4   27  -1.838   0.417  -1.506
    1LIG     H2   28  -1.829   0.517  -1.523
    1LIG     H3   29  -1.848   0.396  -1.407
    1LIG    C21   30  -1.147   0.111  -1.514
    1LIG    C22   31  -1.220  -0.006  -1.536
    1LIG    C23   32  -1.209  -0.117  -1.451
    1LIG    C24   33  -1.118  -0.115  -1.346
    1LIG    C25   34  -1.040  -0.002  -1.325
    1LIG    C26   35  -1.055   0.110  -1.407
    1LIG     HC   36  -0.994   0.210  -1.740
    1LIG    HC1   37  -1.064   0.451  -1.827
    1LIG    HC2   38  -1.243   0.664  -1.508
    1LIG    HC3   39  -1.383   0.864  -1.546
    1LIG    HC4   40  -1.463   0.730  -1.945
    1LIG    HC5   41  -1.339   0.522  -1.899
    1LIG    HC6   42  -1.765   1.083  -1.725
    1LIG    HC7   43  -1.661   1.286  -1.620
    1LIG    HC8   44  -1.538   1.177  -1.538
    1LIG    HC9   45  -1.845   1.152  -1.497
    1LIG   HC10   46  -1.710   1.050  -1.423
    1LIG   HC11   47  -1.371   0.438  -1.443
    1LIG   HC12   48  -1.347   0.265  -1.411
    1LIG   HC13   49  -1.837   0.279  -1.730
    1LIG   HC14   50  -1.640   0.156  -1.820
    1LIG   HC15   51  -1.423   0.174  -1.702
    1LIG   HC16   52  -1.286  -0.012  -1.622
    1LIG   HC17   53  -1.270  -0.204  -1.468
    1LIG   HC18   54  -1.109  -0.200  -1.280
    1LIG   HC19   55  -0.967  -0.001  -1.245
    1LIG   HC20   56  -0.996   0.198  -1.388
    1LIG    H26   57  -1.512   0.223  -1.488
   0.00000   0.00000   0.00000
