; Created by cgenff_charmm2gmx.py

[ moleculetype ]
; Name			   nrexcl
LIG				 3

[ atoms ]
;	 nr		  type	resnr residue  atom   cgnr	   charge		mass  typeB    chargeB		massB
; residue	 1 LIG rtp LIG q	qsum
     1     CG2R61      1    LIG     C1      1      0.064     12.011   ;
     2     CG2R61      1    LIG     C2      2     -0.126     12.011   ;
     3     CG2R67      1    LIG     C3      3      0.006     12.011   ;
     4     CG2R61      1    LIG     C4      4     -0.119     12.011   ;
     5     CG2R61      1    LIG     C5      5     -0.116     12.011   ;
     6     CG2R61      1    LIG     C6      6     -0.119     12.011   ;
     7      CG301      1    LIG     C7      7      0.300     12.011   ;
     8      CG321      1    LIG     C8      8     -0.143     12.011   ;
     9      CG321      1    LIG     C9      9     -0.092     12.011   ;
    10      SG311      1    LIG      S     10     -0.386     32.060   ;
    11      CG311      1    LIG    C10     11      0.726     12.011   ;
    12      NG311      1    LIG     N1     12     -0.929     14.007   ;
    13     HGPAM1      1    LIG     HN     13      0.341      1.008   ;
    14      CG331      1    LIG    C11     14     -0.319     12.011   ;
    15      NG321      1    LIG     N2     15     -1.078     14.007   ;
    16     HGPAM2      1    LIG     H1     16      0.403      1.008   ;
    17     HGPAM2      1    LIG     H2     17      0.403      1.008   ;
    18     CG2R67      1    LIG    C12     18      0.006     12.011   ;
    19     CG2R61      1    LIG    C13     19     -0.122     12.011   ;
    20     CG2R61      1    LIG    C14     20      0.209     12.011   ;
    21     CG2R61      1    LIG    C15     21     -0.115     12.011   ;
    22     CG2R61      1    LIG    C16     22     -0.116     12.011   ;
    23     CG2R61      1    LIG    C17     23     -0.119     12.011   ;
    24      OG301      1    LIG      O     24     -0.383     15.999   ;
    25      CG331      1    LIG    C18     25     -0.094     12.011   ;
    26      HGR61      1    LIG     H3     26      0.116      1.008   ;
    27      HGR61      1    LIG     H4     27      0.116      1.008   ;
    28      HGR61      1    LIG     H5     28      0.116      1.008   ;
    29      HGR61      1    LIG     H6     29      0.116      1.008   ;
    30       HGA2      1    LIG     H7     30      0.090      1.008   ;
    31       HGA2      1    LIG     H8     31      0.090      1.008   ;
    32       HGA2      1    LIG     H9     32      0.090      1.008   ;
    33       HGA2      1    LIG    H10     33      0.090      1.008   ;
    34       HGA1      1    LIG    H11     34      0.090      1.008   ;
    35       HGA3      1    LIG    H12     35      0.090      1.008   ;
    36       HGA3      1    LIG    H13     36      0.090      1.008   ;
    37       HGA3      1    LIG    H14     37      0.090      1.008   ;
    38      HGR61      1    LIG    H15     38      0.116      1.008   ;
    39      HGR61      1    LIG    H16     39      0.116      1.008   ;
    40      HGR61      1    LIG    H17     40      0.116      1.008   ;
    41      HGR61      1    LIG    H18     41      0.116      1.008   ;
    42       HGA3      1    LIG    H19     42      0.090      1.008   ;
    43       HGA3      1    LIG    H20     43      0.090      1.008   ;
    44       HGA3      1    LIG    H21     44      0.090      1.008   ;

[ bonds ]
;	ai	  aj funct			  c0			c1			  c2			c3
    1     2	 1 ;      CG2R61     CG2R61
    1     6	 1 ;      CG2R61     CG2R61
    1     7	 1 ;      CG2R61      CG301
    2     3	 1 ;      CG2R61     CG2R67
    2    26	 1 ;      CG2R61      HGR61
    3    18	 1 ;      CG2R67     CG2R67
    3     4	 1 ;      CG2R67     CG2R61
    4     5	 1 ;      CG2R61     CG2R61
    4    27	 1 ;      CG2R61      HGR61
    5     6	 1 ;      CG2R61     CG2R61
    5    28	 1 ;      CG2R61      HGR61
    6    29	 1 ;      CG2R61      HGR61
    7    12	 1 ;       CG301      NG311
    7     8	 1 ;       CG301      CG321
    7    14	 1 ;       CG301      CG331
    8     9	 1 ;       CG321      CG321
    8    30	 1 ;       CG321       HGA2
    8    31	 1 ;       CG321       HGA2
    9    10	 1 ;       CG321      SG311
    9    32	 1 ;       CG321       HGA2
    9    33	 1 ;       CG321       HGA2
   10    11	 1 ;       SG311      CG311
   11    15	 1 ;       CG311      NG321
   11    12	 1 ;       CG311      NG311
   11    34	 1 ;       CG311       HGA1
   12    13	 1 ;       NG311     HGPAM1
   14    35	 1 ;       CG331       HGA3
   14    36	 1 ;       CG331       HGA3
   14    37	 1 ;       CG331       HGA3
   15    17	 1 ;       NG321     HGPAM2
   15    16	 1 ;       NG321     HGPAM2
   18    23	 1 ;      CG2R67     CG2R61
   18    19	 1 ;      CG2R67     CG2R61
   19    20	 1 ;      CG2R61     CG2R61
   19    38	 1 ;      CG2R61      HGR61
   20    21	 1 ;      CG2R61     CG2R61
   20    24	 1 ;      CG2R61      OG301
   21    22	 1 ;      CG2R61     CG2R61
   21    39	 1 ;      CG2R61      HGR61
   22    23	 1 ;      CG2R61     CG2R61
   22    40	 1 ;      CG2R61      HGR61
   23    41	 1 ;      CG2R61      HGR61
   24    25	 1 ;       OG301      CG331
   25    42	 1 ;       CG331       HGA3
   25    43	 1 ;       CG331       HGA3
   25    44	 1 ;       CG331       HGA3

[ pairs ]
;	ai	  aj funct			  c0			c1			  c2			c3
    1    18	 1
    1     4	 1
    1    28	 1
    1    13	 1
    1    11	 1
    1     9	 1
    1    30	 1
    1    31	 1
    1    35	 1
    1    36	 1
    1    37	 1
    2     5	 1
    2    29	 1
    2    12	 1
    2     8	 1
    2    14	 1
    2    23	 1
    2    19	 1
    2    27	 1
    3     6	 1
    3     7	 1
    3    28	 1
    3    22	 1
    3    41	 1
    3    20	 1
    3    38	 1
    4    26	 1
    4    23	 1
    4    19	 1
    4    29	 1
    5     7	 1
    5    18	 1
    6    26	 1
    6    12	 1
    6     8	 1
    6    14	 1
    6    27	 1
    7    26	 1
    7    29	 1
    7    10	 1
    7    32	 1
    7    33	 1
    7    15	 1
    7    34	 1
    8    13	 1
    8    11	 1
    8    35	 1
    8    36	 1
    8    37	 1
    9    12	 1
    9    14	 1
    9    15	 1
    9    34	 1
   10    30	 1
   10    31	 1
   10    17	 1
   10    16	 1
   10    13	 1
   11    14	 1
   11    32	 1
   11    33	 1
   12    30	 1
   12    31	 1
   12    35	 1
   12    36	 1
   12    37	 1
   12    17	 1
   12    16	 1
   13    14	 1
   13    15	 1
   13    34	 1
   14    30	 1
   14    31	 1
   16    34	 1
   17    34	 1
   18    26	 1
   18    27	 1
   18    21	 1
   18    24	 1
   18    40	 1
   19    22	 1
   19    41	 1
   19    39	 1
   19    25	 1
   20    23	 1
   20    40	 1
   20    42	 1
   20    43	 1
   20    44	 1
   21    38	 1
   21    25	 1
   21    41	 1
   22    24	 1
   23    38	 1
   23    39	 1
   24    38	 1
   24    39	 1
   27    28	 1
   28    29	 1
   30    32	 1
   30    33	 1
   31    32	 1
   31    33	 1
   39    40	 1
   40    41	 1

[ angles ]
;	ai	  aj	ak funct			c0			  c1			c2			  c3
    2     1     6	5 ;     CG2R61     CG2R61     CG2R61
    2     1     7	5 ;     CG2R61     CG2R61      CG301
    6     1     7	5 ;     CG2R61     CG2R61      CG301
    3     2     1	5 ;     CG2R67     CG2R61     CG2R61
    3     2    26	5 ;     CG2R67     CG2R61      HGR61
    1     2    26	5 ;     CG2R61     CG2R61      HGR61
   18     3     4	5 ;     CG2R67     CG2R67     CG2R61
   18     3     2	5 ;     CG2R67     CG2R67     CG2R61
    4     3     2	5 ;     CG2R61     CG2R67     CG2R61
    3     4     5	5 ;     CG2R67     CG2R61     CG2R61
    3     4    27	5 ;     CG2R67     CG2R61      HGR61
    5     4    27	5 ;     CG2R61     CG2R61      HGR61
    4     5     6	5 ;     CG2R61     CG2R61     CG2R61
    4     5    28	5 ;     CG2R61     CG2R61      HGR61
    6     5    28	5 ;     CG2R61     CG2R61      HGR61
    5     6     1	5 ;     CG2R61     CG2R61     CG2R61
    5     6    29	5 ;     CG2R61     CG2R61      HGR61
    1     6    29	5 ;     CG2R61     CG2R61      HGR61
    1     7    12	5 ;     CG2R61      CG301      NG311
    1     7     8	5 ;     CG2R61      CG301      CG321
    1     7    14	5 ;     CG2R61      CG301      CG331
   12     7     8	5 ;      NG311      CG301      CG321
   12     7    14	5 ;      NG311      CG301      CG331
    8     7    14	5 ;      CG321      CG301      CG331
    7     8     9	5 ;      CG301      CG321      CG321
    7     8    30	5 ;      CG301      CG321       HGA2
    7     8    31	5 ;      CG301      CG321       HGA2
    9     8    30	5 ;      CG321      CG321       HGA2
    9     8    31	5 ;      CG321      CG321       HGA2
   30     8    31	5 ;       HGA2      CG321       HGA2
    8     9    10	5 ;      CG321      CG321      SG311
    8     9    32	5 ;      CG321      CG321       HGA2
    8     9    33	5 ;      CG321      CG321       HGA2
   10     9    32	5 ;      SG311      CG321       HGA2
   10     9    33	5 ;      SG311      CG321       HGA2
   32     9    33	5 ;       HGA2      CG321       HGA2
   11    10     9	5 ;      CG311      SG311      CG321
   15    11    12	5 ;      NG321      CG311      NG311
   15    11    10	5 ;      NG321      CG311      SG311
   15    11    34	5 ;      NG321      CG311       HGA1
   12    11    10	5 ;      NG311      CG311      SG311
   12    11    34	5 ;      NG311      CG311       HGA1
   10    11    34	5 ;      SG311      CG311       HGA1
   13    12    11	5 ;     HGPAM1      NG311      CG311
   13    12     7	5 ;     HGPAM1      NG311      CG301
   11    12     7	5 ;      CG311      NG311      CG301
    7    14    35	5 ;      CG301      CG331       HGA3
    7    14    36	5 ;      CG301      CG331       HGA3
    7    14    37	5 ;      CG301      CG331       HGA3
   35    14    36	5 ;       HGA3      CG331       HGA3
   35    14    37	5 ;       HGA3      CG331       HGA3
   36    14    37	5 ;       HGA3      CG331       HGA3
   17    15    16	5 ;     HGPAM2      NG321     HGPAM2
   17    15    11	5 ;     HGPAM2      NG321      CG311
   16    15    11	5 ;     HGPAM2      NG321      CG311
   23    18    19	5 ;     CG2R61     CG2R67     CG2R61
   23    18     3	5 ;     CG2R61     CG2R67     CG2R67
   19    18     3	5 ;     CG2R61     CG2R67     CG2R67
   20    19    18	5 ;     CG2R61     CG2R61     CG2R67
   20    19    38	5 ;     CG2R61     CG2R61      HGR61
   18    19    38	5 ;     CG2R67     CG2R61      HGR61
   21    20    24	5 ;     CG2R61     CG2R61      OG301
   21    20    19	5 ;     CG2R61     CG2R61     CG2R61
   24    20    19	5 ;      OG301     CG2R61     CG2R61
   22    21    20	5 ;     CG2R61     CG2R61     CG2R61
   22    21    39	5 ;     CG2R61     CG2R61      HGR61
   20    21    39	5 ;     CG2R61     CG2R61      HGR61
   21    22    23	5 ;     CG2R61     CG2R61     CG2R61
   21    22    40	5 ;     CG2R61     CG2R61      HGR61
   23    22    40	5 ;     CG2R61     CG2R61      HGR61
   22    23    18	5 ;     CG2R61     CG2R61     CG2R67
   22    23    41	5 ;     CG2R61     CG2R61      HGR61
   18    23    41	5 ;     CG2R67     CG2R61      HGR61
   20    24    25	5 ;     CG2R61      OG301      CG331
   24    25    42	5 ;      OG301      CG331       HGA3
   24    25    43	5 ;      OG301      CG331       HGA3
   24    25    44	5 ;      OG301      CG331       HGA3
   42    25    43	5 ;       HGA3      CG331       HGA3
   42    25    44	5 ;       HGA3      CG331       HGA3
   43    25    44	5 ;       HGA3      CG331       HGA3

[ dihedrals ]
;	ai	  aj	ak	  al funct			  c0			c1			  c2			c3			  c4			c5
    6     1     2     3	 9 ;     CG2R61     CG2R61     CG2R61     CG2R67
    6     1     2    26	 9 ;     CG2R61     CG2R61     CG2R61      HGR61
    7     1     2     3	 9 ;      CG301     CG2R61     CG2R61     CG2R67
    7     1     2    26	 9 ;      CG301     CG2R61     CG2R61      HGR61
    2     1     6     5	 9 ;     CG2R61     CG2R61     CG2R61     CG2R61
    2     1     6    29	 9 ;     CG2R61     CG2R61     CG2R61      HGR61
    7     1     6     5	 9 ;      CG301     CG2R61     CG2R61     CG2R61
    7     1     6    29	 9 ;      CG301     CG2R61     CG2R61      HGR61
    2     1     7    12	 9 ;     CG2R61     CG2R61      CG301      NG311
    2     1     7     8	 9 ;     CG2R61     CG2R61      CG301      CG321
    2     1     7    14	 9 ;     CG2R61     CG2R61      CG301      CG331
    6     1     7    12	 9 ;     CG2R61     CG2R61      CG301      NG311
    6     1     7     8	 9 ;     CG2R61     CG2R61      CG301      CG321
    6     1     7    14	 9 ;     CG2R61     CG2R61      CG301      CG331
    1     2     3    18	 9 ;     CG2R61     CG2R61     CG2R67     CG2R67
    1     2     3     4	 9 ;     CG2R61     CG2R61     CG2R67     CG2R61
   26     2     3    18	 9 ;      HGR61     CG2R61     CG2R67     CG2R67
   26     2     3     4	 9 ;      HGR61     CG2R61     CG2R67     CG2R61
    4     3    18    23	 9 ;     CG2R61     CG2R67     CG2R67     CG2R61
    4     3    18    19	 9 ;     CG2R61     CG2R67     CG2R67     CG2R61
    2     3    18    23	 9 ;     CG2R61     CG2R67     CG2R67     CG2R61
    2     3    18    19	 9 ;     CG2R61     CG2R67     CG2R67     CG2R61
   18     3     4     5	 9 ;     CG2R67     CG2R67     CG2R61     CG2R61
   18     3     4    27	 9 ;     CG2R67     CG2R67     CG2R61      HGR61
    2     3     4     5	 9 ;     CG2R61     CG2R67     CG2R61     CG2R61
    2     3     4    27	 9 ;     CG2R61     CG2R67     CG2R61      HGR61
    3     4     5     6	 9 ;     CG2R67     CG2R61     CG2R61     CG2R61
    3     4     5    28	 9 ;     CG2R67     CG2R61     CG2R61      HGR61
   27     4     5     6	 9 ;      HGR61     CG2R61     CG2R61     CG2R61
   27     4     5    28	 9 ;      HGR61     CG2R61     CG2R61      HGR61
    4     5     6     1	 9 ;     CG2R61     CG2R61     CG2R61     CG2R61
    4     5     6    29	 9 ;     CG2R61     CG2R61     CG2R61      HGR61
   28     5     6     1	 9 ;      HGR61     CG2R61     CG2R61     CG2R61
   28     5     6    29	 9 ;      HGR61     CG2R61     CG2R61      HGR61
    1     7    12    13	 9 ;     CG2R61      CG301      NG311     HGPAM1
    1     7    12    11	 9 ;     CG2R61      CG301      NG311      CG311
    8     7    12    13	 9 ;      CG321      CG301      NG311     HGPAM1
    8     7    12    11	 9 ;      CG321      CG301      NG311      CG311
   14     7    12    13	 9 ;      CG331      CG301      NG311     HGPAM1
   14     7    12    11	 9 ;      CG331      CG301      NG311      CG311
    1     7     8     9	 9 ;     CG2R61      CG301      CG321      CG321
    1     7     8    30	 9 ;     CG2R61      CG301      CG321       HGA2
    1     7     8    31	 9 ;     CG2R61      CG301      CG321       HGA2
   12     7     8     9	 9 ;      NG311      CG301      CG321      CG321
   12     7     8    30	 9 ;      NG311      CG301      CG321       HGA2
   12     7     8    31	 9 ;      NG311      CG301      CG321       HGA2
   14     7     8     9	 9 ;      CG331      CG301      CG321      CG321
   14     7     8    30	 9 ;      CG331      CG301      CG321       HGA2
   14     7     8    31	 9 ;      CG331      CG301      CG321       HGA2
    1     7    14    35	 9 ;     CG2R61      CG301      CG331       HGA3
    1     7    14    36	 9 ;     CG2R61      CG301      CG331       HGA3
    1     7    14    37	 9 ;     CG2R61      CG301      CG331       HGA3
   12     7    14    35	 9 ;      NG311      CG301      CG331       HGA3
   12     7    14    36	 9 ;      NG311      CG301      CG331       HGA3
   12     7    14    37	 9 ;      NG311      CG301      CG331       HGA3
    8     7    14    35	 9 ;      CG321      CG301      CG331       HGA3
    8     7    14    36	 9 ;      CG321      CG301      CG331       HGA3
    8     7    14    37	 9 ;      CG321      CG301      CG331       HGA3
    7     8     9    10	 9 ;      CG301      CG321      CG321      SG311
    7     8     9    32	 9 ;      CG301      CG321      CG321       HGA2
    7     8     9    33	 9 ;      CG301      CG321      CG321       HGA2
   30     8     9    10	 9 ;       HGA2      CG321      CG321      SG311
   30     8     9    32	 9 ;       HGA2      CG321      CG321       HGA2
   30     8     9    33	 9 ;       HGA2      CG321      CG321       HGA2
   31     8     9    10	 9 ;       HGA2      CG321      CG321      SG311
   31     8     9    32	 9 ;       HGA2      CG321      CG321       HGA2
   31     8     9    33	 9 ;       HGA2      CG321      CG321       HGA2
    8     9    10    11	 9 ;      CG321      CG321      SG311      CG311
   32     9    10    11	 9 ;       HGA2      CG321      SG311      CG311
   33     9    10    11	 9 ;       HGA2      CG321      SG311      CG311
    9    10    11    15	 9 ;      CG321      SG311      CG311      NG321
    9    10    11    12	 9 ;      CG321      SG311      CG311      NG311
    9    10    11    34	 9 ;      CG321      SG311      CG311       HGA1
   12    11    15    17	 9 ;      NG311      CG311      NG321     HGPAM2
   12    11    15    16	 9 ;      NG311      CG311      NG321     HGPAM2
   10    11    15    17	 9 ;      SG311      CG311      NG321     HGPAM2
   10    11    15    16	 9 ;      SG311      CG311      NG321     HGPAM2
   34    11    15    17	 9 ;       HGA1      CG311      NG321     HGPAM2
   34    11    15    16	 9 ;       HGA1      CG311      NG321     HGPAM2
   15    11    12    13	 9 ;      NG321      CG311      NG311     HGPAM1
   15    11    12     7	 9 ;      NG321      CG311      NG311      CG301
   10    11    12    13	 9 ;      SG311      CG311      NG311     HGPAM1
   10    11    12     7	 9 ;      SG311      CG311      NG311      CG301
   34    11    12    13	 9 ;       HGA1      CG311      NG311     HGPAM1
   34    11    12     7	 9 ;       HGA1      CG311      NG311      CG301
   19    18    23    22	 9 ;     CG2R61     CG2R67     CG2R61     CG2R61
   19    18    23    41	 9 ;     CG2R61     CG2R67     CG2R61      HGR61
    3    18    23    22	 9 ;     CG2R67     CG2R67     CG2R61     CG2R61
    3    18    23    41	 9 ;     CG2R67     CG2R67     CG2R61      HGR61
   23    18    19    20	 9 ;     CG2R61     CG2R67     CG2R61     CG2R61
   23    18    19    38	 9 ;     CG2R61     CG2R67     CG2R61      HGR61
    3    18    19    20	 9 ;     CG2R67     CG2R67     CG2R61     CG2R61
    3    18    19    38	 9 ;     CG2R67     CG2R67     CG2R61      HGR61
   18    19    20    21	 9 ;     CG2R67     CG2R61     CG2R61     CG2R61
   18    19    20    24	 9 ;     CG2R67     CG2R61     CG2R61      OG301
   38    19    20    21	 9 ;      HGR61     CG2R61     CG2R61     CG2R61
   38    19    20    24	 9 ;      HGR61     CG2R61     CG2R61      OG301
   24    20    21    22	 9 ;      OG301     CG2R61     CG2R61     CG2R61
   24    20    21    39	 9 ;      OG301     CG2R61     CG2R61      HGR61
   19    20    21    22	 9 ;     CG2R61     CG2R61     CG2R61     CG2R61
   19    20    21    39	 9 ;     CG2R61     CG2R61     CG2R61      HGR61
   21    20    24    25	 9 ;     CG2R61     CG2R61      OG301      CG331
   19    20    24    25	 9 ;     CG2R61     CG2R61      OG301      CG331
   20    21    22    23	 9 ;     CG2R61     CG2R61     CG2R61     CG2R61
   20    21    22    40	 9 ;     CG2R61     CG2R61     CG2R61      HGR61
   39    21    22    23	 9 ;      HGR61     CG2R61     CG2R61     CG2R61
   39    21    22    40	 9 ;      HGR61     CG2R61     CG2R61      HGR61
   21    22    23    18	 9 ;     CG2R61     CG2R61     CG2R61     CG2R67
   21    22    23    41	 9 ;     CG2R61     CG2R61     CG2R61      HGR61
   40    22    23    18	 9 ;      HGR61     CG2R61     CG2R61     CG2R67
   40    22    23    41	 9 ;      HGR61     CG2R61     CG2R61      HGR61
   20    24    25    42	 9 ;     CG2R61      OG301      CG331       HGA3
   20    24    25    43	 9 ;     CG2R61      OG301      CG331       HGA3
   20    24    25    44	 9 ;     CG2R61      OG301      CG331       HGA3

