GRoups of Organic Molecules in ACtion for Science
   44
    1LIG     C1    1  -1.579   0.388  -1.371
    1LIG     C2    2  -1.450   0.396  -1.430
    1LIG     C3    3  -1.407   0.309  -1.532
    1LIG     C4    4  -1.498   0.211  -1.574
    1LIG     C5    5  -1.626   0.201  -1.519
    1LIG     C6    6  -1.666   0.289  -1.418
    1LIG     C7    7  -1.609   0.477  -1.249
    1LIG     C8    8  -1.724   0.417  -1.165
    1LIG     C9    9  -1.858   0.489  -1.164
    1LIG      S   10  -1.843   0.667  -1.153
    1LIG    C10   11  -1.724   0.692  -1.275
    1LIG     N1   12  -1.632   0.610  -1.305
    1LIG     HN   13  -1.566   0.641  -1.377
    1LIG    C11   14  -1.487   0.492  -1.154
    1LIG     N2   15  -1.733   0.811  -1.340
    1LIG     H1   16  -1.725   0.893  -1.281
    1LIG     H2   17  -1.680   0.813  -1.426
    1LIG    C12   18  -1.271   0.320  -1.590
    1LIG    C13   19  -1.189   0.206  -1.606
    1LIG    C14   20  -1.062   0.214  -1.663
    1LIG    C15   21  -1.014   0.337  -1.707
    1LIG    C16   22  -1.092   0.452  -1.691
    1LIG    C17   23  -1.218   0.443  -1.633
    1LIG      O   24  -0.977   0.109  -1.684
    1LIG    C18   25  -0.989  -0.001  -1.594
    1LIG     H3   26  -1.385   0.469  -1.397
    1LIG     H4   27  -1.470   0.144  -1.648
    1LIG     H5   28  -1.691   0.129  -1.553
    1LIG     H6   29  -1.761   0.282  -1.379
    1LIG     H7   30  -1.691   0.412  -1.064
    1LIG     H8   31  -1.745   0.323  -1.212
    1LIG     H9   32  -1.915   0.454  -1.081
    1LIG    H10   33  -1.906   0.467  -1.258
    1LIG    H11   34  -1.693   0.590  -1.273
    1LIG    H12   35  -1.405   0.534  -1.208
    1LIG    H13   36  -1.460   0.396  -1.116
    1LIG    H14   37  -1.513   0.557  -1.073
    1LIG    H15   38  -1.225   0.114  -1.575
    1LIG    H16   39  -0.921   0.344  -1.750
    1LIG    H17   40  -1.056   0.543  -1.724
    1LIG    H18   41  -1.275   0.529  -1.620
    1LIG    H19   42  -0.917  -0.076  -1.620
    1LIG    H20   43  -1.087  -0.042  -1.601
    1LIG    H21   44  -0.971   0.032  -1.494
   0.00000   0.00000   0.00000
