; Created by cgenff_charmm2gmx.py

[ moleculetype ]
; Name			   nrexcl
LIG				 3

[ atoms ]
;	 nr		  type	resnr residue  atom   cgnr	   charge		mass  typeB    chargeB		massB
; residue	 1 LIG rtp LIG q	qsum
     1     CG3C50      1    LIG     C1      1      1.201     12.011   ;
     2      NG3P2      1    LIG     N1      2     -0.571     14.007   ;
     3       HGP2      1    LIG    HN3      3      0.336      1.008   ;
     4     CG3C53      1    LIG     C2      4      0.784     12.011   ;
     5     NG2R53      1    LIG     N2      5     -0.171     14.007   ;
     6      CG331      1    LIG     C3      6     -0.169     12.011   ;
     7     CG2R53      1    LIG     C4      7     -0.359     12.011   ;
     8      OG2D1      1    LIG      O      8     -0.342     15.999   ;
     9     CG2DC1      1    LIG     C5      9      0.219     12.011   ;
    10     CG2DC1      1    LIG     C6     10     -0.187     12.011   ;
    11      CG321      1    LIG     C7     11     -0.041     12.011   ;
    12      NG311      1    LIG     N3     12     -0.531     14.007   ;
    13     CG2D2O      1    LIG     C8     13      0.009     12.011   ;
    14     HGPAM1      1    LIG    HN4     14      0.389      1.008   ;
    15     CG2DC2      1    LIG     C9     15     -0.372     12.011   ;
    16     CG2R61      1    LIG    C10     16     -0.136     12.011   ;
    17     CG2R61      1    LIG    C11     17     -0.132     12.011   ;
    18     CG2R67      1    LIG    C12     18     -0.029     12.011   ;
    19     CG2R61      1    LIG    C13     19     -0.119     12.011   ;
    20     CG2R61      1    LIG    C14     20     -0.108     12.011   ;
    21     CG2R61      1    LIG    C15     21     -0.125     12.011   ;
    22     CG2R67      1    LIG    C16     22      0.160     12.011   ;
    23     CG2R61      1    LIG    C17     23     -0.134     12.011   ;
    24     CG2R66      1    LIG    C18     24      0.108     12.011   ;
    25     CG2R61      1    LIG    C19     25     -0.114     12.011   ;
    26       FGR1      1    LIG     F1     26     -0.211     18.998   ;
    27     CG2R61      1    LIG    C20     27     -0.155     12.011   ;
    28     CG2R66      1    LIG    C21     28      0.099     12.011   ;
    29       FGR1      1    LIG     F2     29     -0.230     18.998   ;
    30      NG3P3      1    LIG     N4     30     -0.267     14.007   ;
    31       HGP2      1    LIG     H1     31      0.301      1.008   ;
    32       HGP2      1    LIG     H2     32      0.301      1.008   ;
    33       HGP2      1    LIG    HN2     33      0.336      1.008   ;
    34       HGA1      1    LIG     HC     34      0.073      1.008   ;
    35       HGA3      1    LIG    HC1     35      0.090      1.008   ;
    36       HGA3      1    LIG    HC2     36      0.090      1.008   ;
    37       HGA3      1    LIG    HC3     37      0.090      1.008   ;
    38       HGA4      1    LIG    HC4     38      0.150      1.008   ;
    39       HGA2      1    LIG    HC5     39      0.090      1.008   ;
    40       HGA4      1    LIG    HC6     40      0.152      1.008   ;
    41       HGA4      1    LIG    HC7     41      0.150      1.008   ;
    42      HGR61      1    LIG    HC8     42      0.116      1.008   ;
    43      HGR61      1    LIG    HC9     43      0.116      1.008   ;
    44      HGR61      1    LIG   HC10     44      0.116      1.008   ;
    45      HGR61      1    LIG   HC11     45      0.116      1.008   ;
    46      HGR62      1    LIG   HC12     46      0.171      1.008   ;
    47      HGR62      1    LIG   HC13     47      0.169      1.008   ;
    48      HGR62      1    LIG   HC14     48      0.180      1.008   ;
    49       HGP2      1    LIG    HN1     49      0.301      1.008   ;
    50       HGA2      1    LIG    H22     50      0.090      1.008   ;

[ bonds ]
;	ai	  aj funct			  c0			c1			  c2			c3
    1     2	 1 ;      CG3C50      NG3P2
    1    16	 1 ;      CG3C50     CG2R61
    1     7	 1 ;      CG3C50     CG2R53
    1     9	 1 ;      CG3C50     CG2DC1
    2     4	 1 ;       NG3P2     CG3C53
    2     3	 1 ;       NG3P2       HGP2
    2    33	 1 ;       NG3P2       HGP2
    4    30	 1 ;      CG3C53      NG3P3
    4     5	 1 ;      CG3C53     NG2R53
    4    34	 1 ;      CG3C53       HGA1
    5     6	 1 ;      NG2R53      CG331
    5     7	 1 ;      NG2R53     CG2R53
    6    35	 1 ;       CG331       HGA3
    6    36	 1 ;       CG331       HGA3
    6    37	 1 ;       CG331       HGA3
    7     8	 1 ;      CG2R53      OG2D1
    9    15	 1 ;      CG2DC1     CG2DC2
    9    10	 1 ;      CG2DC1     CG2DC1
   10    11	 1 ;      CG2DC1      CG321
   10    38	 1 ;      CG2DC1       HGA4
   11    12	 1 ;       CG321      NG311
   11    39	 1 ;       CG321       HGA2
   11    50	 1 ;       CG321       HGA2
   12    13	 1 ;       NG311     CG2D2O
   12    14	 1 ;       NG311     HGPAM1
   13    15	 1 ;      CG2D2O     CG2DC2
   13    40	 1 ;      CG2D2O       HGA4
   15    41	 1 ;      CG2DC2       HGA4
   16    21	 1 ;      CG2R61     CG2R61
   16    17	 1 ;      CG2R61     CG2R61
   17    18	 1 ;      CG2R61     CG2R67
   17    42	 1 ;      CG2R61      HGR61
   18    19	 1 ;      CG2R67     CG2R61
   18    22	 1 ;      CG2R67     CG2R67
   19    20	 1 ;      CG2R61     CG2R61
   19    43	 1 ;      CG2R61      HGR61
   20    21	 1 ;      CG2R61     CG2R61
   20    44	 1 ;      CG2R61      HGR61
   21    45	 1 ;      CG2R61      HGR61
   22    23	 1 ;      CG2R67     CG2R61
   22    28	 1 ;      CG2R67     CG2R66
   23    24	 1 ;      CG2R61     CG2R66
   23    46	 1 ;      CG2R61      HGR62
   24    26	 1 ;      CG2R66       FGR1
   24    25	 1 ;      CG2R66     CG2R61
   25    27	 1 ;      CG2R61     CG2R61
   25    47	 1 ;      CG2R61      HGR62
   27    28	 1 ;      CG2R61     CG2R66
   27    48	 1 ;      CG2R61      HGR62
   28    29	 1 ;      CG2R66       FGR1
   30    32	 1 ;       NG3P3       HGP2
   30    31	 1 ;       NG3P3       HGP2
   30    49	 1 ;       NG3P3       HGP2

[ pairs ]
;	ai	  aj funct			  c0			c1			  c2			c3
    1    30	 1
    1    34	 1
    1     6	 1
    1    13	 1
    1    41	 1
    1    11	 1
    1    38	 1
    1    20	 1
    1    45	 1
    1    18	 1
    1    42	 1
    2    21	 1
    2    17	 1
    2     8	 1
    2    15	 1
    2    10	 1
    2    32	 1
    2    31	 1
    2    49	 1
    2     6	 1
    3    16	 1
    3     7	 1
    3     9	 1
    3    30	 1
    3     5	 1
    3    34	 1
    4    16	 1
    4     9	 1
    4    35	 1
    4    36	 1
    4    37	 1
    4     8	 1
    5    16	 1
    5     9	 1
    5    33	 1
    5    32	 1
    5    31	 1
    5    49	 1
    6    30	 1
    6    34	 1
    6     8	 1
    7    33	 1
    7    21	 1
    7    17	 1
    7    15	 1
    7    10	 1
    7    30	 1
    7    34	 1
    7    35	 1
    7    36	 1
    7    37	 1
    8    16	 1
    8     9	 1
    9    33	 1
    9    21	 1
    9    17	 1
    9    12	 1
    9    39	 1
    9    50	 1
    9    40	 1
   10    16	 1
   10    13	 1
   10    41	 1
   10    14	 1
   11    15	 1
   11    40	 1
   12    38	 1
   12    41	 1
   13    39	 1
   13    50	 1
   14    39	 1
   14    50	 1
   14    15	 1
   14    40	 1
   15    16	 1
   15    38	 1
   16    33	 1
   16    19	 1
   16    22	 1
   16    44	 1
   17    20	 1
   17    45	 1
   17    43	 1
   17    23	 1
   17    28	 1
   18    21	 1
   18    44	 1
   18    24	 1
   18    46	 1
   18    27	 1
   18    29	 1
   19    42	 1
   19    23	 1
   19    28	 1
   19    45	 1
   20    22	 1
   21    42	 1
   21    43	 1
   22    42	 1
   22    43	 1
   22    26	 1
   22    25	 1
   22    48	 1
   23    27	 1
   23    29	 1
   23    47	 1
   24    28	 1
   24    48	 1
   25    46	 1
   25    29	 1
   26    46	 1
   26    27	 1
   26    47	 1
   28    46	 1
   28    47	 1
   29    48	 1
   30    33	 1
   31    34	 1
   32    34	 1
   33    34	 1
   34    49	 1
   38    39	 1
   38    50	 1
   40    41	 1
   43    44	 1
   44    45	 1
   47    48	 1

[ angles ]
;	ai	  aj	ak funct			c0			  c1			c2			  c3
    2     1    16	5 ;      NG3P2     CG3C50     CG2R61
    2     1     7	5 ;      NG3P2     CG3C50     CG2R53
    2     1     9	5 ;      NG3P2     CG3C50     CG2DC1
   16     1     7	5 ;     CG2R61     CG3C50     CG2R53
   16     1     9	5 ;     CG2R61     CG3C50     CG2DC1
    7     1     9	5 ;     CG2R53     CG3C50     CG2DC1
    4     2     3	5 ;     CG3C53      NG3P2       HGP2
    4     2     1	5 ;     CG3C53      NG3P2     CG3C50
    4     2    33	5 ;     CG3C53      NG3P2       HGP2
    3     2     1	5 ;       HGP2      NG3P2     CG3C50
    3     2    33	5 ;       HGP2      NG3P2       HGP2
    1     2    33	5 ;     CG3C50      NG3P2       HGP2
   30     4     5	5 ;      NG3P3     CG3C53     NG2R53
   30     4     2	5 ;      NG3P3     CG3C53      NG3P2
   30     4    34	5 ;      NG3P3     CG3C53       HGA1
    5     4     2	5 ;     NG2R53     CG3C53      NG3P2
    5     4    34	5 ;     NG2R53     CG3C53       HGA1
    2     4    34	5 ;      NG3P2     CG3C53       HGA1
    6     5     4	5 ;      CG331     NG2R53     CG3C53
    6     5     7	5 ;      CG331     NG2R53     CG2R53
    4     5     7	5 ;     CG3C53     NG2R53     CG2R53
    5     6    35	5 ;     NG2R53      CG331       HGA3
    5     6    36	5 ;     NG2R53      CG331       HGA3
    5     6    37	5 ;     NG2R53      CG331       HGA3
   35     6    36	5 ;       HGA3      CG331       HGA3
   35     6    37	5 ;       HGA3      CG331       HGA3
   36     6    37	5 ;       HGA3      CG331       HGA3
    5     7     8	5 ;     NG2R53     CG2R53      OG2D1
    5     7     1	5 ;     NG2R53     CG2R53     CG3C50
    8     7     1	5 ;      OG2D1     CG2R53     CG3C50
    1     9    15	5 ;     CG3C50     CG2DC1     CG2DC2
    1     9    10	5 ;     CG3C50     CG2DC1     CG2DC1
   15     9    10	5 ;     CG2DC2     CG2DC1     CG2DC1
    9    10    11	5 ;     CG2DC1     CG2DC1      CG321
    9    10    38	5 ;     CG2DC1     CG2DC1       HGA4
   11    10    38	5 ;      CG321     CG2DC1       HGA4
   10    11    12	5 ;     CG2DC1      CG321      NG311
   10    11    39	5 ;     CG2DC1      CG321       HGA2
   10    11    50	5 ;     CG2DC1      CG321       HGA2
   12    11    39	5 ;      NG311      CG321       HGA2
   12    11    50	5 ;      NG311      CG321       HGA2
   39    11    50	5 ;       HGA2      CG321       HGA2
   13    12    11	5 ;     CG2D2O      NG311      CG321
   13    12    14	5 ;     CG2D2O      NG311     HGPAM1
   11    12    14	5 ;      CG321      NG311     HGPAM1
   15    13    12	5 ;     CG2DC2     CG2D2O      NG311
   15    13    40	5 ;     CG2DC2     CG2D2O       HGA4
   12    13    40	5 ;      NG311     CG2D2O       HGA4
    9    15    13	5 ;     CG2DC1     CG2DC2     CG2D2O
    9    15    41	5 ;     CG2DC1     CG2DC2       HGA4
   13    15    41	5 ;     CG2D2O     CG2DC2       HGA4
   21    16    17	5 ;     CG2R61     CG2R61     CG2R61
   21    16     1	5 ;     CG2R61     CG2R61     CG3C50
   17    16     1	5 ;     CG2R61     CG2R61     CG3C50
   18    17    16	5 ;     CG2R67     CG2R61     CG2R61
   18    17    42	5 ;     CG2R67     CG2R61      HGR61
   16    17    42	5 ;     CG2R61     CG2R61      HGR61
   19    18    22	5 ;     CG2R61     CG2R67     CG2R67
   19    18    17	5 ;     CG2R61     CG2R67     CG2R61
   22    18    17	5 ;     CG2R67     CG2R67     CG2R61
   20    19    18	5 ;     CG2R61     CG2R61     CG2R67
   20    19    43	5 ;     CG2R61     CG2R61      HGR61
   18    19    43	5 ;     CG2R67     CG2R61      HGR61
   19    20    21	5 ;     CG2R61     CG2R61     CG2R61
   19    20    44	5 ;     CG2R61     CG2R61      HGR61
   21    20    44	5 ;     CG2R61     CG2R61      HGR61
   20    21    16	5 ;     CG2R61     CG2R61     CG2R61
   20    21    45	5 ;     CG2R61     CG2R61      HGR61
   16    21    45	5 ;     CG2R61     CG2R61      HGR61
   23    22    18	5 ;     CG2R61     CG2R67     CG2R67
   23    22    28	5 ;     CG2R61     CG2R67     CG2R66
   18    22    28	5 ;     CG2R67     CG2R67     CG2R66
   24    23    22	5 ;     CG2R66     CG2R61     CG2R67
   24    23    46	5 ;     CG2R66     CG2R61      HGR62
   22    23    46	5 ;     CG2R67     CG2R61      HGR62
   26    24    23	5 ;       FGR1     CG2R66     CG2R61
   26    24    25	5 ;       FGR1     CG2R66     CG2R61
   23    24    25	5 ;     CG2R61     CG2R66     CG2R61
   24    25    27	5 ;     CG2R66     CG2R61     CG2R61
   24    25    47	5 ;     CG2R66     CG2R61      HGR62
   27    25    47	5 ;     CG2R61     CG2R61      HGR62
   25    27    28	5 ;     CG2R61     CG2R61     CG2R66
   25    27    48	5 ;     CG2R61     CG2R61      HGR62
   28    27    48	5 ;     CG2R66     CG2R61      HGR62
   22    28    27	5 ;     CG2R67     CG2R66     CG2R61
   22    28    29	5 ;     CG2R67     CG2R66       FGR1
   27    28    29	5 ;     CG2R61     CG2R66       FGR1
   32    30    31	5 ;       HGP2      NG3P3       HGP2
   32    30     4	5 ;       HGP2      NG3P3     CG3C53
   32    30    49	5 ;       HGP2      NG3P3       HGP2
   31    30     4	5 ;       HGP2      NG3P3     CG3C53
   31    30    49	5 ;       HGP2      NG3P3       HGP2
    4    30    49	5 ;     CG3C53      NG3P3       HGP2

[ dihedrals ]
;	ai	  aj	ak	  al funct			  c0			c1			  c2			c3			  c4			c5
   16     1     2     4	 9 ;     CG2R61     CG3C50      NG3P2     CG3C53
   16     1     2     3	 9 ;     CG2R61     CG3C50      NG3P2       HGP2
   16     1     2    33	 9 ;     CG2R61     CG3C50      NG3P2       HGP2
    7     1     2     4	 9 ;     CG2R53     CG3C50      NG3P2     CG3C53
    7     1     2     3	 9 ;     CG2R53     CG3C50      NG3P2       HGP2
    7     1     2    33	 9 ;     CG2R53     CG3C50      NG3P2       HGP2
    9     1     2     4	 9 ;     CG2DC1     CG3C50      NG3P2     CG3C53
    9     1     2     3	 9 ;     CG2DC1     CG3C50      NG3P2       HGP2
    9     1     2    33	 9 ;     CG2DC1     CG3C50      NG3P2       HGP2
    2     1    16    21	 9 ;      NG3P2     CG3C50     CG2R61     CG2R61
    2     1    16    17	 9 ;      NG3P2     CG3C50     CG2R61     CG2R61
    7     1    16    21	 9 ;     CG2R53     CG3C50     CG2R61     CG2R61
    7     1    16    17	 9 ;     CG2R53     CG3C50     CG2R61     CG2R61
    9     1    16    21	 9 ;     CG2DC1     CG3C50     CG2R61     CG2R61
    9     1    16    17	 9 ;     CG2DC1     CG3C50     CG2R61     CG2R61
    2     1     7     5	 9 ;      NG3P2     CG3C50     CG2R53     NG2R53
    2     1     7     8	 9 ;      NG3P2     CG3C50     CG2R53      OG2D1
   16     1     7     5	 9 ;     CG2R61     CG3C50     CG2R53     NG2R53
   16     1     7     8	 9 ;     CG2R61     CG3C50     CG2R53      OG2D1
    9     1     7     5	 9 ;     CG2DC1     CG3C50     CG2R53     NG2R53
    9     1     7     8	 9 ;     CG2DC1     CG3C50     CG2R53      OG2D1
    2     1     9    15	 9 ;      NG3P2     CG3C50     CG2DC1     CG2DC2
    2     1     9    10	 9 ;      NG3P2     CG3C50     CG2DC1     CG2DC1
   16     1     9    15	 9 ;     CG2R61     CG3C50     CG2DC1     CG2DC2
   16     1     9    10	 9 ;     CG2R61     CG3C50     CG2DC1     CG2DC1
    7     1     9    15	 9 ;     CG2R53     CG3C50     CG2DC1     CG2DC2
    7     1     9    10	 9 ;     CG2R53     CG3C50     CG2DC1     CG2DC1
    3     2     4    30	 9 ;       HGP2      NG3P2     CG3C53      NG3P3
    3     2     4     5	 9 ;       HGP2      NG3P2     CG3C53     NG2R53
    3     2     4    34	 9 ;       HGP2      NG3P2     CG3C53       HGA1
    1     2     4    30	 9 ;     CG3C50      NG3P2     CG3C53      NG3P3
    1     2     4     5	 9 ;     CG3C50      NG3P2     CG3C53     NG2R53
    1     2     4    34	 9 ;     CG3C50      NG3P2     CG3C53       HGA1
   33     2     4    30	 9 ;       HGP2      NG3P2     CG3C53      NG3P3
   33     2     4     5	 9 ;       HGP2      NG3P2     CG3C53     NG2R53
   33     2     4    34	 9 ;       HGP2      NG3P2     CG3C53       HGA1
    5     4    30    32	 9 ;     NG2R53     CG3C53      NG3P3       HGP2
    5     4    30    31	 9 ;     NG2R53     CG3C53      NG3P3       HGP2
    5     4    30    49	 9 ;     NG2R53     CG3C53      NG3P3       HGP2
    2     4    30    32	 9 ;      NG3P2     CG3C53      NG3P3       HGP2
    2     4    30    31	 9 ;      NG3P2     CG3C53      NG3P3       HGP2
    2     4    30    49	 9 ;      NG3P2     CG3C53      NG3P3       HGP2
   34     4    30    32	 9 ;       HGA1     CG3C53      NG3P3       HGP2
   34     4    30    31	 9 ;       HGA1     CG3C53      NG3P3       HGP2
   34     4    30    49	 9 ;       HGA1     CG3C53      NG3P3       HGP2
   30     4     5     6	 9 ;      NG3P3     CG3C53     NG2R53      CG331
   30     4     5     7	 9 ;      NG3P3     CG3C53     NG2R53     CG2R53
    2     4     5     6	 9 ;      NG3P2     CG3C53     NG2R53      CG331
    2     4     5     7	 9 ;      NG3P2     CG3C53     NG2R53     CG2R53
   34     4     5     6	 9 ;       HGA1     CG3C53     NG2R53      CG331
   34     4     5     7	 9 ;       HGA1     CG3C53     NG2R53     CG2R53
    4     5     6    35	 9 ;     CG3C53     NG2R53      CG331       HGA3
    4     5     6    36	 9 ;     CG3C53     NG2R53      CG331       HGA3
    4     5     6    37	 9 ;     CG3C53     NG2R53      CG331       HGA3
    7     5     6    35	 9 ;     CG2R53     NG2R53      CG331       HGA3
    7     5     6    36	 9 ;     CG2R53     NG2R53      CG331       HGA3
    7     5     6    37	 9 ;     CG2R53     NG2R53      CG331       HGA3
    6     5     7     8	 9 ;      CG331     NG2R53     CG2R53      OG2D1
    6     5     7     1	 9 ;      CG331     NG2R53     CG2R53     CG3C50
    4     5     7     8	 9 ;     CG3C53     NG2R53     CG2R53      OG2D1
    4     5     7     1	 9 ;     CG3C53     NG2R53     CG2R53     CG3C50
    1     9    15    13	 9 ;     CG3C50     CG2DC1     CG2DC2     CG2D2O
    1     9    15    41	 9 ;     CG3C50     CG2DC1     CG2DC2       HGA4
   10     9    15    13	 9 ;     CG2DC1     CG2DC1     CG2DC2     CG2D2O
   10     9    15    41	 9 ;     CG2DC1     CG2DC1     CG2DC2       HGA4
    1     9    10    11	 9 ;     CG3C50     CG2DC1     CG2DC1      CG321
    1     9    10    38	 9 ;     CG3C50     CG2DC1     CG2DC1       HGA4
   15     9    10    11	 9 ;     CG2DC2     CG2DC1     CG2DC1      CG321
   15     9    10    38	 9 ;     CG2DC2     CG2DC1     CG2DC1       HGA4
    9    10    11    12	 9 ;     CG2DC1     CG2DC1      CG321      NG311
    9    10    11    39	 9 ;     CG2DC1     CG2DC1      CG321       HGA2
    9    10    11    50	 9 ;     CG2DC1     CG2DC1      CG321       HGA2
   38    10    11    12	 9 ;       HGA4     CG2DC1      CG321      NG311
   38    10    11    39	 9 ;       HGA4     CG2DC1      CG321       HGA2
   38    10    11    50	 9 ;       HGA4     CG2DC1      CG321       HGA2
   10    11    12    13	 9 ;     CG2DC1      CG321      NG311     CG2D2O
   10    11    12    14	 9 ;     CG2DC1      CG321      NG311     HGPAM1
   39    11    12    13	 9 ;       HGA2      CG321      NG311     CG2D2O
   39    11    12    14	 9 ;       HGA2      CG321      NG311     HGPAM1
   50    11    12    13	 9 ;       HGA2      CG321      NG311     CG2D2O
   50    11    12    14	 9 ;       HGA2      CG321      NG311     HGPAM1
   11    12    13    15	 9 ;      CG321      NG311     CG2D2O     CG2DC2
   11    12    13    40	 9 ;      CG321      NG311     CG2D2O       HGA4
   14    12    13    15	 9 ;     HGPAM1      NG311     CG2D2O     CG2DC2
   14    12    13    40	 9 ;     HGPAM1      NG311     CG2D2O       HGA4
   12    13    15     9	 9 ;      NG311     CG2D2O     CG2DC2     CG2DC1
   12    13    15    41	 9 ;      NG311     CG2D2O     CG2DC2       HGA4
   40    13    15     9	 9 ;       HGA4     CG2D2O     CG2DC2     CG2DC1
   40    13    15    41	 9 ;       HGA4     CG2D2O     CG2DC2       HGA4
   17    16    21    20	 9 ;     CG2R61     CG2R61     CG2R61     CG2R61
   17    16    21    45	 9 ;     CG2R61     CG2R61     CG2R61      HGR61
    1    16    21    20	 9 ;     CG3C50     CG2R61     CG2R61     CG2R61
    1    16    21    45	 9 ;     CG3C50     CG2R61     CG2R61      HGR61
   21    16    17    18	 9 ;     CG2R61     CG2R61     CG2R61     CG2R67
   21    16    17    42	 9 ;     CG2R61     CG2R61     CG2R61      HGR61
    1    16    17    18	 9 ;     CG3C50     CG2R61     CG2R61     CG2R67
    1    16    17    42	 9 ;     CG3C50     CG2R61     CG2R61      HGR61
   16    17    18    19	 9 ;     CG2R61     CG2R61     CG2R67     CG2R61
   16    17    18    22	 9 ;     CG2R61     CG2R61     CG2R67     CG2R67
   42    17    18    19	 9 ;      HGR61     CG2R61     CG2R67     CG2R61
   42    17    18    22	 9 ;      HGR61     CG2R61     CG2R67     CG2R67
   22    18    19    20	 9 ;     CG2R67     CG2R67     CG2R61     CG2R61
   22    18    19    43	 9 ;     CG2R67     CG2R67     CG2R61      HGR61
   17    18    19    20	 9 ;     CG2R61     CG2R67     CG2R61     CG2R61
   17    18    19    43	 9 ;     CG2R61     CG2R67     CG2R61      HGR61
   19    18    22    23	 9 ;     CG2R61     CG2R67     CG2R67     CG2R61
   19    18    22    28	 9 ;     CG2R61     CG2R67     CG2R67     CG2R66
   17    18    22    23	 9 ;     CG2R61     CG2R67     CG2R67     CG2R61
   17    18    22    28	 9 ;     CG2R61     CG2R67     CG2R67     CG2R66
   18    19    20    21	 9 ;     CG2R67     CG2R61     CG2R61     CG2R61
   18    19    20    44	 9 ;     CG2R67     CG2R61     CG2R61      HGR61
   43    19    20    21	 9 ;      HGR61     CG2R61     CG2R61     CG2R61
   43    19    20    44	 9 ;      HGR61     CG2R61     CG2R61      HGR61
   19    20    21    16	 9 ;     CG2R61     CG2R61     CG2R61     CG2R61
   19    20    21    45	 9 ;     CG2R61     CG2R61     CG2R61      HGR61
   44    20    21    16	 9 ;      HGR61     CG2R61     CG2R61     CG2R61
   44    20    21    45	 9 ;      HGR61     CG2R61     CG2R61      HGR61
   18    22    23    24	 9 ;     CG2R67     CG2R67     CG2R61     CG2R66
   18    22    23    46	 9 ;     CG2R67     CG2R67     CG2R61      HGR62
   28    22    23    24	 9 ;     CG2R66     CG2R67     CG2R61     CG2R66
   28    22    23    46	 9 ;     CG2R66     CG2R67     CG2R61      HGR62
   23    22    28    27	 9 ;     CG2R61     CG2R67     CG2R66     CG2R61
   23    22    28    29	 9 ;     CG2R61     CG2R67     CG2R66       FGR1
   18    22    28    27	 9 ;     CG2R67     CG2R67     CG2R66     CG2R61
   18    22    28    29	 9 ;     CG2R67     CG2R67     CG2R66       FGR1
   22    23    24    26	 9 ;     CG2R67     CG2R61     CG2R66       FGR1
   22    23    24    25	 9 ;     CG2R67     CG2R61     CG2R66     CG2R61
   46    23    24    26	 9 ;      HGR62     CG2R61     CG2R66       FGR1
   46    23    24    25	 9 ;      HGR62     CG2R61     CG2R66     CG2R61
   26    24    25    27	 9 ;       FGR1     CG2R66     CG2R61     CG2R61
   26    24    25    47	 9 ;       FGR1     CG2R66     CG2R61      HGR62
   23    24    25    27	 9 ;     CG2R61     CG2R66     CG2R61     CG2R61
   23    24    25    47	 9 ;     CG2R61     CG2R66     CG2R61      HGR62
   24    25    27    28	 9 ;     CG2R66     CG2R61     CG2R61     CG2R66
   24    25    27    48	 9 ;     CG2R66     CG2R61     CG2R61      HGR62
   47    25    27    28	 9 ;      HGR62     CG2R61     CG2R61     CG2R66
   47    25    27    48	 9 ;      HGR62     CG2R61     CG2R61      HGR62
   25    27    28    22	 9 ;     CG2R61     CG2R61     CG2R66     CG2R67
   25    27    28    29	 9 ;     CG2R61     CG2R61     CG2R66       FGR1
   48    27    28    22	 9 ;      HGR62     CG2R61     CG2R66     CG2R67
   48    27    28    29	 9 ;      HGR62     CG2R61     CG2R66       FGR1

[ dihedrals ]
;	ai	  aj	ak	  al funct			  c0			c1			  c2			c3
    7     1     5     8	 2
   13    15    12    40	 2

