Green Red Orange Magenta Azure Cyan Skyblue
   50
    1LIG     C1    1  -1.553   0.429  -1.703
    1LIG     N1    2  -1.533   0.352  -1.832
    1LIG    HN3    3  -1.525   0.251  -1.842
    1LIG     C2    4  -1.528   0.439  -1.927
    1LIG     N2    5  -1.544   0.568  -1.892
    1LIG     C3    6  -1.529   0.683  -1.977
    1LIG     C4    7  -1.571   0.573  -1.758
    1LIG      O    8  -1.600   0.674  -1.695
    1LIG     C5    9  -1.673   0.371  -1.627
    1LIG     C6   10  -1.699   0.416  -1.496
    1LIG     C7   11  -1.818   0.381  -1.435
    1LIG     N3   12  -1.912   0.304  -1.493
    1LIG     C8   13  -1.885   0.260  -1.618
    1LIG    HN4   14  -2.000   0.281  -1.446
    1LIG     C9   15  -1.768   0.289  -1.688
    1LIG    C10   16  -1.426   0.417  -1.615
    1LIG    C11   17  -1.366   0.293  -1.584
    1LIG    C12   18  -1.253   0.282  -1.500
    1LIG    C13   19  -1.200   0.402  -1.450
    1LIG    C14   20  -1.253   0.526  -1.483
    1LIG    C15   21  -1.364   0.534  -1.567
    1LIG    C16   22  -1.195   0.151  -1.466
    1LIG    C17   23  -1.082   0.141  -1.382
    1LIG    C18   24  -1.026   0.017  -1.352
    1LIG    C19   25  -1.079  -0.101  -1.403
    1LIG     F1   26  -0.918   0.011  -1.273
    1LIG    C20   27  -1.192  -0.094  -1.484
    1LIG    C21   28  -1.248   0.030  -1.515
    1LIG     F2   29  -1.355   0.031  -1.596
    1LIG     N4   30  -1.511   0.402  -2.056
    1LIG     H1   31  -1.553   0.311  -2.075
    1LIG     H2   32  -1.533   0.470  -2.127
    1LIG    HN2   33  -1.633   0.345  -1.844
    1LIG     HC   34  -1.420   0.448  -1.915
    1LIG    HC1   35  -1.549   0.774  -1.920
    1LIG    HC2   36  -1.600   0.677  -2.060
    1LIG    HC3   37  -1.427   0.686  -2.016
    1LIG    HC4   38  -1.627   0.476  -1.444
    1LIG    HC5   39  -1.837   0.418  -1.335
    1LIG    HC6   40  -1.958   0.197  -1.666
    1LIG    HC7   41  -1.752   0.250  -1.787
    1LIG    HC8   42  -1.409   0.203  -1.626
    1LIG    HC9   43  -1.115   0.397  -1.383
    1LIG   HC10   44  -1.209   0.617  -1.445
    1LIG   HC11   45  -1.403   0.630  -1.595
    1LIG   HC12   46  -1.039   0.230  -1.340
    1LIG   HC13   47  -1.035  -0.196  -1.379
    1LIG   HC14   48  -1.235  -0.185  -1.524
    1LIG    HN1   49  -1.411   0.386  -2.066
    1LIG    H22   50  -1.771   0.292  -1.394
   0.00000   0.00000   0.00000
