; Created by cgenff_charmm2gmx.py

[ moleculetype ]
; Name			   nrexcl
LIG				 3

[ atoms ]
;	 nr		  type	resnr residue  atom   cgnr	   charge		mass  typeB    chargeB		massB
; residue	 1 LIG rtp LIG q	qsum
     1      SG3O3      1    LIG      S      1      0.407     32.060   ;
     2      OG2P1      1    LIG     O1      2     -0.514     15.999   ;
     3      CG321      1    LIG     C1      3     -0.117     12.011   ;
     4      CG311      1    LIG     C2      4     -0.074     12.011   ;
     5      CG311      1    LIG     C3      5      0.092     12.011   ;
     6      CG314      1    LIG     C4      6     -0.011     12.011   ;
     7      CG321      1    LIG     C5      7      0.061     12.011   ;
     8      CG321      1    LIG     C6      8     -0.123     12.011   ;
     9     CG2R61      1    LIG     C7      9      0.006     12.011   ;
    10     CG2R61      1    LIG     C8     10     -0.111     12.011   ;
    11     CG2R61      1    LIG     C9     11      0.227     12.011   ;
    12     CG2R61      1    LIG    C10     12     -0.028     12.011   ;
    13     CG2R66      1    LIG    C11     13      0.028     12.011   ;
    14       FGR1      1    LIG     F1     14     -0.230     18.998   ;
    15     CG2R61      1    LIG    C12     15     -0.121     12.011   ;
    16      OG301      1    LIG     O2     16     -0.317     15.999   ;
    17      CG311      1    LIG    C13     17      0.350     12.011   ;
    18      CG321      1    LIG    C14     18     -0.044     12.011   ;
    19      OG301      1    LIG     O3     19     -0.326     15.999   ;
    20      CG331      1    LIG    C15     20     -0.100     12.011   ;
    21      CG302      1    LIG    C16     21      0.178     12.011   ;
    22       FGA3      1    LIG     F2     22     -0.115     18.998   ;
    23       FGA3      1    LIG     F3     23     -0.115     18.998   ;
    24       FGA3      1    LIG     F4     24     -0.115     18.998   ;
    25      NG2S3      1    LIG     N1     25     -0.731     14.007   ;
    26       HGP4      1    LIG     H1     26      0.357      1.008   ;
    27       HGP4      1    LIG     H2     27      0.357      1.008   ;
    28      OG311      1    LIG     O4     28     -0.595     15.999   ;
    29       HGP1      1    LIG     H3     29      0.422      1.008   ;
    30      NG3P2      1    LIG     N2     30     -0.444     14.007   ;
    31       HGP2      1    LIG     H4     31      0.346      1.008   ;
    32       HGP2      1    LIG     H5     32      0.346      1.008   ;
    33      CG324      1    LIG    C17     33      0.178     12.011   ;
    34     CG2R61      1    LIG    C18     34      0.035     12.011   ;
    35     CG2R61      1    LIG    C19     35     -0.117     12.011   ;
    36     CG2R61      1    LIG    C20     36     -0.017     12.011   ;
    37     CG2R61      1    LIG    C21     37     -0.114     12.011   ;
    38     CG2R61      1    LIG    C22     38     -0.109     12.011   ;
    39     CG2R61      1    LIG    C23     39     -0.119     12.011   ;
    40      CG311      1    LIG    C24     40     -0.088     12.011   ;
    41      CG331      1    LIG    C25     41     -0.264     12.011   ;
    42      CG331      1    LIG    C26     42     -0.264     12.011   ;
    43       HGA2      1    LIG     H6     43      0.090      1.008   ;
    44       HGA2      1    LIG     H7     44      0.090      1.008   ;
    45       HGA1      1    LIG     H8     45      0.090      1.008   ;
    46       HGA1      1    LIG     H9     46      0.090      1.008   ;
    47       HGA1      1    LIG    H10     47      0.109      1.008   ;
    48       HGA2      1    LIG    H11     48      0.090      1.008   ;
    49       HGA2      1    LIG    H12     49      0.090      1.008   ;
    50       HGA2      1    LIG    H13     50      0.090      1.008   ;
    51       HGA2      1    LIG    H14     51      0.090      1.008   ;
    52      HGR61      1    LIG    H15     52      0.116      1.008   ;
    53      HGR62      1    LIG    H16     53      0.174      1.008   ;
    54       HGA1      1    LIG    H17     54      0.090      1.008   ;
    55       HGA2      1    LIG    H18     55      0.090      1.008   ;
    56       HGA2      1    LIG    H19     56      0.090      1.008   ;
    57       HGA3      1    LIG    H20     57      0.090      1.008   ;
    58       HGA3      1    LIG    H21     58      0.090      1.008   ;
    59       HGA3      1    LIG    H22     59      0.090      1.008   ;
    60       HGA2      1    LIG    H23     60      0.090      1.008   ;
    61       HGA2      1    LIG    H24     61      0.090      1.008   ;
    62      HGR61      1    LIG    H25     62      0.116      1.008   ;
    63      HGR61      1    LIG    H26     63      0.116      1.008   ;
    64      HGR61      1    LIG    H27     64      0.116      1.008   ;
    65      HGR61      1    LIG    H28     65      0.116      1.008   ;
    66       HGA1      1    LIG    H29     66      0.090      1.008   ;
    67       HGA3      1    LIG    H30     67      0.090      1.008   ;
    68       HGA3      1    LIG    H31     68      0.090      1.008   ;
    69       HGA3      1    LIG    H32     69      0.090      1.008   ;
    70       HGA3      1    LIG    H33     70      0.090      1.008   ;
    71       HGA3      1    LIG    H34     71      0.090      1.008   ;
    72       HGA3      1    LIG    H35     72      0.090      1.008   ;

[ bonds ]
;	ai	  aj funct			  c0			c1			  c2			c3
    1     7	 1 ;       SG3O3      CG321
    1     2	 1 ;       SG3O3      OG2P1
    1     3	 1 ;       SG3O3      CG321
    3     4	 1 ;       CG321      CG311
    3    43	 1 ;       CG321       HGA2
    3    44	 1 ;       CG321       HGA2
    4     5	 1 ;       CG311      CG311
    4     8	 1 ;       CG311      CG321
    4    45	 1 ;       CG311       HGA1
    5     6	 1 ;       CG311      CG314
    5    28	 1 ;       CG311      OG311
    5    46	 1 ;       CG311       HGA1
    6    30	 1 ;       CG314      NG3P2
    6     7	 1 ;       CG314      CG321
    6    47	 1 ;       CG314       HGA1
    7    48	 1 ;       CG321       HGA2
    7    49	 1 ;       CG321       HGA2
    8     9	 1 ;       CG321     CG2R61
    8    50	 1 ;       CG321       HGA2
    8    51	 1 ;       CG321       HGA2
    9    15	 1 ;      CG2R61     CG2R61
    9    10	 1 ;      CG2R61     CG2R61
   10    11	 1 ;      CG2R61     CG2R61
   10    52	 1 ;      CG2R61      HGR61
   11    12	 1 ;      CG2R61     CG2R61
   11    16	 1 ;      CG2R61      OG301
   12    13	 1 ;      CG2R61     CG2R66
   12    25	 1 ;      CG2R61      NG2S3
   13    15	 1 ;      CG2R66     CG2R61
   13    14	 1 ;      CG2R66       FGR1
   15    53	 1 ;      CG2R61      HGR62
   16    17	 1 ;       OG301      CG311
   17    21	 1 ;       CG311      CG302
   17    18	 1 ;       CG311      CG321
   17    54	 1 ;       CG311       HGA1
   18    19	 1 ;       CG321      OG301
   18    55	 1 ;       CG321       HGA2
   18    56	 1 ;       CG321       HGA2
   19    20	 1 ;       OG301      CG331
   20    57	 1 ;       CG331       HGA3
   20    58	 1 ;       CG331       HGA3
   20    59	 1 ;       CG331       HGA3
   21    23	 1 ;       CG302       FGA3
   21    22	 1 ;       CG302       FGA3
   21    24	 1 ;       CG302       FGA3
   25    26	 1 ;       NG2S3       HGP4
   25    27	 1 ;       NG2S3       HGP4
   28    29	 1 ;       OG311       HGP1
   30    33	 1 ;       NG3P2      CG324
   30    32	 1 ;       NG3P2       HGP2
   30    31	 1 ;       NG3P2       HGP2
   33    34	 1 ;       CG324     CG2R61
   33    60	 1 ;       CG324       HGA2
   33    61	 1 ;       CG324       HGA2
   34    35	 1 ;      CG2R61     CG2R61
   34    39	 1 ;      CG2R61     CG2R61
   35    36	 1 ;      CG2R61     CG2R61
   35    62	 1 ;      CG2R61      HGR61
   36    40	 1 ;      CG2R61      CG311
   36    37	 1 ;      CG2R61     CG2R61
   37    38	 1 ;      CG2R61     CG2R61
   37    63	 1 ;      CG2R61      HGR61
   38    39	 1 ;      CG2R61     CG2R61
   38    64	 1 ;      CG2R61      HGR61
   39    65	 1 ;      CG2R61      HGR61
   40    42	 1 ;       CG311      CG331
   40    41	 1 ;       CG311      CG331
   40    66	 1 ;       CG311       HGA1
   41    67	 1 ;       CG331       HGA3
   41    68	 1 ;       CG331       HGA3
   41    69	 1 ;       CG331       HGA3
   42    70	 1 ;       CG331       HGA3
   42    71	 1 ;       CG331       HGA3
   42    72	 1 ;       CG331       HGA3

[ pairs ]
;	ai	  aj funct			  c0			c1			  c2			c3
    1     5	 1
    1     8	 1
    1    45	 1
    1    30	 1
    1    47	 1
    2     6	 1
    2    48	 1
    2    49	 1
    2     4	 1
    2    43	 1
    2    44	 1
    3     6	 1
    3    48	 1
    3    49	 1
    3    28	 1
    3    46	 1
    3     9	 1
    3    50	 1
    3    51	 1
    4     7	 1
    4    30	 1
    4    47	 1
    4    29	 1
    4    15	 1
    4    10	 1
    5    43	 1
    5    44	 1
    5     9	 1
    5    50	 1
    5    51	 1
    5    33	 1
    5    32	 1
    5    31	 1
    5    48	 1
    5    49	 1
    6     8	 1
    6    45	 1
    6    29	 1
    6    34	 1
    6    60	 1
    6    61	 1
    7    43	 1
    7    44	 1
    7    28	 1
    7    46	 1
    7    33	 1
    7    32	 1
    7    31	 1
    8    43	 1
    8    44	 1
    8    28	 1
    8    46	 1
    8    13	 1
    8    53	 1
    8    11	 1
    8    52	 1
    9    45	 1
    9    12	 1
    9    16	 1
    9    14	 1
   10    50	 1
   10    51	 1
   10    13	 1
   10    53	 1
   10    25	 1
   10    17	 1
   11    15	 1
   11    14	 1
   11    26	 1
   11    27	 1
   11    21	 1
   11    18	 1
   11    54	 1
   12    52	 1
   12    17	 1
   12    53	 1
   13    16	 1
   13    26	 1
   13    27	 1
   14    25	 1
   14    53	 1
   15    50	 1
   15    51	 1
   15    52	 1
   15    25	 1
   16    52	 1
   16    25	 1
   16    23	 1
   16    22	 1
   16    24	 1
   16    19	 1
   16    55	 1
   16    56	 1
   17    20	 1
   18    23	 1
   18    22	 1
   18    24	 1
   18    57	 1
   18    58	 1
   18    59	 1
   19    21	 1
   19    54	 1
   20    55	 1
   20    56	 1
   21    55	 1
   21    56	 1
   22    54	 1
   23    54	 1
   24    54	 1
   28    45	 1
   28    30	 1
   28    47	 1
   29    46	 1
   30    46	 1
   30    48	 1
   30    49	 1
   30    35	 1
   30    39	 1
   31    47	 1
   31    34	 1
   31    60	 1
   31    61	 1
   32    47	 1
   32    34	 1
   32    60	 1
   32    61	 1
   33    47	 1
   33    36	 1
   33    62	 1
   33    38	 1
   33    65	 1
   34    40	 1
   34    37	 1
   34    64	 1
   35    60	 1
   35    61	 1
   35    38	 1
   35    65	 1
   35    42	 1
   35    41	 1
   35    66	 1
   35    63	 1
   36    39	 1
   36    64	 1
   36    70	 1
   36    71	 1
   36    72	 1
   36    67	 1
   36    68	 1
   36    69	 1
   37    62	 1
   37    42	 1
   37    41	 1
   37    66	 1
   37    65	 1
   38    40	 1
   39    60	 1
   39    61	 1
   39    62	 1
   39    63	 1
   40    62	 1
   40    63	 1
   41    70	 1
   41    71	 1
   41    72	 1
   42    67	 1
   42    68	 1
   42    69	 1
   43    45	 1
   44    45	 1
   45    46	 1
   45    50	 1
   45    51	 1
   46    47	 1
   47    48	 1
   47    49	 1
   54    55	 1
   54    56	 1
   63    64	 1
   64    65	 1
   66    70	 1
   66    71	 1
   66    72	 1
   66    67	 1
   66    68	 1
   66    69	 1

[ angles ]
;	ai	  aj	ak funct			c0			  c1			c2			  c3
    7     1     2	5 ;      CG321      SG3O3      OG2P1
    7     1     3	5 ;      CG321      SG3O3      CG321
    2     1     3	5 ;      OG2P1      SG3O3      CG321
    1     3     4	5 ;      SG3O3      CG321      CG311
    1     3    43	5 ;      SG3O3      CG321       HGA2
    1     3    44	5 ;      SG3O3      CG321       HGA2
    4     3    43	5 ;      CG311      CG321       HGA2
    4     3    44	5 ;      CG311      CG321       HGA2
   43     3    44	5 ;       HGA2      CG321       HGA2
    5     4     3	5 ;      CG311      CG311      CG321
    5     4     8	5 ;      CG311      CG311      CG321
    5     4    45	5 ;      CG311      CG311       HGA1
    3     4     8	5 ;      CG321      CG311      CG321
    3     4    45	5 ;      CG321      CG311       HGA1
    8     4    45	5 ;      CG321      CG311       HGA1
    6     5    28	5 ;      CG314      CG311      OG311
    6     5     4	5 ;      CG314      CG311      CG311
    6     5    46	5 ;      CG314      CG311       HGA1
   28     5     4	5 ;      OG311      CG311      CG311
   28     5    46	5 ;      OG311      CG311       HGA1
    4     5    46	5 ;      CG311      CG311       HGA1
   30     6     7	5 ;      NG3P2      CG314      CG321
   30     6     5	5 ;      NG3P2      CG314      CG311
   30     6    47	5 ;      NG3P2      CG314       HGA1
    7     6     5	5 ;      CG321      CG314      CG311
    7     6    47	5 ;      CG321      CG314       HGA1
    5     6    47	5 ;      CG311      CG314       HGA1
    6     7     1	5 ;      CG314      CG321      SG3O3
    6     7    48	5 ;      CG314      CG321       HGA2
    6     7    49	5 ;      CG314      CG321       HGA2
    1     7    48	5 ;      SG3O3      CG321       HGA2
    1     7    49	5 ;      SG3O3      CG321       HGA2
   48     7    49	5 ;       HGA2      CG321       HGA2
    4     8     9	5 ;      CG311      CG321     CG2R61
    4     8    50	5 ;      CG311      CG321       HGA2
    4     8    51	5 ;      CG311      CG321       HGA2
    9     8    50	5 ;     CG2R61      CG321       HGA2
    9     8    51	5 ;     CG2R61      CG321       HGA2
   50     8    51	5 ;       HGA2      CG321       HGA2
    8     9    15	5 ;      CG321     CG2R61     CG2R61
    8     9    10	5 ;      CG321     CG2R61     CG2R61
   15     9    10	5 ;     CG2R61     CG2R61     CG2R61
    9    10    11	5 ;     CG2R61     CG2R61     CG2R61
    9    10    52	5 ;     CG2R61     CG2R61      HGR61
   11    10    52	5 ;     CG2R61     CG2R61      HGR61
   10    11    12	5 ;     CG2R61     CG2R61     CG2R61
   10    11    16	5 ;     CG2R61     CG2R61      OG301
   12    11    16	5 ;     CG2R61     CG2R61      OG301
   13    12    11	5 ;     CG2R66     CG2R61     CG2R61
   13    12    25	5 ;     CG2R66     CG2R61      NG2S3
   11    12    25	5 ;     CG2R61     CG2R61      NG2S3
   15    13    14	5 ;     CG2R61     CG2R66       FGR1
   15    13    12	5 ;     CG2R61     CG2R66     CG2R61
   14    13    12	5 ;       FGR1     CG2R66     CG2R61
    9    15    13	5 ;     CG2R61     CG2R61     CG2R66
    9    15    53	5 ;     CG2R61     CG2R61      HGR62
   13    15    53	5 ;     CG2R66     CG2R61      HGR62
   11    16    17	5 ;     CG2R61      OG301      CG311
   16    17    21	5 ;      OG301      CG311      CG302
   16    17    18	5 ;      OG301      CG311      CG321
   16    17    54	5 ;      OG301      CG311       HGA1
   21    17    18	5 ;      CG302      CG311      CG321
   21    17    54	5 ;      CG302      CG311       HGA1
   18    17    54	5 ;      CG321      CG311       HGA1
   17    18    19	5 ;      CG311      CG321      OG301
   17    18    55	5 ;      CG311      CG321       HGA2
   17    18    56	5 ;      CG311      CG321       HGA2
   19    18    55	5 ;      OG301      CG321       HGA2
   19    18    56	5 ;      OG301      CG321       HGA2
   55    18    56	5 ;       HGA2      CG321       HGA2
   18    19    20	5 ;      CG321      OG301      CG331
   19    20    57	5 ;      OG301      CG331       HGA3
   19    20    58	5 ;      OG301      CG331       HGA3
   19    20    59	5 ;      OG301      CG331       HGA3
   57    20    58	5 ;       HGA3      CG331       HGA3
   57    20    59	5 ;       HGA3      CG331       HGA3
   58    20    59	5 ;       HGA3      CG331       HGA3
   23    21    22	5 ;       FGA3      CG302       FGA3
   23    21    17	5 ;       FGA3      CG302      CG311
   23    21    24	5 ;       FGA3      CG302       FGA3
   22    21    17	5 ;       FGA3      CG302      CG311
   22    21    24	5 ;       FGA3      CG302       FGA3
   17    21    24	5 ;      CG311      CG302       FGA3
   12    25    26	5 ;     CG2R61      NG2S3       HGP4
   12    25    27	5 ;     CG2R61      NG2S3       HGP4
   26    25    27	5 ;       HGP4      NG2S3       HGP4
   29    28     5	5 ;       HGP1      OG311      CG311
   33    30    32	5 ;      CG324      NG3P2       HGP2
   33    30    31	5 ;      CG324      NG3P2       HGP2
   33    30     6	5 ;      CG324      NG3P2      CG314
   32    30    31	5 ;       HGP2      NG3P2       HGP2
   32    30     6	5 ;       HGP2      NG3P2      CG314
   31    30     6	5 ;       HGP2      NG3P2      CG314
   34    33    30	5 ;     CG2R61      CG324      NG3P2
   34    33    60	5 ;     CG2R61      CG324       HGA2
   34    33    61	5 ;     CG2R61      CG324       HGA2
   30    33    60	5 ;      NG3P2      CG324       HGA2
   30    33    61	5 ;      NG3P2      CG324       HGA2
   60    33    61	5 ;       HGA2      CG324       HGA2
   33    34    35	5 ;      CG324     CG2R61     CG2R61
   33    34    39	5 ;      CG324     CG2R61     CG2R61
   35    34    39	5 ;     CG2R61     CG2R61     CG2R61
   34    35    36	5 ;     CG2R61     CG2R61     CG2R61
   34    35    62	5 ;     CG2R61     CG2R61      HGR61
   36    35    62	5 ;     CG2R61     CG2R61      HGR61
   35    36    40	5 ;     CG2R61     CG2R61      CG311
   35    36    37	5 ;     CG2R61     CG2R61     CG2R61
   40    36    37	5 ;      CG311     CG2R61     CG2R61
   36    37    38	5 ;     CG2R61     CG2R61     CG2R61
   36    37    63	5 ;     CG2R61     CG2R61      HGR61
   38    37    63	5 ;     CG2R61     CG2R61      HGR61
   39    38    37	5 ;     CG2R61     CG2R61     CG2R61
   39    38    64	5 ;     CG2R61     CG2R61      HGR61
   37    38    64	5 ;     CG2R61     CG2R61      HGR61
   34    39    38	5 ;     CG2R61     CG2R61     CG2R61
   34    39    65	5 ;     CG2R61     CG2R61      HGR61
   38    39    65	5 ;     CG2R61     CG2R61      HGR61
   42    40    41	5 ;      CG331      CG311      CG331
   42    40    36	5 ;      CG331      CG311     CG2R61
   42    40    66	5 ;      CG331      CG311       HGA1
   41    40    36	5 ;      CG331      CG311     CG2R61
   41    40    66	5 ;      CG331      CG311       HGA1
   36    40    66	5 ;     CG2R61      CG311       HGA1
   40    41    67	5 ;      CG311      CG331       HGA3
   40    41    68	5 ;      CG311      CG331       HGA3
   40    41    69	5 ;      CG311      CG331       HGA3
   67    41    68	5 ;       HGA3      CG331       HGA3
   67    41    69	5 ;       HGA3      CG331       HGA3
   68    41    69	5 ;       HGA3      CG331       HGA3
   40    42    70	5 ;      CG311      CG331       HGA3
   40    42    71	5 ;      CG311      CG331       HGA3
   40    42    72	5 ;      CG311      CG331       HGA3
   70    42    71	5 ;       HGA3      CG331       HGA3
   70    42    72	5 ;       HGA3      CG331       HGA3
   71    42    72	5 ;       HGA3      CG331       HGA3

[ dihedrals ]
;	ai	  aj	ak	  al funct			  c0			c1			  c2			c3			  c4			c5
    2     1     7     6	 9 ;      OG2P1      SG3O3      CG321      CG314
    2     1     7    48	 9 ;      OG2P1      SG3O3      CG321       HGA2
    2     1     7    49	 9 ;      OG2P1      SG3O3      CG321       HGA2
    3     1     7     6	 9 ;      CG321      SG3O3      CG321      CG314
    3     1     7    48	 9 ;      CG321      SG3O3      CG321       HGA2
    3     1     7    49	 9 ;      CG321      SG3O3      CG321       HGA2
    7     1     3     4	 9 ;      CG321      SG3O3      CG321      CG311
    7     1     3    43	 9 ;      CG321      SG3O3      CG321       HGA2
    7     1     3    44	 9 ;      CG321      SG3O3      CG321       HGA2
    2     1     3     4	 9 ;      OG2P1      SG3O3      CG321      CG311
    2     1     3    43	 9 ;      OG2P1      SG3O3      CG321       HGA2
    2     1     3    44	 9 ;      OG2P1      SG3O3      CG321       HGA2
    1     3     4     5	 9 ;      SG3O3      CG321      CG311      CG311
    1     3     4     8	 9 ;      SG3O3      CG321      CG311      CG321
    1     3     4    45	 9 ;      SG3O3      CG321      CG311       HGA1
   43     3     4     5	 9 ;       HGA2      CG321      CG311      CG311
   43     3     4     8	 9 ;       HGA2      CG321      CG311      CG321
   43     3     4    45	 9 ;       HGA2      CG321      CG311       HGA1
   44     3     4     5	 9 ;       HGA2      CG321      CG311      CG311
   44     3     4     8	 9 ;       HGA2      CG321      CG311      CG321
   44     3     4    45	 9 ;       HGA2      CG321      CG311       HGA1
    3     4     5     6	 9 ;      CG321      CG311      CG311      CG314
    3     4     5    28	 9 ;      CG321      CG311      CG311      OG311
    3     4     5    46	 9 ;      CG321      CG311      CG311       HGA1
    8     4     5     6	 9 ;      CG321      CG311      CG311      CG314
    8     4     5    28	 9 ;      CG321      CG311      CG311      OG311
    8     4     5    46	 9 ;      CG321      CG311      CG311       HGA1
   45     4     5     6	 9 ;       HGA1      CG311      CG311      CG314
   45     4     5    28	 9 ;       HGA1      CG311      CG311      OG311
   45     4     5    46	 9 ;       HGA1      CG311      CG311       HGA1
    5     4     8     9	 9 ;      CG311      CG311      CG321     CG2R61
    5     4     8    50	 9 ;      CG311      CG311      CG321       HGA2
    5     4     8    51	 9 ;      CG311      CG311      CG321       HGA2
    3     4     8     9	 9 ;      CG321      CG311      CG321     CG2R61
    3     4     8    50	 9 ;      CG321      CG311      CG321       HGA2
    3     4     8    51	 9 ;      CG321      CG311      CG321       HGA2
   45     4     8     9	 9 ;       HGA1      CG311      CG321     CG2R61
   45     4     8    50	 9 ;       HGA1      CG311      CG321       HGA2
   45     4     8    51	 9 ;       HGA1      CG311      CG321       HGA2
   28     5     6    30	 9 ;      OG311      CG311      CG314      NG3P2
   28     5     6     7	 9 ;      OG311      CG311      CG314      CG321
   28     5     6    47	 9 ;      OG311      CG311      CG314       HGA1
    4     5     6    30	 9 ;      CG311      CG311      CG314      NG3P2
    4     5     6     7	 9 ;      CG311      CG311      CG314      CG321
    4     5     6    47	 9 ;      CG311      CG311      CG314       HGA1
   46     5     6    30	 9 ;       HGA1      CG311      CG314      NG3P2
   46     5     6     7	 9 ;       HGA1      CG311      CG314      CG321
   46     5     6    47	 9 ;       HGA1      CG311      CG314       HGA1
    6     5    28    29	 9 ;      CG314      CG311      OG311       HGP1
    4     5    28    29	 9 ;      CG311      CG311      OG311       HGP1
   46     5    28    29	 9 ;       HGA1      CG311      OG311       HGP1
    7     6    30    33	 9 ;      CG321      CG314      NG3P2      CG324
    7     6    30    32	 9 ;      CG321      CG314      NG3P2       HGP2
    7     6    30    31	 9 ;      CG321      CG314      NG3P2       HGP2
    5     6    30    33	 9 ;      CG311      CG314      NG3P2      CG324
    5     6    30    32	 9 ;      CG311      CG314      NG3P2       HGP2
    5     6    30    31	 9 ;      CG311      CG314      NG3P2       HGP2
   47     6    30    33	 9 ;       HGA1      CG314      NG3P2      CG324
   47     6    30    32	 9 ;       HGA1      CG314      NG3P2       HGP2
   47     6    30    31	 9 ;       HGA1      CG314      NG3P2       HGP2
   30     6     7     1	 9 ;      NG3P2      CG314      CG321      SG3O3
   30     6     7    48	 9 ;      NG3P2      CG314      CG321       HGA2
   30     6     7    49	 9 ;      NG3P2      CG314      CG321       HGA2
    5     6     7     1	 9 ;      CG311      CG314      CG321      SG3O3
    5     6     7    48	 9 ;      CG311      CG314      CG321       HGA2
    5     6     7    49	 9 ;      CG311      CG314      CG321       HGA2
   47     6     7     1	 9 ;       HGA1      CG314      CG321      SG3O3
   47     6     7    48	 9 ;       HGA1      CG314      CG321       HGA2
   47     6     7    49	 9 ;       HGA1      CG314      CG321       HGA2
    4     8     9    15	 9 ;      CG311      CG321     CG2R61     CG2R61
    4     8     9    10	 9 ;      CG311      CG321     CG2R61     CG2R61
   50     8     9    15	 9 ;       HGA2      CG321     CG2R61     CG2R61
   50     8     9    10	 9 ;       HGA2      CG321     CG2R61     CG2R61
   51     8     9    15	 9 ;       HGA2      CG321     CG2R61     CG2R61
   51     8     9    10	 9 ;       HGA2      CG321     CG2R61     CG2R61
    8     9    15    13	 9 ;      CG321     CG2R61     CG2R61     CG2R66
    8     9    15    53	 9 ;      CG321     CG2R61     CG2R61      HGR62
   10     9    15    13	 9 ;     CG2R61     CG2R61     CG2R61     CG2R66
   10     9    15    53	 9 ;     CG2R61     CG2R61     CG2R61      HGR62
    8     9    10    11	 9 ;      CG321     CG2R61     CG2R61     CG2R61
    8     9    10    52	 9 ;      CG321     CG2R61     CG2R61      HGR61
   15     9    10    11	 9 ;     CG2R61     CG2R61     CG2R61     CG2R61
   15     9    10    52	 9 ;     CG2R61     CG2R61     CG2R61      HGR61
    9    10    11    12	 9 ;     CG2R61     CG2R61     CG2R61     CG2R61
    9    10    11    16	 9 ;     CG2R61     CG2R61     CG2R61      OG301
   52    10    11    12	 9 ;      HGR61     CG2R61     CG2R61     CG2R61
   52    10    11    16	 9 ;      HGR61     CG2R61     CG2R61      OG301
   10    11    12    13	 9 ;     CG2R61     CG2R61     CG2R61     CG2R66
   10    11    12    25	 9 ;     CG2R61     CG2R61     CG2R61      NG2S3
   16    11    12    13	 9 ;      OG301     CG2R61     CG2R61     CG2R66
   16    11    12    25	 9 ;      OG301     CG2R61     CG2R61      NG2S3
   10    11    16    17	 9 ;     CG2R61     CG2R61      OG301      CG311
   12    11    16    17	 9 ;     CG2R61     CG2R61      OG301      CG311
   11    12    13    15	 9 ;     CG2R61     CG2R61     CG2R66     CG2R61
   11    12    13    14	 9 ;     CG2R61     CG2R61     CG2R66       FGR1
   25    12    13    15	 9 ;      NG2S3     CG2R61     CG2R66     CG2R61
   25    12    13    14	 9 ;      NG2S3     CG2R61     CG2R66       FGR1
   13    12    25    26	 9 ;     CG2R66     CG2R61      NG2S3       HGP4
   13    12    25    27	 9 ;     CG2R66     CG2R61      NG2S3       HGP4
   11    12    25    26	 9 ;     CG2R61     CG2R61      NG2S3       HGP4
   11    12    25    27	 9 ;     CG2R61     CG2R61      NG2S3       HGP4
   14    13    15     9	 9 ;       FGR1     CG2R66     CG2R61     CG2R61
   14    13    15    53	 9 ;       FGR1     CG2R66     CG2R61      HGR62
   12    13    15     9	 9 ;     CG2R61     CG2R66     CG2R61     CG2R61
   12    13    15    53	 9 ;     CG2R61     CG2R66     CG2R61      HGR62
   11    16    17    21	 9 ;     CG2R61      OG301      CG311      CG302
   11    16    17    18	 9 ;     CG2R61      OG301      CG311      CG321
   11    16    17    54	 9 ;     CG2R61      OG301      CG311       HGA1
   16    17    21    23	 9 ;      OG301      CG311      CG302       FGA3
   16    17    21    22	 9 ;      OG301      CG311      CG302       FGA3
   16    17    21    24	 9 ;      OG301      CG311      CG302       FGA3
   18    17    21    23	 9 ;      CG321      CG311      CG302       FGA3
   18    17    21    22	 9 ;      CG321      CG311      CG302       FGA3
   18    17    21    24	 9 ;      CG321      CG311      CG302       FGA3
   54    17    21    23	 9 ;       HGA1      CG311      CG302       FGA3
   54    17    21    22	 9 ;       HGA1      CG311      CG302       FGA3
   54    17    21    24	 9 ;       HGA1      CG311      CG302       FGA3
   16    17    18    19	 9 ;      OG301      CG311      CG321      OG301
   16    17    18    55	 9 ;      OG301      CG311      CG321       HGA2
   16    17    18    56	 9 ;      OG301      CG311      CG321       HGA2
   21    17    18    19	 9 ;      CG302      CG311      CG321      OG301
   21    17    18    55	 9 ;      CG302      CG311      CG321       HGA2
   21    17    18    56	 9 ;      CG302      CG311      CG321       HGA2
   54    17    18    19	 9 ;       HGA1      CG311      CG321      OG301
   54    17    18    55	 9 ;       HGA1      CG311      CG321       HGA2
   54    17    18    56	 9 ;       HGA1      CG311      CG321       HGA2
   17    18    19    20	 9 ;      CG311      CG321      OG301      CG331
   55    18    19    20	 9 ;       HGA2      CG321      OG301      CG331
   56    18    19    20	 9 ;       HGA2      CG321      OG301      CG331
   18    19    20    57	 9 ;      CG321      OG301      CG331       HGA3
   18    19    20    58	 9 ;      CG321      OG301      CG331       HGA3
   18    19    20    59	 9 ;      CG321      OG301      CG331       HGA3
   32    30    33    34	 9 ;       HGP2      NG3P2      CG324     CG2R61
   32    30    33    60	 9 ;       HGP2      NG3P2      CG324       HGA2
   32    30    33    61	 9 ;       HGP2      NG3P2      CG324       HGA2
   31    30    33    34	 9 ;       HGP2      NG3P2      CG324     CG2R61
   31    30    33    60	 9 ;       HGP2      NG3P2      CG324       HGA2
   31    30    33    61	 9 ;       HGP2      NG3P2      CG324       HGA2
    6    30    33    34	 9 ;      CG314      NG3P2      CG324     CG2R61
    6    30    33    60	 9 ;      CG314      NG3P2      CG324       HGA2
    6    30    33    61	 9 ;      CG314      NG3P2      CG324       HGA2
   30    33    34    35	 9 ;      NG3P2      CG324     CG2R61     CG2R61
   30    33    34    39	 9 ;      NG3P2      CG324     CG2R61     CG2R61
   60    33    34    35	 9 ;       HGA2      CG324     CG2R61     CG2R61
   60    33    34    39	 9 ;       HGA2      CG324     CG2R61     CG2R61
   61    33    34    35	 9 ;       HGA2      CG324     CG2R61     CG2R61
   61    33    34    39	 9 ;       HGA2      CG324     CG2R61     CG2R61
   33    34    35    36	 9 ;      CG324     CG2R61     CG2R61     CG2R61
   33    34    35    62	 9 ;      CG324     CG2R61     CG2R61      HGR61
   39    34    35    36	 9 ;     CG2R61     CG2R61     CG2R61     CG2R61
   39    34    35    62	 9 ;     CG2R61     CG2R61     CG2R61      HGR61
   33    34    39    38	 9 ;      CG324     CG2R61     CG2R61     CG2R61
   33    34    39    65	 9 ;      CG324     CG2R61     CG2R61      HGR61
   35    34    39    38	 9 ;     CG2R61     CG2R61     CG2R61     CG2R61
   35    34    39    65	 9 ;     CG2R61     CG2R61     CG2R61      HGR61
   34    35    36    40	 9 ;     CG2R61     CG2R61     CG2R61      CG311
   34    35    36    37	 9 ;     CG2R61     CG2R61     CG2R61     CG2R61
   62    35    36    40	 9 ;      HGR61     CG2R61     CG2R61      CG311
   62    35    36    37	 9 ;      HGR61     CG2R61     CG2R61     CG2R61
   35    36    40    42	 9 ;     CG2R61     CG2R61      CG311      CG331
   35    36    40    41	 9 ;     CG2R61     CG2R61      CG311      CG331
   35    36    40    66	 9 ;     CG2R61     CG2R61      CG311       HGA1
   37    36    40    42	 9 ;     CG2R61     CG2R61      CG311      CG331
   37    36    40    41	 9 ;     CG2R61     CG2R61      CG311      CG331
   37    36    40    66	 9 ;     CG2R61     CG2R61      CG311       HGA1
   35    36    37    38	 9 ;     CG2R61     CG2R61     CG2R61     CG2R61
   35    36    37    63	 9 ;     CG2R61     CG2R61     CG2R61      HGR61
   40    36    37    38	 9 ;      CG311     CG2R61     CG2R61     CG2R61
   40    36    37    63	 9 ;      CG311     CG2R61     CG2R61      HGR61
   36    37    38    39	 9 ;     CG2R61     CG2R61     CG2R61     CG2R61
   36    37    38    64	 9 ;     CG2R61     CG2R61     CG2R61      HGR61
   63    37    38    39	 9 ;      HGR61     CG2R61     CG2R61     CG2R61
   63    37    38    64	 9 ;      HGR61     CG2R61     CG2R61      HGR61
   37    38    39    34	 9 ;     CG2R61     CG2R61     CG2R61     CG2R61
   37    38    39    65	 9 ;     CG2R61     CG2R61     CG2R61      HGR61
   64    38    39    34	 9 ;      HGR61     CG2R61     CG2R61     CG2R61
   64    38    39    65	 9 ;      HGR61     CG2R61     CG2R61      HGR61
   41    40    42    70	 9 ;      CG331      CG311      CG331       HGA3
   41    40    42    71	 9 ;      CG331      CG311      CG331       HGA3
   41    40    42    72	 9 ;      CG331      CG311      CG331       HGA3
   36    40    42    70	 9 ;     CG2R61      CG311      CG331       HGA3
   36    40    42    71	 9 ;     CG2R61      CG311      CG331       HGA3
   36    40    42    72	 9 ;     CG2R61      CG311      CG331       HGA3
   66    40    42    70	 9 ;       HGA1      CG311      CG331       HGA3
   66    40    42    71	 9 ;       HGA1      CG311      CG331       HGA3
   66    40    42    72	 9 ;       HGA1      CG311      CG331       HGA3
   42    40    41    67	 9 ;      CG331      CG311      CG331       HGA3
   42    40    41    68	 9 ;      CG331      CG311      CG331       HGA3
   42    40    41    69	 9 ;      CG331      CG311      CG331       HGA3
   36    40    41    67	 9 ;     CG2R61      CG311      CG331       HGA3
   36    40    41    68	 9 ;     CG2R61      CG311      CG331       HGA3
   36    40    41    69	 9 ;     CG2R61      CG311      CG331       HGA3
   66    40    41    67	 9 ;       HGA1      CG311      CG331       HGA3
   66    40    41    68	 9 ;       HGA1      CG311      CG331       HGA3
   66    40    41    69	 9 ;       HGA1      CG311      CG331       HGA3

[ dihedrals ]
;	ai	  aj	ak	  al funct			  c0			c1			  c2			c3
   25    27    26    12	 2

