Glycine aRginine prOline Methionine Alanine Cystine Serine
   72
    1LIG      S    1  -1.695   0.607  -1.469
    1LIG     O1    2  -1.561   0.634  -1.408
    1LIG     C1    3  -1.774   0.471  -1.377
    1LIG     C2    4  -1.686   0.345  -1.360
    1LIG     C3    5  -1.644   0.290  -1.497
    1LIG     C4    6  -1.572   0.393  -1.587
    1LIG     C5    7  -1.663   0.511  -1.619
    1LIG     C6    8  -1.569   0.364  -1.261
    1LIG     C7    9  -1.615   0.395  -1.122
    1LIG     C8   10  -1.660   0.292  -1.038
    1LIG     C9   11  -1.712   0.317  -0.910
    1LIG    C10   12  -1.710   0.448  -0.859
    1LIG    C11   13  -1.667   0.550  -0.947
    1LIG     F1   14  -1.670   0.678  -0.904
    1LIG    C12   15  -1.619   0.526  -1.075
    1LIG     O2   16  -1.755   0.201  -0.851
    1LIG    C13   17  -1.660   0.097  -0.820
    1LIG    C14   18  -1.578   0.147  -0.700
    1LIG     O3   19  -1.439   0.118  -0.714
    1LIG    C15   20  -1.401   0.004  -0.638
    1LIG    C16   21  -1.733  -0.034  -0.788
    1LIG     F2   22  -1.865  -0.025  -0.822
    1LIG     F3   23  -1.683  -0.136  -0.862
    1LIG     F4   24  -1.729  -0.070  -0.658
    1LIG     N1   25  -1.764   0.487  -0.735
    1LIG     H1   26  -1.866   0.487  -0.738
    1LIG     H2   27  -1.732   0.576  -0.700
    1LIG     O4   28  -1.560   0.174  -1.494
    1LIG     H3   29  -1.532   0.148  -1.583
    1LIG     N2   30  -1.530   0.319  -1.711
    1LIG     H4   31  -1.504   0.223  -1.679
    1LIG     H5   32  -1.609   0.300  -1.774
    1LIG    C17   33  -1.417   0.377  -1.787
    1LIG    C18   34  -1.286   0.345  -1.721
    1LIG    C19   35  -1.250   0.212  -1.699
    1LIG    C20   36  -1.127   0.179  -1.640
    1LIG    C21   37  -1.040   0.283  -1.605
    1LIG    C22   38  -1.076   0.417  -1.627
    1LIG    C23   39  -1.197   0.447  -1.684
    1LIG    C24   40  -1.091   0.034  -1.614
    1LIG    C25   41  -1.208  -0.059  -1.648
    1LIG    C26   42  -0.964  -0.006  -1.690
    1LIG     H6   43  -1.863   0.443  -1.429
    1LIG     H7   44  -1.793   0.508  -1.278
    1LIG     H8   45  -1.747   0.271  -1.313
    1LIG     H9   46  -1.739   0.264  -1.539
    1LIG    H10   47  -1.487   0.435  -1.537
    1LIG    H11   48  -1.756   0.475  -1.659
    1LIG    H12   49  -1.615   0.574  -1.691
    1LIG    H13   50  -1.507   0.444  -1.296
    1LIG    H14   51  -1.514   0.271  -1.258
    1LIG    H15   52  -1.654   0.194  -1.071
    1LIG    H16   53  -1.587   0.604  -1.135
    1LIG    H17   54  -1.596   0.076  -0.902
    1LIG    H18   55  -1.615   0.101  -0.611
    1LIG    H19   56  -1.589   0.254  -0.696
    1LIG    H20   57  -1.296  -0.014  -0.651
    1LIG    H21   58  -1.456  -0.082  -0.671
    1LIG    H22   59  -1.421   0.021  -0.534
    1LIG    H23   60  -1.417   0.337  -1.886
    1LIG    H24   61  -1.428   0.483  -1.790
    1LIG    H25   62  -1.315   0.136  -1.727
    1LIG    H26   63  -0.949   0.261  -1.562
    1LIG    H27   64  -1.011   0.492  -1.600
    1LIG    H28   65  -1.223   0.546  -1.700
    1LIG    H29   66  -1.071   0.023  -1.510
    1LIG    H30   67  -1.231  -0.051  -1.752
    1LIG    H31   68  -1.294  -0.031  -1.590
    1LIG    H32   69  -1.181  -0.160  -1.625
    1LIG    H33   70  -0.981   0.003  -1.795
    1LIG    H34   71  -0.939  -0.108  -1.666
    1LIG    H35   72  -0.884   0.058  -1.660
   0.00000   0.00000   0.00000
