GROtesk MACabre and Sinister
   50
    1LIG     O1    1  -1.687   0.329  -1.616
    1LIG     C1    2  -1.631   0.431  -1.534
    1LIG     C2    3  -1.516   0.493  -1.616
    1LIG     N1    4  -1.521   0.418  -1.745
    1LIG     HN    5  -1.462   0.433  -1.827
    1LIG     C3    6  -1.614   0.331  -1.730
    1LIG     N2    7  -1.653   0.239  -1.820
    1LIG     C4    8  -1.382   0.468  -1.548
    1LIG     C5    9  -1.337   0.336  -1.522
    1LIG     C6   10  -1.213   0.309  -1.462
    1LIG     C7   11  -1.133   0.420  -1.427
    1LIG     C8   12  -1.177   0.550  -1.451
    1LIG     C9   13  -1.300   0.574  -1.512
    1LIG     O2   14  -1.332   0.706  -1.531
    1LIG    C10   15  -1.448   0.736  -1.598
    1LIG    C11   16  -1.539   0.641  -1.642
    1LIG    C12   17  -1.654   0.685  -1.711
    1LIG    C13   18  -1.677   0.820  -1.734
    1LIG    C14   19  -1.584   0.914  -1.689
    1LIG    C15   20  -1.469   0.872  -1.622
    1LIG     H1   21  -1.747   0.204  -1.810
    1LIG     H2   22  -1.623   0.259  -1.915
    1LIG    C16   23  -1.168   0.170  -1.437
    1LIG    C17   24  -1.243   0.060  -1.483
    1LIG    C18   25  -1.202  -0.072  -1.459
    1LIG    C19   26  -1.083  -0.096  -1.389
    1LIG    C20   27  -1.286  -0.188  -1.506
    1LIG    C21   28  -1.007   0.012  -1.344
    1LIG    C22   29  -1.049   0.142  -1.367
    1LIG     O3   30  -1.786   0.873  -1.798
    1LIG    C23   31  -1.809   1.013  -1.779
    1LIG    HC2   32  -1.594   0.389  -1.441
    1LIG    HC3   33  -1.707   0.507  -1.513
    1LIG     HC   34  -1.401   0.253  -1.550
    1LIG    HC1   35  -1.037   0.403  -1.382
    1LIG    HC4   36  -1.114   0.634  -1.422
    1LIG    HC5   37  -1.726   0.612  -1.747
    1LIG    HC6   38  -1.600   1.019  -1.707
    1LIG    HC7   39  -1.397   0.945  -1.587
    1LIG    HC8   40  -1.334   0.077  -1.538
    1LIG    HC9   41  -1.051  -0.197  -1.371
    1LIG   HC10   42  -1.374  -0.150  -1.558
    1LIG   HC11   43  -1.316  -0.248  -1.420
    1LIG   HC12   44  -1.227  -0.249  -1.574
    1LIG   HC13   45  -0.915  -0.007  -1.291
    1LIG   HC14   46  -0.990   0.225  -1.330
    1LIG   HC15   47  -1.906   1.039  -1.821
    1LIG   HC16   48  -1.808   1.036  -1.673
    1LIG   HC17   49  -1.731   1.070  -1.829
    1LIG    H22   50  -1.543   0.261  -1.687
   0.00000   0.00000   0.00000
