; Created by cgenff_charmm2gmx.py

[ moleculetype ]
; Name			   nrexcl
LIG				 3

[ atoms ]
;	 nr		  type	resnr residue  atom   cgnr	   charge		mass  typeB    chargeB		massB
; residue	 1 LIG rtp LIG q	qsum
     1     CG3C50      1    LIG     C1      1      1.422     12.011   ;
     2      NG3P2      1    LIG     N1      2     -0.588     14.007   ;
     3       HGP2      1    LIG     HN      3      0.336      1.008   ;
     4     CG3C53      1    LIG     C2      4      0.785     12.011   ;
     5     NG2R53      1    LIG     N2      5     -0.178     14.007   ;
     6      CG331      1    LIG     C3      6     -0.169     12.011   ;
     7     CG2R53      1    LIG     C4      7     -0.410     12.011   ;
     8      OG2D1      1    LIG     O1      8     -0.325     15.999   ;
     9     CG2R61      1    LIG     C5      9     -0.215     12.011   ;
    10     CG2R61      1    LIG     C6     10     -0.128     12.011   ;
    11     CG2R61      1    LIG     C7     11     -0.108     12.011   ;
    12     CG2R61      1    LIG     C8     12      0.217     12.011   ;
    13     CG2R61      1    LIG     C9     13     -0.108     12.011   ;
    14     CG2R61      1    LIG    C10     14     -0.128     12.011   ;
    15      OG301      1    LIG     O2     15     -0.303     15.999   ;
    16      CG302      1    LIG    C11     16      0.464     12.011   ;
    17       FGA3      1    LIG     F1     17     -0.126     18.998   ;
    18       FGA3      1    LIG     F2     18     -0.126     18.998   ;
    19       FGA3      1    LIG     F3     19     -0.126     18.998   ;
    20      CG301      1    LIG    C12     20      0.062     12.011   ;
    21      CG321      1    LIG    C13     21     -0.175     12.011   ;
    22      CG311      1    LIG    C14     22     -0.106     12.011   ;
    23      CG321      1    LIG    C15     23     -0.178     12.011   ;
    24      CG321      1    LIG    C16     24     -0.178     12.011   ;
    25      CG311      1    LIG    C17     25     -0.106     12.011   ;
    26      CG321      1    LIG    C18     26     -0.175     12.011   ;
    27      CG321      1    LIG    C19     27     -0.178     12.011   ;
    28      CG311      1    LIG    C20     28     -0.106     12.011   ;
    29      CG321      1    LIG    C21     29     -0.175     12.011   ;
    30      NG3P3      1    LIG     N3     30     -0.267     14.007   ;
    31       HGP2      1    LIG     H1     31      0.301      1.008   ;
    32       HGP2      1    LIG     H2     32      0.301      1.008   ;
    33       HGP2      1    LIG    HN2     33      0.336      1.008   ;
    34       HGA1      1    LIG     HC     34      0.073      1.008   ;
    35      HGR61      1    LIG    HC1     35      0.116      1.008   ;
    36      HGR61      1    LIG    HC2     36      0.116      1.008   ;
    37      HGR61      1    LIG    HC3     37      0.116      1.008   ;
    38      HGR61      1    LIG    HC4     38      0.116      1.008   ;
    39       HGA2      1    LIG    HC5     39      0.090      1.008   ;
    40       HGA2      1    LIG    HC6     40      0.090      1.008   ;
    41       HGA1      1    LIG    HC7     41      0.090      1.008   ;
    42       HGA2      1    LIG    HC8     42      0.090      1.008   ;
    43       HGA2      1    LIG    HC9     43      0.090      1.008   ;
    44       HGA2      1    LIG   HC10     44      0.090      1.008   ;
    45       HGA2      1    LIG   HC11     45      0.090      1.008   ;
    46       HGA1      1    LIG   HC12     46      0.090      1.008   ;
    47       HGA2      1    LIG   HC13     47      0.090      1.008   ;
    48       HGA2      1    LIG   HC14     48      0.090      1.008   ;
    49       HGA2      1    LIG   HC15     49      0.090      1.008   ;
    50       HGA2      1    LIG   HC16     50      0.090      1.008   ;
    51       HGA1      1    LIG   HC17     51      0.090      1.008   ;
    52       HGA2      1    LIG   HC18     52      0.090      1.008   ;
    53       HGA2      1    LIG   HC19     53      0.090      1.008   ;
    54       HGP2      1    LIG    HN1     54      0.301      1.008   ;
    55       HGA3      1    LIG   HC20     55      0.090      1.008   ;
    56       HGA3      1    LIG   HC21     56      0.090      1.008   ;
    57       HGA3      1    LIG   HC22     57      0.090      1.008   ;

[ bonds ]
;	ai	  aj funct			  c0			c1			  c2			c3
    1     7	 1 ;      CG3C50     CG2R53
    1     9	 1 ;      CG3C50     CG2R61
    1     2	 1 ;      CG3C50      NG3P2
    1    20	 1 ;      CG3C50      CG301
    2     4	 1 ;       NG3P2     CG3C53
    2     3	 1 ;       NG3P2       HGP2
    2    33	 1 ;       NG3P2       HGP2
    4     5	 1 ;      CG3C53     NG2R53
    4    30	 1 ;      CG3C53      NG3P3
    4    34	 1 ;      CG3C53       HGA1
    5     6	 1 ;      NG2R53      CG331
    5     7	 1 ;      NG2R53     CG2R53
    6    55	 1 ;       CG331       HGA3
    6    56	 1 ;       CG331       HGA3
    6    57	 1 ;       CG331       HGA3
    7     8	 1 ;      CG2R53      OG2D1
    9    10	 1 ;      CG2R61     CG2R61
    9    14	 1 ;      CG2R61     CG2R61
   10    11	 1 ;      CG2R61     CG2R61
   10    35	 1 ;      CG2R61      HGR61
   11    12	 1 ;      CG2R61     CG2R61
   11    36	 1 ;      CG2R61      HGR61
   12    15	 1 ;      CG2R61      OG301
   12    13	 1 ;      CG2R61     CG2R61
   13    14	 1 ;      CG2R61     CG2R61
   13    37	 1 ;      CG2R61      HGR61
   14    38	 1 ;      CG2R61      HGR61
   15    16	 1 ;       OG301      CG302
   16    19	 1 ;       CG302       FGA3
   16    17	 1 ;       CG302       FGA3
   16    18	 1 ;       CG302       FGA3
   20    29	 1 ;       CG301      CG321
   20    26	 1 ;       CG301      CG321
   20    21	 1 ;       CG301      CG321
   21    22	 1 ;       CG321      CG311
   21    39	 1 ;       CG321       HGA2
   21    40	 1 ;       CG321       HGA2
   22    24	 1 ;       CG311      CG321
   22    23	 1 ;       CG311      CG321
   22    41	 1 ;       CG311       HGA1
   23    25	 1 ;       CG321      CG311
   23    42	 1 ;       CG321       HGA2
   23    43	 1 ;       CG321       HGA2
   24    28	 1 ;       CG321      CG311
   24    44	 1 ;       CG321       HGA2
   24    45	 1 ;       CG321       HGA2
   25    26	 1 ;       CG311      CG321
   25    27	 1 ;       CG311      CG321
   25    46	 1 ;       CG311       HGA1
   26    47	 1 ;       CG321       HGA2
   26    48	 1 ;       CG321       HGA2
   27    28	 1 ;       CG321      CG311
   27    49	 1 ;       CG321       HGA2
   27    50	 1 ;       CG321       HGA2
   28    29	 1 ;       CG311      CG321
   28    51	 1 ;       CG311       HGA1
   29    52	 1 ;       CG321       HGA2
   29    53	 1 ;       CG321       HGA2
   30    32	 1 ;       NG3P3       HGP2
   30    31	 1 ;       NG3P3       HGP2
   30    54	 1 ;       NG3P3       HGP2

[ pairs ]
;	ai	  aj funct			  c0			c1			  c2			c3
    1    30	 1
    1    34	 1
    1     6	 1
    1    11	 1
    1    35	 1
    1    13	 1
    1    38	 1
    1    28	 1
    1    52	 1
    1    53	 1
    1    25	 1
    1    47	 1
    1    48	 1
    1    22	 1
    1    39	 1
    1    40	 1
    2     8	 1
    2    10	 1
    2    14	 1
    2    29	 1
    2    26	 1
    2    21	 1
    2     6	 1
    2    32	 1
    2    31	 1
    2    54	 1
    3     7	 1
    3     9	 1
    3    20	 1
    3     5	 1
    3    30	 1
    3    34	 1
    4     9	 1
    4    20	 1
    4    55	 1
    4    56	 1
    4    57	 1
    4     8	 1
    5     9	 1
    5    20	 1
    5    33	 1
    5    32	 1
    5    31	 1
    5    54	 1
    6    30	 1
    6    34	 1
    6     8	 1
    7    10	 1
    7    14	 1
    7    33	 1
    7    29	 1
    7    26	 1
    7    21	 1
    7    30	 1
    7    34	 1
    7    55	 1
    7    56	 1
    7    57	 1
    8     9	 1
    8    20	 1
    9    33	 1
    9    29	 1
    9    26	 1
    9    21	 1
    9    12	 1
    9    36	 1
    9    37	 1
   10    20	 1
   10    13	 1
   10    38	 1
   10    15	 1
   11    14	 1
   11    16	 1
   11    37	 1
   12    35	 1
   12    38	 1
   12    19	 1
   12    17	 1
   12    18	 1
   13    36	 1
   13    16	 1
   14    20	 1
   14    35	 1
   14    15	 1
   15    36	 1
   15    37	 1
   20    33	 1
   20    24	 1
   20    23	 1
   20    41	 1
   20    27	 1
   20    46	 1
   20    51	 1
   21    28	 1
   21    52	 1
   21    53	 1
   21    25	 1
   21    47	 1
   21    48	 1
   21    44	 1
   21    45	 1
   21    42	 1
   21    43	 1
   22    29	 1
   22    26	 1
   22    27	 1
   22    46	 1
   22    51	 1
   23    39	 1
   23    40	 1
   23    28	 1
   23    44	 1
   23    45	 1
   23    47	 1
   23    48	 1
   23    49	 1
   23    50	 1
   24    39	 1
   24    40	 1
   24    25	 1
   24    42	 1
   24    43	 1
   24    49	 1
   24    50	 1
   24    52	 1
   24    53	 1
   25    29	 1
   25    41	 1
   25    51	 1
   26    28	 1
   26    52	 1
   26    53	 1
   26    39	 1
   26    40	 1
   26    42	 1
   26    43	 1
   26    49	 1
   26    50	 1
   27    42	 1
   27    43	 1
   27    44	 1
   27    45	 1
   27    47	 1
   27    48	 1
   27    52	 1
   27    53	 1
   28    41	 1
   28    46	 1
   29    47	 1
   29    48	 1
   29    39	 1
   29    40	 1
   29    44	 1
   29    45	 1
   29    49	 1
   29    50	 1
   30    33	 1
   31    34	 1
   32    34	 1
   33    34	 1
   34    54	 1
   35    36	 1
   37    38	 1
   39    41	 1
   40    41	 1
   41    44	 1
   41    45	 1
   41    42	 1
   41    43	 1
   42    46	 1
   43    46	 1
   44    51	 1
   45    51	 1
   46    47	 1
   46    48	 1
   46    49	 1
   46    50	 1
   49    51	 1
   50    51	 1
   51    52	 1
   51    53	 1

[ angles ]
;	ai	  aj	ak funct			c0			  c1			c2			  c3
    7     1     9	5 ;     CG2R53     CG3C50     CG2R61
    7     1     2	5 ;     CG2R53     CG3C50      NG3P2
    7     1    20	5 ;     CG2R53     CG3C50      CG301
    9     1     2	5 ;     CG2R61     CG3C50      NG3P2
    9     1    20	5 ;     CG2R61     CG3C50      CG301
    2     1    20	5 ;      NG3P2     CG3C50      CG301
    4     2     1	5 ;     CG3C53      NG3P2     CG3C50
    4     2     3	5 ;     CG3C53      NG3P2       HGP2
    4     2    33	5 ;     CG3C53      NG3P2       HGP2
    1     2     3	5 ;     CG3C50      NG3P2       HGP2
    1     2    33	5 ;     CG3C50      NG3P2       HGP2
    3     2    33	5 ;       HGP2      NG3P2       HGP2
    5     4    30	5 ;     NG2R53     CG3C53      NG3P3
    5     4     2	5 ;     NG2R53     CG3C53      NG3P2
    5     4    34	5 ;     NG2R53     CG3C53       HGA1
   30     4     2	5 ;      NG3P3     CG3C53      NG3P2
   30     4    34	5 ;      NG3P3     CG3C53       HGA1
    2     4    34	5 ;      NG3P2     CG3C53       HGA1
    6     5     7	5 ;      CG331     NG2R53     CG2R53
    6     5     4	5 ;      CG331     NG2R53     CG3C53
    7     5     4	5 ;     CG2R53     NG2R53     CG3C53
    5     6    55	5 ;     NG2R53      CG331       HGA3
    5     6    56	5 ;     NG2R53      CG331       HGA3
    5     6    57	5 ;     NG2R53      CG331       HGA3
   55     6    56	5 ;       HGA3      CG331       HGA3
   55     6    57	5 ;       HGA3      CG331       HGA3
   56     6    57	5 ;       HGA3      CG331       HGA3
    8     7     5	5 ;      OG2D1     CG2R53     NG2R53
    8     7     1	5 ;      OG2D1     CG2R53     CG3C50
    5     7     1	5 ;     NG2R53     CG2R53     CG3C50
   10     9     1	5 ;     CG2R61     CG2R61     CG3C50
   10     9    14	5 ;     CG2R61     CG2R61     CG2R61
    1     9    14	5 ;     CG3C50     CG2R61     CG2R61
   11    10     9	5 ;     CG2R61     CG2R61     CG2R61
   11    10    35	5 ;     CG2R61     CG2R61      HGR61
    9    10    35	5 ;     CG2R61     CG2R61      HGR61
   10    11    12	5 ;     CG2R61     CG2R61     CG2R61
   10    11    36	5 ;     CG2R61     CG2R61      HGR61
   12    11    36	5 ;     CG2R61     CG2R61      HGR61
   11    12    15	5 ;     CG2R61     CG2R61      OG301
   11    12    13	5 ;     CG2R61     CG2R61     CG2R61
   15    12    13	5 ;      OG301     CG2R61     CG2R61
   12    13    14	5 ;     CG2R61     CG2R61     CG2R61
   12    13    37	5 ;     CG2R61     CG2R61      HGR61
   14    13    37	5 ;     CG2R61     CG2R61      HGR61
    9    14    13	5 ;     CG2R61     CG2R61     CG2R61
    9    14    38	5 ;     CG2R61     CG2R61      HGR61
   13    14    38	5 ;     CG2R61     CG2R61      HGR61
   12    15    16	5 ;     CG2R61      OG301      CG302
   19    16    15	5 ;       FGA3      CG302      OG301
   19    16    17	5 ;       FGA3      CG302       FGA3
   19    16    18	5 ;       FGA3      CG302       FGA3
   15    16    17	5 ;      OG301      CG302       FGA3
   15    16    18	5 ;      OG301      CG302       FGA3
   17    16    18	5 ;       FGA3      CG302       FGA3
    1    20    29	5 ;     CG3C50      CG301      CG321
    1    20    26	5 ;     CG3C50      CG301      CG321
    1    20    21	5 ;     CG3C50      CG301      CG321
   29    20    26	5 ;      CG321      CG301      CG321
   29    20    21	5 ;      CG321      CG301      CG321
   26    20    21	5 ;      CG321      CG301      CG321
   20    21    22	5 ;      CG301      CG321      CG311
   20    21    39	5 ;      CG301      CG321       HGA2
   20    21    40	5 ;      CG301      CG321       HGA2
   22    21    39	5 ;      CG311      CG321       HGA2
   22    21    40	5 ;      CG311      CG321       HGA2
   39    21    40	5 ;       HGA2      CG321       HGA2
   21    22    24	5 ;      CG321      CG311      CG321
   21    22    23	5 ;      CG321      CG311      CG321
   21    22    41	5 ;      CG321      CG311       HGA1
   24    22    23	5 ;      CG321      CG311      CG321
   24    22    41	5 ;      CG321      CG311       HGA1
   23    22    41	5 ;      CG321      CG311       HGA1
   25    23    22	5 ;      CG311      CG321      CG311
   25    23    42	5 ;      CG311      CG321       HGA2
   25    23    43	5 ;      CG311      CG321       HGA2
   22    23    42	5 ;      CG311      CG321       HGA2
   22    23    43	5 ;      CG311      CG321       HGA2
   42    23    43	5 ;       HGA2      CG321       HGA2
   28    24    22	5 ;      CG311      CG321      CG311
   28    24    44	5 ;      CG311      CG321       HGA2
   28    24    45	5 ;      CG311      CG321       HGA2
   22    24    44	5 ;      CG311      CG321       HGA2
   22    24    45	5 ;      CG311      CG321       HGA2
   44    24    45	5 ;       HGA2      CG321       HGA2
   26    25    27	5 ;      CG321      CG311      CG321
   26    25    23	5 ;      CG321      CG311      CG321
   26    25    46	5 ;      CG321      CG311       HGA1
   27    25    23	5 ;      CG321      CG311      CG321
   27    25    46	5 ;      CG321      CG311       HGA1
   23    25    46	5 ;      CG321      CG311       HGA1
   20    26    25	5 ;      CG301      CG321      CG311
   20    26    47	5 ;      CG301      CG321       HGA2
   20    26    48	5 ;      CG301      CG321       HGA2
   25    26    47	5 ;      CG311      CG321       HGA2
   25    26    48	5 ;      CG311      CG321       HGA2
   47    26    48	5 ;       HGA2      CG321       HGA2
   28    27    25	5 ;      CG311      CG321      CG311
   28    27    49	5 ;      CG311      CG321       HGA2
   28    27    50	5 ;      CG311      CG321       HGA2
   25    27    49	5 ;      CG311      CG321       HGA2
   25    27    50	5 ;      CG311      CG321       HGA2
   49    27    50	5 ;       HGA2      CG321       HGA2
   29    28    27	5 ;      CG321      CG311      CG321
   29    28    24	5 ;      CG321      CG311      CG321
   29    28    51	5 ;      CG321      CG311       HGA1
   27    28    24	5 ;      CG321      CG311      CG321
   27    28    51	5 ;      CG321      CG311       HGA1
   24    28    51	5 ;      CG321      CG311       HGA1
   20    29    28	5 ;      CG301      CG321      CG311
   20    29    52	5 ;      CG301      CG321       HGA2
   20    29    53	5 ;      CG301      CG321       HGA2
   28    29    52	5 ;      CG311      CG321       HGA2
   28    29    53	5 ;      CG311      CG321       HGA2
   52    29    53	5 ;       HGA2      CG321       HGA2
   32    30     4	5 ;       HGP2      NG3P3     CG3C53
   32    30    31	5 ;       HGP2      NG3P3       HGP2
   32    30    54	5 ;       HGP2      NG3P3       HGP2
    4    30    31	5 ;     CG3C53      NG3P3       HGP2
    4    30    54	5 ;     CG3C53      NG3P3       HGP2
   31    30    54	5 ;       HGP2      NG3P3       HGP2

[ dihedrals ]
;	ai	  aj	ak	  al funct			  c0			c1			  c2			c3			  c4			c5
    9     1     7     8	 9 ;     CG2R61     CG3C50     CG2R53      OG2D1
    9     1     7     5	 9 ;     CG2R61     CG3C50     CG2R53     NG2R53
    2     1     7     8	 9 ;      NG3P2     CG3C50     CG2R53      OG2D1
    2     1     7     5	 9 ;      NG3P2     CG3C50     CG2R53     NG2R53
   20     1     7     8	 9 ;      CG301     CG3C50     CG2R53      OG2D1
   20     1     7     5	 9 ;      CG301     CG3C50     CG2R53     NG2R53
    7     1     9    10	 9 ;     CG2R53     CG3C50     CG2R61     CG2R61
    7     1     9    14	 9 ;     CG2R53     CG3C50     CG2R61     CG2R61
    2     1     9    10	 9 ;      NG3P2     CG3C50     CG2R61     CG2R61
    2     1     9    14	 9 ;      NG3P2     CG3C50     CG2R61     CG2R61
   20     1     9    10	 9 ;      CG301     CG3C50     CG2R61     CG2R61
   20     1     9    14	 9 ;      CG301     CG3C50     CG2R61     CG2R61
    7     1     2     4	 9 ;     CG2R53     CG3C50      NG3P2     CG3C53
    7     1     2     3	 9 ;     CG2R53     CG3C50      NG3P2       HGP2
    7     1     2    33	 9 ;     CG2R53     CG3C50      NG3P2       HGP2
    9     1     2     4	 9 ;     CG2R61     CG3C50      NG3P2     CG3C53
    9     1     2     3	 9 ;     CG2R61     CG3C50      NG3P2       HGP2
    9     1     2    33	 9 ;     CG2R61     CG3C50      NG3P2       HGP2
   20     1     2     4	 9 ;      CG301     CG3C50      NG3P2     CG3C53
   20     1     2     3	 9 ;      CG301     CG3C50      NG3P2       HGP2
   20     1     2    33	 9 ;      CG301     CG3C50      NG3P2       HGP2
    7     1    20    29	 9 ;     CG2R53     CG3C50      CG301      CG321
    7     1    20    26	 9 ;     CG2R53     CG3C50      CG301      CG321
    7     1    20    21	 9 ;     CG2R53     CG3C50      CG301      CG321
    9     1    20    29	 9 ;     CG2R61     CG3C50      CG301      CG321
    9     1    20    26	 9 ;     CG2R61     CG3C50      CG301      CG321
    9     1    20    21	 9 ;     CG2R61     CG3C50      CG301      CG321
    2     1    20    29	 9 ;      NG3P2     CG3C50      CG301      CG321
    2     1    20    26	 9 ;      NG3P2     CG3C50      CG301      CG321
    2     1    20    21	 9 ;      NG3P2     CG3C50      CG301      CG321
    1     2     4     5	 9 ;     CG3C50      NG3P2     CG3C53     NG2R53
    1     2     4    30	 9 ;     CG3C50      NG3P2     CG3C53      NG3P3
    1     2     4    34	 9 ;     CG3C50      NG3P2     CG3C53       HGA1
    3     2     4     5	 9 ;       HGP2      NG3P2     CG3C53     NG2R53
    3     2     4    30	 9 ;       HGP2      NG3P2     CG3C53      NG3P3
    3     2     4    34	 9 ;       HGP2      NG3P2     CG3C53       HGA1
   33     2     4     5	 9 ;       HGP2      NG3P2     CG3C53     NG2R53
   33     2     4    30	 9 ;       HGP2      NG3P2     CG3C53      NG3P3
   33     2     4    34	 9 ;       HGP2      NG3P2     CG3C53       HGA1
   30     4     5     6	 9 ;      NG3P3     CG3C53     NG2R53      CG331
   30     4     5     7	 9 ;      NG3P3     CG3C53     NG2R53     CG2R53
    2     4     5     6	 9 ;      NG3P2     CG3C53     NG2R53      CG331
    2     4     5     7	 9 ;      NG3P2     CG3C53     NG2R53     CG2R53
   34     4     5     6	 9 ;       HGA1     CG3C53     NG2R53      CG331
   34     4     5     7	 9 ;       HGA1     CG3C53     NG2R53     CG2R53
    5     4    30    32	 9 ;     NG2R53     CG3C53      NG3P3       HGP2
    5     4    30    31	 9 ;     NG2R53     CG3C53      NG3P3       HGP2
    5     4    30    54	 9 ;     NG2R53     CG3C53      NG3P3       HGP2
    2     4    30    32	 9 ;      NG3P2     CG3C53      NG3P3       HGP2
    2     4    30    31	 9 ;      NG3P2     CG3C53      NG3P3       HGP2
    2     4    30    54	 9 ;      NG3P2     CG3C53      NG3P3       HGP2
   34     4    30    32	 9 ;       HGA1     CG3C53      NG3P3       HGP2
   34     4    30    31	 9 ;       HGA1     CG3C53      NG3P3       HGP2
   34     4    30    54	 9 ;       HGA1     CG3C53      NG3P3       HGP2
    7     5     6    55	 9 ;     CG2R53     NG2R53      CG331       HGA3
    7     5     6    56	 9 ;     CG2R53     NG2R53      CG331       HGA3
    7     5     6    57	 9 ;     CG2R53     NG2R53      CG331       HGA3
    4     5     6    55	 9 ;     CG3C53     NG2R53      CG331       HGA3
    4     5     6    56	 9 ;     CG3C53     NG2R53      CG331       HGA3
    4     5     6    57	 9 ;     CG3C53     NG2R53      CG331       HGA3
    6     5     7     8	 9 ;      CG331     NG2R53     CG2R53      OG2D1
    6     5     7     1	 9 ;      CG331     NG2R53     CG2R53     CG3C50
    4     5     7     8	 9 ;     CG3C53     NG2R53     CG2R53      OG2D1
    4     5     7     1	 9 ;     CG3C53     NG2R53     CG2R53     CG3C50
    1     9    10    11	 9 ;     CG3C50     CG2R61     CG2R61     CG2R61
    1     9    10    35	 9 ;     CG3C50     CG2R61     CG2R61      HGR61
   14     9    10    11	 9 ;     CG2R61     CG2R61     CG2R61     CG2R61
   14     9    10    35	 9 ;     CG2R61     CG2R61     CG2R61      HGR61
   10     9    14    13	 9 ;     CG2R61     CG2R61     CG2R61     CG2R61
   10     9    14    38	 9 ;     CG2R61     CG2R61     CG2R61      HGR61
    1     9    14    13	 9 ;     CG3C50     CG2R61     CG2R61     CG2R61
    1     9    14    38	 9 ;     CG3C50     CG2R61     CG2R61      HGR61
    9    10    11    12	 9 ;     CG2R61     CG2R61     CG2R61     CG2R61
    9    10    11    36	 9 ;     CG2R61     CG2R61     CG2R61      HGR61
   35    10    11    12	 9 ;      HGR61     CG2R61     CG2R61     CG2R61
   35    10    11    36	 9 ;      HGR61     CG2R61     CG2R61      HGR61
   10    11    12    15	 9 ;     CG2R61     CG2R61     CG2R61      OG301
   10    11    12    13	 9 ;     CG2R61     CG2R61     CG2R61     CG2R61
   36    11    12    15	 9 ;      HGR61     CG2R61     CG2R61      OG301
   36    11    12    13	 9 ;      HGR61     CG2R61     CG2R61     CG2R61
   11    12    15    16	 9 ;     CG2R61     CG2R61      OG301      CG302
   13    12    15    16	 9 ;     CG2R61     CG2R61      OG301      CG302
   11    12    13    14	 9 ;     CG2R61     CG2R61     CG2R61     CG2R61
   11    12    13    37	 9 ;     CG2R61     CG2R61     CG2R61      HGR61
   15    12    13    14	 9 ;      OG301     CG2R61     CG2R61     CG2R61
   15    12    13    37	 9 ;      OG301     CG2R61     CG2R61      HGR61
   12    13    14     9	 9 ;     CG2R61     CG2R61     CG2R61     CG2R61
   12    13    14    38	 9 ;     CG2R61     CG2R61     CG2R61      HGR61
   37    13    14     9	 9 ;      HGR61     CG2R61     CG2R61     CG2R61
   37    13    14    38	 9 ;      HGR61     CG2R61     CG2R61      HGR61
   12    15    16    19	 9 ;     CG2R61      OG301      CG302       FGA3
   12    15    16    17	 9 ;     CG2R61      OG301      CG302       FGA3
   12    15    16    18	 9 ;     CG2R61      OG301      CG302       FGA3
    1    20    29    28	 9 ;     CG3C50      CG301      CG321      CG311
    1    20    29    52	 9 ;     CG3C50      CG301      CG321       HGA2
    1    20    29    53	 9 ;     CG3C50      CG301      CG321       HGA2
   26    20    29    28	 9 ;      CG321      CG301      CG321      CG311
   26    20    29    52	 9 ;      CG321      CG301      CG321       HGA2
   26    20    29    53	 9 ;      CG321      CG301      CG321       HGA2
   21    20    29    28	 9 ;      CG321      CG301      CG321      CG311
   21    20    29    52	 9 ;      CG321      CG301      CG321       HGA2
   21    20    29    53	 9 ;      CG321      CG301      CG321       HGA2
    1    20    26    25	 9 ;     CG3C50      CG301      CG321      CG311
    1    20    26    47	 9 ;     CG3C50      CG301      CG321       HGA2
    1    20    26    48	 9 ;     CG3C50      CG301      CG321       HGA2
   29    20    26    25	 9 ;      CG321      CG301      CG321      CG311
   29    20    26    47	 9 ;      CG321      CG301      CG321       HGA2
   29    20    26    48	 9 ;      CG321      CG301      CG321       HGA2
   21    20    26    25	 9 ;      CG321      CG301      CG321      CG311
   21    20    26    47	 9 ;      CG321      CG301      CG321       HGA2
   21    20    26    48	 9 ;      CG321      CG301      CG321       HGA2
    1    20    21    22	 9 ;     CG3C50      CG301      CG321      CG311
    1    20    21    39	 9 ;     CG3C50      CG301      CG321       HGA2
    1    20    21    40	 9 ;     CG3C50      CG301      CG321       HGA2
   29    20    21    22	 9 ;      CG321      CG301      CG321      CG311
   29    20    21    39	 9 ;      CG321      CG301      CG321       HGA2
   29    20    21    40	 9 ;      CG321      CG301      CG321       HGA2
   26    20    21    22	 9 ;      CG321      CG301      CG321      CG311
   26    20    21    39	 9 ;      CG321      CG301      CG321       HGA2
   26    20    21    40	 9 ;      CG321      CG301      CG321       HGA2
   20    21    22    24	 9 ;      CG301      CG321      CG311      CG321
   20    21    22    23	 9 ;      CG301      CG321      CG311      CG321
   20    21    22    41	 9 ;      CG301      CG321      CG311       HGA1
   39    21    22    24	 9 ;       HGA2      CG321      CG311      CG321
   39    21    22    23	 9 ;       HGA2      CG321      CG311      CG321
   39    21    22    41	 9 ;       HGA2      CG321      CG311       HGA1
   40    21    22    24	 9 ;       HGA2      CG321      CG311      CG321
   40    21    22    23	 9 ;       HGA2      CG321      CG311      CG321
   40    21    22    41	 9 ;       HGA2      CG321      CG311       HGA1
   21    22    24    28	 9 ;      CG321      CG311      CG321      CG311
   21    22    24    44	 9 ;      CG321      CG311      CG321       HGA2
   21    22    24    45	 9 ;      CG321      CG311      CG321       HGA2
   23    22    24    28	 9 ;      CG321      CG311      CG321      CG311
   23    22    24    44	 9 ;      CG321      CG311      CG321       HGA2
   23    22    24    45	 9 ;      CG321      CG311      CG321       HGA2
   41    22    24    28	 9 ;       HGA1      CG311      CG321      CG311
   41    22    24    44	 9 ;       HGA1      CG311      CG321       HGA2
   41    22    24    45	 9 ;       HGA1      CG311      CG321       HGA2
   21    22    23    25	 9 ;      CG321      CG311      CG321      CG311
   21    22    23    42	 9 ;      CG321      CG311      CG321       HGA2
   21    22    23    43	 9 ;      CG321      CG311      CG321       HGA2
   24    22    23    25	 9 ;      CG321      CG311      CG321      CG311
   24    22    23    42	 9 ;      CG321      CG311      CG321       HGA2
   24    22    23    43	 9 ;      CG321      CG311      CG321       HGA2
   41    22    23    25	 9 ;       HGA1      CG311      CG321      CG311
   41    22    23    42	 9 ;       HGA1      CG311      CG321       HGA2
   41    22    23    43	 9 ;       HGA1      CG311      CG321       HGA2
   22    23    25    26	 9 ;      CG311      CG321      CG311      CG321
   22    23    25    27	 9 ;      CG311      CG321      CG311      CG321
   22    23    25    46	 9 ;      CG311      CG321      CG311       HGA1
   42    23    25    26	 9 ;       HGA2      CG321      CG311      CG321
   42    23    25    27	 9 ;       HGA2      CG321      CG311      CG321
   42    23    25    46	 9 ;       HGA2      CG321      CG311       HGA1
   43    23    25    26	 9 ;       HGA2      CG321      CG311      CG321
   43    23    25    27	 9 ;       HGA2      CG321      CG311      CG321
   43    23    25    46	 9 ;       HGA2      CG321      CG311       HGA1
   22    24    28    29	 9 ;      CG311      CG321      CG311      CG321
   22    24    28    27	 9 ;      CG311      CG321      CG311      CG321
   22    24    28    51	 9 ;      CG311      CG321      CG311       HGA1
   44    24    28    29	 9 ;       HGA2      CG321      CG311      CG321
   44    24    28    27	 9 ;       HGA2      CG321      CG311      CG321
   44    24    28    51	 9 ;       HGA2      CG321      CG311       HGA1
   45    24    28    29	 9 ;       HGA2      CG321      CG311      CG321
   45    24    28    27	 9 ;       HGA2      CG321      CG311      CG321
   45    24    28    51	 9 ;       HGA2      CG321      CG311       HGA1
   27    25    26    20	 9 ;      CG321      CG311      CG321      CG301
   27    25    26    47	 9 ;      CG321      CG311      CG321       HGA2
   27    25    26    48	 9 ;      CG321      CG311      CG321       HGA2
   23    25    26    20	 9 ;      CG321      CG311      CG321      CG301
   23    25    26    47	 9 ;      CG321      CG311      CG321       HGA2
   23    25    26    48	 9 ;      CG321      CG311      CG321       HGA2
   46    25    26    20	 9 ;       HGA1      CG311      CG321      CG301
   46    25    26    47	 9 ;       HGA1      CG311      CG321       HGA2
   46    25    26    48	 9 ;       HGA1      CG311      CG321       HGA2
   26    25    27    28	 9 ;      CG321      CG311      CG321      CG311
   26    25    27    49	 9 ;      CG321      CG311      CG321       HGA2
   26    25    27    50	 9 ;      CG321      CG311      CG321       HGA2
   23    25    27    28	 9 ;      CG321      CG311      CG321      CG311
   23    25    27    49	 9 ;      CG321      CG311      CG321       HGA2
   23    25    27    50	 9 ;      CG321      CG311      CG321       HGA2
   46    25    27    28	 9 ;       HGA1      CG311      CG321      CG311
   46    25    27    49	 9 ;       HGA1      CG311      CG321       HGA2
   46    25    27    50	 9 ;       HGA1      CG311      CG321       HGA2
   25    27    28    29	 9 ;      CG311      CG321      CG311      CG321
   25    27    28    24	 9 ;      CG311      CG321      CG311      CG321
   25    27    28    51	 9 ;      CG311      CG321      CG311       HGA1
   49    27    28    29	 9 ;       HGA2      CG321      CG311      CG321
   49    27    28    24	 9 ;       HGA2      CG321      CG311      CG321
   49    27    28    51	 9 ;       HGA2      CG321      CG311       HGA1
   50    27    28    29	 9 ;       HGA2      CG321      CG311      CG321
   50    27    28    24	 9 ;       HGA2      CG321      CG311      CG321
   50    27    28    51	 9 ;       HGA2      CG321      CG311       HGA1
   27    28    29    20	 9 ;      CG321      CG311      CG321      CG301
   27    28    29    52	 9 ;      CG321      CG311      CG321       HGA2
   27    28    29    53	 9 ;      CG321      CG311      CG321       HGA2
   24    28    29    20	 9 ;      CG321      CG311      CG321      CG301
   24    28    29    52	 9 ;      CG321      CG311      CG321       HGA2
   24    28    29    53	 9 ;      CG321      CG311      CG321       HGA2
   51    28    29    20	 9 ;       HGA1      CG311      CG321      CG301
   51    28    29    52	 9 ;       HGA1      CG311      CG321       HGA2
   51    28    29    53	 9 ;       HGA1      CG311      CG321       HGA2

[ dihedrals ]
;	ai	  aj	ak	  al funct			  c0			c1			  c2			c3
    7     1     5     8	 2

