Getting the Right Output Means no Artefacts in Calculating Stuff
   57
    1LIG     C1    1  -1.378   0.423  -1.573
    1LIG     N1    2  -1.345   0.565  -1.534
    1LIG     HN    3  -1.361   0.610  -1.444
    1LIG     C2    4  -1.291   0.619  -1.638
    1LIG     N2    5  -1.273   0.538  -1.745
    1LIG     C3    6  -1.254   0.578  -1.882
    1LIG     C4    7  -1.307   0.411  -1.709
    1LIG     O1    8  -1.293   0.311  -1.778
    1LIG     C5    9  -1.325   0.324  -1.467
    1LIG     C6   10  -1.242   0.217  -1.505
    1LIG     C7   11  -1.194   0.124  -1.411
    1LIG     C8   12  -1.222   0.138  -1.276
    1LIG     C9   13  -1.304   0.243  -1.236
    1LIG    C10   14  -1.355   0.335  -1.330
    1LIG     O2   15  -1.179   0.056  -1.176
    1LIG    C11   16  -1.213  -0.082  -1.178
    1LIG     F1   17  -1.327  -0.111  -1.242
    1LIG     F2   18  -1.222  -0.127  -1.051
    1LIG     F3   19  -1.113  -0.149  -1.240
    1LIG    C12   20  -1.536   0.416  -1.600
    1LIG    C13   21  -1.612   0.512  -1.504
    1LIG    C14   22  -1.765   0.504  -1.525
    1LIG    C15   23  -1.810   0.359  -1.500
    1LIG    C16   24  -1.798   0.546  -1.669
    1LIG    C17   25  -1.744   0.265  -1.602
    1LIG    C18   26  -1.591   0.271  -1.582
    1LIG    C19   27  -1.780   0.309  -1.744
    1LIG    C20   28  -1.730   0.451  -1.768
    1LIG    C21   29  -1.577   0.456  -1.747
    1LIG     N3   30  -1.253   0.748  -1.643
    1LIG     H1   31  -1.256   0.793  -1.551
    1LIG     H2   32  -1.166   0.768  -1.692
    1LIG    HN2   33  -1.254   0.535  -1.502
    1LIG     HC   34  -1.389   0.647  -1.676
    1LIG    HC1   35  -1.214   0.206  -1.609
    1LIG    HC2   36  -1.134   0.040  -1.445
    1LIG    HC3   37  -1.330   0.254  -1.132
    1LIG    HC4   38  -1.419   0.415  -1.296
    1LIG    HC5   39  -1.580   0.614  -1.523
    1LIG    HC6   40  -1.589   0.485  -1.401
    1LIG    HC7   41  -1.815   0.570  -1.455
    1LIG    HC8   42  -1.918   0.353  -1.511
    1LIG    HC9   43  -1.782   0.329  -1.399
    1LIG   HC10   44  -1.906   0.542  -1.684
    1LIG   HC11   45  -1.763   0.648  -1.686
    1LIG   HC12   46  -1.778   0.163  -1.585
    1LIG   HC13   47  -1.567   0.237  -1.481
    1LIG   HC14   48  -1.543   0.205  -1.654
    1LIG   HC15   49  -1.888   0.306  -1.756
    1LIG   HC16   50  -1.733   0.241  -1.816
    1LIG   HC17   51  -1.753   0.482  -1.870
    1LIG   HC18   52  -1.530   0.386  -1.817
    1LIG   HC19   53  -1.541   0.557  -1.768
    1LIG    HN1   54  -1.324   0.794  -1.697
    1LIG   HC20   55  -1.243   0.490  -1.945
    1LIG   HC21   56  -1.163   0.639  -1.889
    1LIG   HC22   57  -1.339   0.636  -1.916
   0.00000   0.00000   0.00000
