Great Red Oystrich Makes All Chemists Sane
   93
    1LIG     C1    1  -1.610   0.608  -1.766
    1LIG     C2    2  -1.735   0.700  -1.780
    1LIG     C3    3  -1.865   0.686  -1.701
    1LIG     C4    4  -1.898   0.763  -1.588
    1LIG     C5    5  -2.031   0.770  -1.544
    1LIG     C6    6  -2.132   0.701  -1.611
    1LIG     C7    7  -2.100   0.618  -1.717
    1LIG     C8    8  -1.967   0.610  -1.760
    1LIG     C9    9  -1.610   0.500  -1.879
    1LIG    C10   10  -1.635   0.354  -1.831
    1LIG     N1   11  -1.767   0.332  -1.767
    1LIG     H1   12  -1.821   0.421  -1.767
    1LIG     H2   13  -1.826   0.275  -1.829
    1LIG    C11   14  -1.771   0.273  -1.630
    1LIG    C12   15  -1.817   0.367  -1.522
    1LIG    C13   16  -1.950   0.365  -1.480
    1LIG    C14   17  -1.993   0.444  -1.372
    1LIG    C15   18  -1.899   0.522  -1.304
    1LIG    C16   19  -1.767   0.528  -1.347
    1LIG    C17   20  -1.726   0.452  -1.457
    1LIG    C18   21  -2.140   0.446  -1.335
    1LIG    C19   22  -2.181   0.321  -1.258
    1LIG    C20   23  -2.172   0.575  -1.258
    1LIG     O1   24  -1.704   0.534  -1.981
    1LIG     H3   25  -1.779   0.583  -1.939
    1LIG     N2   26  -1.489   0.691  -1.786
    1LIG    C21   27  -1.366   0.692  -1.731
    1LIG     O2   28  -1.276   0.732  -1.805
    1LIG     H4   29  -1.487   0.747  -1.871
    1LIG    C22   30  -1.337   0.644  -1.587
    1LIG    C23   31  -1.370   0.493  -1.576
    1LIG    C24   32  -1.291   0.403  -1.478
    1LIG    C25   33  -1.150   0.455  -1.443
    1LIG    C26   34  -1.137   0.607  -1.436
    1LIG    C27   35  -1.190   0.677  -1.558
    1LIG    C28   36  -1.304   0.238  -1.499
    1LIG    C29   37  -1.210   0.198  -1.616
    1LIG    C30   38  -1.449   0.214  -1.551
    1LIG     N3   39  -1.275   0.145  -1.379
    1LIG    C31   40  -1.294   0.186  -1.246
    1LIG     O3   41  -1.314   0.304  -1.209
    1LIG    C32   42  -1.293   0.075  -1.142
    1LIG    C33   43  -1.165  -0.007  -1.146
    1LIG    C34   44  -1.140  -0.055  -1.287
    1LIG    C35   45  -1.151   0.060  -1.388
    1LIG     HC   46  -1.608   0.561  -1.668
    1LIG    HC2   47  -1.699   0.801  -1.758
    1LIG    HC3   48  -1.763   0.699  -1.885
    1LIG    HC1   49  -1.821   0.817  -1.535
    1LIG    HC4   50  -2.056   0.830  -1.458
    1LIG    HC5   51  -2.235   0.712  -1.580
    1LIG    HC6   52  -2.176   0.560  -1.767
    1LIG    HC7   53  -1.942   0.543  -1.842
    1LIG    HC8   54  -1.512   0.503  -1.925
    1LIG    HC9   55  -1.627   0.288  -1.918
    1LIG   HC10   56  -1.557   0.328  -1.760
    1LIG   HC11   57  -1.670   0.240  -1.605
    1LIG   HC12   58  -1.836   0.187  -1.631
    1LIG   HC13   59  -2.021   0.302  -1.531
    1LIG   HC14   60  -1.929   0.578  -1.217
    1LIG   HC15   61  -1.696   0.591  -1.295
    1LIG   HC16   62  -1.624   0.458  -1.491
    1LIG   HC17   63  -2.197   0.448  -1.428
    1LIG   HC18   64  -1.401   0.699  -1.518
    1LIG   HC19   65  -1.475   0.486  -1.547
    1LIG   HC20   66  -1.360   0.450  -1.675
    1LIG   HC21   67  -1.345   0.418  -1.384
    1LIG   HC22   68  -1.081   0.419  -1.520
    1LIG   HC23   69  -1.120   0.413  -1.347
    1LIG   HC24   70  -1.192   0.642  -1.348
    1LIG   HC25   71  -1.031   0.633  -1.423
    1LIG   HC26   72  -1.181   0.785  -1.543
    1LIG   HC27   73  -1.130   0.648  -1.644
    1LIG   HC28   74  -1.303   0.119  -1.043
    1LIG   HC29   75  -1.377   0.009  -1.160
    1LIG   HC30   76  -1.081   0.055  -1.114
    1LIG   HC31   77  -1.175  -0.093  -1.080
    1LIG   HC32   78  -1.214  -0.131  -1.312
    1LIG   HC33   79  -1.041  -0.099  -1.293
    1LIG   HC34   80  -1.065   0.125  -1.373
    1LIG   HC35   81  -1.146   0.018  -1.488
    1LIG   HC36   82  -1.235   0.255  -1.705
    1LIG   HC37   83  -1.106   0.220  -1.588
    1LIG   HC38   84  -1.220   0.092  -1.636
    1LIG   HC39   85  -2.157   0.233  -1.316
    1LIG   HC40   86  -2.128   0.318  -1.163
    1LIG   HC41   87  -2.289   0.324  -1.239
    1LIG   HC42   88  -1.474   0.109  -1.541
    1LIG   HC43   89  -1.519   0.274  -1.494
    1LIG   HC44   90  -1.455   0.242  -1.656
    1LIG   HC45   91  -2.280   0.584  -1.247
    1LIG   HC46   92  -2.126   0.571  -1.160
    1LIG   HC47   93  -2.134   0.661  -1.313
   0.00000   0.00000   0.00000
