; Created by cgenff_charmm2gmx.py

[ moleculetype ]
; Name			   nrexcl
LIG				 3

[ atoms ]
;	 nr		  type	resnr residue  atom   cgnr	   charge		mass  typeB    chargeB		massB
; residue	 1 LIG rtp LIG q	qsum
     1      CG311      1    LIG     C1      1     -0.003     12.011   ;
     2      CG321      1    LIG     C2      2     -0.111     12.011   ;
     3     CG2R61      1    LIG     C3      3     -0.019     12.011   ;
     4     CG2R61      1    LIG     C4      4     -0.123     12.011   ;
     5     CG2R61      1    LIG     C5      5     -0.112     12.011   ;
     6     CG2R61      1    LIG     C6      6     -0.116     12.011   ;
     7     CG2R61      1    LIG     C7      7     -0.112     12.011   ;
     8     CG2R61      1    LIG     C8      8     -0.123     12.011   ;
     9      CG311      1    LIG     C9      9      0.094     12.011   ;
    10      CG324      1    LIG    C10     10      0.178     12.011   ;
    11      NG3P2      1    LIG     N1     11     -0.444     14.007   ;
    12       HGP2      1    LIG     H1     12      0.348      1.008   ;
    13       HGP2      1    LIG     H2     13      0.348      1.008   ;
    14      CG324      1    LIG    C11     14      0.171     12.011   ;
    15     CG2R61      1    LIG    C12     15      0.035     12.011   ;
    16     CG2R61      1    LIG    C13     16     -0.117     12.011   ;
    17     CG2R61      1    LIG    C14     17     -0.017     12.011   ;
    18     CG2R61      1    LIG    C15     18     -0.114     12.011   ;
    19     CG2R61      1    LIG    C16     19     -0.109     12.011   ;
    20     CG2R61      1    LIG    C17     20     -0.119     12.011   ;
    21      CG311      1    LIG    C18     21     -0.088     12.011   ;
    22      CG331      1    LIG    C19     22     -0.264     12.011   ;
    23      CG331      1    LIG    C20     23     -0.264     12.011   ;
    24      OG311      1    LIG     O1     24     -0.625     15.999   ;
    25       HGP1      1    LIG     H3     25      0.415      1.008   ;
    26      NG2S1      1    LIG     N2     26     -0.388     14.007   ;
    27      CG2O1      1    LIG    C21     27      0.469     12.011   ;
    28      OG2D1      1    LIG     O2     28     -0.508     15.999   ;
    29       HGP1      1    LIG     H4     29      0.269      1.008   ;
    30      CG311      1    LIG    C22     30      0.084     12.011   ;
    31      CG321      1    LIG    C23     31     -0.216     12.011   ;
    32      CG311      1    LIG    C24     32     -0.057     12.011   ;
    33      CG321      1    LIG    C25     33     -0.153     12.011   ;
    34      CG321      1    LIG    C26     34     -0.215     12.011   ;
    35      CG321      1    LIG    C27     35     -0.231     12.011   ;
    36      CG301      1    LIG    C28     36      0.140     12.011   ;
    37      CG331      1    LIG    C29     37     -0.278     12.011   ;
    38      CG331      1    LIG    C30     38     -0.278     12.011   ;
    39      NG2S0      1    LIG     N3     39     -0.225     14.007   ;
    40      CG2O1      1    LIG    C31     40      0.419     12.011   ;
    41      OG2D1      1    LIG     O3     41     -0.522     15.999   ;
    42      CG321      1    LIG    C32     42     -0.159     12.011   ;
    43      CG321      1    LIG    C33     43     -0.233     12.011   ;
    44      CG321      1    LIG    C34     44     -0.141     12.011   ;
    45      CG321      1    LIG    C35     45     -0.040     12.011   ;
    46       HGA1      1    LIG     HC     46      0.090      1.008   ;
    47       HGA2      1    LIG    HC2     47      0.090      1.008   ;
    48       HGA2      1    LIG    HC3     48      0.090      1.008   ;
    49      HGR61      1    LIG    HC1     49      0.116      1.008   ;
    50      HGR61      1    LIG    HC4     50      0.116      1.008   ;
    51      HGR61      1    LIG    HC5     51      0.116      1.008   ;
    52      HGR61      1    LIG    HC6     52      0.116      1.008   ;
    53      HGR61      1    LIG    HC7     53      0.116      1.008   ;
    54       HGA1      1    LIG    HC8     54      0.090      1.008   ;
    55       HGA2      1    LIG    HC9     55      0.090      1.008   ;
    56       HGA2      1    LIG   HC10     56      0.090      1.008   ;
    57       HGA2      1    LIG   HC11     57      0.090      1.008   ;
    58       HGA2      1    LIG   HC12     58      0.090      1.008   ;
    59      HGR61      1    LIG   HC13     59      0.116      1.008   ;
    60      HGR61      1    LIG   HC14     60      0.116      1.008   ;
    61      HGR61      1    LIG   HC15     61      0.116      1.008   ;
    62      HGR61      1    LIG   HC16     62      0.116      1.008   ;
    63       HGA1      1    LIG   HC17     63      0.090      1.008   ;
    64       HGA1      1    LIG   HC18     64      0.090      1.008   ;
    65       HGA2      1    LIG   HC19     65      0.090      1.008   ;
    66       HGA2      1    LIG   HC20     66      0.090      1.008   ;
    67       HGA1      1    LIG   HC21     67      0.090      1.008   ;
    68       HGA2      1    LIG   HC22     68      0.090      1.008   ;
    69       HGA2      1    LIG   HC23     69      0.090      1.008   ;
    70       HGA2      1    LIG   HC24     70      0.090      1.008   ;
    71       HGA2      1    LIG   HC25     71      0.090      1.008   ;
    72       HGA2      1    LIG   HC26     72      0.090      1.008   ;
    73       HGA2      1    LIG   HC27     73      0.090      1.008   ;
    74       HGA2      1    LIG   HC28     74      0.090      1.008   ;
    75       HGA2      1    LIG   HC29     75      0.090      1.008   ;
    76       HGA2      1    LIG   HC30     76      0.090      1.008   ;
    77       HGA2      1    LIG   HC31     77      0.090      1.008   ;
    78       HGA2      1    LIG   HC32     78      0.090      1.008   ;
    79       HGA2      1    LIG   HC33     79      0.090      1.008   ;
    80       HGA2      1    LIG   HC34     80      0.090      1.008   ;
    81       HGA2      1    LIG   HC35     81      0.090      1.008   ;
    82       HGA3      1    LIG   HC36     82      0.090      1.008   ;
    83       HGA3      1    LIG   HC37     83      0.090      1.008   ;
    84       HGA3      1    LIG   HC38     84      0.090      1.008   ;
    85       HGA3      1    LIG   HC39     85      0.090      1.008   ;
    86       HGA3      1    LIG   HC40     86      0.090      1.008   ;
    87       HGA3      1    LIG   HC41     87      0.090      1.008   ;
    88       HGA3      1    LIG   HC42     88      0.090      1.008   ;
    89       HGA3      1    LIG   HC43     89      0.090      1.008   ;
    90       HGA3      1    LIG   HC44     90      0.090      1.008   ;
    91       HGA3      1    LIG   HC45     91      0.090      1.008   ;
    92       HGA3      1    LIG   HC46     92      0.090      1.008   ;
    93       HGA3      1    LIG   HC47     93      0.090      1.008   ;

[ bonds ]
;	ai	  aj funct			  c0			c1			  c2			c3
    1    26	 1 ;       CG311      NG2S1
    1     9	 1 ;       CG311      CG311
    1     2	 1 ;       CG311      CG321
    1    46	 1 ;       CG311       HGA1
    2     3	 1 ;       CG321     CG2R61
    2    47	 1 ;       CG321       HGA2
    2    48	 1 ;       CG321       HGA2
    3     8	 1 ;      CG2R61     CG2R61
    3     4	 1 ;      CG2R61     CG2R61
    4     5	 1 ;      CG2R61     CG2R61
    4    49	 1 ;      CG2R61      HGR61
    5     6	 1 ;      CG2R61     CG2R61
    5    50	 1 ;      CG2R61      HGR61
    6     7	 1 ;      CG2R61     CG2R61
    6    51	 1 ;      CG2R61      HGR61
    7     8	 1 ;      CG2R61     CG2R61
    7    52	 1 ;      CG2R61      HGR61
    8    53	 1 ;      CG2R61      HGR61
    9    24	 1 ;       CG311      OG311
    9    10	 1 ;       CG311      CG324
    9    54	 1 ;       CG311       HGA1
   10    11	 1 ;       CG324      NG3P2
   10    55	 1 ;       CG324       HGA2
   10    56	 1 ;       CG324       HGA2
   11    13	 1 ;       NG3P2       HGP2
   11    12	 1 ;       NG3P2       HGP2
   11    14	 1 ;       NG3P2      CG324
   14    15	 1 ;       CG324     CG2R61
   14    57	 1 ;       CG324       HGA2
   14    58	 1 ;       CG324       HGA2
   15    20	 1 ;      CG2R61     CG2R61
   15    16	 1 ;      CG2R61     CG2R61
   16    17	 1 ;      CG2R61     CG2R61
   16    59	 1 ;      CG2R61      HGR61
   17    18	 1 ;      CG2R61     CG2R61
   17    21	 1 ;      CG2R61      CG311
   18    19	 1 ;      CG2R61     CG2R61
   18    60	 1 ;      CG2R61      HGR61
   19    20	 1 ;      CG2R61     CG2R61
   19    61	 1 ;      CG2R61      HGR61
   20    62	 1 ;      CG2R61      HGR61
   21    22	 1 ;       CG311      CG331
   21    23	 1 ;       CG311      CG331
   21    63	 1 ;       CG311       HGA1
   22    85	 1 ;       CG331       HGA3
   22    86	 1 ;       CG331       HGA3
   22    87	 1 ;       CG331       HGA3
   23    91	 1 ;       CG331       HGA3
   23    92	 1 ;       CG331       HGA3
   23    93	 1 ;       CG331       HGA3
   24    25	 1 ;       OG311       HGP1
   26    27	 1 ;       NG2S1      CG2O1
   26    29	 1 ;       NG2S1       HGP1
   27    28	 1 ;       CG2O1      OG2D1
   27    30	 1 ;       CG2O1      CG311
   30    35	 1 ;       CG311      CG321
   30    31	 1 ;       CG311      CG321
   30    64	 1 ;       CG311       HGA1
   31    32	 1 ;       CG321      CG311
   31    65	 1 ;       CG321       HGA2
   31    66	 1 ;       CG321       HGA2
   32    33	 1 ;       CG311      CG321
   32    36	 1 ;       CG311      CG301
   32    67	 1 ;       CG311       HGA1
   33    34	 1 ;       CG321      CG321
   33    68	 1 ;       CG321       HGA2
   33    69	 1 ;       CG321       HGA2
   34    35	 1 ;       CG321      CG321
   34    70	 1 ;       CG321       HGA2
   34    71	 1 ;       CG321       HGA2
   35    72	 1 ;       CG321       HGA2
   35    73	 1 ;       CG321       HGA2
   36    37	 1 ;       CG301      CG331
   36    39	 1 ;       CG301      NG2S0
   36    38	 1 ;       CG301      CG331
   37    82	 1 ;       CG331       HGA3
   37    83	 1 ;       CG331       HGA3
   37    84	 1 ;       CG331       HGA3
   38    88	 1 ;       CG331       HGA3
   38    89	 1 ;       CG331       HGA3
   38    90	 1 ;       CG331       HGA3
   39    45	 1 ;       NG2S0      CG321
   39    40	 1 ;       NG2S0      CG2O1
   40    42	 1 ;       CG2O1      CG321
   40    41	 1 ;       CG2O1      OG2D1
   42    43	 1 ;       CG321      CG321
   42    74	 1 ;       CG321       HGA2
   42    75	 1 ;       CG321       HGA2
   43    44	 1 ;       CG321      CG321
   43    76	 1 ;       CG321       HGA2
   43    77	 1 ;       CG321       HGA2
   44    45	 1 ;       CG321      CG321
   44    78	 1 ;       CG321       HGA2
   44    79	 1 ;       CG321       HGA2
   45    80	 1 ;       CG321       HGA2
   45    81	 1 ;       CG321       HGA2

[ pairs ]
;	ai	  aj funct			  c0			c1			  c2			c3
    1     8	 1
    1     4	 1
    1    25	 1
    1    11	 1
    1    55	 1
    1    56	 1
    1    28	 1
    1    30	 1
    2    27	 1
    2    29	 1
    2    24	 1
    2    10	 1
    2    54	 1
    2     7	 1
    2    53	 1
    2     5	 1
    2    49	 1
    3    26	 1
    3     9	 1
    3    46	 1
    3     6	 1
    3    50	 1
    3    52	 1
    4    47	 1
    4    48	 1
    4     7	 1
    4    53	 1
    4    51	 1
    5     8	 1
    5    52	 1
    6    49	 1
    6    53	 1
    7    50	 1
    8    47	 1
    8    48	 1
    8    49	 1
    8    51	 1
    9    27	 1
    9    29	 1
    9    47	 1
    9    48	 1
    9    13	 1
    9    12	 1
    9    14	 1
   10    26	 1
   10    46	 1
   10    25	 1
   10    15	 1
   10    57	 1
   10    58	 1
   11    24	 1
   11    54	 1
   11    20	 1
   11    16	 1
   12    55	 1
   12    56	 1
   12    15	 1
   12    57	 1
   12    58	 1
   13    55	 1
   13    56	 1
   13    15	 1
   13    57	 1
   13    58	 1
   14    55	 1
   14    56	 1
   14    19	 1
   14    62	 1
   14    17	 1
   14    59	 1
   15    18	 1
   15    21	 1
   15    61	 1
   16    57	 1
   16    58	 1
   16    19	 1
   16    62	 1
   16    60	 1
   16    22	 1
   16    23	 1
   16    63	 1
   17    20	 1
   17    61	 1
   17    85	 1
   17    86	 1
   17    87	 1
   17    91	 1
   17    92	 1
   17    93	 1
   18    59	 1
   18    22	 1
   18    23	 1
   18    63	 1
   18    62	 1
   19    21	 1
   20    57	 1
   20    58	 1
   20    59	 1
   20    60	 1
   21    59	 1
   21    60	 1
   22    91	 1
   22    92	 1
   22    93	 1
   23    85	 1
   23    86	 1
   23    87	 1
   24    26	 1
   24    46	 1
   24    55	 1
   24    56	 1
   25    54	 1
   26    54	 1
   26    47	 1
   26    48	 1
   26    35	 1
   26    31	 1
   26    64	 1
   27    46	 1
   27    34	 1
   27    72	 1
   27    73	 1
   27    32	 1
   27    65	 1
   27    66	 1
   28    29	 1
   28    35	 1
   28    31	 1
   28    64	 1
   29    46	 1
   29    30	 1
   30    33	 1
   30    36	 1
   30    67	 1
   30    70	 1
   30    71	 1
   31    34	 1
   31    72	 1
   31    73	 1
   31    68	 1
   31    69	 1
   31    37	 1
   31    39	 1
   31    38	 1
   32    35	 1
   32    64	 1
   32    70	 1
   32    71	 1
   32    82	 1
   32    83	 1
   32    84	 1
   32    45	 1
   32    40	 1
   32    88	 1
   32    89	 1
   32    90	 1
   33    65	 1
   33    66	 1
   33    37	 1
   33    39	 1
   33    38	 1
   33    72	 1
   33    73	 1
   34    64	 1
   34    36	 1
   34    67	 1
   35    65	 1
   35    66	 1
   35    68	 1
   35    69	 1
   36    65	 1
   36    66	 1
   36    68	 1
   36    69	 1
   36    44	 1
   36    80	 1
   36    81	 1
   36    42	 1
   36    41	 1
   37    67	 1
   37    45	 1
   37    40	 1
   37    88	 1
   37    89	 1
   37    90	 1
   38    67	 1
   38    82	 1
   38    83	 1
   38    84	 1
   38    45	 1
   38    40	 1
   39    67	 1
   39    82	 1
   39    83	 1
   39    84	 1
   39    88	 1
   39    89	 1
   39    90	 1
   39    43	 1
   39    74	 1
   39    75	 1
   39    78	 1
   39    79	 1
   40    44	 1
   40    80	 1
   40    81	 1
   40    76	 1
   40    77	 1
   41    45	 1
   41    43	 1
   41    74	 1
   41    75	 1
   42    45	 1
   42    78	 1
   42    79	 1
   43    80	 1
   43    81	 1
   44    74	 1
   44    75	 1
   45    76	 1
   45    77	 1
   46    54	 1
   46    47	 1
   46    48	 1
   49    50	 1
   50    51	 1
   51    52	 1
   52    53	 1
   54    55	 1
   54    56	 1
   60    61	 1
   61    62	 1
   63    85	 1
   63    86	 1
   63    87	 1
   63    91	 1
   63    92	 1
   63    93	 1
   64    72	 1
   64    73	 1
   64    65	 1
   64    66	 1
   65    67	 1
   66    67	 1
   67    68	 1
   67    69	 1
   68    70	 1
   68    71	 1
   69    70	 1
   69    71	 1
   70    72	 1
   70    73	 1
   71    72	 1
   71    73	 1
   74    76	 1
   74    77	 1
   75    76	 1
   75    77	 1
   76    78	 1
   76    79	 1
   77    78	 1
   77    79	 1
   78    80	 1
   78    81	 1
   79    80	 1
   79    81	 1

[ angles ]
;	ai	  aj	ak funct			c0			  c1			c2			  c3
   26     1     9	5 ;      NG2S1      CG311      CG311
   26     1     2	5 ;      NG2S1      CG311      CG321
   26     1    46	5 ;      NG2S1      CG311       HGA1
    9     1     2	5 ;      CG311      CG311      CG321
    9     1    46	5 ;      CG311      CG311       HGA1
    2     1    46	5 ;      CG321      CG311       HGA1
    1     2     3	5 ;      CG311      CG321     CG2R61
    1     2    47	5 ;      CG311      CG321       HGA2
    1     2    48	5 ;      CG311      CG321       HGA2
    3     2    47	5 ;     CG2R61      CG321       HGA2
    3     2    48	5 ;     CG2R61      CG321       HGA2
   47     2    48	5 ;       HGA2      CG321       HGA2
    2     3     8	5 ;      CG321     CG2R61     CG2R61
    2     3     4	5 ;      CG321     CG2R61     CG2R61
    8     3     4	5 ;     CG2R61     CG2R61     CG2R61
    3     4     5	5 ;     CG2R61     CG2R61     CG2R61
    3     4    49	5 ;     CG2R61     CG2R61      HGR61
    5     4    49	5 ;     CG2R61     CG2R61      HGR61
    4     5     6	5 ;     CG2R61     CG2R61     CG2R61
    4     5    50	5 ;     CG2R61     CG2R61      HGR61
    6     5    50	5 ;     CG2R61     CG2R61      HGR61
    7     6     5	5 ;     CG2R61     CG2R61     CG2R61
    7     6    51	5 ;     CG2R61     CG2R61      HGR61
    5     6    51	5 ;     CG2R61     CG2R61      HGR61
    8     7     6	5 ;     CG2R61     CG2R61     CG2R61
    8     7    52	5 ;     CG2R61     CG2R61      HGR61
    6     7    52	5 ;     CG2R61     CG2R61      HGR61
    3     8     7	5 ;     CG2R61     CG2R61     CG2R61
    3     8    53	5 ;     CG2R61     CG2R61      HGR61
    7     8    53	5 ;     CG2R61     CG2R61      HGR61
   24     9    10	5 ;      OG311      CG311      CG324
   24     9     1	5 ;      OG311      CG311      CG311
   24     9    54	5 ;      OG311      CG311       HGA1
   10     9     1	5 ;      CG324      CG311      CG311
   10     9    54	5 ;      CG324      CG311       HGA1
    1     9    54	5 ;      CG311      CG311       HGA1
    9    10    11	5 ;      CG311      CG324      NG3P2
    9    10    55	5 ;      CG311      CG324       HGA2
    9    10    56	5 ;      CG311      CG324       HGA2
   11    10    55	5 ;      NG3P2      CG324       HGA2
   11    10    56	5 ;      NG3P2      CG324       HGA2
   55    10    56	5 ;       HGA2      CG324       HGA2
   10    11    13	5 ;      CG324      NG3P2       HGP2
   10    11    12	5 ;      CG324      NG3P2       HGP2
   10    11    14	5 ;      CG324      NG3P2      CG324
   13    11    12	5 ;       HGP2      NG3P2       HGP2
   13    11    14	5 ;       HGP2      NG3P2      CG324
   12    11    14	5 ;       HGP2      NG3P2      CG324
   11    14    15	5 ;      NG3P2      CG324     CG2R61
   11    14    57	5 ;      NG3P2      CG324       HGA2
   11    14    58	5 ;      NG3P2      CG324       HGA2
   15    14    57	5 ;     CG2R61      CG324       HGA2
   15    14    58	5 ;     CG2R61      CG324       HGA2
   57    14    58	5 ;       HGA2      CG324       HGA2
   14    15    20	5 ;      CG324     CG2R61     CG2R61
   14    15    16	5 ;      CG324     CG2R61     CG2R61
   20    15    16	5 ;     CG2R61     CG2R61     CG2R61
   15    16    17	5 ;     CG2R61     CG2R61     CG2R61
   15    16    59	5 ;     CG2R61     CG2R61      HGR61
   17    16    59	5 ;     CG2R61     CG2R61      HGR61
   16    17    18	5 ;     CG2R61     CG2R61     CG2R61
   16    17    21	5 ;     CG2R61     CG2R61      CG311
   18    17    21	5 ;     CG2R61     CG2R61      CG311
   19    18    17	5 ;     CG2R61     CG2R61     CG2R61
   19    18    60	5 ;     CG2R61     CG2R61      HGR61
   17    18    60	5 ;     CG2R61     CG2R61      HGR61
   20    19    18	5 ;     CG2R61     CG2R61     CG2R61
   20    19    61	5 ;     CG2R61     CG2R61      HGR61
   18    19    61	5 ;     CG2R61     CG2R61      HGR61
   15    20    19	5 ;     CG2R61     CG2R61     CG2R61
   15    20    62	5 ;     CG2R61     CG2R61      HGR61
   19    20    62	5 ;     CG2R61     CG2R61      HGR61
   17    21    22	5 ;     CG2R61      CG311      CG331
   17    21    23	5 ;     CG2R61      CG311      CG331
   17    21    63	5 ;     CG2R61      CG311       HGA1
   22    21    23	5 ;      CG331      CG311      CG331
   22    21    63	5 ;      CG331      CG311       HGA1
   23    21    63	5 ;      CG331      CG311       HGA1
   21    22    85	5 ;      CG311      CG331       HGA3
   21    22    86	5 ;      CG311      CG331       HGA3
   21    22    87	5 ;      CG311      CG331       HGA3
   85    22    86	5 ;       HGA3      CG331       HGA3
   85    22    87	5 ;       HGA3      CG331       HGA3
   86    22    87	5 ;       HGA3      CG331       HGA3
   21    23    91	5 ;      CG311      CG331       HGA3
   21    23    92	5 ;      CG311      CG331       HGA3
   21    23    93	5 ;      CG311      CG331       HGA3
   91    23    92	5 ;       HGA3      CG331       HGA3
   91    23    93	5 ;       HGA3      CG331       HGA3
   92    23    93	5 ;       HGA3      CG331       HGA3
    9    24    25	5 ;      CG311      OG311       HGP1
   27    26    29	5 ;      CG2O1      NG2S1       HGP1
   27    26     1	5 ;      CG2O1      NG2S1      CG311
   29    26     1	5 ;       HGP1      NG2S1      CG311
   28    27    26	5 ;      OG2D1      CG2O1      NG2S1
   28    27    30	5 ;      OG2D1      CG2O1      CG311
   26    27    30	5 ;      NG2S1      CG2O1      CG311
   35    30    27	5 ;      CG321      CG311      CG2O1
   35    30    31	5 ;      CG321      CG311      CG321
   35    30    64	5 ;      CG321      CG311       HGA1
   27    30    31	5 ;      CG2O1      CG311      CG321
   27    30    64	5 ;      CG2O1      CG311       HGA1
   31    30    64	5 ;      CG321      CG311       HGA1
   30    31    32	5 ;      CG311      CG321      CG311
   30    31    65	5 ;      CG311      CG321       HGA2
   30    31    66	5 ;      CG311      CG321       HGA2
   32    31    65	5 ;      CG311      CG321       HGA2
   32    31    66	5 ;      CG311      CG321       HGA2
   65    31    66	5 ;       HGA2      CG321       HGA2
   33    32    36	5 ;      CG321      CG311      CG301
   33    32    31	5 ;      CG321      CG311      CG321
   33    32    67	5 ;      CG321      CG311       HGA1
   36    32    31	5 ;      CG301      CG311      CG321
   36    32    67	5 ;      CG301      CG311       HGA1
   31    32    67	5 ;      CG321      CG311       HGA1
   34    33    32	5 ;      CG321      CG321      CG311
   34    33    68	5 ;      CG321      CG321       HGA2
   34    33    69	5 ;      CG321      CG321       HGA2
   32    33    68	5 ;      CG311      CG321       HGA2
   32    33    69	5 ;      CG311      CG321       HGA2
   68    33    69	5 ;       HGA2      CG321       HGA2
   35    34    33	5 ;      CG321      CG321      CG321
   35    34    70	5 ;      CG321      CG321       HGA2
   35    34    71	5 ;      CG321      CG321       HGA2
   33    34    70	5 ;      CG321      CG321       HGA2
   33    34    71	5 ;      CG321      CG321       HGA2
   70    34    71	5 ;       HGA2      CG321       HGA2
   34    35    30	5 ;      CG321      CG321      CG311
   34    35    72	5 ;      CG321      CG321       HGA2
   34    35    73	5 ;      CG321      CG321       HGA2
   30    35    72	5 ;      CG311      CG321       HGA2
   30    35    73	5 ;      CG311      CG321       HGA2
   72    35    73	5 ;       HGA2      CG321       HGA2
   37    36    32	5 ;      CG331      CG301      CG311
   37    36    39	5 ;      CG331      CG301      NG2S0
   37    36    38	5 ;      CG331      CG301      CG331
   32    36    39	5 ;      CG311      CG301      NG2S0
   32    36    38	5 ;      CG311      CG301      CG331
   39    36    38	5 ;      NG2S0      CG301      CG331
   36    37    82	5 ;      CG301      CG331       HGA3
   36    37    83	5 ;      CG301      CG331       HGA3
   36    37    84	5 ;      CG301      CG331       HGA3
   82    37    83	5 ;       HGA3      CG331       HGA3
   82    37    84	5 ;       HGA3      CG331       HGA3
   83    37    84	5 ;       HGA3      CG331       HGA3
   36    38    88	5 ;      CG301      CG331       HGA3
   36    38    89	5 ;      CG301      CG331       HGA3
   36    38    90	5 ;      CG301      CG331       HGA3
   88    38    89	5 ;       HGA3      CG331       HGA3
   88    38    90	5 ;       HGA3      CG331       HGA3
   89    38    90	5 ;       HGA3      CG331       HGA3
   45    39    36	5 ;      CG321      NG2S0      CG301
   45    39    40	5 ;      CG321      NG2S0      CG2O1
   36    39    40	5 ;      CG301      NG2S0      CG2O1
   39    40    42	5 ;      NG2S0      CG2O1      CG321
   39    40    41	5 ;      NG2S0      CG2O1      OG2D1
   42    40    41	5 ;      CG321      CG2O1      OG2D1
   43    42    40	5 ;      CG321      CG321      CG2O1
   43    42    74	5 ;      CG321      CG321       HGA2
   43    42    75	5 ;      CG321      CG321       HGA2
   40    42    74	5 ;      CG2O1      CG321       HGA2
   40    42    75	5 ;      CG2O1      CG321       HGA2
   74    42    75	5 ;       HGA2      CG321       HGA2
   44    43    42	5 ;      CG321      CG321      CG321
   44    43    76	5 ;      CG321      CG321       HGA2
   44    43    77	5 ;      CG321      CG321       HGA2
   42    43    76	5 ;      CG321      CG321       HGA2
   42    43    77	5 ;      CG321      CG321       HGA2
   76    43    77	5 ;       HGA2      CG321       HGA2
   45    44    43	5 ;      CG321      CG321      CG321
   45    44    78	5 ;      CG321      CG321       HGA2
   45    44    79	5 ;      CG321      CG321       HGA2
   43    44    78	5 ;      CG321      CG321       HGA2
   43    44    79	5 ;      CG321      CG321       HGA2
   78    44    79	5 ;       HGA2      CG321       HGA2
   44    45    39	5 ;      CG321      CG321      NG2S0
   44    45    80	5 ;      CG321      CG321       HGA2
   44    45    81	5 ;      CG321      CG321       HGA2
   39    45    80	5 ;      NG2S0      CG321       HGA2
   39    45    81	5 ;      NG2S0      CG321       HGA2
   80    45    81	5 ;       HGA2      CG321       HGA2

[ dihedrals ]
;	ai	  aj	ak	  al funct			  c0			c1			  c2			c3			  c4			c5
    9     1    26    27	 9 ;      CG311      CG311      NG2S1      CG2O1
    9     1    26    29	 9 ;      CG311      CG311      NG2S1       HGP1
    2     1    26    27	 9 ;      CG321      CG311      NG2S1      CG2O1
    2     1    26    29	 9 ;      CG321      CG311      NG2S1       HGP1
   46     1    26    27	 9 ;       HGA1      CG311      NG2S1      CG2O1
   46     1    26    29	 9 ;       HGA1      CG311      NG2S1       HGP1
   26     1     9    24	 9 ;      NG2S1      CG311      CG311      OG311
   26     1     9    10	 9 ;      NG2S1      CG311      CG311      CG324
   26     1     9    54	 9 ;      NG2S1      CG311      CG311       HGA1
    2     1     9    24	 9 ;      CG321      CG311      CG311      OG311
    2     1     9    10	 9 ;      CG321      CG311      CG311      CG324
    2     1     9    54	 9 ;      CG321      CG311      CG311       HGA1
   46     1     9    24	 9 ;       HGA1      CG311      CG311      OG311
   46     1     9    10	 9 ;       HGA1      CG311      CG311      CG324
   46     1     9    54	 9 ;       HGA1      CG311      CG311       HGA1
   26     1     2     3	 9 ;      NG2S1      CG311      CG321     CG2R61
   26     1     2    47	 9 ;      NG2S1      CG311      CG321       HGA2
   26     1     2    48	 9 ;      NG2S1      CG311      CG321       HGA2
    9     1     2     3	 9 ;      CG311      CG311      CG321     CG2R61
    9     1     2    47	 9 ;      CG311      CG311      CG321       HGA2
    9     1     2    48	 9 ;      CG311      CG311      CG321       HGA2
   46     1     2     3	 9 ;       HGA1      CG311      CG321     CG2R61
   46     1     2    47	 9 ;       HGA1      CG311      CG321       HGA2
   46     1     2    48	 9 ;       HGA1      CG311      CG321       HGA2
    1     2     3     8	 9 ;      CG311      CG321     CG2R61     CG2R61
    1     2     3     4	 9 ;      CG311      CG321     CG2R61     CG2R61
   47     2     3     8	 9 ;       HGA2      CG321     CG2R61     CG2R61
   47     2     3     4	 9 ;       HGA2      CG321     CG2R61     CG2R61
   48     2     3     8	 9 ;       HGA2      CG321     CG2R61     CG2R61
   48     2     3     4	 9 ;       HGA2      CG321     CG2R61     CG2R61
    2     3     8     7	 9 ;      CG321     CG2R61     CG2R61     CG2R61
    2     3     8    53	 9 ;      CG321     CG2R61     CG2R61      HGR61
    4     3     8     7	 9 ;     CG2R61     CG2R61     CG2R61     CG2R61
    4     3     8    53	 9 ;     CG2R61     CG2R61     CG2R61      HGR61
    2     3     4     5	 9 ;      CG321     CG2R61     CG2R61     CG2R61
    2     3     4    49	 9 ;      CG321     CG2R61     CG2R61      HGR61
    8     3     4     5	 9 ;     CG2R61     CG2R61     CG2R61     CG2R61
    8     3     4    49	 9 ;     CG2R61     CG2R61     CG2R61      HGR61
    3     4     5     6	 9 ;     CG2R61     CG2R61     CG2R61     CG2R61
    3     4     5    50	 9 ;     CG2R61     CG2R61     CG2R61      HGR61
   49     4     5     6	 9 ;      HGR61     CG2R61     CG2R61     CG2R61
   49     4     5    50	 9 ;      HGR61     CG2R61     CG2R61      HGR61
    4     5     6     7	 9 ;     CG2R61     CG2R61     CG2R61     CG2R61
    4     5     6    51	 9 ;     CG2R61     CG2R61     CG2R61      HGR61
   50     5     6     7	 9 ;      HGR61     CG2R61     CG2R61     CG2R61
   50     5     6    51	 9 ;      HGR61     CG2R61     CG2R61      HGR61
    5     6     7     8	 9 ;     CG2R61     CG2R61     CG2R61     CG2R61
    5     6     7    52	 9 ;     CG2R61     CG2R61     CG2R61      HGR61
   51     6     7     8	 9 ;      HGR61     CG2R61     CG2R61     CG2R61
   51     6     7    52	 9 ;      HGR61     CG2R61     CG2R61      HGR61
    6     7     8     3	 9 ;     CG2R61     CG2R61     CG2R61     CG2R61
    6     7     8    53	 9 ;     CG2R61     CG2R61     CG2R61      HGR61
   52     7     8     3	 9 ;      HGR61     CG2R61     CG2R61     CG2R61
   52     7     8    53	 9 ;      HGR61     CG2R61     CG2R61      HGR61
   10     9    24    25	 9 ;      CG324      CG311      OG311       HGP1
    1     9    24    25	 9 ;      CG311      CG311      OG311       HGP1
   54     9    24    25	 9 ;       HGA1      CG311      OG311       HGP1
   24     9    10    11	 9 ;      OG311      CG311      CG324      NG3P2
   24     9    10    55	 9 ;      OG311      CG311      CG324       HGA2
   24     9    10    56	 9 ;      OG311      CG311      CG324       HGA2
    1     9    10    11	 9 ;      CG311      CG311      CG324      NG3P2
    1     9    10    55	 9 ;      CG311      CG311      CG324       HGA2
    1     9    10    56	 9 ;      CG311      CG311      CG324       HGA2
   54     9    10    11	 9 ;       HGA1      CG311      CG324      NG3P2
   54     9    10    55	 9 ;       HGA1      CG311      CG324       HGA2
   54     9    10    56	 9 ;       HGA1      CG311      CG324       HGA2
    9    10    11    13	 9 ;      CG311      CG324      NG3P2       HGP2
    9    10    11    12	 9 ;      CG311      CG324      NG3P2       HGP2
    9    10    11    14	 9 ;      CG311      CG324      NG3P2      CG324
   55    10    11    13	 9 ;       HGA2      CG324      NG3P2       HGP2
   55    10    11    12	 9 ;       HGA2      CG324      NG3P2       HGP2
   55    10    11    14	 9 ;       HGA2      CG324      NG3P2      CG324
   56    10    11    13	 9 ;       HGA2      CG324      NG3P2       HGP2
   56    10    11    12	 9 ;       HGA2      CG324      NG3P2       HGP2
   56    10    11    14	 9 ;       HGA2      CG324      NG3P2      CG324
   10    11    14    15	 9 ;      CG324      NG3P2      CG324     CG2R61
   10    11    14    57	 9 ;      CG324      NG3P2      CG324       HGA2
   10    11    14    58	 9 ;      CG324      NG3P2      CG324       HGA2
   13    11    14    15	 9 ;       HGP2      NG3P2      CG324     CG2R61
   13    11    14    57	 9 ;       HGP2      NG3P2      CG324       HGA2
   13    11    14    58	 9 ;       HGP2      NG3P2      CG324       HGA2
   12    11    14    15	 9 ;       HGP2      NG3P2      CG324     CG2R61
   12    11    14    57	 9 ;       HGP2      NG3P2      CG324       HGA2
   12    11    14    58	 9 ;       HGP2      NG3P2      CG324       HGA2
   11    14    15    20	 9 ;      NG3P2      CG324     CG2R61     CG2R61
   11    14    15    16	 9 ;      NG3P2      CG324     CG2R61     CG2R61
   57    14    15    20	 9 ;       HGA2      CG324     CG2R61     CG2R61
   57    14    15    16	 9 ;       HGA2      CG324     CG2R61     CG2R61
   58    14    15    20	 9 ;       HGA2      CG324     CG2R61     CG2R61
   58    14    15    16	 9 ;       HGA2      CG324     CG2R61     CG2R61
   14    15    20    19	 9 ;      CG324     CG2R61     CG2R61     CG2R61
   14    15    20    62	 9 ;      CG324     CG2R61     CG2R61      HGR61
   16    15    20    19	 9 ;     CG2R61     CG2R61     CG2R61     CG2R61
   16    15    20    62	 9 ;     CG2R61     CG2R61     CG2R61      HGR61
   14    15    16    17	 9 ;      CG324     CG2R61     CG2R61     CG2R61
   14    15    16    59	 9 ;      CG324     CG2R61     CG2R61      HGR61
   20    15    16    17	 9 ;     CG2R61     CG2R61     CG2R61     CG2R61
   20    15    16    59	 9 ;     CG2R61     CG2R61     CG2R61      HGR61
   15    16    17    18	 9 ;     CG2R61     CG2R61     CG2R61     CG2R61
   15    16    17    21	 9 ;     CG2R61     CG2R61     CG2R61      CG311
   59    16    17    18	 9 ;      HGR61     CG2R61     CG2R61     CG2R61
   59    16    17    21	 9 ;      HGR61     CG2R61     CG2R61      CG311
   16    17    18    19	 9 ;     CG2R61     CG2R61     CG2R61     CG2R61
   16    17    18    60	 9 ;     CG2R61     CG2R61     CG2R61      HGR61
   21    17    18    19	 9 ;      CG311     CG2R61     CG2R61     CG2R61
   21    17    18    60	 9 ;      CG311     CG2R61     CG2R61      HGR61
   16    17    21    22	 9 ;     CG2R61     CG2R61      CG311      CG331
   16    17    21    23	 9 ;     CG2R61     CG2R61      CG311      CG331
   16    17    21    63	 9 ;     CG2R61     CG2R61      CG311       HGA1
   18    17    21    22	 9 ;     CG2R61     CG2R61      CG311      CG331
   18    17    21    23	 9 ;     CG2R61     CG2R61      CG311      CG331
   18    17    21    63	 9 ;     CG2R61     CG2R61      CG311       HGA1
   17    18    19    20	 9 ;     CG2R61     CG2R61     CG2R61     CG2R61
   17    18    19    61	 9 ;     CG2R61     CG2R61     CG2R61      HGR61
   60    18    19    20	 9 ;      HGR61     CG2R61     CG2R61     CG2R61
   60    18    19    61	 9 ;      HGR61     CG2R61     CG2R61      HGR61
   18    19    20    15	 9 ;     CG2R61     CG2R61     CG2R61     CG2R61
   18    19    20    62	 9 ;     CG2R61     CG2R61     CG2R61      HGR61
   61    19    20    15	 9 ;      HGR61     CG2R61     CG2R61     CG2R61
   61    19    20    62	 9 ;      HGR61     CG2R61     CG2R61      HGR61
   17    21    22    85	 9 ;     CG2R61      CG311      CG331       HGA3
   17    21    22    86	 9 ;     CG2R61      CG311      CG331       HGA3
   17    21    22    87	 9 ;     CG2R61      CG311      CG331       HGA3
   23    21    22    85	 9 ;      CG331      CG311      CG331       HGA3
   23    21    22    86	 9 ;      CG331      CG311      CG331       HGA3
   23    21    22    87	 9 ;      CG331      CG311      CG331       HGA3
   63    21    22    85	 9 ;       HGA1      CG311      CG331       HGA3
   63    21    22    86	 9 ;       HGA1      CG311      CG331       HGA3
   63    21    22    87	 9 ;       HGA1      CG311      CG331       HGA3
   17    21    23    91	 9 ;     CG2R61      CG311      CG331       HGA3
   17    21    23    92	 9 ;     CG2R61      CG311      CG331       HGA3
   17    21    23    93	 9 ;     CG2R61      CG311      CG331       HGA3
   22    21    23    91	 9 ;      CG331      CG311      CG331       HGA3
   22    21    23    92	 9 ;      CG331      CG311      CG331       HGA3
   22    21    23    93	 9 ;      CG331      CG311      CG331       HGA3
   63    21    23    91	 9 ;       HGA1      CG311      CG331       HGA3
   63    21    23    92	 9 ;       HGA1      CG311      CG331       HGA3
   63    21    23    93	 9 ;       HGA1      CG311      CG331       HGA3
   29    26    27    28	 9 ;       HGP1      NG2S1      CG2O1      OG2D1
   29    26    27    30	 9 ;       HGP1      NG2S1      CG2O1      CG311
    1    26    27    28	 9 ;      CG311      NG2S1      CG2O1      OG2D1
    1    26    27    30	 9 ;      CG311      NG2S1      CG2O1      CG311
   28    27    30    35	 9 ;      OG2D1      CG2O1      CG311      CG321
   28    27    30    31	 9 ;      OG2D1      CG2O1      CG311      CG321
   28    27    30    64	 9 ;      OG2D1      CG2O1      CG311       HGA1
   26    27    30    35	 9 ;      NG2S1      CG2O1      CG311      CG321
   26    27    30    31	 9 ;      NG2S1      CG2O1      CG311      CG321
   26    27    30    64	 9 ;      NG2S1      CG2O1      CG311       HGA1
   27    30    35    34	 9 ;      CG2O1      CG311      CG321      CG321
   27    30    35    72	 9 ;      CG2O1      CG311      CG321       HGA2
   27    30    35    73	 9 ;      CG2O1      CG311      CG321       HGA2
   31    30    35    34	 9 ;      CG321      CG311      CG321      CG321
   31    30    35    72	 9 ;      CG321      CG311      CG321       HGA2
   31    30    35    73	 9 ;      CG321      CG311      CG321       HGA2
   64    30    35    34	 9 ;       HGA1      CG311      CG321      CG321
   64    30    35    72	 9 ;       HGA1      CG311      CG321       HGA2
   64    30    35    73	 9 ;       HGA1      CG311      CG321       HGA2
   35    30    31    32	 9 ;      CG321      CG311      CG321      CG311
   35    30    31    65	 9 ;      CG321      CG311      CG321       HGA2
   35    30    31    66	 9 ;      CG321      CG311      CG321       HGA2
   27    30    31    32	 9 ;      CG2O1      CG311      CG321      CG311
   27    30    31    65	 9 ;      CG2O1      CG311      CG321       HGA2
   27    30    31    66	 9 ;      CG2O1      CG311      CG321       HGA2
   64    30    31    32	 9 ;       HGA1      CG311      CG321      CG311
   64    30    31    65	 9 ;       HGA1      CG311      CG321       HGA2
   64    30    31    66	 9 ;       HGA1      CG311      CG321       HGA2
   30    31    32    33	 9 ;      CG311      CG321      CG311      CG321
   30    31    32    36	 9 ;      CG311      CG321      CG311      CG301
   30    31    32    67	 9 ;      CG311      CG321      CG311       HGA1
   65    31    32    33	 9 ;       HGA2      CG321      CG311      CG321
   65    31    32    36	 9 ;       HGA2      CG321      CG311      CG301
   65    31    32    67	 9 ;       HGA2      CG321      CG311       HGA1
   66    31    32    33	 9 ;       HGA2      CG321      CG311      CG321
   66    31    32    36	 9 ;       HGA2      CG321      CG311      CG301
   66    31    32    67	 9 ;       HGA2      CG321      CG311       HGA1
   36    32    33    34	 9 ;      CG301      CG311      CG321      CG321
   36    32    33    68	 9 ;      CG301      CG311      CG321       HGA2
   36    32    33    69	 9 ;      CG301      CG311      CG321       HGA2
   31    32    33    34	 9 ;      CG321      CG311      CG321      CG321
   31    32    33    68	 9 ;      CG321      CG311      CG321       HGA2
   31    32    33    69	 9 ;      CG321      CG311      CG321       HGA2
   67    32    33    34	 9 ;       HGA1      CG311      CG321      CG321
   67    32    33    68	 9 ;       HGA1      CG311      CG321       HGA2
   67    32    33    69	 9 ;       HGA1      CG311      CG321       HGA2
   33    32    36    37	 9 ;      CG321      CG311      CG301      CG331
   33    32    36    39	 9 ;      CG321      CG311      CG301      NG2S0
   33    32    36    38	 9 ;      CG321      CG311      CG301      CG331
   31    32    36    37	 9 ;      CG321      CG311      CG301      CG331
   31    32    36    39	 9 ;      CG321      CG311      CG301      NG2S0
   31    32    36    38	 9 ;      CG321      CG311      CG301      CG331
   67    32    36    37	 9 ;       HGA1      CG311      CG301      CG331
   67    32    36    39	 9 ;       HGA1      CG311      CG301      NG2S0
   67    32    36    38	 9 ;       HGA1      CG311      CG301      CG331
   32    33    34    35	 9 ;      CG311      CG321      CG321      CG321
   32    33    34    70	 9 ;      CG311      CG321      CG321       HGA2
   32    33    34    71	 9 ;      CG311      CG321      CG321       HGA2
   68    33    34    35	 9 ;       HGA2      CG321      CG321      CG321
   68    33    34    70	 9 ;       HGA2      CG321      CG321       HGA2
   68    33    34    71	 9 ;       HGA2      CG321      CG321       HGA2
   69    33    34    35	 9 ;       HGA2      CG321      CG321      CG321
   69    33    34    70	 9 ;       HGA2      CG321      CG321       HGA2
   69    33    34    71	 9 ;       HGA2      CG321      CG321       HGA2
   33    34    35    30	 9 ;      CG321      CG321      CG321      CG311
   33    34    35    72	 9 ;      CG321      CG321      CG321       HGA2
   33    34    35    73	 9 ;      CG321      CG321      CG321       HGA2
   70    34    35    30	 9 ;       HGA2      CG321      CG321      CG311
   70    34    35    72	 9 ;       HGA2      CG321      CG321       HGA2
   70    34    35    73	 9 ;       HGA2      CG321      CG321       HGA2
   71    34    35    30	 9 ;       HGA2      CG321      CG321      CG311
   71    34    35    72	 9 ;       HGA2      CG321      CG321       HGA2
   71    34    35    73	 9 ;       HGA2      CG321      CG321       HGA2
   32    36    37    82	 9 ;      CG311      CG301      CG331       HGA3
   32    36    37    83	 9 ;      CG311      CG301      CG331       HGA3
   32    36    37    84	 9 ;      CG311      CG301      CG331       HGA3
   39    36    37    82	 9 ;      NG2S0      CG301      CG331       HGA3
   39    36    37    83	 9 ;      NG2S0      CG301      CG331       HGA3
   39    36    37    84	 9 ;      NG2S0      CG301      CG331       HGA3
   38    36    37    82	 9 ;      CG331      CG301      CG331       HGA3
   38    36    37    83	 9 ;      CG331      CG301      CG331       HGA3
   38    36    37    84	 9 ;      CG331      CG301      CG331       HGA3
   37    36    39    45	 9 ;      CG331      CG301      NG2S0      CG321
   37    36    39    40	 9 ;      CG331      CG301      NG2S0      CG2O1
   32    36    39    45	 9 ;      CG311      CG301      NG2S0      CG321
   32    36    39    40	 9 ;      CG311      CG301      NG2S0      CG2O1
   38    36    39    45	 9 ;      CG331      CG301      NG2S0      CG321
   38    36    39    40	 9 ;      CG331      CG301      NG2S0      CG2O1
   37    36    38    88	 9 ;      CG331      CG301      CG331       HGA3
   37    36    38    89	 9 ;      CG331      CG301      CG331       HGA3
   37    36    38    90	 9 ;      CG331      CG301      CG331       HGA3
   32    36    38    88	 9 ;      CG311      CG301      CG331       HGA3
   32    36    38    89	 9 ;      CG311      CG301      CG331       HGA3
   32    36    38    90	 9 ;      CG311      CG301      CG331       HGA3
   39    36    38    88	 9 ;      NG2S0      CG301      CG331       HGA3
   39    36    38    89	 9 ;      NG2S0      CG301      CG331       HGA3
   39    36    38    90	 9 ;      NG2S0      CG301      CG331       HGA3
   36    39    45    44	 9 ;      CG301      NG2S0      CG321      CG321
   36    39    45    80	 9 ;      CG301      NG2S0      CG321       HGA2
   36    39    45    81	 9 ;      CG301      NG2S0      CG321       HGA2
   40    39    45    44	 9 ;      CG2O1      NG2S0      CG321      CG321
   40    39    45    80	 9 ;      CG2O1      NG2S0      CG321       HGA2
   40    39    45    81	 9 ;      CG2O1      NG2S0      CG321       HGA2
   45    39    40    42	 9 ;      CG321      NG2S0      CG2O1      CG321
   45    39    40    41	 9 ;      CG321      NG2S0      CG2O1      OG2D1
   36    39    40    42	 9 ;      CG301      NG2S0      CG2O1      CG321
   36    39    40    41	 9 ;      CG301      NG2S0      CG2O1      OG2D1
   39    40    42    43	 9 ;      NG2S0      CG2O1      CG321      CG321
   39    40    42    74	 9 ;      NG2S0      CG2O1      CG321       HGA2
   39    40    42    75	 9 ;      NG2S0      CG2O1      CG321       HGA2
   41    40    42    43	 9 ;      OG2D1      CG2O1      CG321      CG321
   41    40    42    74	 9 ;      OG2D1      CG2O1      CG321       HGA2
   41    40    42    75	 9 ;      OG2D1      CG2O1      CG321       HGA2
   40    42    43    44	 9 ;      CG2O1      CG321      CG321      CG321
   40    42    43    76	 9 ;      CG2O1      CG321      CG321       HGA2
   40    42    43    77	 9 ;      CG2O1      CG321      CG321       HGA2
   74    42    43    44	 9 ;       HGA2      CG321      CG321      CG321
   74    42    43    76	 9 ;       HGA2      CG321      CG321       HGA2
   74    42    43    77	 9 ;       HGA2      CG321      CG321       HGA2
   75    42    43    44	 9 ;       HGA2      CG321      CG321      CG321
   75    42    43    76	 9 ;       HGA2      CG321      CG321       HGA2
   75    42    43    77	 9 ;       HGA2      CG321      CG321       HGA2
   42    43    44    45	 9 ;      CG321      CG321      CG321      CG321
   42    43    44    78	 9 ;      CG321      CG321      CG321       HGA2
   42    43    44    79	 9 ;      CG321      CG321      CG321       HGA2
   76    43    44    45	 9 ;       HGA2      CG321      CG321      CG321
   76    43    44    78	 9 ;       HGA2      CG321      CG321       HGA2
   76    43    44    79	 9 ;       HGA2      CG321      CG321       HGA2
   77    43    44    45	 9 ;       HGA2      CG321      CG321      CG321
   77    43    44    78	 9 ;       HGA2      CG321      CG321       HGA2
   77    43    44    79	 9 ;       HGA2      CG321      CG321       HGA2
   43    44    45    39	 9 ;      CG321      CG321      CG321      NG2S0
   43    44    45    80	 9 ;      CG321      CG321      CG321       HGA2
   43    44    45    81	 9 ;      CG321      CG321      CG321       HGA2
   78    44    45    39	 9 ;       HGA2      CG321      CG321      NG2S0
   78    44    45    80	 9 ;       HGA2      CG321      CG321       HGA2
   78    44    45    81	 9 ;       HGA2      CG321      CG321       HGA2
   79    44    45    39	 9 ;       HGA2      CG321      CG321      NG2S0
   79    44    45    80	 9 ;       HGA2      CG321      CG321       HGA2
   79    44    45    81	 9 ;       HGA2      CG321      CG321       HGA2

[ dihedrals ]
;	ai	  aj	ak	  al funct			  c0			c1			  c2			c3
   27    30    26    28	 2
   40    42    39    41	 2

