; Created by cgenff_charmm2gmx.py

[ moleculetype ]
; Name			   nrexcl
LIG				 3

[ atoms ]
;	 nr		  type	resnr residue  atom   cgnr	   charge		mass  typeB    chargeB		massB
; residue	 1 LIG rtp LIG q	qsum
     1     CG2R51      1    LIG     C1      1     -0.204     12.011   ;
     2     NG2R51      1    LIG     N1      2     -0.093     14.007   ;
     3     CG2R51      1    LIG     C2      3     -0.202     12.011   ;
     4     CG2R51      1    LIG     C3      4     -0.231     12.011   ;
     5     CG2R51      1    LIG     C4      5     -0.231     12.011   ;
     6     CG2R61      1    LIG     C5      6      0.129     12.011   ;
     7     CG2R61      1    LIG     C6      7     -0.118     12.011   ;
     8     CG2R61      1    LIG     C7      8     -0.118     12.011   ;
     9     CG2R61      1    LIG     C8      9      0.222     12.011   ;
    10     CG2R61      1    LIG     C9     10     -0.118     12.011   ;
    11     CG2R61      1    LIG    C10     11     -0.118     12.011   ;
    12      OG301      1    LIG      O     12     -0.398     15.999   ;
    13      CG321      1    LIG    C11     13     -0.006     12.011   ;
    14      CG321      1    LIG    C12     14     -0.182     12.011   ;
    15      CG321      1    LIG    C13     15     -0.176     12.011   ;
    16      CG331      1    LIG    C14     16     -0.270     12.011   ;
    17      NG3P3      1    LIG     N2     17     -0.244     14.007   ;
    18       HGP2      1    LIG    HN2     18      0.311      1.008   ;
    19       HGP2      1    LIG    HN1     19      0.311      1.008   ;
    20      CG321      1    LIG    C15     20      0.137     12.011   ;
    21      CG311      1    LIG    C16     21      0.189     12.011   ;
    22      NG311      1    LIG     N3     22     -0.486     14.007   ;
    23     CG2D1O      1    LIG    C17     23      0.215     12.011   ;
    24     HGPAM1      1    LIG     HN     24      0.358      1.008   ;
    25     CG2DC1      1    LIG    C18     25     -0.435     12.011   ;
    26     CG2DC2      1    LIG    C19     26     -0.142     12.011   ;
    27     CG2DC2      1    LIG    C20     27     -0.306     12.011   ;
    28      NG321      1    LIG     N4     28     -0.745     14.007   ;
    29     HGPAM2      1    LIG     H1     29      0.404      1.008   ;
    30     HGPAM2      1    LIG     H2     30      0.404      1.008   ;
    31     CG2R61      1    LIG    C21     31      0.182     12.011   ;
    32     CG2R61      1    LIG    C22     32     -0.118     12.011   ;
    33     CG2R61      1    LIG    C23     33     -0.111     12.011   ;
    34     CG2R61      1    LIG    C24     34     -0.116     12.011   ;
    35     CG2R61      1    LIG    C25     35     -0.104     12.011   ;
    36     CG2R61      1    LIG    C26     36      0.032     12.011   ;
    37      CLGR1      1    LIG     CL     37     -0.190     35.453   ;
    38      HGR51      1    LIG     HC     38      0.202      1.008   ;
    39      HGR51      1    LIG    HC1     39      0.202      1.008   ;
    40      HGR61      1    LIG    HC2     40      0.116      1.008   ;
    41      HGR61      1    LIG    HC3     41      0.116      1.008   ;
    42      HGR61      1    LIG    HC4     42      0.116      1.008   ;
    43      HGR61      1    LIG    HC5     43      0.116      1.008   ;
    44       HGA2      1    LIG    HC6     44      0.090      1.008   ;
    45       HGA2      1    LIG    HC7     45      0.090      1.008   ;
    46       HGA2      1    LIG    HC8     46      0.090      1.008   ;
    47       HGA2      1    LIG    HC9     47      0.090      1.008   ;
    48       HGA2      1    LIG   HC10     48      0.090      1.008   ;
    49       HGA2      1    LIG   HC11     49      0.090      1.008   ;
    50       HGA3      1    LIG   HC12     50      0.090      1.008   ;
    51       HGA3      1    LIG   HC13     51      0.090      1.008   ;
    52       HGA3      1    LIG   HC14     52      0.090      1.008   ;
    53       HGP2      1    LIG    HN3     53      0.311      1.008   ;
    54       HGP2      1    LIG    HN4     54      0.311      1.008   ;
    55       HGA2      1    LIG   HC15     55      0.090      1.008   ;
    56       HGA2      1    LIG   HC16     56      0.090      1.008   ;
    57       HGA4      1    LIG   HC17     57      0.150      1.008   ;
    58       HGA4      1    LIG   HC18     58      0.150      1.008   ;
    59       HGA4      1    LIG   HC19     59      0.150      1.008   ;
    60      HGR61      1    LIG   HC20     60      0.116      1.008   ;
    61      HGR61      1    LIG   HC21     61      0.116      1.008   ;
    62      HGR61      1    LIG   HC22     62      0.116      1.008   ;
    63      HGR62      1    LIG   HC23     63      0.150      1.008   ;
    64       HGA1      1    LIG    H32     64      0.090      1.008   ;
    65        LPH      1    LIG    LP1     65      0.050      0.000   ;

[ bonds ]
;	ai	  aj funct			  c0			c1			  c2			c3
    1     5	 1 ;      CG2R51     CG2R51
    1     2	 1 ;      CG2R51     NG2R51
    1    31	 1 ;      CG2R51     CG2R61
    2     3	 1 ;      NG2R51     CG2R51
    2    20	 1 ;      NG2R51      CG321
    3     4	 1 ;      CG2R51     CG2R51
    3     6	 1 ;      CG2R51     CG2R61
    4     5	 1 ;      CG2R51     CG2R51
    4    38	 1 ;      CG2R51      HGR51
    5    39	 1 ;      CG2R51      HGR51
    6     7	 1 ;      CG2R61     CG2R61
    6    11	 1 ;      CG2R61     CG2R61
    7     8	 1 ;      CG2R61     CG2R61
    7    40	 1 ;      CG2R61      HGR61
    8     9	 1 ;      CG2R61     CG2R61
    8    41	 1 ;      CG2R61      HGR61
    9    10	 1 ;      CG2R61     CG2R61
    9    12	 1 ;      CG2R61      OG301
   10    11	 1 ;      CG2R61     CG2R61
   10    42	 1 ;      CG2R61      HGR61
   11    43	 1 ;      CG2R61      HGR61
   12    13	 1 ;       OG301      CG321
   13    14	 1 ;       CG321      CG321
   13    44	 1 ;       CG321       HGA2
   13    45	 1 ;       CG321       HGA2
   14    15	 1 ;       CG321      CG321
   14    46	 1 ;       CG321       HGA2
   14    47	 1 ;       CG321       HGA2
   15    16	 1 ;       CG321      CG331
   15    48	 1 ;       CG321       HGA2
   15    49	 1 ;       CG321       HGA2
   16    50	 1 ;       CG331       HGA3
   16    51	 1 ;       CG331       HGA3
   16    52	 1 ;       CG331       HGA3
   17    18	 1 ;       NG3P3       HGP2
   17    19	 1 ;       NG3P3       HGP2
   17    53	 1 ;       NG3P3       HGP2
   17    54	 1 ;       NG3P3       HGP2
   20    21	 1 ;       CG321      CG311
   20    55	 1 ;       CG321       HGA2
   20    56	 1 ;       CG321       HGA2
   21    27	 1 ;       CG311     CG2DC2
   21    22	 1 ;       CG311      NG311
   21    64	 1 ;       CG311       HGA1
   22    24	 1 ;       NG311     HGPAM1
   22    23	 1 ;       NG311     CG2D1O
   23    25	 1 ;      CG2D1O     CG2DC1
   23    28	 1 ;      CG2D1O      NG321
   25    26	 1 ;      CG2DC1     CG2DC2
   25    57	 1 ;      CG2DC1       HGA4
   26    27	 1 ;      CG2DC2     CG2DC2
   26    58	 1 ;      CG2DC2       HGA4
   27    59	 1 ;      CG2DC2       HGA4
   28    29	 1 ;       NG321     HGPAM2
   28    30	 1 ;       NG321     HGPAM2
   31    32	 1 ;      CG2R61     CG2R61
   31    36	 1 ;      CG2R61     CG2R61
   32    33	 1 ;      CG2R61     CG2R61
   32    60	 1 ;      CG2R61      HGR61
   33    34	 1 ;      CG2R61     CG2R61
   33    61	 1 ;      CG2R61      HGR61
   34    35	 1 ;      CG2R61     CG2R61
   34    62	 1 ;      CG2R61      HGR61
   35    36	 1 ;      CG2R61     CG2R61
   35    63	 1 ;      CG2R61      HGR62
   36    37	 1 ;      CG2R61      CLGR1

[ pairs ]
;	ai	  aj funct			  c0			c1			  c2			c3
    1     6	 1
    1    21	 1
    1    55	 1
    1    56	 1
    1    38	 1
    1    33	 1
    1    60	 1
    1    37	 1
   65     1	 1
    1    35	 1
    2    39	 1
    2    32	 1
    2    36	 1
    2    38	 1
    2     7	 1
    2    11	 1
    2    27	 1
    2    22	 1
    2    64	 1
    3    31	 1
    3    21	 1
    3    55	 1
    3    56	 1
    3    39	 1
    3     8	 1
    3    40	 1
    3    10	 1
    3    43	 1
    4    31	 1
    4    20	 1
    4     7	 1
    4    11	 1
    5    20	 1
    5    32	 1
    5    36	 1
    5     6	 1
    6    20	 1
    6    38	 1
    6     9	 1
    6    41	 1
    6    42	 1
    7    10	 1
    7    43	 1
    7    12	 1
    8    11	 1
    8    42	 1
    8    13	 1
    9    40	 1
    9    43	 1
    9    14	 1
    9    44	 1
    9    45	 1
   10    41	 1
   10    13	 1
   11    40	 1
   11    12	 1
   12    41	 1
   12    42	 1
   12    15	 1
   12    46	 1
   12    47	 1
   13    16	 1
   13    48	 1
   13    49	 1
   14    50	 1
   14    51	 1
   14    52	 1
   15    44	 1
   15    45	 1
   16    46	 1
   16    47	 1
   20    31	 1
   20    26	 1
   20    59	 1
   20    24	 1
   20    23	 1
   21    25	 1
   21    28	 1
   21    58	 1
   22    55	 1
   22    56	 1
   22    26	 1
   22    59	 1
   22    57	 1
   22    29	 1
   22    30	 1
   23    27	 1
   23    64	 1
   23    58	 1
   24    27	 1
   24    64	 1
   24    25	 1
   24    28	 1
   25    29	 1
   25    30	 1
   25    59	 1
   26    64	 1
   26    28	 1
   27    55	 1
   27    56	 1
   27    57	 1
   28    57	 1
   31    39	 1
   31    34	 1
   31    61	 1
   31    63	 1
   32    37	 1
   65    32	 1
   32    35	 1
   32    62	 1
   33    36	 1
   33    63	 1
   34    60	 1
   34    37	 1
   65    34	 1
   35    61	 1
   36    60	 1
   36    62	 1
   37    63	 1
   65    63	 1
   38    39	 1
   40    41	 1
   42    43	 1
   44    46	 1
   44    47	 1
   45    46	 1
   45    47	 1
   46    48	 1
   46    49	 1
   47    48	 1
   47    49	 1
   48    50	 1
   48    51	 1
   48    52	 1
   49    50	 1
   49    51	 1
   49    52	 1
   55    64	 1
   56    64	 1
   57    58	 1
   58    59	 1
   59    64	 1
   60    61	 1
   61    62	 1
   62    63	 1

[ angles ]
;	ai	  aj	ak funct			c0			  c1			c2			  c3
    5     1     2	5 ;     CG2R51     CG2R51     NG2R51
    5     1    31	5 ;     CG2R51     CG2R51     CG2R61
    2     1    31	5 ;     NG2R51     CG2R51     CG2R61
    3     2     1	5 ;     CG2R51     NG2R51     CG2R51
    3     2    20	5 ;     CG2R51     NG2R51      CG321
    1     2    20	5 ;     CG2R51     NG2R51      CG321
    4     3     6	5 ;     CG2R51     CG2R51     CG2R61
    4     3     2	5 ;     CG2R51     CG2R51     NG2R51
    6     3     2	5 ;     CG2R61     CG2R51     NG2R51
    5     4     3	5 ;     CG2R51     CG2R51     CG2R51
    5     4    38	5 ;     CG2R51     CG2R51      HGR51
    3     4    38	5 ;     CG2R51     CG2R51      HGR51
    4     5     1	5 ;     CG2R51     CG2R51     CG2R51
    4     5    39	5 ;     CG2R51     CG2R51      HGR51
    1     5    39	5 ;     CG2R51     CG2R51      HGR51
    3     6     7	5 ;     CG2R51     CG2R61     CG2R61
    3     6    11	5 ;     CG2R51     CG2R61     CG2R61
    7     6    11	5 ;     CG2R61     CG2R61     CG2R61
    6     7     8	5 ;     CG2R61     CG2R61     CG2R61
    6     7    40	5 ;     CG2R61     CG2R61      HGR61
    8     7    40	5 ;     CG2R61     CG2R61      HGR61
    7     8     9	5 ;     CG2R61     CG2R61     CG2R61
    7     8    41	5 ;     CG2R61     CG2R61      HGR61
    9     8    41	5 ;     CG2R61     CG2R61      HGR61
    8     9    10	5 ;     CG2R61     CG2R61     CG2R61
    8     9    12	5 ;     CG2R61     CG2R61      OG301
   10     9    12	5 ;     CG2R61     CG2R61      OG301
   11    10     9	5 ;     CG2R61     CG2R61     CG2R61
   11    10    42	5 ;     CG2R61     CG2R61      HGR61
    9    10    42	5 ;     CG2R61     CG2R61      HGR61
    6    11    10	5 ;     CG2R61     CG2R61     CG2R61
    6    11    43	5 ;     CG2R61     CG2R61      HGR61
   10    11    43	5 ;     CG2R61     CG2R61      HGR61
    9    12    13	5 ;     CG2R61      OG301      CG321
   12    13    14	5 ;      OG301      CG321      CG321
   12    13    44	5 ;      OG301      CG321       HGA2
   12    13    45	5 ;      OG301      CG321       HGA2
   14    13    44	5 ;      CG321      CG321       HGA2
   14    13    45	5 ;      CG321      CG321       HGA2
   44    13    45	5 ;       HGA2      CG321       HGA2
   13    14    15	5 ;      CG321      CG321      CG321
   13    14    46	5 ;      CG321      CG321       HGA2
   13    14    47	5 ;      CG321      CG321       HGA2
   15    14    46	5 ;      CG321      CG321       HGA2
   15    14    47	5 ;      CG321      CG321       HGA2
   46    14    47	5 ;       HGA2      CG321       HGA2
   14    15    16	5 ;      CG321      CG321      CG331
   14    15    48	5 ;      CG321      CG321       HGA2
   14    15    49	5 ;      CG321      CG321       HGA2
   16    15    48	5 ;      CG331      CG321       HGA2
   16    15    49	5 ;      CG331      CG321       HGA2
   48    15    49	5 ;       HGA2      CG321       HGA2
   15    16    50	5 ;      CG321      CG331       HGA3
   15    16    51	5 ;      CG321      CG331       HGA3
   15    16    52	5 ;      CG321      CG331       HGA3
   50    16    51	5 ;       HGA3      CG331       HGA3
   50    16    52	5 ;       HGA3      CG331       HGA3
   51    16    52	5 ;       HGA3      CG331       HGA3
   18    17    19	5 ;       HGP2      NG3P3       HGP2
   18    17    53	5 ;       HGP2      NG3P3       HGP2
   18    17    54	5 ;       HGP2      NG3P3       HGP2
   19    17    53	5 ;       HGP2      NG3P3       HGP2
   19    17    54	5 ;       HGP2      NG3P3       HGP2
   53    17    54	5 ;       HGP2      NG3P3       HGP2
    2    20    21	5 ;     NG2R51      CG321      CG311
    2    20    55	5 ;     NG2R51      CG321       HGA2
    2    20    56	5 ;     NG2R51      CG321       HGA2
   21    20    55	5 ;      CG311      CG321       HGA2
   21    20    56	5 ;      CG311      CG321       HGA2
   55    20    56	5 ;       HGA2      CG321       HGA2
   20    21    27	5 ;      CG321      CG311     CG2DC2
   20    21    22	5 ;      CG321      CG311      NG311
   20    21    64	5 ;      CG321      CG311       HGA1
   27    21    22	5 ;     CG2DC2      CG311      NG311
   27    21    64	5 ;     CG2DC2      CG311       HGA1
   22    21    64	5 ;      NG311      CG311       HGA1
   21    22    24	5 ;      CG311      NG311     HGPAM1
   21    22    23	5 ;      CG311      NG311     CG2D1O
   24    22    23	5 ;     HGPAM1      NG311     CG2D1O
   22    23    25	5 ;      NG311     CG2D1O     CG2DC1
   22    23    28	5 ;      NG311     CG2D1O      NG321
   25    23    28	5 ;     CG2DC1     CG2D1O      NG321
   26    25    23	5 ;     CG2DC2     CG2DC1     CG2D1O
   26    25    57	5 ;     CG2DC2     CG2DC1       HGA4
   23    25    57	5 ;     CG2D1O     CG2DC1       HGA4
   27    26    25	5 ;     CG2DC2     CG2DC2     CG2DC1
   27    26    58	5 ;     CG2DC2     CG2DC2       HGA4
   25    26    58	5 ;     CG2DC1     CG2DC2       HGA4
   21    27    26	5 ;      CG311     CG2DC2     CG2DC2
   21    27    59	5 ;      CG311     CG2DC2       HGA4
   26    27    59	5 ;     CG2DC2     CG2DC2       HGA4
   23    28    29	5 ;     CG2D1O      NG321     HGPAM2
   23    28    30	5 ;     CG2D1O      NG321     HGPAM2
   29    28    30	5 ;     HGPAM2      NG321     HGPAM2
    1    31    32	5 ;     CG2R51     CG2R61     CG2R61
    1    31    36	5 ;     CG2R51     CG2R61     CG2R61
   32    31    36	5 ;     CG2R61     CG2R61     CG2R61
   31    32    33	5 ;     CG2R61     CG2R61     CG2R61
   31    32    60	5 ;     CG2R61     CG2R61      HGR61
   33    32    60	5 ;     CG2R61     CG2R61      HGR61
   32    33    34	5 ;     CG2R61     CG2R61     CG2R61
   32    33    61	5 ;     CG2R61     CG2R61      HGR61
   34    33    61	5 ;     CG2R61     CG2R61      HGR61
   33    34    35	5 ;     CG2R61     CG2R61     CG2R61
   33    34    62	5 ;     CG2R61     CG2R61      HGR61
   35    34    62	5 ;     CG2R61     CG2R61      HGR61
   36    35    34	5 ;     CG2R61     CG2R61     CG2R61
   36    35    63	5 ;     CG2R61     CG2R61      HGR62
   34    35    63	5 ;     CG2R61     CG2R61      HGR62
   31    36    37	5 ;     CG2R61     CG2R61      CLGR1
   31    36    35	5 ;     CG2R61     CG2R61     CG2R61
   37    36    35	5 ;      CLGR1     CG2R61     CG2R61

[ dihedrals ]
;	ai	  aj	ak	  al funct			  c0			c1			  c2			c3			  c4			c5
    2     1     5     4	 9 ;     NG2R51     CG2R51     CG2R51     CG2R51
    2     1     5    39	 9 ;     NG2R51     CG2R51     CG2R51      HGR51
   31     1     5     4	 9 ;     CG2R61     CG2R51     CG2R51     CG2R51
   31     1     5    39	 9 ;     CG2R61     CG2R51     CG2R51      HGR51
    5     1     2     3	 9 ;     CG2R51     CG2R51     NG2R51     CG2R51
    5     1     2    20	 9 ;     CG2R51     CG2R51     NG2R51      CG321
   31     1     2     3	 9 ;     CG2R61     CG2R51     NG2R51     CG2R51
   31     1     2    20	 9 ;     CG2R61     CG2R51     NG2R51      CG321
    5     1    31    32	 9 ;     CG2R51     CG2R51     CG2R61     CG2R61
    5     1    31    36	 9 ;     CG2R51     CG2R51     CG2R61     CG2R61
    2     1    31    32	 9 ;     NG2R51     CG2R51     CG2R61     CG2R61
    2     1    31    36	 9 ;     NG2R51     CG2R51     CG2R61     CG2R61
    1     2     3     4	 9 ;     CG2R51     NG2R51     CG2R51     CG2R51
    1     2     3     6	 9 ;     CG2R51     NG2R51     CG2R51     CG2R61
   20     2     3     4	 9 ;      CG321     NG2R51     CG2R51     CG2R51
   20     2     3     6	 9 ;      CG321     NG2R51     CG2R51     CG2R61
    3     2    20    21	 9 ;     CG2R51     NG2R51      CG321      CG311
    3     2    20    55	 9 ;     CG2R51     NG2R51      CG321       HGA2
    3     2    20    56	 9 ;     CG2R51     NG2R51      CG321       HGA2
    1     2    20    21	 9 ;     CG2R51     NG2R51      CG321      CG311
    1     2    20    55	 9 ;     CG2R51     NG2R51      CG321       HGA2
    1     2    20    56	 9 ;     CG2R51     NG2R51      CG321       HGA2
    6     3     4     5	 9 ;     CG2R61     CG2R51     CG2R51     CG2R51
    6     3     4    38	 9 ;     CG2R61     CG2R51     CG2R51      HGR51
    2     3     4     5	 9 ;     NG2R51     CG2R51     CG2R51     CG2R51
    2     3     4    38	 9 ;     NG2R51     CG2R51     CG2R51      HGR51
    4     3     6     7	 9 ;     CG2R51     CG2R51     CG2R61     CG2R61
    4     3     6    11	 9 ;     CG2R51     CG2R51     CG2R61     CG2R61
    2     3     6     7	 9 ;     NG2R51     CG2R51     CG2R61     CG2R61
    2     3     6    11	 9 ;     NG2R51     CG2R51     CG2R61     CG2R61
    3     4     5     1	 9 ;     CG2R51     CG2R51     CG2R51     CG2R51
    3     4     5    39	 9 ;     CG2R51     CG2R51     CG2R51      HGR51
   38     4     5     1	 9 ;      HGR51     CG2R51     CG2R51     CG2R51
   38     4     5    39	 9 ;      HGR51     CG2R51     CG2R51      HGR51
    3     6     7     8	 9 ;     CG2R51     CG2R61     CG2R61     CG2R61
    3     6     7    40	 9 ;     CG2R51     CG2R61     CG2R61      HGR61
   11     6     7     8	 9 ;     CG2R61     CG2R61     CG2R61     CG2R61
   11     6     7    40	 9 ;     CG2R61     CG2R61     CG2R61      HGR61
    3     6    11    10	 9 ;     CG2R51     CG2R61     CG2R61     CG2R61
    3     6    11    43	 9 ;     CG2R51     CG2R61     CG2R61      HGR61
    7     6    11    10	 9 ;     CG2R61     CG2R61     CG2R61     CG2R61
    7     6    11    43	 9 ;     CG2R61     CG2R61     CG2R61      HGR61
    6     7     8     9	 9 ;     CG2R61     CG2R61     CG2R61     CG2R61
    6     7     8    41	 9 ;     CG2R61     CG2R61     CG2R61      HGR61
   40     7     8     9	 9 ;      HGR61     CG2R61     CG2R61     CG2R61
   40     7     8    41	 9 ;      HGR61     CG2R61     CG2R61      HGR61
    7     8     9    10	 9 ;     CG2R61     CG2R61     CG2R61     CG2R61
    7     8     9    12	 9 ;     CG2R61     CG2R61     CG2R61      OG301
   41     8     9    10	 9 ;      HGR61     CG2R61     CG2R61     CG2R61
   41     8     9    12	 9 ;      HGR61     CG2R61     CG2R61      OG301
    8     9    10    11	 9 ;     CG2R61     CG2R61     CG2R61     CG2R61
    8     9    10    42	 9 ;     CG2R61     CG2R61     CG2R61      HGR61
   12     9    10    11	 9 ;      OG301     CG2R61     CG2R61     CG2R61
   12     9    10    42	 9 ;      OG301     CG2R61     CG2R61      HGR61
    8     9    12    13	 9 ;     CG2R61     CG2R61      OG301      CG321
   10     9    12    13	 9 ;     CG2R61     CG2R61      OG301      CG321
    9    10    11     6	 9 ;     CG2R61     CG2R61     CG2R61     CG2R61
    9    10    11    43	 9 ;     CG2R61     CG2R61     CG2R61      HGR61
   42    10    11     6	 9 ;      HGR61     CG2R61     CG2R61     CG2R61
   42    10    11    43	 9 ;      HGR61     CG2R61     CG2R61      HGR61
    9    12    13    14	 9 ;     CG2R61      OG301      CG321      CG321
    9    12    13    44	 9 ;     CG2R61      OG301      CG321       HGA2
    9    12    13    45	 9 ;     CG2R61      OG301      CG321       HGA2
   12    13    14    15	 9 ;      OG301      CG321      CG321      CG321
   12    13    14    46	 9 ;      OG301      CG321      CG321       HGA2
   12    13    14    47	 9 ;      OG301      CG321      CG321       HGA2
   44    13    14    15	 9 ;       HGA2      CG321      CG321      CG321
   44    13    14    46	 9 ;       HGA2      CG321      CG321       HGA2
   44    13    14    47	 9 ;       HGA2      CG321      CG321       HGA2
   45    13    14    15	 9 ;       HGA2      CG321      CG321      CG321
   45    13    14    46	 9 ;       HGA2      CG321      CG321       HGA2
   45    13    14    47	 9 ;       HGA2      CG321      CG321       HGA2
   13    14    15    16	 9 ;      CG321      CG321      CG321      CG331
   13    14    15    48	 9 ;      CG321      CG321      CG321       HGA2
   13    14    15    49	 9 ;      CG321      CG321      CG321       HGA2
   46    14    15    16	 9 ;       HGA2      CG321      CG321      CG331
   46    14    15    48	 9 ;       HGA2      CG321      CG321       HGA2
   46    14    15    49	 9 ;       HGA2      CG321      CG321       HGA2
   47    14    15    16	 9 ;       HGA2      CG321      CG321      CG331
   47    14    15    48	 9 ;       HGA2      CG321      CG321       HGA2
   47    14    15    49	 9 ;       HGA2      CG321      CG321       HGA2
   14    15    16    50	 9 ;      CG321      CG321      CG331       HGA3
   14    15    16    51	 9 ;      CG321      CG321      CG331       HGA3
   14    15    16    52	 9 ;      CG321      CG321      CG331       HGA3
   48    15    16    50	 9 ;       HGA2      CG321      CG331       HGA3
   48    15    16    51	 9 ;       HGA2      CG321      CG331       HGA3
   48    15    16    52	 9 ;       HGA2      CG321      CG331       HGA3
   49    15    16    50	 9 ;       HGA2      CG321      CG331       HGA3
   49    15    16    51	 9 ;       HGA2      CG321      CG331       HGA3
   49    15    16    52	 9 ;       HGA2      CG321      CG331       HGA3
    2    20    21    27	 9 ;     NG2R51      CG321      CG311     CG2DC2
    2    20    21    22	 9 ;     NG2R51      CG321      CG311      NG311
    2    20    21    64	 9 ;     NG2R51      CG321      CG311       HGA1
   55    20    21    27	 9 ;       HGA2      CG321      CG311     CG2DC2
   55    20    21    22	 9 ;       HGA2      CG321      CG311      NG311
   55    20    21    64	 9 ;       HGA2      CG321      CG311       HGA1
   56    20    21    27	 9 ;       HGA2      CG321      CG311     CG2DC2
   56    20    21    22	 9 ;       HGA2      CG321      CG311      NG311
   56    20    21    64	 9 ;       HGA2      CG321      CG311       HGA1
   20    21    27    26	 9 ;      CG321      CG311     CG2DC2     CG2DC2
   20    21    27    59	 9 ;      CG321      CG311     CG2DC2       HGA4
   22    21    27    26	 9 ;      NG311      CG311     CG2DC2     CG2DC2
   22    21    27    59	 9 ;      NG311      CG311     CG2DC2       HGA4
   64    21    27    26	 9 ;       HGA1      CG311     CG2DC2     CG2DC2
   64    21    27    59	 9 ;       HGA1      CG311     CG2DC2       HGA4
   20    21    22    24	 9 ;      CG321      CG311      NG311     HGPAM1
   20    21    22    23	 9 ;      CG321      CG311      NG311     CG2D1O
   27    21    22    24	 9 ;     CG2DC2      CG311      NG311     HGPAM1
   27    21    22    23	 9 ;     CG2DC2      CG311      NG311     CG2D1O
   64    21    22    24	 9 ;       HGA1      CG311      NG311     HGPAM1
   64    21    22    23	 9 ;       HGA1      CG311      NG311     CG2D1O
   21    22    23    25	 9 ;      CG311      NG311     CG2D1O     CG2DC1
   21    22    23    28	 9 ;      CG311      NG311     CG2D1O      NG321
   24    22    23    25	 9 ;     HGPAM1      NG311     CG2D1O     CG2DC1
   24    22    23    28	 9 ;     HGPAM1      NG311     CG2D1O      NG321
   22    23    25    26	 9 ;      NG311     CG2D1O     CG2DC1     CG2DC2
   22    23    25    57	 9 ;      NG311     CG2D1O     CG2DC1       HGA4
   28    23    25    26	 9 ;      NG321     CG2D1O     CG2DC1     CG2DC2
   28    23    25    57	 9 ;      NG321     CG2D1O     CG2DC1       HGA4
   22    23    28    29	 9 ;      NG311     CG2D1O      NG321     HGPAM2
   22    23    28    30	 9 ;      NG311     CG2D1O      NG321     HGPAM2
   25    23    28    29	 9 ;     CG2DC1     CG2D1O      NG321     HGPAM2
   25    23    28    30	 9 ;     CG2DC1     CG2D1O      NG321     HGPAM2
   23    25    26    27	 9 ;     CG2D1O     CG2DC1     CG2DC2     CG2DC2
   23    25    26    58	 9 ;     CG2D1O     CG2DC1     CG2DC2       HGA4
   57    25    26    27	 9 ;       HGA4     CG2DC1     CG2DC2     CG2DC2
   57    25    26    58	 9 ;       HGA4     CG2DC1     CG2DC2       HGA4
   25    26    27    21	 9 ;     CG2DC1     CG2DC2     CG2DC2      CG311
   25    26    27    59	 9 ;     CG2DC1     CG2DC2     CG2DC2       HGA4
   58    26    27    21	 9 ;       HGA4     CG2DC2     CG2DC2      CG311
   58    26    27    59	 9 ;       HGA4     CG2DC2     CG2DC2       HGA4
    1    31    32    33	 9 ;     CG2R51     CG2R61     CG2R61     CG2R61
    1    31    32    60	 9 ;     CG2R51     CG2R61     CG2R61      HGR61
   36    31    32    33	 9 ;     CG2R61     CG2R61     CG2R61     CG2R61
   36    31    32    60	 9 ;     CG2R61     CG2R61     CG2R61      HGR61
    1    31    36    37	 9 ;     CG2R51     CG2R61     CG2R61      CLGR1
    1    31    36    35	 9 ;     CG2R51     CG2R61     CG2R61     CG2R61
   32    31    36    37	 9 ;     CG2R61     CG2R61     CG2R61      CLGR1
   32    31    36    35	 9 ;     CG2R61     CG2R61     CG2R61     CG2R61
   31    32    33    34	 9 ;     CG2R61     CG2R61     CG2R61     CG2R61
   31    32    33    61	 9 ;     CG2R61     CG2R61     CG2R61      HGR61
   60    32    33    34	 9 ;      HGR61     CG2R61     CG2R61     CG2R61
   60    32    33    61	 9 ;      HGR61     CG2R61     CG2R61      HGR61
   32    33    34    35	 9 ;     CG2R61     CG2R61     CG2R61     CG2R61
   32    33    34    62	 9 ;     CG2R61     CG2R61     CG2R61      HGR61
   61    33    34    35	 9 ;      HGR61     CG2R61     CG2R61     CG2R61
   61    33    34    62	 9 ;      HGR61     CG2R61     CG2R61      HGR61
   33    34    35    36	 9 ;     CG2R61     CG2R61     CG2R61     CG2R61
   33    34    35    63	 9 ;     CG2R61     CG2R61     CG2R61      HGR62
   62    34    35    36	 9 ;      HGR61     CG2R61     CG2R61     CG2R61
   62    34    35    63	 9 ;      HGR61     CG2R61     CG2R61      HGR62
   34    35    36    31	 9 ;     CG2R61     CG2R61     CG2R61     CG2R61
   34    35    36    37	 9 ;     CG2R61     CG2R61     CG2R61      CLGR1
   63    35    36    31	 9 ;      HGR62     CG2R61     CG2R61     CG2R61
   63    35    36    37	 9 ;      HGR62     CG2R61     CG2R61      CLGR1

[ dihedrals ]
;	ai	  aj	ak	  al funct			  c0			c1			  c2			c3
   23    25    22    28	 2

[ virtual_sites2 ]
; Site   from				funct a
   65    37    36     2   -0.164

[ exclusions ]
;	ai	  aj
   37    65
   65    36
   65    31
   65    35
   65     1
   65    32
   65    34
   65    63

