Gromacs Runs On Most of All Computer Systems
   65
    1LIG     C1    1  -1.213   0.266  -1.587
    1LIG     N1    2  -1.308   0.370  -1.594
    1LIG     C2    3  -1.268   0.467  -1.686
    1LIG     C3    4  -1.149   0.422  -1.740
    1LIG     C4    5  -1.118   0.298  -1.683
    1LIG     C5    6  -1.335   0.595  -1.714
    1LIG     C6    7  -1.302   0.710  -1.640
    1LIG     C7    8  -1.372   0.831  -1.656
    1LIG     C8    9  -1.480   0.838  -1.744
    1LIG     C9   10  -1.509   0.727  -1.823
    1LIG    C10   11  -1.435   0.609  -1.811
    1LIG      O   12  -1.566   0.944  -1.757
    1LIG    C11   13  -1.701   0.922  -1.716
    1LIG    C12   14  -1.707   0.899  -1.564
    1LIG    C13   15  -1.730   0.753  -1.521
    1LIG    C14   16  -1.832   0.686  -1.612
    1LIG     N2   17  -1.916   0.630  -1.687
    1LIG    HN2   18  -1.848   0.675  -1.626
    1LIG    HN1   19  -1.984   0.585  -1.748
    1LIG    C15   20  -1.423   0.385  -1.503
    1LIG    C16   21  -1.556   0.336  -1.559
    1LIG     N3   22  -1.672   0.366  -1.495
    1LIG    C17   23  -1.789   0.331  -1.552
    1LIG     HN   24  -1.671   0.415  -1.406
    1LIG    C18   25  -1.795   0.267  -1.675
    1LIG    C19   26  -1.677   0.232  -1.738
    1LIG    C20   27  -1.555   0.266  -1.679
    1LIG     N4   28  -1.905   0.368  -1.486
    1LIG     H1   29  -1.959   0.426  -1.550
    1LIG     H2   30  -1.886   0.415  -1.399
    1LIG    C21   31  -1.215   0.144  -1.501
    1LIG    C22   32  -1.224   0.016  -1.559
    1LIG    C23   33  -1.215  -0.102  -1.484
    1LIG    C24   34  -1.191  -0.096  -1.348
    1LIG    C25   35  -1.181   0.028  -1.286
    1LIG    C26   36  -1.196   0.147  -1.360
    1LIG     CL   37  -1.194   0.292  -1.267
    1LIG     HC   38  -1.089   0.475  -1.814
    1LIG    HC1   39  -1.033   0.236  -1.710
    1LIG    HC2   40  -1.220   0.705  -1.570
    1LIG    HC3   41  -1.343   0.918  -1.599
    1LIG    HC4   42  -1.590   0.732  -1.894
    1LIG    HC5   43  -1.455   0.526  -1.878
    1LIG    HC6   44  -1.762   1.009  -1.742
    1LIG    HC7   45  -1.740   0.834  -1.767
    1LIG    HC8   46  -1.612   0.932  -1.521
    1LIG    HC9   47  -1.787   0.960  -1.523
    1LIG   HC10   48  -1.767   0.751  -1.418
    1LIG   HC11   49  -1.636   0.698  -1.526
    1LIG   HC12   50  -1.915   0.754  -1.630
    1LIG   HC13   51  -1.784   0.660  -1.706
    1LIG   HC14   52  -1.869   0.595  -1.564
    1LIG    HN3   53  -1.962   0.591  -1.606
    1LIG    HN4   54  -1.857   0.548  -1.692
    1LIG   HC15   55  -1.433   0.491  -1.480
    1LIG   HC16   56  -1.402   0.331  -1.411
    1LIG   HC17   57  -1.891   0.244  -1.720
    1LIG   HC18   58  -1.679   0.179  -1.832
    1LIG   HC19   59  -1.462   0.238  -1.726
    1LIG   HC20   60  -1.238   0.009  -1.666
    1LIG   HC21   61  -1.228  -0.198  -1.533
    1LIG   HC22   62  -1.179  -0.187  -1.291
    1LIG   HC23   63  -1.161   0.034  -1.180
    1LIG    H32   64  -1.547   0.243  -1.503
    1LIG    LP1   65  -1.193   0.430  -1.178
   0.00000   0.00000   0.00000
