GRowing Old MAkes el Chrono Sweat
   48
    1LIG     C2    1   8.540   1.719   9.505
    1LIG     O5    2   8.658   1.472   9.503
    1LIG     C4    3   8.543   1.401   9.310
    1LIG     C5    4   8.456   1.435   9.205
    1LIG     C6    5   8.607   1.276   9.311
    1LIG     C7    6   8.437   1.344   9.099
    1LIG     C8    7   8.586   1.186   9.208
    1LIG     C9    8   8.501   1.219   9.102
    1LIG    C10    9   8.490   1.622   9.426
    1LIG    C11   10   8.364   1.622   9.345
    1LIG    C12   11   8.571   1.497   9.420
    1LIG    C13   12   8.390   1.570   9.203
    1LIG     N1   13   8.375   1.848   9.620
    1LIG     O4   14   8.514   1.955   9.473
    1LIG     C3   15   8.478   1.852   9.529
    1LIG     H4   16   8.334   1.757   9.642
    1LIG    C14   17   8.288   1.964   9.642
    1LIG    C16   18   8.236   1.967   9.787
    1LIG    C17   19   8.350   1.942   9.887
    1LIG    C18   20   8.169   2.101   9.821
    1LIG     O2   21   8.082   1.869   9.552
    1LIG    C15   22   8.173   1.951   9.542
    1LIG     O3   23   8.182   2.046   9.445
    1LIG    C19   24   8.186   1.993   9.312
    1LIG     C1   25   8.348   1.306   8.880
    1LIG     O1   26   8.354   1.386   8.998
    1LIG     H1   27   8.628   1.700   9.554
    1LIG     H2   28   8.671   1.252   9.389
    1LIG     H3   29   8.633   1.094   9.210
    1LIG     H5   30   8.486   1.152   9.025
    1LIG     H6   31   8.292   1.559   9.392
    1LIG     H7   32   8.328   1.723   9.338
    1LIG     H8   33   8.296   1.563   9.152
    1LIG     H9   34   8.455   1.639   9.154
    1LIG    H10   35   8.342   2.056   9.627
    1LIG    H11   36   8.163   1.889   9.795
    1LIG    H12   37   8.422   2.020   9.879
    1LIG    H13   38   8.396   1.848   9.866
    1LIG    H14   39   8.310   1.940   9.986
    1LIG    H15   40   8.241   2.180   9.814
    1LIG    H16   41   8.130   2.097   9.921
    1LIG    H17   42   8.089   2.119   9.752
    1LIG    H18   43   8.194   2.073   9.242
    1LIG    H19   44   8.097   1.937   9.293
    1LIG    H20   45   8.271   1.929   9.302
    1LIG    H21   46   8.280   1.351   8.811
    1LIG    H22   47   8.314   1.208   8.905
    1LIG    H23   48   8.445   1.301   8.836
   0.00000   0.00000   0.00000
