Getting the Right Output Means no Artefacts in Calculating Stuff
   72
    1LIG     C1    1  -1.693   0.603  -1.671
    1LIG     C2    2  -1.580   0.519  -1.677
    1LIG     C3    3  -1.579   0.395  -1.611
    1LIG     C4    4  -1.690   0.359  -1.534
    1LIG     C5    5  -1.804   0.440  -1.530
    1LIG     C6    6  -1.808   0.559  -1.603
    1LIG     C7    7  -1.909   0.403  -1.431
    1LIG     O1    8  -1.885   0.378  -1.314
    1LIG     O2    9  -2.034   0.409  -1.483
    1LIG     C8   10  -2.137   0.365  -1.391
    1LIG     C9   11  -2.196   0.234  -1.446
    1LIG    C10   12  -2.104   0.109  -1.430
    1LIG    C11   13  -2.148  -0.011  -1.350
    1LIG    C12   14  -2.188  -0.131  -1.410
    1LIG    C13   15  -2.208  -0.247  -1.334
    1LIG    C14   16  -2.188  -0.244  -1.196
    1LIG    C15   17  -2.151  -0.126  -1.135
    1LIG    C16   18  -2.131  -0.010  -1.211
    1LIG    C17   19  -2.247   0.250  -1.591
    1LIG     O3   20  -2.134   0.245  -1.679
    1LIG     H1   21  -2.168   0.233  -1.770
    1LIG     N1   22  -2.321   0.204  -1.360
    1LIG     H2   23  -2.384   0.285  -1.351
    1LIG     H3   24  -2.374   0.124  -1.401
    1LIG     H4   25  -2.296   0.173  -1.266
    1LIG    C18   26  -1.456   0.310  -1.609
    1LIG     O4   27  -1.455   0.203  -1.667
    1LIG     N2   28  -1.348   0.364  -1.542
    1LIG     H5   29  -1.359   0.447  -1.486
    1LIG    C19   30  -1.211   0.313  -1.552
    1LIG    C20   31  -1.168   0.307  -1.699
    1LIG    C21   32  -1.208   0.180  -1.478
    1LIG    C22   33  -1.143   0.071  -1.540
    1LIG    C23   34  -1.121  -0.049  -1.471
    1LIG    C24   35  -1.165  -0.061  -1.339
    1LIG      F   36  -1.138  -0.173  -1.271
    1LIG    C25   37  -1.234   0.043  -1.278
    1LIG    C26   38  -1.255   0.163  -1.346
    1LIG     N3   39  -1.689   0.736  -1.726
    1LIG    C27   40  -1.658   0.752  -1.869
    1LIG      S   41  -1.655   0.868  -1.625
    1LIG     O5   42  -1.534   0.836  -1.552
    1LIG     O6   43  -1.776   0.906  -1.555
    1LIG    C28   44  -1.619   0.995  -1.746
    1LIG     HC   45  -1.493   0.551  -1.733
    1LIG    HC1   46  -1.688   0.266  -1.478
    1LIG    HC2   47  -1.899   0.617  -1.608
    1LIG    HC3   48  -2.215   0.441  -1.384
    1LIG    HC4   49  -2.094   0.347  -1.293
    1LIG    HC5   50  -2.012   0.145  -1.383
    1LIG    HC6   51  -2.078   0.075  -1.530
    1LIG    HC7   52  -2.203  -0.135  -1.517
    1LIG    HC8   53  -2.240  -0.338  -1.382
    1LIG    HC9   54  -2.201  -0.334  -1.138
    1LIG   HC10   55  -2.136  -0.123  -1.028
    1LIG   HC11   56  -2.103   0.082  -1.161
    1LIG   HC12   57  -2.316   0.169  -1.615
    1LIG   HC13   58  -2.298   0.346  -1.602
    1LIG   HC14   59  -1.145   0.383  -1.500
    1LIG   HC15   60  -1.184   0.404  -1.745
    1LIG   HC16   61  -1.063   0.281  -1.705
    1LIG   HC17   62  -1.227   0.232  -1.751
    1LIG   HC18   63  -1.110   0.080  -1.642
    1LIG   HC19   64  -1.071  -0.131  -1.519
    1LIG   HC20   65  -1.270   0.031  -1.177
    1LIG   HC21   66  -1.309   0.243  -1.298
    1LIG   HC22   67  -1.673   0.658  -1.921
    1LIG   HC23   68  -1.555   0.784  -1.881
    1LIG   HC24   69  -1.725   0.828  -1.912
    1LIG   HC25   70  -1.603   1.090  -1.696
    1LIG   HC26   71  -1.702   1.004  -1.816
    1LIG   HC27   72  -1.528   0.968  -1.801
   0.00000   0.00000   0.00000
