Gromacs Runs On Most of All Computer Systems
   63
    1LIG     C1    1  -1.624   0.550  -1.683
    1LIG     C2    2  -1.614   0.683  -1.761
    1LIG      S    3  -1.461   0.772  -1.732
    1LIG     O1    4  -1.461   0.817  -1.594
    1LIG     O2    5  -1.441   0.863  -1.843
    1LIG     C3    6  -1.331   0.651  -1.742
    1LIG     C4    7  -1.367   0.526  -1.665
    1LIG     C5    8  -1.500   0.464  -1.715
    1LIG     N1    9  -1.259   0.419  -1.677
    1LIG     H1   10  -1.308   0.329  -1.667
    1LIG     H2   11  -1.218   0.414  -1.771
    1LIG     C6   12  -1.149   0.424  -1.574
    1LIG     C7   13  -1.193   0.367  -1.442
    1LIG     C8   14  -1.213   0.229  -1.426
    1LIG     C9   15  -1.246   0.172  -1.300
    1LIG    C10   16  -1.263   0.260  -1.193
    1LIG    C11   17  -1.248   0.398  -1.208
    1LIG    C12   18  -1.213   0.451  -1.331
    1LIG    C13   19  -1.256   0.019  -1.277
    1LIG    C14   20  -1.126  -0.058  -1.310
    1LIG    C15   21  -1.288  -0.006  -1.128
    1LIG    C16   22  -1.369  -0.045  -1.362
    1LIG     O3   23  -1.507   0.334  -1.656
    1LIG     H3   24  -1.561   0.275  -1.714
    1LIG    C17   25  -1.649   0.566  -1.530
    1LIG    C18   26  -1.784   0.515  -1.483
    1LIG    C19   27  -1.869   0.598  -1.409
    1LIG    C20   28  -2.000   0.558  -1.380
    1LIG     BR   29  -2.113   0.681  -1.290
    1LIG    C21   30  -2.047   0.431  -1.417
    1LIG    C22   31  -1.959   0.346  -1.484
    1LIG    C23   32  -1.828   0.387  -1.516
    1LIG     N2   33  -2.183   0.398  -1.413
    1LIG     H4   34  -2.226   0.388  -1.505
    1LIG     H5   35  -2.240   0.452  -1.348
    1LIG     HC   36  -1.710   0.497  -1.724
    1LIG    HC2   37  -1.620   0.660  -1.868
    1LIG    HC3   38  -1.697   0.746  -1.733
    1LIG    HC4   39  -1.240   0.693  -1.701
    1LIG    HC5   40  -1.314   0.625  -1.847
    1LIG    HC1   41  -1.379   0.553  -1.560
    1LIG    HC6   42  -1.493   0.452  -1.823
    1LIG    HC7   43  -1.065   0.366  -1.611
    1LIG    HC8   44  -1.118   0.527  -1.560
    1LIG    HC9   45  -1.202   0.164  -1.511
    1LIG   HC10   46  -1.288   0.220  -1.096
    1LIG   HC11   47  -1.265   0.463  -1.124
    1LIG   HC12   48  -1.200   0.558  -1.342
    1LIG   HC13   49  -1.642   0.671  -1.505
    1LIG   HC14   50  -1.571   0.512  -1.477
    1LIG   HC15   51  -1.833   0.693  -1.373
    1LIG   HC16   52  -1.991   0.246  -1.511
    1LIG   HC17   53  -1.762   0.318  -1.567
    1LIG   HC18   54  -1.463   0.006  -1.341
    1LIG   HC19   55  -1.344  -0.036  -1.467
    1LIG   HC20   56  -1.378  -0.150  -1.336
    1LIG   HC21   57  -1.294  -0.113  -1.109
    1LIG   HC22   58  -1.383   0.041  -1.102
    1LIG   HC23   59  -1.208   0.037  -1.066
    1LIG   HC24   60  -1.044  -0.016  -1.253
    1LIG   HC25   61  -1.139  -0.163  -1.285
    1LIG   HC26   62  -1.105  -0.048  -1.417
    1LIG    LP1   63  -2.225   0.804  -1.200
   0.00000   0.00000   0.00000
