; Created by cgenff_charmm2gmx.py

[ moleculetype ]
; Name			   nrexcl
LIG				 3

[ atoms ]
;	 nr		  type	resnr residue  atom   cgnr	   charge		mass  typeB    chargeB		massB
; residue	 1 LIG rtp LIG q	qsum
     1      SG3O2      1    LIG      S      1      0.301     32.060   ;
     2      OG2P1      1    LIG     O1      2     -0.242     15.999   ;
     3      OG2P1      1    LIG     O2      3     -0.242     15.999   ;
     4     NG3C51      1    LIG     N1      4     -0.405     14.007   ;
     5     CG3C50      1    LIG     C1      5      0.255     12.011   ;
     6      CG321      1    LIG     C2      6     -0.124     12.011   ;
     7      CG314      1    LIG     C3      7      0.198     12.011   ;
     8      NG3P1      1    LIG     N2      8     -0.462     14.007   ;
     9      CG324      1    LIG     C4      9      0.103     12.011   ;
    10      CG321      1    LIG     C5     10     -0.123     12.011   ;
    11      CG331      1    LIG     C6     11     -0.213     12.011   ;
    12     CG3C52      1    LIG     C7     12     -0.072     12.011   ;
    13     NG3C51      1    LIG     N3     13     -0.309     14.007   ;
    14      CG331      1    LIG     C8     14     -0.027     12.011   ;
    15       HGP2      1    LIG     H1     15      0.319      1.008   ;
    16     CG2R61      1    LIG     C9     16      0.378     12.011   ;
    17     CG2R61      1    LIG    C10     17     -0.169     12.011   ;
    18     CG2R66      1    LIG    C11     18      0.105     12.011   ;
    19       FGR1      1    LIG      F     19     -0.211     18.998   ;
    20     CG2R61      1    LIG    C12     20     -0.107     12.011   ;
    21     CG2R61      1    LIG    C13     21     -0.149     12.011   ;
    22     CG2R61      1    LIG    C14     22     -0.107     12.011   ;
    23      CG324      1    LIG    C15     23      0.053     12.011   ;
    24     CG2R61      1    LIG    C16     24      0.067     12.011   ;
    25     CG2R61      1    LIG    C17     25     -0.266     12.011   ;
    26     CG2RC0      1    LIG    C18     26      0.120     12.011   ;
    27     CG2RC0      1    LIG    C19     27      0.256     12.011   ;
    28     CG2R51      1    LIG    C20     28     -0.270     12.011   ;
    29     NG2R51      1    LIG     N4     29     -0.468     14.007   ;
    30     CG2R61      1    LIG    C21     30     -0.257     12.011   ;
    31     CG2R51      1    LIG    C22     31     -0.092     12.011   ;
    32       HGP1      1    LIG     H2     32      0.348      1.008   ;
    33     CG2R61      1    LIG    C23     33     -0.181     12.011   ;
    34       HGA2      1    LIG    HC2     34      0.090      1.008   ;
    35       HGA2      1    LIG    HC3     35      0.090      1.008   ;
    36       HGA1      1    LIG     HC     36      0.090      1.008   ;
    37       HGA2      1    LIG    HC4     37      0.090      1.008   ;
    38       HGA2      1    LIG    HC5     38      0.090      1.008   ;
    39       HGA2      1    LIG    HC6     39      0.090      1.008   ;
    40       HGA2      1    LIG    HC7     40      0.090      1.008   ;
    41       HGA3      1    LIG    HC1     41      0.090      1.008   ;
    42       HGA3      1    LIG    HC8     42      0.090      1.008   ;
    43       HGA3      1    LIG    HC9     43      0.090      1.008   ;
    44       HGA2      1    LIG   HC10     44      0.090      1.008   ;
    45       HGA2      1    LIG   HC11     45      0.090      1.008   ;
    46       HGA3      1    LIG   HC12     46      0.090      1.008   ;
    47       HGA3      1    LIG   HC13     47      0.090      1.008   ;
    48       HGA3      1    LIG   HC14     48      0.090      1.008   ;
    49      HGR62      1    LIG   HC15     49      0.175      1.008   ;
    50      HGR62      1    LIG   HC16     50      0.179      1.008   ;
    51      HGR61      1    LIG   HC17     51      0.116      1.008   ;
    52      HGR61      1    LIG   HC18     52      0.116      1.008   ;
    53       HGA2      1    LIG   HC19     53      0.090      1.008   ;
    54       HGA2      1    LIG   HC20     54      0.090      1.008   ;
    55      HGR61      1    LIG   HC21     55      0.197      1.008   ;
    56      HGR51      1    LIG   HC22     56      0.187      1.008   ;
    57      HGR61      1    LIG   HC23     57      0.184      1.008   ;
    58      HGR52      1    LIG   HC24     58      0.175      1.008   ;
    59      HGR61      1    LIG   HC25     59      0.134      1.008   ;

[ bonds ]
;	ai	  aj funct			  c0			c1			  c2			c3
    1     4	 1 ;       SG3O2     NG3C51
    1    13	 1 ;       SG3O2     NG3C51
    1     2	 1 ;       SG3O2      OG2P1
    1     3	 1 ;       SG3O2      OG2P1
    4     5	 1 ;      NG3C51     CG3C50
    4    16	 1 ;      NG3C51     CG2R61
    5     6	 1 ;      CG3C50      CG321
    5    10	 1 ;      CG3C50      CG321
    5    12	 1 ;      CG3C50     CG3C52
    6     7	 1 ;       CG321      CG314
    6    34	 1 ;       CG321       HGA2
    6    35	 1 ;       CG321       HGA2
    7    11	 1 ;       CG314      CG331
    7     8	 1 ;       CG314      NG3P1
    7    36	 1 ;       CG314       HGA1
    8    23	 1 ;       NG3P1      CG324
    8    15	 1 ;       NG3P1       HGP2
    8     9	 1 ;       NG3P1      CG324
    9    10	 1 ;       CG324      CG321
    9    37	 1 ;       CG324       HGA2
    9    38	 1 ;       CG324       HGA2
   10    39	 1 ;       CG321       HGA2
   10    40	 1 ;       CG321       HGA2
   11    41	 1 ;       CG331       HGA3
   11    42	 1 ;       CG331       HGA3
   11    43	 1 ;       CG331       HGA3
   12    13	 1 ;      CG3C52     NG3C51
   12    44	 1 ;      CG3C52       HGA2
   12    45	 1 ;      CG3C52       HGA2
   13    14	 1 ;      NG3C51      CG331
   14    46	 1 ;       CG331       HGA3
   14    47	 1 ;       CG331       HGA3
   14    48	 1 ;       CG331       HGA3
   16    17	 1 ;      CG2R61     CG2R61
   16    22	 1 ;      CG2R61     CG2R61
   17    18	 1 ;      CG2R61     CG2R66
   17    49	 1 ;      CG2R61      HGR62
   18    19	 1 ;      CG2R66       FGR1
   18    20	 1 ;      CG2R66     CG2R61
   20    21	 1 ;      CG2R61     CG2R61
   20    50	 1 ;      CG2R61      HGR62
   21    22	 1 ;      CG2R61     CG2R61
   21    51	 1 ;      CG2R61      HGR61
   22    52	 1 ;      CG2R61      HGR61
   23    24	 1 ;       CG324     CG2R61
   23    53	 1 ;       CG324       HGA2
   23    54	 1 ;       CG324       HGA2
   24    25	 1 ;      CG2R61     CG2R61
   24    33	 1 ;      CG2R61     CG2R61
   25    26	 1 ;      CG2R61     CG2RC0
   25    55	 1 ;      CG2R61      HGR61
   26    28	 1 ;      CG2RC0     CG2R51
   26    27	 1 ;      CG2RC0     CG2RC0
   27    29	 1 ;      CG2RC0     NG2R51
   27    30	 1 ;      CG2RC0     CG2R61
   28    31	 1 ;      CG2R51     CG2R51
   28    56	 1 ;      CG2R51      HGR51
   29    31	 1 ;      NG2R51     CG2R51
   29    32	 1 ;      NG2R51       HGP1
   30    33	 1 ;      CG2R61     CG2R61
   30    57	 1 ;      CG2R61      HGR61
   31    58	 1 ;      CG2R51      HGR52
   33    59	 1 ;      CG2R61      HGR61

[ pairs ]
;	ai	  aj funct			  c0			c1			  c2			c3
    1     6	 1
    1    10	 1
    1    17	 1
    1    22	 1
    1    44	 1
    1    45	 1
    1    46	 1
    1    47	 1
    1    48	 1
    2     5	 1
    2    16	 1
    2    12	 1
    2    14	 1
    3     5	 1
    3    16	 1
    3    12	 1
    3    14	 1
    4    14	 1
    4     7	 1
    4    34	 1
    4    35	 1
    4     9	 1
    4    39	 1
    4    40	 1
    4    44	 1
    4    45	 1
    4    18	 1
    4    49	 1
    4    21	 1
    4    52	 1
    5    17	 1
    5    22	 1
    5    11	 1
    5     8	 1
    5    36	 1
    5    37	 1
    5    38	 1
    5    14	 1
    6    16	 1
    6     9	 1
    6    39	 1
    6    40	 1
    6    13	 1
    6    44	 1
    6    45	 1
    6    41	 1
    6    42	 1
    6    43	 1
    6    23	 1
    6    15	 1
    7    10	 1
    7    12	 1
    7    24	 1
    7    53	 1
    7    54	 1
    7    37	 1
    7    38	 1
    8    34	 1
    8    35	 1
    8    41	 1
    8    42	 1
    8    43	 1
    8    39	 1
    8    40	 1
    8    25	 1
    8    33	 1
    9    12	 1
    9    11	 1
    9    36	 1
    9    24	 1
    9    53	 1
    9    54	 1
   10    16	 1
   10    34	 1
   10    35	 1
   10    13	 1
   10    44	 1
   10    45	 1
   10    23	 1
   10    15	 1
   11    34	 1
   11    35	 1
   11    23	 1
   11    15	 1
   12    16	 1
   12    34	 1
   12    35	 1
   12    39	 1
   12    40	 1
   12    46	 1
   12    47	 1
   12    48	 1
   13    16	 1
   14    44	 1
   14    45	 1
   15    36	 1
   15    24	 1
   15    53	 1
   15    54	 1
   15    37	 1
   15    38	 1
   16    19	 1
   16    20	 1
   16    51	 1
   17    21	 1
   17    52	 1
   17    50	 1
   18    22	 1
   18    51	 1
   19    49	 1
   19    21	 1
   19    50	 1
   20    49	 1
   20    52	 1
   22    49	 1
   22    50	 1
   23    36	 1
   23    37	 1
   23    38	 1
   23    26	 1
   23    55	 1
   23    30	 1
   23    59	 1
   24    28	 1
   24    27	 1
   24    57	 1
   25    53	 1
   25    54	 1
   25    30	 1
   25    59	 1
   25    31	 1
   25    56	 1
   25    29	 1
   26    33	 1
   26    32	 1
   26    57	 1
   26    58	 1
   27    55	 1
   27    56	 1
   27    58	 1
   27    59	 1
   28    55	 1
   28    30	 1
   28    32	 1
   29    33	 1
   29    57	 1
   29    56	 1
   30    31	 1
   30    32	 1
   32    58	 1
   33    53	 1
   33    54	 1
   33    55	 1
   34    36	 1
   35    36	 1
   36    41	 1
   36    42	 1
   36    43	 1
   37    39	 1
   37    40	 1
   38    39	 1
   38    40	 1
   50    51	 1
   51    52	 1
   56    58	 1
   57    59	 1

[ angles ]
;	ai	  aj	ak funct			c0			  c1			c2			  c3
    4     1    13	5 ;     NG3C51      SG3O2     NG3C51
    4     1     2	5 ;     NG3C51      SG3O2      OG2P1
    4     1     3	5 ;     NG3C51      SG3O2      OG2P1
   13     1     2	5 ;     NG3C51      SG3O2      OG2P1
   13     1     3	5 ;     NG3C51      SG3O2      OG2P1
    2     1     3	5 ;      OG2P1      SG3O2      OG2P1
    5     4    16	5 ;     CG3C50     NG3C51     CG2R61
    5     4     1	5 ;     CG3C50     NG3C51      SG3O2
   16     4     1	5 ;     CG2R61     NG3C51      SG3O2
    6     5    10	5 ;      CG321     CG3C50      CG321
    6     5    12	5 ;      CG321     CG3C50     CG3C52
    6     5     4	5 ;      CG321     CG3C50     NG3C51
   10     5    12	5 ;      CG321     CG3C50     CG3C52
   10     5     4	5 ;      CG321     CG3C50     NG3C51
   12     5     4	5 ;     CG3C52     CG3C50     NG3C51
    7     6     5	5 ;      CG314      CG321     CG3C50
    7     6    34	5 ;      CG314      CG321       HGA2
    7     6    35	5 ;      CG314      CG321       HGA2
    5     6    34	5 ;     CG3C50      CG321       HGA2
    5     6    35	5 ;     CG3C50      CG321       HGA2
   34     6    35	5 ;       HGA2      CG321       HGA2
   11     7     8	5 ;      CG331      CG314      NG3P1
   11     7     6	5 ;      CG331      CG314      CG321
   11     7    36	5 ;      CG331      CG314       HGA1
    8     7     6	5 ;      NG3P1      CG314      CG321
    8     7    36	5 ;      NG3P1      CG314       HGA1
    6     7    36	5 ;      CG321      CG314       HGA1
   23     8    15	5 ;      CG324      NG3P1       HGP2
   23     8     7	5 ;      CG324      NG3P1      CG314
   23     8     9	5 ;      CG324      NG3P1      CG324
   15     8     7	5 ;       HGP2      NG3P1      CG314
   15     8     9	5 ;       HGP2      NG3P1      CG324
    7     8     9	5 ;      CG314      NG3P1      CG324
    8     9    10	5 ;      NG3P1      CG324      CG321
    8     9    37	5 ;      NG3P1      CG324       HGA2
    8     9    38	5 ;      NG3P1      CG324       HGA2
   10     9    37	5 ;      CG321      CG324       HGA2
   10     9    38	5 ;      CG321      CG324       HGA2
   37     9    38	5 ;       HGA2      CG324       HGA2
    9    10     5	5 ;      CG324      CG321     CG3C50
    9    10    39	5 ;      CG324      CG321       HGA2
    9    10    40	5 ;      CG324      CG321       HGA2
    5    10    39	5 ;     CG3C50      CG321       HGA2
    5    10    40	5 ;     CG3C50      CG321       HGA2
   39    10    40	5 ;       HGA2      CG321       HGA2
    7    11    41	5 ;      CG314      CG331       HGA3
    7    11    42	5 ;      CG314      CG331       HGA3
    7    11    43	5 ;      CG314      CG331       HGA3
   41    11    42	5 ;       HGA3      CG331       HGA3
   41    11    43	5 ;       HGA3      CG331       HGA3
   42    11    43	5 ;       HGA3      CG331       HGA3
    5    12    13	5 ;     CG3C50     CG3C52     NG3C51
    5    12    44	5 ;     CG3C50     CG3C52       HGA2
    5    12    45	5 ;     CG3C50     CG3C52       HGA2
   13    12    44	5 ;     NG3C51     CG3C52       HGA2
   13    12    45	5 ;     NG3C51     CG3C52       HGA2
   44    12    45	5 ;       HGA2     CG3C52       HGA2
   12    13     1	5 ;     CG3C52     NG3C51      SG3O2
   12    13    14	5 ;     CG3C52     NG3C51      CG331
    1    13    14	5 ;      SG3O2     NG3C51      CG331
   13    14    46	5 ;     NG3C51      CG331       HGA3
   13    14    47	5 ;     NG3C51      CG331       HGA3
   13    14    48	5 ;     NG3C51      CG331       HGA3
   46    14    47	5 ;       HGA3      CG331       HGA3
   46    14    48	5 ;       HGA3      CG331       HGA3
   47    14    48	5 ;       HGA3      CG331       HGA3
   17    16     4	5 ;     CG2R61     CG2R61     NG3C51
   17    16    22	5 ;     CG2R61     CG2R61     CG2R61
    4    16    22	5 ;     NG3C51     CG2R61     CG2R61
   18    17    16	5 ;     CG2R66     CG2R61     CG2R61
   18    17    49	5 ;     CG2R66     CG2R61      HGR62
   16    17    49	5 ;     CG2R61     CG2R61      HGR62
   19    18    17	5 ;       FGR1     CG2R66     CG2R61
   19    18    20	5 ;       FGR1     CG2R66     CG2R61
   17    18    20	5 ;     CG2R61     CG2R66     CG2R61
   18    20    21	5 ;     CG2R66     CG2R61     CG2R61
   18    20    50	5 ;     CG2R66     CG2R61      HGR62
   21    20    50	5 ;     CG2R61     CG2R61      HGR62
   20    21    22	5 ;     CG2R61     CG2R61     CG2R61
   20    21    51	5 ;     CG2R61     CG2R61      HGR61
   22    21    51	5 ;     CG2R61     CG2R61      HGR61
   16    22    21	5 ;     CG2R61     CG2R61     CG2R61
   16    22    52	5 ;     CG2R61     CG2R61      HGR61
   21    22    52	5 ;     CG2R61     CG2R61      HGR61
   24    23     8	5 ;     CG2R61      CG324      NG3P1
   24    23    53	5 ;     CG2R61      CG324       HGA2
   24    23    54	5 ;     CG2R61      CG324       HGA2
    8    23    53	5 ;      NG3P1      CG324       HGA2
    8    23    54	5 ;      NG3P1      CG324       HGA2
   53    23    54	5 ;       HGA2      CG324       HGA2
   25    24    33	5 ;     CG2R61     CG2R61     CG2R61
   25    24    23	5 ;     CG2R61     CG2R61      CG324
   33    24    23	5 ;     CG2R61     CG2R61      CG324
   26    25    24	5 ;     CG2RC0     CG2R61     CG2R61
   26    25    55	5 ;     CG2RC0     CG2R61      HGR61
   24    25    55	5 ;     CG2R61     CG2R61      HGR61
   28    26    27	5 ;     CG2R51     CG2RC0     CG2RC0
   28    26    25	5 ;     CG2R51     CG2RC0     CG2R61
   27    26    25	5 ;     CG2RC0     CG2RC0     CG2R61
   29    27    26	5 ;     NG2R51     CG2RC0     CG2RC0
   29    27    30	5 ;     NG2R51     CG2RC0     CG2R61
   26    27    30	5 ;     CG2RC0     CG2RC0     CG2R61
   31    28    26	5 ;     CG2R51     CG2R51     CG2RC0
   31    28    56	5 ;     CG2R51     CG2R51      HGR51
   26    28    56	5 ;     CG2RC0     CG2R51      HGR51
   31    29    32	5 ;     CG2R51     NG2R51       HGP1
   31    29    27	5 ;     CG2R51     NG2R51     CG2RC0
   32    29    27	5 ;       HGP1     NG2R51     CG2RC0
   27    30    33	5 ;     CG2RC0     CG2R61     CG2R61
   27    30    57	5 ;     CG2RC0     CG2R61      HGR61
   33    30    57	5 ;     CG2R61     CG2R61      HGR61
   28    31    29	5 ;     CG2R51     CG2R51     NG2R51
   28    31    58	5 ;     CG2R51     CG2R51      HGR52
   29    31    58	5 ;     NG2R51     CG2R51      HGR52
   30    33    24	5 ;     CG2R61     CG2R61     CG2R61
   30    33    59	5 ;     CG2R61     CG2R61      HGR61
   24    33    59	5 ;     CG2R61     CG2R61      HGR61

[ dihedrals ]
;	ai	  aj	ak	  al funct			  c0			c1			  c2			c3			  c4			c5
   13     1     4     5	 9 ;     NG3C51      SG3O2     NG3C51     CG3C50
   13     1     4    16	 9 ;     NG3C51      SG3O2     NG3C51     CG2R61
    2     1     4     5	 9 ;      OG2P1      SG3O2     NG3C51     CG3C50
    2     1     4    16	 9 ;      OG2P1      SG3O2     NG3C51     CG2R61
    3     1     4     5	 9 ;      OG2P1      SG3O2     NG3C51     CG3C50
    3     1     4    16	 9 ;      OG2P1      SG3O2     NG3C51     CG2R61
    4     1    13    12	 9 ;     NG3C51      SG3O2     NG3C51     CG3C52
    4     1    13    14	 9 ;     NG3C51      SG3O2     NG3C51      CG331
    2     1    13    12	 9 ;      OG2P1      SG3O2     NG3C51     CG3C52
    2     1    13    14	 9 ;      OG2P1      SG3O2     NG3C51      CG331
    3     1    13    12	 9 ;      OG2P1      SG3O2     NG3C51     CG3C52
    3     1    13    14	 9 ;      OG2P1      SG3O2     NG3C51      CG331
   16     4     5     6	 9 ;     CG2R61     NG3C51     CG3C50      CG321
   16     4     5    10	 9 ;     CG2R61     NG3C51     CG3C50      CG321
   16     4     5    12	 9 ;     CG2R61     NG3C51     CG3C50     CG3C52
    1     4     5     6	 9 ;      SG3O2     NG3C51     CG3C50      CG321
    1     4     5    10	 9 ;      SG3O2     NG3C51     CG3C50      CG321
    1     4     5    12	 9 ;      SG3O2     NG3C51     CG3C50     CG3C52
    5     4    16    17	 9 ;     CG3C50     NG3C51     CG2R61     CG2R61
    5     4    16    22	 9 ;     CG3C50     NG3C51     CG2R61     CG2R61
    1     4    16    17	 9 ;      SG3O2     NG3C51     CG2R61     CG2R61
    1     4    16    22	 9 ;      SG3O2     NG3C51     CG2R61     CG2R61
   10     5     6     7	 9 ;      CG321     CG3C50      CG321      CG314
   10     5     6    34	 9 ;      CG321     CG3C50      CG321       HGA2
   10     5     6    35	 9 ;      CG321     CG3C50      CG321       HGA2
   12     5     6     7	 9 ;     CG3C52     CG3C50      CG321      CG314
   12     5     6    34	 9 ;     CG3C52     CG3C50      CG321       HGA2
   12     5     6    35	 9 ;     CG3C52     CG3C50      CG321       HGA2
    4     5     6     7	 9 ;     NG3C51     CG3C50      CG321      CG314
    4     5     6    34	 9 ;     NG3C51     CG3C50      CG321       HGA2
    4     5     6    35	 9 ;     NG3C51     CG3C50      CG321       HGA2
    6     5    10     9	 9 ;      CG321     CG3C50      CG321      CG324
    6     5    10    39	 9 ;      CG321     CG3C50      CG321       HGA2
    6     5    10    40	 9 ;      CG321     CG3C50      CG321       HGA2
   12     5    10     9	 9 ;     CG3C52     CG3C50      CG321      CG324
   12     5    10    39	 9 ;     CG3C52     CG3C50      CG321       HGA2
   12     5    10    40	 9 ;     CG3C52     CG3C50      CG321       HGA2
    4     5    10     9	 9 ;     NG3C51     CG3C50      CG321      CG324
    4     5    10    39	 9 ;     NG3C51     CG3C50      CG321       HGA2
    4     5    10    40	 9 ;     NG3C51     CG3C50      CG321       HGA2
    6     5    12    13	 9 ;      CG321     CG3C50     CG3C52     NG3C51
    6     5    12    44	 9 ;      CG321     CG3C50     CG3C52       HGA2
    6     5    12    45	 9 ;      CG321     CG3C50     CG3C52       HGA2
   10     5    12    13	 9 ;      CG321     CG3C50     CG3C52     NG3C51
   10     5    12    44	 9 ;      CG321     CG3C50     CG3C52       HGA2
   10     5    12    45	 9 ;      CG321     CG3C50     CG3C52       HGA2
    4     5    12    13	 9 ;     NG3C51     CG3C50     CG3C52     NG3C51
    4     5    12    44	 9 ;     NG3C51     CG3C50     CG3C52       HGA2
    4     5    12    45	 9 ;     NG3C51     CG3C50     CG3C52       HGA2
    5     6     7    11	 9 ;     CG3C50      CG321      CG314      CG331
    5     6     7     8	 9 ;     CG3C50      CG321      CG314      NG3P1
    5     6     7    36	 9 ;     CG3C50      CG321      CG314       HGA1
   34     6     7    11	 9 ;       HGA2      CG321      CG314      CG331
   34     6     7     8	 9 ;       HGA2      CG321      CG314      NG3P1
   34     6     7    36	 9 ;       HGA2      CG321      CG314       HGA1
   35     6     7    11	 9 ;       HGA2      CG321      CG314      CG331
   35     6     7     8	 9 ;       HGA2      CG321      CG314      NG3P1
   35     6     7    36	 9 ;       HGA2      CG321      CG314       HGA1
    8     7    11    41	 9 ;      NG3P1      CG314      CG331       HGA3
    8     7    11    42	 9 ;      NG3P1      CG314      CG331       HGA3
    8     7    11    43	 9 ;      NG3P1      CG314      CG331       HGA3
    6     7    11    41	 9 ;      CG321      CG314      CG331       HGA3
    6     7    11    42	 9 ;      CG321      CG314      CG331       HGA3
    6     7    11    43	 9 ;      CG321      CG314      CG331       HGA3
   36     7    11    41	 9 ;       HGA1      CG314      CG331       HGA3
   36     7    11    42	 9 ;       HGA1      CG314      CG331       HGA3
   36     7    11    43	 9 ;       HGA1      CG314      CG331       HGA3
   11     7     8    23	 9 ;      CG331      CG314      NG3P1      CG324
   11     7     8    15	 9 ;      CG331      CG314      NG3P1       HGP2
   11     7     8     9	 9 ;      CG331      CG314      NG3P1      CG324
    6     7     8    23	 9 ;      CG321      CG314      NG3P1      CG324
    6     7     8    15	 9 ;      CG321      CG314      NG3P1       HGP2
    6     7     8     9	 9 ;      CG321      CG314      NG3P1      CG324
   36     7     8    23	 9 ;       HGA1      CG314      NG3P1      CG324
   36     7     8    15	 9 ;       HGA1      CG314      NG3P1       HGP2
   36     7     8     9	 9 ;       HGA1      CG314      NG3P1      CG324
   15     8    23    24	 9 ;       HGP2      NG3P1      CG324     CG2R61
   15     8    23    53	 9 ;       HGP2      NG3P1      CG324       HGA2
   15     8    23    54	 9 ;       HGP2      NG3P1      CG324       HGA2
    7     8    23    24	 9 ;      CG314      NG3P1      CG324     CG2R61
    7     8    23    53	 9 ;      CG314      NG3P1      CG324       HGA2
    7     8    23    54	 9 ;      CG314      NG3P1      CG324       HGA2
    9     8    23    24	 9 ;      CG324      NG3P1      CG324     CG2R61
    9     8    23    53	 9 ;      CG324      NG3P1      CG324       HGA2
    9     8    23    54	 9 ;      CG324      NG3P1      CG324       HGA2
   23     8     9    10	 9 ;      CG324      NG3P1      CG324      CG321
   23     8     9    37	 9 ;      CG324      NG3P1      CG324       HGA2
   23     8     9    38	 9 ;      CG324      NG3P1      CG324       HGA2
   15     8     9    10	 9 ;       HGP2      NG3P1      CG324      CG321
   15     8     9    37	 9 ;       HGP2      NG3P1      CG324       HGA2
   15     8     9    38	 9 ;       HGP2      NG3P1      CG324       HGA2
    7     8     9    10	 9 ;      CG314      NG3P1      CG324      CG321
    7     8     9    37	 9 ;      CG314      NG3P1      CG324       HGA2
    7     8     9    38	 9 ;      CG314      NG3P1      CG324       HGA2
    8     9    10     5	 9 ;      NG3P1      CG324      CG321     CG3C50
    8     9    10    39	 9 ;      NG3P1      CG324      CG321       HGA2
    8     9    10    40	 9 ;      NG3P1      CG324      CG321       HGA2
   37     9    10     5	 9 ;       HGA2      CG324      CG321     CG3C50
   37     9    10    39	 9 ;       HGA2      CG324      CG321       HGA2
   37     9    10    40	 9 ;       HGA2      CG324      CG321       HGA2
   38     9    10     5	 9 ;       HGA2      CG324      CG321     CG3C50
   38     9    10    39	 9 ;       HGA2      CG324      CG321       HGA2
   38     9    10    40	 9 ;       HGA2      CG324      CG321       HGA2
    5    12    13     1	 9 ;     CG3C50     CG3C52     NG3C51      SG3O2
    5    12    13    14	 9 ;     CG3C50     CG3C52     NG3C51      CG331
   44    12    13     1	 9 ;       HGA2     CG3C52     NG3C51      SG3O2
   44    12    13    14	 9 ;       HGA2     CG3C52     NG3C51      CG331
   45    12    13     1	 9 ;       HGA2     CG3C52     NG3C51      SG3O2
   45    12    13    14	 9 ;       HGA2     CG3C52     NG3C51      CG331
   12    13    14    46	 9 ;     CG3C52     NG3C51      CG331       HGA3
   12    13    14    47	 9 ;     CG3C52     NG3C51      CG331       HGA3
   12    13    14    48	 9 ;     CG3C52     NG3C51      CG331       HGA3
    1    13    14    46	 9 ;      SG3O2     NG3C51      CG331       HGA3
    1    13    14    47	 9 ;      SG3O2     NG3C51      CG331       HGA3
    1    13    14    48	 9 ;      SG3O2     NG3C51      CG331       HGA3
    4    16    17    18	 9 ;     NG3C51     CG2R61     CG2R61     CG2R66
    4    16    17    49	 9 ;     NG3C51     CG2R61     CG2R61      HGR62
   22    16    17    18	 9 ;     CG2R61     CG2R61     CG2R61     CG2R66
   22    16    17    49	 9 ;     CG2R61     CG2R61     CG2R61      HGR62
   17    16    22    21	 9 ;     CG2R61     CG2R61     CG2R61     CG2R61
   17    16    22    52	 9 ;     CG2R61     CG2R61     CG2R61      HGR61
    4    16    22    21	 9 ;     NG3C51     CG2R61     CG2R61     CG2R61
    4    16    22    52	 9 ;     NG3C51     CG2R61     CG2R61      HGR61
   16    17    18    19	 9 ;     CG2R61     CG2R61     CG2R66       FGR1
   16    17    18    20	 9 ;     CG2R61     CG2R61     CG2R66     CG2R61
   49    17    18    19	 9 ;      HGR62     CG2R61     CG2R66       FGR1
   49    17    18    20	 9 ;      HGR62     CG2R61     CG2R66     CG2R61
   19    18    20    21	 9 ;       FGR1     CG2R66     CG2R61     CG2R61
   19    18    20    50	 9 ;       FGR1     CG2R66     CG2R61      HGR62
   17    18    20    21	 9 ;     CG2R61     CG2R66     CG2R61     CG2R61
   17    18    20    50	 9 ;     CG2R61     CG2R66     CG2R61      HGR62
   18    20    21    22	 9 ;     CG2R66     CG2R61     CG2R61     CG2R61
   18    20    21    51	 9 ;     CG2R66     CG2R61     CG2R61      HGR61
   50    20    21    22	 9 ;      HGR62     CG2R61     CG2R61     CG2R61
   50    20    21    51	 9 ;      HGR62     CG2R61     CG2R61      HGR61
   20    21    22    16	 9 ;     CG2R61     CG2R61     CG2R61     CG2R61
   20    21    22    52	 9 ;     CG2R61     CG2R61     CG2R61      HGR61
   51    21    22    16	 9 ;      HGR61     CG2R61     CG2R61     CG2R61
   51    21    22    52	 9 ;      HGR61     CG2R61     CG2R61      HGR61
    8    23    24    25	 9 ;      NG3P1      CG324     CG2R61     CG2R61
    8    23    24    33	 9 ;      NG3P1      CG324     CG2R61     CG2R61
   53    23    24    25	 9 ;       HGA2      CG324     CG2R61     CG2R61
   53    23    24    33	 9 ;       HGA2      CG324     CG2R61     CG2R61
   54    23    24    25	 9 ;       HGA2      CG324     CG2R61     CG2R61
   54    23    24    33	 9 ;       HGA2      CG324     CG2R61     CG2R61
   33    24    25    26	 9 ;     CG2R61     CG2R61     CG2R61     CG2RC0
   33    24    25    55	 9 ;     CG2R61     CG2R61     CG2R61      HGR61
   23    24    25    26	 9 ;      CG324     CG2R61     CG2R61     CG2RC0
   23    24    25    55	 9 ;      CG324     CG2R61     CG2R61      HGR61
   25    24    33    30	 9 ;     CG2R61     CG2R61     CG2R61     CG2R61
   25    24    33    59	 9 ;     CG2R61     CG2R61     CG2R61      HGR61
   23    24    33    30	 9 ;      CG324     CG2R61     CG2R61     CG2R61
   23    24    33    59	 9 ;      CG324     CG2R61     CG2R61      HGR61
   24    25    26    28	 9 ;     CG2R61     CG2R61     CG2RC0     CG2R51
   24    25    26    27	 9 ;     CG2R61     CG2R61     CG2RC0     CG2RC0
   55    25    26    28	 9 ;      HGR61     CG2R61     CG2RC0     CG2R51
   55    25    26    27	 9 ;      HGR61     CG2R61     CG2RC0     CG2RC0
   27    26    28    31	 9 ;     CG2RC0     CG2RC0     CG2R51     CG2R51
   27    26    28    56	 9 ;     CG2RC0     CG2RC0     CG2R51      HGR51
   25    26    28    31	 9 ;     CG2R61     CG2RC0     CG2R51     CG2R51
   25    26    28    56	 9 ;     CG2R61     CG2RC0     CG2R51      HGR51
   28    26    27    29	 9 ;     CG2R51     CG2RC0     CG2RC0     NG2R51
   28    26    27    30	 9 ;     CG2R51     CG2RC0     CG2RC0     CG2R61
   25    26    27    29	 9 ;     CG2R61     CG2RC0     CG2RC0     NG2R51
   25    26    27    30	 9 ;     CG2R61     CG2RC0     CG2RC0     CG2R61
   26    27    29    31	 9 ;     CG2RC0     CG2RC0     NG2R51     CG2R51
   26    27    29    32	 9 ;     CG2RC0     CG2RC0     NG2R51       HGP1
   30    27    29    31	 9 ;     CG2R61     CG2RC0     NG2R51     CG2R51
   30    27    29    32	 9 ;     CG2R61     CG2RC0     NG2R51       HGP1
   29    27    30    33	 9 ;     NG2R51     CG2RC0     CG2R61     CG2R61
   29    27    30    57	 9 ;     NG2R51     CG2RC0     CG2R61      HGR61
   26    27    30    33	 9 ;     CG2RC0     CG2RC0     CG2R61     CG2R61
   26    27    30    57	 9 ;     CG2RC0     CG2RC0     CG2R61      HGR61
   26    28    31    29	 9 ;     CG2RC0     CG2R51     CG2R51     NG2R51
   26    28    31    58	 9 ;     CG2RC0     CG2R51     CG2R51      HGR52
   56    28    31    29	 9 ;      HGR51     CG2R51     CG2R51     NG2R51
   56    28    31    58	 9 ;      HGR51     CG2R51     CG2R51      HGR52
   32    29    31    28	 9 ;       HGP1     NG2R51     CG2R51     CG2R51
   32    29    31    58	 9 ;       HGP1     NG2R51     CG2R51      HGR52
   27    29    31    28	 9 ;     CG2RC0     NG2R51     CG2R51     CG2R51
   27    29    31    58	 9 ;     CG2RC0     NG2R51     CG2R51      HGR52
   27    30    33    24	 9 ;     CG2RC0     CG2R61     CG2R61     CG2R61
   27    30    33    59	 9 ;     CG2RC0     CG2R61     CG2R61      HGR61
   57    30    33    24	 9 ;      HGR61     CG2R61     CG2R61     CG2R61
   57    30    33    59	 9 ;      HGR61     CG2R61     CG2R61      HGR61

