GROningen MAchine for Chemical Simulation
   59
    1LIG      S    1  -1.543   0.342  -1.533
    1LIG     O1    2  -1.565   0.230  -1.621
    1LIG     O2    3  -1.576   0.341  -1.392
    1LIG     N1    4  -1.382   0.392  -1.548
    1LIG     C1    5  -1.365   0.529  -1.605
    1LIG     C2    6  -1.318   0.517  -1.751
    1LIG     C3    7  -1.167   0.497  -1.764
    1LIG     N2    8  -1.092   0.608  -1.693
    1LIG     C4    9  -1.124   0.604  -1.545
    1LIG     C5   10  -1.273   0.620  -1.521
    1LIG     C6   11  -1.122   0.473  -1.907
    1LIG     C7   12  -1.509   0.591  -1.600
    1LIG     N3   13  -1.608   0.482  -1.604
    1LIG     C8   14  -1.740   0.521  -1.549
    1LIG     H1   15  -0.993   0.581  -1.699
    1LIG     C9   16  -1.283   0.309  -1.490
    1LIG    C10   17  -1.221   0.209  -1.565
    1LIG    C11   18  -1.132   0.123  -1.503
    1LIG      F   19  -1.077   0.024  -1.574
    1LIG    C12   20  -1.100   0.137  -1.368
    1LIG    C13   21  -1.157   0.241  -1.295
    1LIG    C14   22  -1.247   0.328  -1.356
    1LIG    C15   23  -1.093   0.751  -1.749
    1LIG    C16   24  -0.962   0.824  -1.735
    1LIG    C17   25  -0.847   0.776  -1.801
    1LIG    C18   26  -0.734   0.860  -1.811
    1LIG    C19   27  -0.738   0.986  -1.750
    1LIG    C20   28  -0.609   0.849  -1.877
    1LIG     N4   29  -0.621   1.051  -1.784
    1LIG    C21   30  -0.845   1.028  -1.671
    1LIG    C22   31  -0.542   0.969  -1.860
    1LIG     H2   32  -0.598   1.146  -1.758
    1LIG    C23   33  -0.957   0.945  -1.664
    1LIG    HC2   34  -1.345   0.608  -1.804
    1LIG    HC3   35  -1.368   0.433  -1.798
    1LIG     HC   36  -1.144   0.405  -1.709
    1LIG    HC4   37  -1.071   0.684  -1.495
    1LIG    HC5   38  -1.091   0.508  -1.504
    1LIG    HC6   39  -1.293   0.600  -1.416
    1LIG    HC7   40  -1.300   0.724  -1.542
    1LIG    HC1   41  -1.013   0.460  -1.910
    1LIG    HC8   42  -1.149   0.559  -1.968
    1LIG    HC9   43  -1.170   0.384  -1.946
    1LIG   HC10   44  -1.524   0.657  -1.685
    1LIG   HC11   45  -1.521   0.648  -1.507
    1LIG   HC12   46  -1.808   0.436  -1.554
    1LIG   HC13   47  -1.781   0.604  -1.607
    1LIG   HC14   48  -1.729   0.551  -1.445
    1LIG   HC15   49  -1.243   0.199  -1.670
    1LIG   HC16   50  -1.033   0.067  -1.321
    1LIG   HC17   51  -1.131   0.253  -1.191
    1LIG   HC18   52  -1.288   0.411  -1.300
    1LIG   HC19   53  -1.118   0.746  -1.855
    1LIG   HC20   54  -1.171   0.808  -1.697
    1LIG   HC21   55  -0.845   0.677  -1.843
    1LIG   HC22   56  -0.572   0.762  -1.929
    1LIG   HC23   57  -0.842   1.122  -1.618
    1LIG   HC24   58  -0.445   0.994  -1.901
    1LIG   HC25   59  -1.041   0.974  -1.603
   0.00000   0.00000   0.00000
