; Created by cgenff_charmm2gmx.py

[ moleculetype ]
; Name			   nrexcl
LIG				 3

[ atoms ]
;	 nr		  type	resnr residue  atom   cgnr	   charge		mass  typeB    chargeB		massB
; residue	 1 LIG rtp LIG q	qsum
     1     CG2R51      1    LIG     C1      1     -0.204     12.011   ;
     2     NG2R51      1    LIG     N1      2     -0.093     14.007   ;
     3     CG2R51      1    LIG     C2      3     -0.202     12.011   ;
     4     CG2R51      1    LIG     C3      4     -0.231     12.011   ;
     5     CG2R51      1    LIG     C4      5     -0.231     12.011   ;
     6     CG2R61      1    LIG     C5      6      0.129     12.011   ;
     7     CG2R61      1    LIG     C6      7     -0.118     12.011   ;
     8     CG2R61      1    LIG     C7      8     -0.118     12.011   ;
     9     CG2R61      1    LIG     C8      9      0.175     12.011   ;
    10     CG2R61      1    LIG     C9     10     -0.118     12.011   ;
    11     CG2R61      1    LIG    C10     11     -0.118     12.011   ;
    12      OG301      1    LIG      O     12     -0.381     15.999   ;
    13      CG311      1    LIG    C11     13      0.507     12.011   ;
    14      NG311      1    LIG     N2     14     -0.551     14.007   ;
    15     CG2D1O      1    LIG    C12     15     -0.039     12.011   ;
    16     HGPAM1      1    LIG    HN1     16      0.354      1.008   ;
    17     CG2DC1      1    LIG    C13     17     -0.242     12.011   ;
    18     CG2DC2      1    LIG    C14     18     -0.150     12.011   ;
    19     CG2DC2      1    LIG    C15     19     -0.378     12.011   ;
    20      CG321      1    LIG    C16     20      0.137     12.011   ;
    21      CG311      1    LIG    C17     21      0.189     12.011   ;
    22      NG311      1    LIG     N3     22     -0.486     14.007   ;
    23     CG2D1O      1    LIG    C18     23      0.215     12.011   ;
    24     HGPAM1      1    LIG    HN2     24      0.358      1.008   ;
    25     CG2DC1      1    LIG    C19     25     -0.435     12.011   ;
    26     CG2DC2      1    LIG    C20     26     -0.142     12.011   ;
    27     CG2DC2      1    LIG    C21     27     -0.306     12.011   ;
    28      NG321      1    LIG     N4     28     -0.745     14.007   ;
    29     HGPAM2      1    LIG     H1     29      0.404      1.008   ;
    30     HGPAM2      1    LIG     H2     30      0.404      1.008   ;
    31     CG2R61      1    LIG    C22     31      0.182     12.011   ;
    32     CG2R61      1    LIG    C23     32     -0.118     12.011   ;
    33     CG2R61      1    LIG    C24     33     -0.111     12.011   ;
    34     CG2R61      1    LIG    C25     34     -0.116     12.011   ;
    35     CG2R61      1    LIG    C26     35     -0.104     12.011   ;
    36     CG2R61      1    LIG    C27     36      0.032     12.011   ;
    37      CLGR1      1    LIG     CL     37     -0.190     35.453   ;
    38      HGR51      1    LIG     HC     38      0.202      1.008   ;
    39      HGR51      1    LIG    HC1     39      0.202      1.008   ;
    40      HGR61      1    LIG    HC2     40      0.116      1.008   ;
    41      HGR61      1    LIG    HC3     41      0.116      1.008   ;
    42      HGR61      1    LIG    HC4     42      0.116      1.008   ;
    43      HGR61      1    LIG    HC5     43      0.116      1.008   ;
    44       HGA4      1    LIG    HC6     44      0.162      1.008   ;
    45       HGA4      1    LIG    HC7     45      0.150      1.008   ;
    46       HGA4      1    LIG    HC8     46      0.150      1.008   ;
    47       HGA4      1    LIG    HC9     47      0.153      1.008   ;
    48       HGA2      1    LIG   HC10     48      0.090      1.008   ;
    49       HGA2      1    LIG   HC11     49      0.090      1.008   ;
    50       HGA4      1    LIG   HC12     50      0.150      1.008   ;
    51       HGA4      1    LIG   HC13     51      0.150      1.008   ;
    52       HGA4      1    LIG   HC14     52      0.150      1.008   ;
    53      HGR61      1    LIG   HC15     53      0.116      1.008   ;
    54      HGR61      1    LIG   HC16     54      0.116      1.008   ;
    55      HGR61      1    LIG   HC17     55      0.116      1.008   ;
    56      HGR62      1    LIG   HC18     56      0.150      1.008   ;
    57       HGA1      1    LIG    H24     57      0.090      1.008   ;
    58       HGA1      1    LIG    H25     58      0.090      1.008   ;
    59        LPH      1    LIG    LP1     59      0.050      0.000   ;

[ bonds ]
;	ai	  aj funct			  c0			c1			  c2			c3
    1     5	 1 ;      CG2R51     CG2R51
    1     2	 1 ;      CG2R51     NG2R51
    1    31	 1 ;      CG2R51     CG2R61
    2     3	 1 ;      NG2R51     CG2R51
    2    20	 1 ;      NG2R51      CG321
    3     4	 1 ;      CG2R51     CG2R51
    3     6	 1 ;      CG2R51     CG2R61
    4     5	 1 ;      CG2R51     CG2R51
    4    38	 1 ;      CG2R51      HGR51
    5    39	 1 ;      CG2R51      HGR51
    6    11	 1 ;      CG2R61     CG2R61
    6     7	 1 ;      CG2R61     CG2R61
    7     8	 1 ;      CG2R61     CG2R61
    7    40	 1 ;      CG2R61      HGR61
    8     9	 1 ;      CG2R61     CG2R61
    8    41	 1 ;      CG2R61      HGR61
    9    10	 1 ;      CG2R61     CG2R61
    9    12	 1 ;      CG2R61      OG301
   10    11	 1 ;      CG2R61     CG2R61
   10    42	 1 ;      CG2R61      HGR61
   11    43	 1 ;      CG2R61      HGR61
   12    13	 1 ;       OG301      CG311
   13    14	 1 ;       CG311      NG311
   13    19	 1 ;       CG311     CG2DC2
   13    57	 1 ;       CG311       HGA1
   14    16	 1 ;       NG311     HGPAM1
   14    15	 1 ;       NG311     CG2D1O
   15    17	 1 ;      CG2D1O     CG2DC1
   15    44	 1 ;      CG2D1O       HGA4
   17    18	 1 ;      CG2DC1     CG2DC2
   17    45	 1 ;      CG2DC1       HGA4
   18    19	 1 ;      CG2DC2     CG2DC2
   18    46	 1 ;      CG2DC2       HGA4
   19    47	 1 ;      CG2DC2       HGA4
   20    21	 1 ;       CG321      CG311
   20    48	 1 ;       CG321       HGA2
   20    49	 1 ;       CG321       HGA2
   21    27	 1 ;       CG311     CG2DC2
   21    22	 1 ;       CG311      NG311
   21    58	 1 ;       CG311       HGA1
   22    24	 1 ;       NG311     HGPAM1
   22    23	 1 ;       NG311     CG2D1O
   23    25	 1 ;      CG2D1O     CG2DC1
   23    28	 1 ;      CG2D1O      NG321
   25    26	 1 ;      CG2DC1     CG2DC2
   25    50	 1 ;      CG2DC1       HGA4
   26    27	 1 ;      CG2DC2     CG2DC2
   26    51	 1 ;      CG2DC2       HGA4
   27    52	 1 ;      CG2DC2       HGA4
   28    29	 1 ;       NG321     HGPAM2
   28    30	 1 ;       NG321     HGPAM2
   31    36	 1 ;      CG2R61     CG2R61
   31    32	 1 ;      CG2R61     CG2R61
   32    33	 1 ;      CG2R61     CG2R61
   32    53	 1 ;      CG2R61      HGR61
   33    34	 1 ;      CG2R61     CG2R61
   33    54	 1 ;      CG2R61      HGR61
   34    35	 1 ;      CG2R61     CG2R61
   34    55	 1 ;      CG2R61      HGR61
   35    36	 1 ;      CG2R61     CG2R61
   35    56	 1 ;      CG2R61      HGR62
   36    37	 1 ;      CG2R61      CLGR1

[ pairs ]
;	ai	  aj funct			  c0			c1			  c2			c3
    1     6	 1
    1    21	 1
    1    48	 1
    1    49	 1
    1    38	 1
    1    37	 1
   59     1	 1
    1    35	 1
    1    33	 1
    1    53	 1
    2    39	 1
    2    36	 1
    2    32	 1
    2    38	 1
    2    11	 1
    2     7	 1
    2    27	 1
    2    22	 1
    2    58	 1
    3    31	 1
    3    21	 1
    3    48	 1
    3    49	 1
    3    39	 1
    3    10	 1
    3    43	 1
    3     8	 1
    3    40	 1
    4    31	 1
    4    20	 1
    4    11	 1
    4     7	 1
    5    20	 1
    5    36	 1
    5    32	 1
    5     6	 1
    6    20	 1
    6    38	 1
    6     9	 1
    6    41	 1
    6    42	 1
    7    10	 1
    7    43	 1
    7    12	 1
    8    11	 1
    8    42	 1
    8    13	 1
    9    40	 1
    9    43	 1
    9    14	 1
    9    19	 1
    9    57	 1
   10    41	 1
   10    13	 1
   11    40	 1
   11    12	 1
   12    41	 1
   12    42	 1
   12    16	 1
   12    15	 1
   12    18	 1
   12    47	 1
   13    17	 1
   13    44	 1
   13    46	 1
   14    18	 1
   14    47	 1
   14    45	 1
   15    19	 1
   15    57	 1
   15    46	 1
   16    19	 1
   16    57	 1
   16    17	 1
   16    44	 1
   17    47	 1
   18    57	 1
   18    44	 1
   19    45	 1
   20    31	 1
   20    26	 1
   20    52	 1
   20    24	 1
   20    23	 1
   21    25	 1
   21    28	 1
   21    51	 1
   22    48	 1
   22    49	 1
   22    26	 1
   22    52	 1
   22    50	 1
   22    29	 1
   22    30	 1
   23    27	 1
   23    58	 1
   23    51	 1
   24    27	 1
   24    58	 1
   24    25	 1
   24    28	 1
   25    29	 1
   25    30	 1
   25    52	 1
   26    58	 1
   26    28	 1
   27    48	 1
   27    49	 1
   27    50	 1
   28    50	 1
   31    39	 1
   31    34	 1
   31    54	 1
   31    56	 1
   32    37	 1
   59    32	 1
   32    35	 1
   32    55	 1
   33    36	 1
   33    56	 1
   34    53	 1
   34    37	 1
   59    34	 1
   35    54	 1
   36    53	 1
   36    55	 1
   37    56	 1
   59    56	 1
   38    39	 1
   40    41	 1
   42    43	 1
   44    45	 1
   45    46	 1
   46    47	 1
   47    57	 1
   48    58	 1
   49    58	 1
   50    51	 1
   51    52	 1
   52    58	 1
   53    54	 1
   54    55	 1
   55    56	 1

[ angles ]
;	ai	  aj	ak funct			c0			  c1			c2			  c3
    5     1     2	5 ;     CG2R51     CG2R51     NG2R51
    5     1    31	5 ;     CG2R51     CG2R51     CG2R61
    2     1    31	5 ;     NG2R51     CG2R51     CG2R61
    3     2     1	5 ;     CG2R51     NG2R51     CG2R51
    3     2    20	5 ;     CG2R51     NG2R51      CG321
    1     2    20	5 ;     CG2R51     NG2R51      CG321
    4     3     6	5 ;     CG2R51     CG2R51     CG2R61
    4     3     2	5 ;     CG2R51     CG2R51     NG2R51
    6     3     2	5 ;     CG2R61     CG2R51     NG2R51
    5     4     3	5 ;     CG2R51     CG2R51     CG2R51
    5     4    38	5 ;     CG2R51     CG2R51      HGR51
    3     4    38	5 ;     CG2R51     CG2R51      HGR51
    4     5     1	5 ;     CG2R51     CG2R51     CG2R51
    4     5    39	5 ;     CG2R51     CG2R51      HGR51
    1     5    39	5 ;     CG2R51     CG2R51      HGR51
   11     6     3	5 ;     CG2R61     CG2R61     CG2R51
   11     6     7	5 ;     CG2R61     CG2R61     CG2R61
    3     6     7	5 ;     CG2R51     CG2R61     CG2R61
    6     7     8	5 ;     CG2R61     CG2R61     CG2R61
    6     7    40	5 ;     CG2R61     CG2R61      HGR61
    8     7    40	5 ;     CG2R61     CG2R61      HGR61
    9     8     7	5 ;     CG2R61     CG2R61     CG2R61
    9     8    41	5 ;     CG2R61     CG2R61      HGR61
    7     8    41	5 ;     CG2R61     CG2R61      HGR61
   10     9    12	5 ;     CG2R61     CG2R61      OG301
   10     9     8	5 ;     CG2R61     CG2R61     CG2R61
   12     9     8	5 ;      OG301     CG2R61     CG2R61
   11    10     9	5 ;     CG2R61     CG2R61     CG2R61
   11    10    42	5 ;     CG2R61     CG2R61      HGR61
    9    10    42	5 ;     CG2R61     CG2R61      HGR61
   10    11     6	5 ;     CG2R61     CG2R61     CG2R61
   10    11    43	5 ;     CG2R61     CG2R61      HGR61
    6    11    43	5 ;     CG2R61     CG2R61      HGR61
    9    12    13	5 ;     CG2R61      OG301      CG311
   12    13    14	5 ;      OG301      CG311      NG311
   12    13    19	5 ;      OG301      CG311     CG2DC2
   12    13    57	5 ;      OG301      CG311       HGA1
   14    13    19	5 ;      NG311      CG311     CG2DC2
   14    13    57	5 ;      NG311      CG311       HGA1
   19    13    57	5 ;     CG2DC2      CG311       HGA1
   16    14    13	5 ;     HGPAM1      NG311      CG311
   16    14    15	5 ;     HGPAM1      NG311     CG2D1O
   13    14    15	5 ;      CG311      NG311     CG2D1O
   14    15    17	5 ;      NG311     CG2D1O     CG2DC1
   14    15    44	5 ;      NG311     CG2D1O       HGA4
   17    15    44	5 ;     CG2DC1     CG2D1O       HGA4
   15    17    18	5 ;     CG2D1O     CG2DC1     CG2DC2
   15    17    45	5 ;     CG2D1O     CG2DC1       HGA4
   18    17    45	5 ;     CG2DC2     CG2DC1       HGA4
   19    18    17	5 ;     CG2DC2     CG2DC2     CG2DC1
   19    18    46	5 ;     CG2DC2     CG2DC2       HGA4
   17    18    46	5 ;     CG2DC1     CG2DC2       HGA4
   13    19    18	5 ;      CG311     CG2DC2     CG2DC2
   13    19    47	5 ;      CG311     CG2DC2       HGA4
   18    19    47	5 ;     CG2DC2     CG2DC2       HGA4
    2    20    21	5 ;     NG2R51      CG321      CG311
    2    20    48	5 ;     NG2R51      CG321       HGA2
    2    20    49	5 ;     NG2R51      CG321       HGA2
   21    20    48	5 ;      CG311      CG321       HGA2
   21    20    49	5 ;      CG311      CG321       HGA2
   48    20    49	5 ;       HGA2      CG321       HGA2
   20    21    27	5 ;      CG321      CG311     CG2DC2
   20    21    22	5 ;      CG321      CG311      NG311
   20    21    58	5 ;      CG321      CG311       HGA1
   27    21    22	5 ;     CG2DC2      CG311      NG311
   27    21    58	5 ;     CG2DC2      CG311       HGA1
   22    21    58	5 ;      NG311      CG311       HGA1
   21    22    24	5 ;      CG311      NG311     HGPAM1
   21    22    23	5 ;      CG311      NG311     CG2D1O
   24    22    23	5 ;     HGPAM1      NG311     CG2D1O
   22    23    25	5 ;      NG311     CG2D1O     CG2DC1
   22    23    28	5 ;      NG311     CG2D1O      NG321
   25    23    28	5 ;     CG2DC1     CG2D1O      NG321
   26    25    23	5 ;     CG2DC2     CG2DC1     CG2D1O
   26    25    50	5 ;     CG2DC2     CG2DC1       HGA4
   23    25    50	5 ;     CG2D1O     CG2DC1       HGA4
   27    26    25	5 ;     CG2DC2     CG2DC2     CG2DC1
   27    26    51	5 ;     CG2DC2     CG2DC2       HGA4
   25    26    51	5 ;     CG2DC1     CG2DC2       HGA4
   21    27    26	5 ;      CG311     CG2DC2     CG2DC2
   21    27    52	5 ;      CG311     CG2DC2       HGA4
   26    27    52	5 ;     CG2DC2     CG2DC2       HGA4
   23    28    29	5 ;     CG2D1O      NG321     HGPAM2
   23    28    30	5 ;     CG2D1O      NG321     HGPAM2
   29    28    30	5 ;     HGPAM2      NG321     HGPAM2
    1    31    36	5 ;     CG2R51     CG2R61     CG2R61
    1    31    32	5 ;     CG2R51     CG2R61     CG2R61
   36    31    32	5 ;     CG2R61     CG2R61     CG2R61
   31    32    33	5 ;     CG2R61     CG2R61     CG2R61
   31    32    53	5 ;     CG2R61     CG2R61      HGR61
   33    32    53	5 ;     CG2R61     CG2R61      HGR61
   32    33    34	5 ;     CG2R61     CG2R61     CG2R61
   32    33    54	5 ;     CG2R61     CG2R61      HGR61
   34    33    54	5 ;     CG2R61     CG2R61      HGR61
   35    34    33	5 ;     CG2R61     CG2R61     CG2R61
   35    34    55	5 ;     CG2R61     CG2R61      HGR61
   33    34    55	5 ;     CG2R61     CG2R61      HGR61
   36    35    34	5 ;     CG2R61     CG2R61     CG2R61
   36    35    56	5 ;     CG2R61     CG2R61      HGR62
   34    35    56	5 ;     CG2R61     CG2R61      HGR62
   31    36    37	5 ;     CG2R61     CG2R61      CLGR1
   31    36    35	5 ;     CG2R61     CG2R61     CG2R61
   37    36    35	5 ;      CLGR1     CG2R61     CG2R61

[ dihedrals ]
;	ai	  aj	ak	  al funct			  c0			c1			  c2			c3			  c4			c5
    2     1     5     4	 9 ;     NG2R51     CG2R51     CG2R51     CG2R51
    2     1     5    39	 9 ;     NG2R51     CG2R51     CG2R51      HGR51
   31     1     5     4	 9 ;     CG2R61     CG2R51     CG2R51     CG2R51
   31     1     5    39	 9 ;     CG2R61     CG2R51     CG2R51      HGR51
    5     1     2     3	 9 ;     CG2R51     CG2R51     NG2R51     CG2R51
    5     1     2    20	 9 ;     CG2R51     CG2R51     NG2R51      CG321
   31     1     2     3	 9 ;     CG2R61     CG2R51     NG2R51     CG2R51
   31     1     2    20	 9 ;     CG2R61     CG2R51     NG2R51      CG321
    5     1    31    36	 9 ;     CG2R51     CG2R51     CG2R61     CG2R61
    5     1    31    32	 9 ;     CG2R51     CG2R51     CG2R61     CG2R61
    2     1    31    36	 9 ;     NG2R51     CG2R51     CG2R61     CG2R61
    2     1    31    32	 9 ;     NG2R51     CG2R51     CG2R61     CG2R61
    1     2     3     4	 9 ;     CG2R51     NG2R51     CG2R51     CG2R51
    1     2     3     6	 9 ;     CG2R51     NG2R51     CG2R51     CG2R61
   20     2     3     4	 9 ;      CG321     NG2R51     CG2R51     CG2R51
   20     2     3     6	 9 ;      CG321     NG2R51     CG2R51     CG2R61
    3     2    20    21	 9 ;     CG2R51     NG2R51      CG321      CG311
    3     2    20    48	 9 ;     CG2R51     NG2R51      CG321       HGA2
    3     2    20    49	 9 ;     CG2R51     NG2R51      CG321       HGA2
    1     2    20    21	 9 ;     CG2R51     NG2R51      CG321      CG311
    1     2    20    48	 9 ;     CG2R51     NG2R51      CG321       HGA2
    1     2    20    49	 9 ;     CG2R51     NG2R51      CG321       HGA2
    6     3     4     5	 9 ;     CG2R61     CG2R51     CG2R51     CG2R51
    6     3     4    38	 9 ;     CG2R61     CG2R51     CG2R51      HGR51
    2     3     4     5	 9 ;     NG2R51     CG2R51     CG2R51     CG2R51
    2     3     4    38	 9 ;     NG2R51     CG2R51     CG2R51      HGR51
    4     3     6    11	 9 ;     CG2R51     CG2R51     CG2R61     CG2R61
    4     3     6     7	 9 ;     CG2R51     CG2R51     CG2R61     CG2R61
    2     3     6    11	 9 ;     NG2R51     CG2R51     CG2R61     CG2R61
    2     3     6     7	 9 ;     NG2R51     CG2R51     CG2R61     CG2R61
    3     4     5     1	 9 ;     CG2R51     CG2R51     CG2R51     CG2R51
    3     4     5    39	 9 ;     CG2R51     CG2R51     CG2R51      HGR51
   38     4     5     1	 9 ;      HGR51     CG2R51     CG2R51     CG2R51
   38     4     5    39	 9 ;      HGR51     CG2R51     CG2R51      HGR51
    3     6    11    10	 9 ;     CG2R51     CG2R61     CG2R61     CG2R61
    3     6    11    43	 9 ;     CG2R51     CG2R61     CG2R61      HGR61
    7     6    11    10	 9 ;     CG2R61     CG2R61     CG2R61     CG2R61
    7     6    11    43	 9 ;     CG2R61     CG2R61     CG2R61      HGR61
   11     6     7     8	 9 ;     CG2R61     CG2R61     CG2R61     CG2R61
   11     6     7    40	 9 ;     CG2R61     CG2R61     CG2R61      HGR61
    3     6     7     8	 9 ;     CG2R51     CG2R61     CG2R61     CG2R61
    3     6     7    40	 9 ;     CG2R51     CG2R61     CG2R61      HGR61
    6     7     8     9	 9 ;     CG2R61     CG2R61     CG2R61     CG2R61
    6     7     8    41	 9 ;     CG2R61     CG2R61     CG2R61      HGR61
   40     7     8     9	 9 ;      HGR61     CG2R61     CG2R61     CG2R61
   40     7     8    41	 9 ;      HGR61     CG2R61     CG2R61      HGR61
    7     8     9    10	 9 ;     CG2R61     CG2R61     CG2R61     CG2R61
    7     8     9    12	 9 ;     CG2R61     CG2R61     CG2R61      OG301
   41     8     9    10	 9 ;      HGR61     CG2R61     CG2R61     CG2R61
   41     8     9    12	 9 ;      HGR61     CG2R61     CG2R61      OG301
   12     9    10    11	 9 ;      OG301     CG2R61     CG2R61     CG2R61
   12     9    10    42	 9 ;      OG301     CG2R61     CG2R61      HGR61
    8     9    10    11	 9 ;     CG2R61     CG2R61     CG2R61     CG2R61
    8     9    10    42	 9 ;     CG2R61     CG2R61     CG2R61      HGR61
   10     9    12    13	 9 ;     CG2R61     CG2R61      OG301      CG311
    8     9    12    13	 9 ;     CG2R61     CG2R61      OG301      CG311
    9    10    11     6	 9 ;     CG2R61     CG2R61     CG2R61     CG2R61
    9    10    11    43	 9 ;     CG2R61     CG2R61     CG2R61      HGR61
   42    10    11     6	 9 ;      HGR61     CG2R61     CG2R61     CG2R61
   42    10    11    43	 9 ;      HGR61     CG2R61     CG2R61      HGR61
    9    12    13    14	 9 ;     CG2R61      OG301      CG311      NG311
    9    12    13    19	 9 ;     CG2R61      OG301      CG311     CG2DC2
    9    12    13    57	 9 ;     CG2R61      OG301      CG311       HGA1
   12    13    14    16	 9 ;      OG301      CG311      NG311     HGPAM1
   12    13    14    15	 9 ;      OG301      CG311      NG311     CG2D1O
   19    13    14    16	 9 ;     CG2DC2      CG311      NG311     HGPAM1
   19    13    14    15	 9 ;     CG2DC2      CG311      NG311     CG2D1O
   57    13    14    16	 9 ;       HGA1      CG311      NG311     HGPAM1
   57    13    14    15	 9 ;       HGA1      CG311      NG311     CG2D1O
   12    13    19    18	 9 ;      OG301      CG311     CG2DC2     CG2DC2
   12    13    19    47	 9 ;      OG301      CG311     CG2DC2       HGA4
   14    13    19    18	 9 ;      NG311      CG311     CG2DC2     CG2DC2
   14    13    19    47	 9 ;      NG311      CG311     CG2DC2       HGA4
   57    13    19    18	 9 ;       HGA1      CG311     CG2DC2     CG2DC2
   57    13    19    47	 9 ;       HGA1      CG311     CG2DC2       HGA4
   16    14    15    17	 9 ;     HGPAM1      NG311     CG2D1O     CG2DC1
   16    14    15    44	 9 ;     HGPAM1      NG311     CG2D1O       HGA4
   13    14    15    17	 9 ;      CG311      NG311     CG2D1O     CG2DC1
   13    14    15    44	 9 ;      CG311      NG311     CG2D1O       HGA4
   14    15    17    18	 9 ;      NG311     CG2D1O     CG2DC1     CG2DC2
   14    15    17    45	 9 ;      NG311     CG2D1O     CG2DC1       HGA4
   44    15    17    18	 9 ;       HGA4     CG2D1O     CG2DC1     CG2DC2
   44    15    17    45	 9 ;       HGA4     CG2D1O     CG2DC1       HGA4
   15    17    18    19	 9 ;     CG2D1O     CG2DC1     CG2DC2     CG2DC2
   15    17    18    46	 9 ;     CG2D1O     CG2DC1     CG2DC2       HGA4
   45    17    18    19	 9 ;       HGA4     CG2DC1     CG2DC2     CG2DC2
   45    17    18    46	 9 ;       HGA4     CG2DC1     CG2DC2       HGA4
   17    18    19    13	 9 ;     CG2DC1     CG2DC2     CG2DC2      CG311
   17    18    19    47	 9 ;     CG2DC1     CG2DC2     CG2DC2       HGA4
   46    18    19    13	 9 ;       HGA4     CG2DC2     CG2DC2      CG311
   46    18    19    47	 9 ;       HGA4     CG2DC2     CG2DC2       HGA4
    2    20    21    27	 9 ;     NG2R51      CG321      CG311     CG2DC2
    2    20    21    22	 9 ;     NG2R51      CG321      CG311      NG311
    2    20    21    58	 9 ;     NG2R51      CG321      CG311       HGA1
   48    20    21    27	 9 ;       HGA2      CG321      CG311     CG2DC2
   48    20    21    22	 9 ;       HGA2      CG321      CG311      NG311
   48    20    21    58	 9 ;       HGA2      CG321      CG311       HGA1
   49    20    21    27	 9 ;       HGA2      CG321      CG311     CG2DC2
   49    20    21    22	 9 ;       HGA2      CG321      CG311      NG311
   49    20    21    58	 9 ;       HGA2      CG321      CG311       HGA1
   20    21    27    26	 9 ;      CG321      CG311     CG2DC2     CG2DC2
   20    21    27    52	 9 ;      CG321      CG311     CG2DC2       HGA4
   22    21    27    26	 9 ;      NG311      CG311     CG2DC2     CG2DC2
   22    21    27    52	 9 ;      NG311      CG311     CG2DC2       HGA4
   58    21    27    26	 9 ;       HGA1      CG311     CG2DC2     CG2DC2
   58    21    27    52	 9 ;       HGA1      CG311     CG2DC2       HGA4
   20    21    22    24	 9 ;      CG321      CG311      NG311     HGPAM1
   20    21    22    23	 9 ;      CG321      CG311      NG311     CG2D1O
   27    21    22    24	 9 ;     CG2DC2      CG311      NG311     HGPAM1
   27    21    22    23	 9 ;     CG2DC2      CG311      NG311     CG2D1O
   58    21    22    24	 9 ;       HGA1      CG311      NG311     HGPAM1
   58    21    22    23	 9 ;       HGA1      CG311      NG311     CG2D1O
   21    22    23    25	 9 ;      CG311      NG311     CG2D1O     CG2DC1
   21    22    23    28	 9 ;      CG311      NG311     CG2D1O      NG321
   24    22    23    25	 9 ;     HGPAM1      NG311     CG2D1O     CG2DC1
   24    22    23    28	 9 ;     HGPAM1      NG311     CG2D1O      NG321
   22    23    25    26	 9 ;      NG311     CG2D1O     CG2DC1     CG2DC2
   22    23    25    50	 9 ;      NG311     CG2D1O     CG2DC1       HGA4
   28    23    25    26	 9 ;      NG321     CG2D1O     CG2DC1     CG2DC2
   28    23    25    50	 9 ;      NG321     CG2D1O     CG2DC1       HGA4
   22    23    28    29	 9 ;      NG311     CG2D1O      NG321     HGPAM2
   22    23    28    30	 9 ;      NG311     CG2D1O      NG321     HGPAM2
   25    23    28    29	 9 ;     CG2DC1     CG2D1O      NG321     HGPAM2
   25    23    28    30	 9 ;     CG2DC1     CG2D1O      NG321     HGPAM2
   23    25    26    27	 9 ;     CG2D1O     CG2DC1     CG2DC2     CG2DC2
   23    25    26    51	 9 ;     CG2D1O     CG2DC1     CG2DC2       HGA4
   50    25    26    27	 9 ;       HGA4     CG2DC1     CG2DC2     CG2DC2
   50    25    26    51	 9 ;       HGA4     CG2DC1     CG2DC2       HGA4
   25    26    27    21	 9 ;     CG2DC1     CG2DC2     CG2DC2      CG311
   25    26    27    52	 9 ;     CG2DC1     CG2DC2     CG2DC2       HGA4
   51    26    27    21	 9 ;       HGA4     CG2DC2     CG2DC2      CG311
   51    26    27    52	 9 ;       HGA4     CG2DC2     CG2DC2       HGA4
    1    31    36    37	 9 ;     CG2R51     CG2R61     CG2R61      CLGR1
    1    31    36    35	 9 ;     CG2R51     CG2R61     CG2R61     CG2R61
   32    31    36    37	 9 ;     CG2R61     CG2R61     CG2R61      CLGR1
   32    31    36    35	 9 ;     CG2R61     CG2R61     CG2R61     CG2R61
    1    31    32    33	 9 ;     CG2R51     CG2R61     CG2R61     CG2R61
    1    31    32    53	 9 ;     CG2R51     CG2R61     CG2R61      HGR61
   36    31    32    33	 9 ;     CG2R61     CG2R61     CG2R61     CG2R61
   36    31    32    53	 9 ;     CG2R61     CG2R61     CG2R61      HGR61
   31    32    33    34	 9 ;     CG2R61     CG2R61     CG2R61     CG2R61
   31    32    33    54	 9 ;     CG2R61     CG2R61     CG2R61      HGR61
   53    32    33    34	 9 ;      HGR61     CG2R61     CG2R61     CG2R61
   53    32    33    54	 9 ;      HGR61     CG2R61     CG2R61      HGR61
   32    33    34    35	 9 ;     CG2R61     CG2R61     CG2R61     CG2R61
   32    33    34    55	 9 ;     CG2R61     CG2R61     CG2R61      HGR61
   54    33    34    35	 9 ;      HGR61     CG2R61     CG2R61     CG2R61
   54    33    34    55	 9 ;      HGR61     CG2R61     CG2R61      HGR61
   33    34    35    36	 9 ;     CG2R61     CG2R61     CG2R61     CG2R61
   33    34    35    56	 9 ;     CG2R61     CG2R61     CG2R61      HGR62
   55    34    35    36	 9 ;      HGR61     CG2R61     CG2R61     CG2R61
   55    34    35    56	 9 ;      HGR61     CG2R61     CG2R61      HGR62
   34    35    36    31	 9 ;     CG2R61     CG2R61     CG2R61     CG2R61
   34    35    36    37	 9 ;     CG2R61     CG2R61     CG2R61      CLGR1
   56    35    36    31	 9 ;      HGR62     CG2R61     CG2R61     CG2R61
   56    35    36    37	 9 ;      HGR62     CG2R61     CG2R61      CLGR1

[ dihedrals ]
;	ai	  aj	ak	  al funct			  c0			c1			  c2			c3
   15    17    14    44	 2
   23    25    22    28	 2

[ virtual_sites2 ]
; Site   from				funct a
   59    37    36     2   -0.164

[ exclusions ]
;	ai	  aj
   37    59
   59    36
   59    31
   59    35
   59     1
   59    32
   59    34
   59    56

