GROtesk MACabre and Sinister
   59
    1LIG     C1    1  -1.196   0.249  -1.621
    1LIG     N1    2  -1.288   0.355  -1.629
    1LIG     C2    3  -1.253   0.440  -1.735
    1LIG     C3    4  -1.143   0.383  -1.796
    1LIG     C4    5  -1.110   0.265  -1.728
    1LIG     C5    6  -1.317   0.567  -1.772
    1LIG     C6    7  -1.430   0.565  -1.856
    1LIG     C7    8  -1.495   0.683  -1.892
    1LIG     C8    9  -1.450   0.805  -1.844
    1LIG     C9   10  -1.337   0.810  -1.763
    1LIG    C10   11  -1.274   0.691  -1.725
    1LIG      O   12  -1.508   0.925  -1.877
    1LIG    C11   13  -1.571   0.997  -1.776
    1LIG     N2   14  -1.540   1.127  -1.755
    1LIG    C12   15  -1.602   1.190  -1.653
    1LIG    HN1   16  -1.473   1.176  -1.815
    1LIG    C13   17  -1.693   1.128  -1.570
    1LIG    C14   18  -1.725   0.996  -1.594
    1LIG    C15   19  -1.663   0.928  -1.699
    1LIG    C16   20  -1.393   0.385  -1.531
    1LIG    C17   21  -1.533   0.338  -1.570
    1LIG     N3   22  -1.641   0.384  -1.502
    1LIG    C18   23  -1.764   0.354  -1.548
    1LIG    HN2   24  -1.630   0.440  -1.418
    1LIG    C19   25  -1.785   0.279  -1.662
    1LIG    C20   26  -1.674   0.226  -1.728
    1LIG    C21   27  -1.547   0.255  -1.681
    1LIG     N4   28  -1.872   0.408  -1.479
    1LIG     H1   29  -1.835   0.462  -1.402
    1LIG     H2   30  -1.937   0.337  -1.447
    1LIG    C22   31  -1.193   0.137  -1.522
    1LIG    C23   32  -1.232   0.007  -1.561
    1LIG    C24   33  -1.220  -0.103  -1.476
    1LIG    C25   34  -1.163  -0.089  -1.351
    1LIG    C26   35  -1.122   0.037  -1.309
    1LIG    C27   36  -1.140   0.149  -1.391
    1LIG     CL   37  -1.097   0.301  -1.320
    1LIG     HC   38  -1.090   0.424  -1.882
    1LIG    HC1   39  -1.030   0.197  -1.755
    1LIG    HC2   40  -1.467   0.470  -1.892
    1LIG    HC3   41  -1.581   0.679  -1.958
    1LIG    HC4   42  -1.298   0.905  -1.730
    1LIG    HC5   43  -1.189   0.695  -1.657
    1LIG    HC6   44  -1.579   1.294  -1.636
    1LIG    HC7   45  -1.738   1.182  -1.488
    1LIG    HC8   46  -1.798   0.945  -1.533
    1LIG    HC9   47  -1.686   0.824  -1.720
    1LIG   HC10   48  -1.396   0.493  -1.518
    1LIG   HC11   49  -1.366   0.339  -1.436
    1LIG   HC12   50  -1.885   0.262  -1.700
    1LIG   HC13   51  -1.688   0.163  -1.815
    1LIG   HC14   52  -1.459   0.213  -1.730
    1LIG   HC15   53  -1.272  -0.007  -1.660
    1LIG   HC16   54  -1.256  -0.200  -1.509
    1LIG   HC17   55  -1.149  -0.175  -1.287
    1LIG   HC18   56  -1.077   0.049  -1.212
    1LIG    H24   57  -1.650   1.026  -1.845
    1LIG    H25   58  -1.525   0.252  -1.503
    1LIG    LP1   59  -1.056   0.445  -1.252
   0.00000   0.00000   0.00000
