Getting the Right Output Means no Artefacts in Calculating Stuff
   56
    1LIG      S    1  -1.606   0.373  -1.520
    1LIG     O1    2  -1.659   0.249  -1.572
    1LIG     O2    3  -1.649   0.432  -1.396
    1LIG     N1    4  -1.438   0.364  -1.518
    1LIG     C1    5  -1.369   0.458  -1.612
    1LIG     C2    6  -1.317   0.380  -1.734
    1LIG     C3    7  -1.181   0.313  -1.711
    1LIG     N2    8  -1.079   0.415  -1.661
    1LIG     C4    9  -1.126   0.472  -1.530
    1LIG     C5   10  -1.259   0.542  -1.545
    1LIG     C6   11  -1.128   0.238  -1.832
    1LIG     C7   12  -1.482   0.558  -1.655
    1LIG     N3   13  -1.613   0.490  -1.642
    1LIG     C8   14  -1.726   0.585  -1.628
    1LIG     H1   15  -0.995   0.360  -1.637
    1LIG     C9   16  -1.378   0.282  -1.419
    1LIG    C10   17  -1.350   0.148  -1.446
    1LIG    C11   18  -1.300   0.068  -1.344
    1LIG      F   19  -1.278  -0.062  -1.368
    1LIG    C12   20  -1.275   0.119  -1.217
    1LIG    C13   21  -1.296   0.255  -1.193
    1LIG    C14   22  -1.347   0.336  -1.294
    1LIG    C15   23  -1.026   0.517  -1.763
    1LIG    C16   24  -0.880   0.551  -1.741
    1LIG    C17   25  -0.843   0.677  -1.691
    1LIG    C18   26  -0.709   0.717  -1.694
    1LIG    C19   27  -0.613   0.630  -1.743
    1LIG    C20   28  -0.646   0.501  -1.782
    1LIG    C21   29  -0.780   0.461  -1.781
    1LIG     O3   30  -0.482   0.668  -1.756
    1LIG     H2   31  -0.469   0.709  -1.843
    1LIG    HC2   32  -1.389   0.302  -1.759
    1LIG    HC3   33  -1.308   0.448  -1.818
    1LIG     HC   34  -1.194   0.240  -1.631
    1LIG    HC4   35  -1.052   0.544  -1.494
    1LIG    HC5   36  -1.135   0.392  -1.457
    1LIG    HC6   37  -1.244   0.632  -1.605
    1LIG    HC7   38  -1.294   0.573  -1.446
    1LIG    HC8   39  -1.467   0.589  -1.758
    1LIG    HC9   40  -1.481   0.646  -1.590
    1LIG    HC1   41  -1.367   0.107  -1.544
    1LIG   HC10   42  -1.238   0.055  -1.138
    1LIG   HC11   43  -1.274   0.296  -1.095
    1LIG   HC12   44  -1.362   0.442  -1.276
    1LIG   HC13   45  -1.037   0.475  -1.863
    1LIG   HC14   46  -1.085   0.608  -1.755
    1LIG   HC15   47  -0.918   0.743  -1.651
    1LIG   HC16   48  -0.681   0.815  -1.659
    1LIG   HC17   49  -0.569   0.432  -1.813
    1LIG   HC18   50  -0.806   0.361  -1.810
    1LIG   HC19   51  -1.819   0.529  -1.620
    1LIG   HC20   52  -1.731   0.650  -1.716
    1LIG   HC21   53  -1.712   0.646  -1.539
    1LIG   HC22   54  -1.178   0.141  -1.839
    1LIG   HC23   55  -1.021   0.223  -1.823
    1LIG   HC24   56  -1.149   0.295  -1.923
   0.00000   0.00000   0.00000
