; Created by cgenff_charmm2gmx.py

[ moleculetype ]
; Name			   nrexcl
LIG				 3

[ atoms ]
;	 nr		  type	resnr residue  atom   cgnr	   charge		mass  typeB    chargeB		massB
; residue	 1 LIG rtp LIG q	qsum
     1      SG3O2      1    LIG      S      1      0.301     32.060   ;
     2      OG2P1      1    LIG     O1      2     -0.242     15.999   ;
     3      OG2P1      1    LIG     O2      3     -0.242     15.999   ;
     4     NG3C51      1    LIG     N1      4     -0.405     14.007   ;
     5     CG3C50      1    LIG     C1      5      0.255     12.011   ;
     6      CG321      1    LIG     C2      6     -0.124     12.011   ;
     7      CG314      1    LIG     C3      7      0.198     12.011   ;
     8      NG3P1      1    LIG     N2      8     -0.462     14.007   ;
     9      CG324      1    LIG     C4      9      0.103     12.011   ;
    10      CG321      1    LIG     C5     10     -0.123     12.011   ;
    11      CG331      1    LIG     C6     11     -0.213     12.011   ;
    12     CG3C52      1    LIG     C7     12     -0.072     12.011   ;
    13     NG3C51      1    LIG     N3     13     -0.309     14.007   ;
    14      CG331      1    LIG     C8     14     -0.027     12.011   ;
    15       HGP2      1    LIG     H1     15      0.319      1.008   ;
    16     CG2R61      1    LIG     C9     16      0.378     12.011   ;
    17     CG2R61      1    LIG    C10     17     -0.169     12.011   ;
    18     CG2R66      1    LIG    C11     18      0.105     12.011   ;
    19       FGR1      1    LIG      F     19     -0.211     18.998   ;
    20     CG2R61      1    LIG    C12     20     -0.107     12.011   ;
    21     CG2R61      1    LIG    C13     21     -0.149     12.011   ;
    22     CG2R61      1    LIG    C14     22     -0.107     12.011   ;
    23      CG324      1    LIG    C15     23      0.119     12.011   ;
    24     CG2R61      1    LIG    C16     24      0.066     12.011   ;
    25     CG2R61      1    LIG    C17     25     -0.118     12.011   ;
    26     CG2R61      1    LIG    C18     26     -0.112     12.011   ;
    27     CG2R61      1    LIG    C19     27      0.108     12.011   ;
    28     CG2R61      1    LIG    C20     28     -0.112     12.011   ;
    29     CG2R61      1    LIG    C21     29     -0.118     12.011   ;
    30      OG311      1    LIG     O3     30     -0.531     15.999   ;
    31       HGP1      1    LIG     H2     31      0.421      1.008   ;
    32       HGA2      1    LIG    HC2     32      0.090      1.008   ;
    33       HGA2      1    LIG    HC3     33      0.090      1.008   ;
    34       HGA1      1    LIG     HC     34      0.090      1.008   ;
    35       HGA2      1    LIG    HC4     35      0.090      1.008   ;
    36       HGA2      1    LIG    HC5     36      0.090      1.008   ;
    37       HGA2      1    LIG    HC6     37      0.090      1.008   ;
    38       HGA2      1    LIG    HC7     38      0.090      1.008   ;
    39       HGA2      1    LIG    HC8     39      0.090      1.008   ;
    40       HGA2      1    LIG    HC9     40      0.090      1.008   ;
    41      HGR62      1    LIG    HC1     41      0.175      1.008   ;
    42      HGR62      1    LIG   HC10     42      0.179      1.008   ;
    43      HGR61      1    LIG   HC11     43      0.116      1.008   ;
    44      HGR61      1    LIG   HC12     44      0.116      1.008   ;
    45       HGA2      1    LIG   HC13     45      0.090      1.008   ;
    46       HGA2      1    LIG   HC14     46      0.090      1.008   ;
    47      HGR61      1    LIG   HC15     47      0.116      1.008   ;
    48      HGR61      1    LIG   HC16     48      0.116      1.008   ;
    49      HGR61      1    LIG   HC17     49      0.116      1.008   ;
    50      HGR61      1    LIG   HC18     50      0.116      1.008   ;
    51       HGA3      1    LIG   HC19     51      0.090      1.008   ;
    52       HGA3      1    LIG   HC20     52      0.090      1.008   ;
    53       HGA3      1    LIG   HC21     53      0.090      1.008   ;
    54       HGA3      1    LIG   HC22     54      0.090      1.008   ;
    55       HGA3      1    LIG   HC23     55      0.090      1.008   ;
    56       HGA3      1    LIG   HC24     56      0.090      1.008   ;

[ bonds ]
;	ai	  aj funct			  c0			c1			  c2			c3
    1     4	 1 ;       SG3O2     NG3C51
    1    13	 1 ;       SG3O2     NG3C51
    1     2	 1 ;       SG3O2      OG2P1
    1     3	 1 ;       SG3O2      OG2P1
    4     5	 1 ;      NG3C51     CG3C50
    4    16	 1 ;      NG3C51     CG2R61
    5     6	 1 ;      CG3C50      CG321
    5    10	 1 ;      CG3C50      CG321
    5    12	 1 ;      CG3C50     CG3C52
    6     7	 1 ;       CG321      CG314
    6    32	 1 ;       CG321       HGA2
    6    33	 1 ;       CG321       HGA2
    7    11	 1 ;       CG314      CG331
    7     8	 1 ;       CG314      NG3P1
    7    34	 1 ;       CG314       HGA1
    8    23	 1 ;       NG3P1      CG324
    8    15	 1 ;       NG3P1       HGP2
    8     9	 1 ;       NG3P1      CG324
    9    10	 1 ;       CG324      CG321
    9    35	 1 ;       CG324       HGA2
    9    36	 1 ;       CG324       HGA2
   10    37	 1 ;       CG321       HGA2
   10    38	 1 ;       CG321       HGA2
   11    54	 1 ;       CG331       HGA3
   11    55	 1 ;       CG331       HGA3
   11    56	 1 ;       CG331       HGA3
   12    13	 1 ;      CG3C52     NG3C51
   12    39	 1 ;      CG3C52       HGA2
   12    40	 1 ;      CG3C52       HGA2
   13    14	 1 ;      NG3C51      CG331
   14    51	 1 ;       CG331       HGA3
   14    52	 1 ;       CG331       HGA3
   14    53	 1 ;       CG331       HGA3
   16    17	 1 ;      CG2R61     CG2R61
   16    22	 1 ;      CG2R61     CG2R61
   17    18	 1 ;      CG2R61     CG2R66
   17    41	 1 ;      CG2R61      HGR62
   18    19	 1 ;      CG2R66       FGR1
   18    20	 1 ;      CG2R66     CG2R61
   20    21	 1 ;      CG2R61     CG2R61
   20    42	 1 ;      CG2R61      HGR62
   21    22	 1 ;      CG2R61     CG2R61
   21    43	 1 ;      CG2R61      HGR61
   22    44	 1 ;      CG2R61      HGR61
   23    24	 1 ;       CG324     CG2R61
   23    45	 1 ;       CG324       HGA2
   23    46	 1 ;       CG324       HGA2
   24    29	 1 ;      CG2R61     CG2R61
   24    25	 1 ;      CG2R61     CG2R61
   25    26	 1 ;      CG2R61     CG2R61
   25    47	 1 ;      CG2R61      HGR61
   26    27	 1 ;      CG2R61     CG2R61
   26    48	 1 ;      CG2R61      HGR61
   27    30	 1 ;      CG2R61      OG311
   27    28	 1 ;      CG2R61     CG2R61
   28    29	 1 ;      CG2R61     CG2R61
   28    49	 1 ;      CG2R61      HGR61
   29    50	 1 ;      CG2R61      HGR61
   30    31	 1 ;       OG311       HGP1

[ pairs ]
;	ai	  aj funct			  c0			c1			  c2			c3
    1     6	 1
    1    10	 1
    1    17	 1
    1    22	 1
    1    39	 1
    1    40	 1
    1    51	 1
    1    52	 1
    1    53	 1
    2     5	 1
    2    16	 1
    2    12	 1
    2    14	 1
    3     5	 1
    3    16	 1
    3    12	 1
    3    14	 1
    4    14	 1
    4     7	 1
    4    32	 1
    4    33	 1
    4     9	 1
    4    37	 1
    4    38	 1
    4    39	 1
    4    40	 1
    4    18	 1
    4    41	 1
    4    21	 1
    4    44	 1
    5    17	 1
    5    22	 1
    5    11	 1
    5     8	 1
    5    34	 1
    5    35	 1
    5    36	 1
    5    14	 1
    6    16	 1
    6     9	 1
    6    37	 1
    6    38	 1
    6    13	 1
    6    39	 1
    6    40	 1
    6    54	 1
    6    55	 1
    6    56	 1
    6    23	 1
    6    15	 1
    7    10	 1
    7    12	 1
    7    24	 1
    7    45	 1
    7    46	 1
    7    35	 1
    7    36	 1
    8    32	 1
    8    33	 1
    8    54	 1
    8    55	 1
    8    56	 1
    8    37	 1
    8    38	 1
    8    29	 1
    8    25	 1
    9    12	 1
    9    11	 1
    9    34	 1
    9    24	 1
    9    45	 1
    9    46	 1
   10    16	 1
   10    32	 1
   10    33	 1
   10    13	 1
   10    39	 1
   10    40	 1
   10    23	 1
   10    15	 1
   11    32	 1
   11    33	 1
   11    23	 1
   11    15	 1
   12    16	 1
   12    32	 1
   12    33	 1
   12    37	 1
   12    38	 1
   12    51	 1
   12    52	 1
   12    53	 1
   13    16	 1
   14    39	 1
   14    40	 1
   15    34	 1
   15    24	 1
   15    45	 1
   15    46	 1
   15    35	 1
   15    36	 1
   16    19	 1
   16    20	 1
   16    43	 1
   17    21	 1
   17    44	 1
   17    42	 1
   18    22	 1
   18    43	 1
   19    41	 1
   19    21	 1
   19    42	 1
   20    41	 1
   20    44	 1
   22    41	 1
   22    42	 1
   23    34	 1
   23    35	 1
   23    36	 1
   23    28	 1
   23    50	 1
   23    26	 1
   23    47	 1
   24    27	 1
   24    48	 1
   24    49	 1
   25    45	 1
   25    46	 1
   25    28	 1
   25    50	 1
   25    30	 1
   26    29	 1
   26    31	 1
   26    49	 1
   27    47	 1
   27    50	 1
   28    48	 1
   28    31	 1
   29    45	 1
   29    46	 1
   29    47	 1
   29    30	 1
   30    48	 1
   30    49	 1
   32    34	 1
   33    34	 1
   34    54	 1
   34    55	 1
   34    56	 1
   35    37	 1
   35    38	 1
   36    37	 1
   36    38	 1
   42    43	 1
   43    44	 1
   47    48	 1
   49    50	 1

[ angles ]
;	ai	  aj	ak funct			c0			  c1			c2			  c3
    4     1    13	5 ;     NG3C51      SG3O2     NG3C51
    4     1     2	5 ;     NG3C51      SG3O2      OG2P1
    4     1     3	5 ;     NG3C51      SG3O2      OG2P1
   13     1     2	5 ;     NG3C51      SG3O2      OG2P1
   13     1     3	5 ;     NG3C51      SG3O2      OG2P1
    2     1     3	5 ;      OG2P1      SG3O2      OG2P1
    5     4    16	5 ;     CG3C50     NG3C51     CG2R61
    5     4     1	5 ;     CG3C50     NG3C51      SG3O2
   16     4     1	5 ;     CG2R61     NG3C51      SG3O2
    6     5    10	5 ;      CG321     CG3C50      CG321
    6     5    12	5 ;      CG321     CG3C50     CG3C52
    6     5     4	5 ;      CG321     CG3C50     NG3C51
   10     5    12	5 ;      CG321     CG3C50     CG3C52
   10     5     4	5 ;      CG321     CG3C50     NG3C51
   12     5     4	5 ;     CG3C52     CG3C50     NG3C51
    7     6     5	5 ;      CG314      CG321     CG3C50
    7     6    32	5 ;      CG314      CG321       HGA2
    7     6    33	5 ;      CG314      CG321       HGA2
    5     6    32	5 ;     CG3C50      CG321       HGA2
    5     6    33	5 ;     CG3C50      CG321       HGA2
   32     6    33	5 ;       HGA2      CG321       HGA2
   11     7     8	5 ;      CG331      CG314      NG3P1
   11     7     6	5 ;      CG331      CG314      CG321
   11     7    34	5 ;      CG331      CG314       HGA1
    8     7     6	5 ;      NG3P1      CG314      CG321
    8     7    34	5 ;      NG3P1      CG314       HGA1
    6     7    34	5 ;      CG321      CG314       HGA1
   23     8    15	5 ;      CG324      NG3P1       HGP2
   23     8     7	5 ;      CG324      NG3P1      CG314
   23     8     9	5 ;      CG324      NG3P1      CG324
   15     8     7	5 ;       HGP2      NG3P1      CG314
   15     8     9	5 ;       HGP2      NG3P1      CG324
    7     8     9	5 ;      CG314      NG3P1      CG324
    8     9    10	5 ;      NG3P1      CG324      CG321
    8     9    35	5 ;      NG3P1      CG324       HGA2
    8     9    36	5 ;      NG3P1      CG324       HGA2
   10     9    35	5 ;      CG321      CG324       HGA2
   10     9    36	5 ;      CG321      CG324       HGA2
   35     9    36	5 ;       HGA2      CG324       HGA2
    9    10     5	5 ;      CG324      CG321     CG3C50
    9    10    37	5 ;      CG324      CG321       HGA2
    9    10    38	5 ;      CG324      CG321       HGA2
    5    10    37	5 ;     CG3C50      CG321       HGA2
    5    10    38	5 ;     CG3C50      CG321       HGA2
   37    10    38	5 ;       HGA2      CG321       HGA2
    7    11    54	5 ;      CG314      CG331       HGA3
    7    11    55	5 ;      CG314      CG331       HGA3
    7    11    56	5 ;      CG314      CG331       HGA3
   54    11    55	5 ;       HGA3      CG331       HGA3
   54    11    56	5 ;       HGA3      CG331       HGA3
   55    11    56	5 ;       HGA3      CG331       HGA3
    5    12    13	5 ;     CG3C50     CG3C52     NG3C51
    5    12    39	5 ;     CG3C50     CG3C52       HGA2
    5    12    40	5 ;     CG3C50     CG3C52       HGA2
   13    12    39	5 ;     NG3C51     CG3C52       HGA2
   13    12    40	5 ;     NG3C51     CG3C52       HGA2
   39    12    40	5 ;       HGA2     CG3C52       HGA2
   12    13     1	5 ;     CG3C52     NG3C51      SG3O2
   12    13    14	5 ;     CG3C52     NG3C51      CG331
    1    13    14	5 ;      SG3O2     NG3C51      CG331
   13    14    51	5 ;     NG3C51      CG331       HGA3
   13    14    52	5 ;     NG3C51      CG331       HGA3
   13    14    53	5 ;     NG3C51      CG331       HGA3
   51    14    52	5 ;       HGA3      CG331       HGA3
   51    14    53	5 ;       HGA3      CG331       HGA3
   52    14    53	5 ;       HGA3      CG331       HGA3
   17    16     4	5 ;     CG2R61     CG2R61     NG3C51
   17    16    22	5 ;     CG2R61     CG2R61     CG2R61
    4    16    22	5 ;     NG3C51     CG2R61     CG2R61
   18    17    16	5 ;     CG2R66     CG2R61     CG2R61
   18    17    41	5 ;     CG2R66     CG2R61      HGR62
   16    17    41	5 ;     CG2R61     CG2R61      HGR62
   19    18    17	5 ;       FGR1     CG2R66     CG2R61
   19    18    20	5 ;       FGR1     CG2R66     CG2R61
   17    18    20	5 ;     CG2R61     CG2R66     CG2R61
   18    20    21	5 ;     CG2R66     CG2R61     CG2R61
   18    20    42	5 ;     CG2R66     CG2R61      HGR62
   21    20    42	5 ;     CG2R61     CG2R61      HGR62
   20    21    22	5 ;     CG2R61     CG2R61     CG2R61
   20    21    43	5 ;     CG2R61     CG2R61      HGR61
   22    21    43	5 ;     CG2R61     CG2R61      HGR61
   16    22    21	5 ;     CG2R61     CG2R61     CG2R61
   16    22    44	5 ;     CG2R61     CG2R61      HGR61
   21    22    44	5 ;     CG2R61     CG2R61      HGR61
   24    23     8	5 ;     CG2R61      CG324      NG3P1
   24    23    45	5 ;     CG2R61      CG324       HGA2
   24    23    46	5 ;     CG2R61      CG324       HGA2
    8    23    45	5 ;      NG3P1      CG324       HGA2
    8    23    46	5 ;      NG3P1      CG324       HGA2
   45    23    46	5 ;       HGA2      CG324       HGA2
   29    24    25	5 ;     CG2R61     CG2R61     CG2R61
   29    24    23	5 ;     CG2R61     CG2R61      CG324
   25    24    23	5 ;     CG2R61     CG2R61      CG324
   26    25    24	5 ;     CG2R61     CG2R61     CG2R61
   26    25    47	5 ;     CG2R61     CG2R61      HGR61
   24    25    47	5 ;     CG2R61     CG2R61      HGR61
   27    26    25	5 ;     CG2R61     CG2R61     CG2R61
   27    26    48	5 ;     CG2R61     CG2R61      HGR61
   25    26    48	5 ;     CG2R61     CG2R61      HGR61
   30    27    28	5 ;      OG311     CG2R61     CG2R61
   30    27    26	5 ;      OG311     CG2R61     CG2R61
   28    27    26	5 ;     CG2R61     CG2R61     CG2R61
   27    28    29	5 ;     CG2R61     CG2R61     CG2R61
   27    28    49	5 ;     CG2R61     CG2R61      HGR61
   29    28    49	5 ;     CG2R61     CG2R61      HGR61
   28    29    24	5 ;     CG2R61     CG2R61     CG2R61
   28    29    50	5 ;     CG2R61     CG2R61      HGR61
   24    29    50	5 ;     CG2R61     CG2R61      HGR61
   31    30    27	5 ;       HGP1      OG311     CG2R61

[ dihedrals ]
;	ai	  aj	ak	  al funct			  c0			c1			  c2			c3			  c4			c5
   13     1     4     5	 9 ;     NG3C51      SG3O2     NG3C51     CG3C50
   13     1     4    16	 9 ;     NG3C51      SG3O2     NG3C51     CG2R61
    2     1     4     5	 9 ;      OG2P1      SG3O2     NG3C51     CG3C50
    2     1     4    16	 9 ;      OG2P1      SG3O2     NG3C51     CG2R61
    3     1     4     5	 9 ;      OG2P1      SG3O2     NG3C51     CG3C50
    3     1     4    16	 9 ;      OG2P1      SG3O2     NG3C51     CG2R61
    4     1    13    12	 9 ;     NG3C51      SG3O2     NG3C51     CG3C52
    4     1    13    14	 9 ;     NG3C51      SG3O2     NG3C51      CG331
    2     1    13    12	 9 ;      OG2P1      SG3O2     NG3C51     CG3C52
    2     1    13    14	 9 ;      OG2P1      SG3O2     NG3C51      CG331
    3     1    13    12	 9 ;      OG2P1      SG3O2     NG3C51     CG3C52
    3     1    13    14	 9 ;      OG2P1      SG3O2     NG3C51      CG331
   16     4     5     6	 9 ;     CG2R61     NG3C51     CG3C50      CG321
   16     4     5    10	 9 ;     CG2R61     NG3C51     CG3C50      CG321
   16     4     5    12	 9 ;     CG2R61     NG3C51     CG3C50     CG3C52
    1     4     5     6	 9 ;      SG3O2     NG3C51     CG3C50      CG321
    1     4     5    10	 9 ;      SG3O2     NG3C51     CG3C50      CG321
    1     4     5    12	 9 ;      SG3O2     NG3C51     CG3C50     CG3C52
    5     4    16    17	 9 ;     CG3C50     NG3C51     CG2R61     CG2R61
    5     4    16    22	 9 ;     CG3C50     NG3C51     CG2R61     CG2R61
    1     4    16    17	 9 ;      SG3O2     NG3C51     CG2R61     CG2R61
    1     4    16    22	 9 ;      SG3O2     NG3C51     CG2R61     CG2R61
   10     5     6     7	 9 ;      CG321     CG3C50      CG321      CG314
   10     5     6    32	 9 ;      CG321     CG3C50      CG321       HGA2
   10     5     6    33	 9 ;      CG321     CG3C50      CG321       HGA2
   12     5     6     7	 9 ;     CG3C52     CG3C50      CG321      CG314
   12     5     6    32	 9 ;     CG3C52     CG3C50      CG321       HGA2
   12     5     6    33	 9 ;     CG3C52     CG3C50      CG321       HGA2
    4     5     6     7	 9 ;     NG3C51     CG3C50      CG321      CG314
    4     5     6    32	 9 ;     NG3C51     CG3C50      CG321       HGA2
    4     5     6    33	 9 ;     NG3C51     CG3C50      CG321       HGA2
    6     5    10     9	 9 ;      CG321     CG3C50      CG321      CG324
    6     5    10    37	 9 ;      CG321     CG3C50      CG321       HGA2
    6     5    10    38	 9 ;      CG321     CG3C50      CG321       HGA2
   12     5    10     9	 9 ;     CG3C52     CG3C50      CG321      CG324
   12     5    10    37	 9 ;     CG3C52     CG3C50      CG321       HGA2
   12     5    10    38	 9 ;     CG3C52     CG3C50      CG321       HGA2
    4     5    10     9	 9 ;     NG3C51     CG3C50      CG321      CG324
    4     5    10    37	 9 ;     NG3C51     CG3C50      CG321       HGA2
    4     5    10    38	 9 ;     NG3C51     CG3C50      CG321       HGA2
    6     5    12    13	 9 ;      CG321     CG3C50     CG3C52     NG3C51
    6     5    12    39	 9 ;      CG321     CG3C50     CG3C52       HGA2
    6     5    12    40	 9 ;      CG321     CG3C50     CG3C52       HGA2
   10     5    12    13	 9 ;      CG321     CG3C50     CG3C52     NG3C51
   10     5    12    39	 9 ;      CG321     CG3C50     CG3C52       HGA2
   10     5    12    40	 9 ;      CG321     CG3C50     CG3C52       HGA2
    4     5    12    13	 9 ;     NG3C51     CG3C50     CG3C52     NG3C51
    4     5    12    39	 9 ;     NG3C51     CG3C50     CG3C52       HGA2
    4     5    12    40	 9 ;     NG3C51     CG3C50     CG3C52       HGA2
    5     6     7    11	 9 ;     CG3C50      CG321      CG314      CG331
    5     6     7     8	 9 ;     CG3C50      CG321      CG314      NG3P1
    5     6     7    34	 9 ;     CG3C50      CG321      CG314       HGA1
   32     6     7    11	 9 ;       HGA2      CG321      CG314      CG331
   32     6     7     8	 9 ;       HGA2      CG321      CG314      NG3P1
   32     6     7    34	 9 ;       HGA2      CG321      CG314       HGA1
   33     6     7    11	 9 ;       HGA2      CG321      CG314      CG331
   33     6     7     8	 9 ;       HGA2      CG321      CG314      NG3P1
   33     6     7    34	 9 ;       HGA2      CG321      CG314       HGA1
    8     7    11    54	 9 ;      NG3P1      CG314      CG331       HGA3
    8     7    11    55	 9 ;      NG3P1      CG314      CG331       HGA3
    8     7    11    56	 9 ;      NG3P1      CG314      CG331       HGA3
    6     7    11    54	 9 ;      CG321      CG314      CG331       HGA3
    6     7    11    55	 9 ;      CG321      CG314      CG331       HGA3
    6     7    11    56	 9 ;      CG321      CG314      CG331       HGA3
   34     7    11    54	 9 ;       HGA1      CG314      CG331       HGA3
   34     7    11    55	 9 ;       HGA1      CG314      CG331       HGA3
   34     7    11    56	 9 ;       HGA1      CG314      CG331       HGA3
   11     7     8    23	 9 ;      CG331      CG314      NG3P1      CG324
   11     7     8    15	 9 ;      CG331      CG314      NG3P1       HGP2
   11     7     8     9	 9 ;      CG331      CG314      NG3P1      CG324
    6     7     8    23	 9 ;      CG321      CG314      NG3P1      CG324
    6     7     8    15	 9 ;      CG321      CG314      NG3P1       HGP2
    6     7     8     9	 9 ;      CG321      CG314      NG3P1      CG324
   34     7     8    23	 9 ;       HGA1      CG314      NG3P1      CG324
   34     7     8    15	 9 ;       HGA1      CG314      NG3P1       HGP2
   34     7     8     9	 9 ;       HGA1      CG314      NG3P1      CG324
   15     8    23    24	 9 ;       HGP2      NG3P1      CG324     CG2R61
   15     8    23    45	 9 ;       HGP2      NG3P1      CG324       HGA2
   15     8    23    46	 9 ;       HGP2      NG3P1      CG324       HGA2
    7     8    23    24	 9 ;      CG314      NG3P1      CG324     CG2R61
    7     8    23    45	 9 ;      CG314      NG3P1      CG324       HGA2
    7     8    23    46	 9 ;      CG314      NG3P1      CG324       HGA2
    9     8    23    24	 9 ;      CG324      NG3P1      CG324     CG2R61
    9     8    23    45	 9 ;      CG324      NG3P1      CG324       HGA2
    9     8    23    46	 9 ;      CG324      NG3P1      CG324       HGA2
   23     8     9    10	 9 ;      CG324      NG3P1      CG324      CG321
   23     8     9    35	 9 ;      CG324      NG3P1      CG324       HGA2
   23     8     9    36	 9 ;      CG324      NG3P1      CG324       HGA2
   15     8     9    10	 9 ;       HGP2      NG3P1      CG324      CG321
   15     8     9    35	 9 ;       HGP2      NG3P1      CG324       HGA2
   15     8     9    36	 9 ;       HGP2      NG3P1      CG324       HGA2
    7     8     9    10	 9 ;      CG314      NG3P1      CG324      CG321
    7     8     9    35	 9 ;      CG314      NG3P1      CG324       HGA2
    7     8     9    36	 9 ;      CG314      NG3P1      CG324       HGA2
    8     9    10     5	 9 ;      NG3P1      CG324      CG321     CG3C50
    8     9    10    37	 9 ;      NG3P1      CG324      CG321       HGA2
    8     9    10    38	 9 ;      NG3P1      CG324      CG321       HGA2
   35     9    10     5	 9 ;       HGA2      CG324      CG321     CG3C50
   35     9    10    37	 9 ;       HGA2      CG324      CG321       HGA2
   35     9    10    38	 9 ;       HGA2      CG324      CG321       HGA2
   36     9    10     5	 9 ;       HGA2      CG324      CG321     CG3C50
   36     9    10    37	 9 ;       HGA2      CG324      CG321       HGA2
   36     9    10    38	 9 ;       HGA2      CG324      CG321       HGA2
    5    12    13     1	 9 ;     CG3C50     CG3C52     NG3C51      SG3O2
    5    12    13    14	 9 ;     CG3C50     CG3C52     NG3C51      CG331
   39    12    13     1	 9 ;       HGA2     CG3C52     NG3C51      SG3O2
   39    12    13    14	 9 ;       HGA2     CG3C52     NG3C51      CG331
   40    12    13     1	 9 ;       HGA2     CG3C52     NG3C51      SG3O2
   40    12    13    14	 9 ;       HGA2     CG3C52     NG3C51      CG331
   12    13    14    51	 9 ;     CG3C52     NG3C51      CG331       HGA3
   12    13    14    52	 9 ;     CG3C52     NG3C51      CG331       HGA3
   12    13    14    53	 9 ;     CG3C52     NG3C51      CG331       HGA3
    1    13    14    51	 9 ;      SG3O2     NG3C51      CG331       HGA3
    1    13    14    52	 9 ;      SG3O2     NG3C51      CG331       HGA3
    1    13    14    53	 9 ;      SG3O2     NG3C51      CG331       HGA3
    4    16    17    18	 9 ;     NG3C51     CG2R61     CG2R61     CG2R66
    4    16    17    41	 9 ;     NG3C51     CG2R61     CG2R61      HGR62
   22    16    17    18	 9 ;     CG2R61     CG2R61     CG2R61     CG2R66
   22    16    17    41	 9 ;     CG2R61     CG2R61     CG2R61      HGR62
   17    16    22    21	 9 ;     CG2R61     CG2R61     CG2R61     CG2R61
   17    16    22    44	 9 ;     CG2R61     CG2R61     CG2R61      HGR61
    4    16    22    21	 9 ;     NG3C51     CG2R61     CG2R61     CG2R61
    4    16    22    44	 9 ;     NG3C51     CG2R61     CG2R61      HGR61
   16    17    18    19	 9 ;     CG2R61     CG2R61     CG2R66       FGR1
   16    17    18    20	 9 ;     CG2R61     CG2R61     CG2R66     CG2R61
   41    17    18    19	 9 ;      HGR62     CG2R61     CG2R66       FGR1
   41    17    18    20	 9 ;      HGR62     CG2R61     CG2R66     CG2R61
   19    18    20    21	 9 ;       FGR1     CG2R66     CG2R61     CG2R61
   19    18    20    42	 9 ;       FGR1     CG2R66     CG2R61      HGR62
   17    18    20    21	 9 ;     CG2R61     CG2R66     CG2R61     CG2R61
   17    18    20    42	 9 ;     CG2R61     CG2R66     CG2R61      HGR62
   18    20    21    22	 9 ;     CG2R66     CG2R61     CG2R61     CG2R61
   18    20    21    43	 9 ;     CG2R66     CG2R61     CG2R61      HGR61
   42    20    21    22	 9 ;      HGR62     CG2R61     CG2R61     CG2R61
   42    20    21    43	 9 ;      HGR62     CG2R61     CG2R61      HGR61
   20    21    22    16	 9 ;     CG2R61     CG2R61     CG2R61     CG2R61
   20    21    22    44	 9 ;     CG2R61     CG2R61     CG2R61      HGR61
   43    21    22    16	 9 ;      HGR61     CG2R61     CG2R61     CG2R61
   43    21    22    44	 9 ;      HGR61     CG2R61     CG2R61      HGR61
    8    23    24    29	 9 ;      NG3P1      CG324     CG2R61     CG2R61
    8    23    24    25	 9 ;      NG3P1      CG324     CG2R61     CG2R61
   45    23    24    29	 9 ;       HGA2      CG324     CG2R61     CG2R61
   45    23    24    25	 9 ;       HGA2      CG324     CG2R61     CG2R61
   46    23    24    29	 9 ;       HGA2      CG324     CG2R61     CG2R61
   46    23    24    25	 9 ;       HGA2      CG324     CG2R61     CG2R61
   25    24    29    28	 9 ;     CG2R61     CG2R61     CG2R61     CG2R61
   25    24    29    50	 9 ;     CG2R61     CG2R61     CG2R61      HGR61
   23    24    29    28	 9 ;      CG324     CG2R61     CG2R61     CG2R61
   23    24    29    50	 9 ;      CG324     CG2R61     CG2R61      HGR61
   29    24    25    26	 9 ;     CG2R61     CG2R61     CG2R61     CG2R61
   29    24    25    47	 9 ;     CG2R61     CG2R61     CG2R61      HGR61
   23    24    25    26	 9 ;      CG324     CG2R61     CG2R61     CG2R61
   23    24    25    47	 9 ;      CG324     CG2R61     CG2R61      HGR61
   24    25    26    27	 9 ;     CG2R61     CG2R61     CG2R61     CG2R61
   24    25    26    48	 9 ;     CG2R61     CG2R61     CG2R61      HGR61
   47    25    26    27	 9 ;      HGR61     CG2R61     CG2R61     CG2R61
   47    25    26    48	 9 ;      HGR61     CG2R61     CG2R61      HGR61
   25    26    27    30	 9 ;     CG2R61     CG2R61     CG2R61      OG311
   25    26    27    28	 9 ;     CG2R61     CG2R61     CG2R61     CG2R61
   48    26    27    30	 9 ;      HGR61     CG2R61     CG2R61      OG311
   48    26    27    28	 9 ;      HGR61     CG2R61     CG2R61     CG2R61
   28    27    30    31	 9 ;     CG2R61     CG2R61      OG311       HGP1
   26    27    30    31	 9 ;     CG2R61     CG2R61      OG311       HGP1
   30    27    28    29	 9 ;      OG311     CG2R61     CG2R61     CG2R61
   30    27    28    49	 9 ;      OG311     CG2R61     CG2R61      HGR61
   26    27    28    29	 9 ;     CG2R61     CG2R61     CG2R61     CG2R61
   26    27    28    49	 9 ;     CG2R61     CG2R61     CG2R61      HGR61
   27    28    29    24	 9 ;     CG2R61     CG2R61     CG2R61     CG2R61
   27    28    29    50	 9 ;     CG2R61     CG2R61     CG2R61      HGR61
   49    28    29    24	 9 ;      HGR61     CG2R61     CG2R61     CG2R61
   49    28    29    50	 9 ;      HGR61     CG2R61     CG2R61      HGR61

