Great Red Oystrich Makes All Chemists Sane
   51
    1LIG     C1    1  -1.414   0.420  -1.674
    1LIG     N1    2  -1.519   0.348  -1.755
    1LIG     HN    3  -1.582   0.275  -1.723
    1LIG     C2    4  -1.513   0.398  -1.875
    1LIG     N2    5  -1.429   0.502  -1.893
    1LIG     C3    6  -1.391   0.563  -2.017
    1LIG     C4    7  -1.372   0.534  -1.772
    1LIG     O1    8  -1.299   0.629  -1.750
    1LIG     C5    9  -1.477   0.469  -1.542
    1LIG     C6   10  -1.462   0.400  -1.420
    1LIG     C7   11  -1.510   0.455  -1.300
    1LIG     C8   12  -1.575   0.578  -1.300
    1LIG     F1   13  -1.616   0.627  -1.182
    1LIG     C9   14  -1.598   0.646  -1.419
    1LIG    C10   15  -1.551   0.590  -1.539
    1LIG     O2   16  -1.666   0.764  -1.434
    1LIG    C11   17  -1.587   0.881  -1.461
    1LIG    C12   18  -1.658   0.956  -1.574
    1LIG    C13   19  -1.599   0.926  -1.710
    1LIG     F2   20  -1.474   0.876  -1.695
    1LIG    C14   21  -1.289   0.330  -1.655
    1LIG    C15   22  -1.168   0.382  -1.606
    1LIG    C16   23  -1.063   0.299  -1.568
    1LIG    C17   24  -1.076   0.161  -1.579
    1LIG    C18   25  -1.192   0.107  -1.635
    1LIG    C19   26  -1.298   0.191  -1.672
    1LIG     O3   27  -0.982   0.069  -1.541
    1LIG    C20   28  -0.969  -0.043  -1.626
    1LIG     F3   29  -0.882  -0.008  -1.725
    1LIG     F4   30  -0.910  -0.144  -1.557
    1LIG     N3   31  -1.587   0.349  -1.976
    1LIG     H1   32  -1.546   0.266  -2.018
    1LIG     H2   33  -1.687   0.338  -1.958
    1LIG     H3   34  -1.560   0.367  -1.965
    1LIG     H4   35  -1.449   0.522  -2.097
    1LIG     H5   36  -1.287   0.545  -2.036
    1LIG     H6   37  -1.408   0.669  -2.012
    1LIG     H7   38  -1.416   0.308  -1.419
    1LIG     H8   39  -1.496   0.404  -1.212
    1LIG     H9   40  -1.570   0.639  -1.628
    1LIG    H10   41  -1.582   0.943  -1.374
    1LIG    H11   42  -1.488   0.855  -1.489
    1LIG    H12   43  -1.761   0.928  -1.575
    1LIG    H13   44  -1.645   1.061  -1.556
    1LIG    H14   45  -1.661   0.854  -1.760
    1LIG    H15   46  -1.595   1.015  -1.769
    1LIG    H16   47  -1.157   0.485  -1.598
    1LIG    H17   48  -0.975   0.339  -1.532
    1LIG    H18   49  -1.200   0.005  -1.648
    1LIG    H19   50  -1.384   0.149  -1.712
    1LIG    H20   51  -1.064  -0.073  -1.664
   0.00000   0.00000   0.00000
