; Created by cgenff_charmm2gmx.py

[ moleculetype ]
; Name			   nrexcl
LIG				 3

[ atoms ]
;	 nr		  type	resnr residue  atom   cgnr	   charge		mass  typeB    chargeB		massB
; residue	 1 LIG rtp LIG q	qsum
     1     CG3C50      1    LIG     C1      1      1.040     12.011   ;
     2     NG3C51      1    LIG     N1      2     -0.966     14.007   ;
     3       HGP1      1    LIG     HN      3      0.218      1.008   ;
     4     CG3C51      1    LIG     C2      4      0.368     12.011   ;
     5     NG2R53      1    LIG     N2      5     -0.358     14.007   ;
     6      CG331      1    LIG     C3      6     -0.126     12.011   ;
     7     CG2R53      1    LIG     C4      7      0.158     12.011   ;
     8      OG2D1      1    LIG     O1      8     -0.419     15.999   ;
     9     CG2R61      1    LIG     C5      9      0.081     12.011   ;
    10     CG2R61      1    LIG     C6     10     -0.217     12.011   ;
    11     CG2R61      1    LIG     C7     11     -0.083     12.011   ;
    12     CG2R66      1    LIG     C8     12     -0.107     12.011   ;
    13       FGR1      1    LIG     F1     13     -0.185     18.998   ;
    14     CG2R61      1    LIG     C9     14      0.368     12.011   ;
    15     CG2R61      1    LIG    C10     15     -0.217     12.011   ;
    16      OG301      1    LIG     O2     16     -0.242     15.999   ;
    17      CG321      1    LIG    C11     17     -0.046     12.011   ;
    18      CG321      1    LIG    C12     18     -0.184     12.011   ;
    19      CG322      1    LIG    C13     19      0.081     12.011   ;
    20       FGA1      1    LIG     F2     20     -0.216     18.998   ;
    21     CG2R61      1    LIG    C14     21      0.052     12.011   ;
    22     CG2R61      1    LIG    C15     22     -0.179     12.011   ;
    23     CG2R61      1    LIG    C16     23     -0.108     12.011   ;
    24     CG2R61      1    LIG    C17     24      0.217     12.011   ;
    25     CG2R61      1    LIG    C18     25     -0.108     12.011   ;
    26     CG2R61      1    LIG    C19     26     -0.179     12.011   ;
    27      OG301      1    LIG     O3     27     -0.272     15.999   ;
    28      CG312      1    LIG    C20     28      0.216     12.011   ;
    29       FGA2      1    LIG     F3     29     -0.160     18.998   ;
    30       FGA2      1    LIG     F4     30     -0.160     18.998   ;
    31      NG321      1    LIG     N3     31     -0.877     14.007   ;
    32     HGPAM2      1    LIG     H1     32      0.349      1.008   ;
    33     HGPAM2      1    LIG     H2     33      0.349      1.008   ;
    34       HGA1      1    LIG     H3     34      0.110      1.008   ;
    35       HGA3      1    LIG     H4     35      0.090      1.008   ;
    36       HGA3      1    LIG     H5     36      0.090      1.008   ;
    37       HGA3      1    LIG     H6     37      0.090      1.008   ;
    38      HGR61      1    LIG     H7     38      0.116      1.008   ;
    39      HGR62      1    LIG     H8     39      0.179      1.008   ;
    40      HGR61      1    LIG     H9     40      0.116      1.008   ;
    41       HGA2      1    LIG    H10     41      0.090      1.008   ;
    42       HGA2      1    LIG    H11     42      0.090      1.008   ;
    43       HGA2      1    LIG    H12     43      0.090      1.008   ;
    44       HGA2      1    LIG    H13     44      0.090      1.008   ;
    45       HGA6      1    LIG    H14     45      0.069      1.008   ;
    46       HGA6      1    LIG    H15     46      0.069      1.008   ;
    47      HGR61      1    LIG    H16     47      0.116      1.008   ;
    48      HGR61      1    LIG    H17     48      0.116      1.008   ;
    49      HGR61      1    LIG    H18     49      0.116      1.008   ;
    50      HGR61      1    LIG    H19     50      0.116      1.008   ;
    51       HGA7      1    LIG    H20     51      0.159      1.008   ;

[ bonds ]
;	ai	  aj funct			  c0			c1			  c2			c3
    1     7	 1 ;      CG3C50     CG2R53
    1     2	 1 ;      CG3C50     NG3C51
    1    21	 1 ;      CG3C50     CG2R61
    1     9	 1 ;      CG3C50     CG2R61
    2     4	 1 ;      NG3C51     CG3C51
    2     3	 1 ;      NG3C51       HGP1
    4    31	 1 ;      CG3C51      NG321
    4     5	 1 ;      CG3C51     NG2R53
    4    34	 1 ;      CG3C51       HGA1
    5     6	 1 ;      NG2R53      CG331
    5     7	 1 ;      NG2R53     CG2R53
    6    35	 1 ;       CG331       HGA3
    6    36	 1 ;       CG331       HGA3
    6    37	 1 ;       CG331       HGA3
    7     8	 1 ;      CG2R53      OG2D1
    9    15	 1 ;      CG2R61     CG2R61
    9    10	 1 ;      CG2R61     CG2R61
   10    11	 1 ;      CG2R61     CG2R61
   10    38	 1 ;      CG2R61      HGR61
   11    12	 1 ;      CG2R61     CG2R66
   11    39	 1 ;      CG2R61      HGR62
   12    14	 1 ;      CG2R66     CG2R61
   12    13	 1 ;      CG2R66       FGR1
   14    15	 1 ;      CG2R61     CG2R61
   14    16	 1 ;      CG2R61      OG301
   15    40	 1 ;      CG2R61      HGR61
   16    17	 1 ;       OG301      CG321
   17    18	 1 ;       CG321      CG321
   17    41	 1 ;       CG321       HGA2
   17    42	 1 ;       CG321       HGA2
   18    19	 1 ;       CG321      CG322
   18    43	 1 ;       CG321       HGA2
   18    44	 1 ;       CG321       HGA2
   19    20	 1 ;       CG322       FGA1
   19    45	 1 ;       CG322       HGA6
   19    46	 1 ;       CG322       HGA6
   21    26	 1 ;      CG2R61     CG2R61
   21    22	 1 ;      CG2R61     CG2R61
   22    23	 1 ;      CG2R61     CG2R61
   22    47	 1 ;      CG2R61      HGR61
   23    24	 1 ;      CG2R61     CG2R61
   23    48	 1 ;      CG2R61      HGR61
   24    25	 1 ;      CG2R61     CG2R61
   24    27	 1 ;      CG2R61      OG301
   25    26	 1 ;      CG2R61     CG2R61
   25    49	 1 ;      CG2R61      HGR61
   26    50	 1 ;      CG2R61      HGR61
   27    28	 1 ;       OG301      CG312
   28    29	 1 ;       CG312       FGA2
   28    30	 1 ;       CG312       FGA2
   28    51	 1 ;       CG312       HGA7
   31    32	 1 ;       NG321     HGPAM2
   31    33	 1 ;       NG321     HGPAM2

[ pairs ]
;	ai	  aj funct			  c0			c1			  c2			c3
    1    31	 1
    1    34	 1
    1     6	 1
    1    14	 1
    1    40	 1
    1    11	 1
    1    38	 1
    1    25	 1
    1    50	 1
    1    23	 1
    1    47	 1
    2     8	 1
    2    26	 1
    2    22	 1
    2    15	 1
    2    10	 1
    2    32	 1
    2    33	 1
    2     6	 1
    3     7	 1
    3    21	 1
    3     9	 1
    3    31	 1
    3     5	 1
    3    34	 1
    4    21	 1
    4     9	 1
    4    35	 1
    4    36	 1
    4    37	 1
    4     8	 1
    5    21	 1
    5     9	 1
    5    32	 1
    5    33	 1
    6    31	 1
    6    34	 1
    6     8	 1
    7    26	 1
    7    22	 1
    7    15	 1
    7    10	 1
    7    31	 1
    7    34	 1
    7    35	 1
    7    36	 1
    7    37	 1
    8    21	 1
    8     9	 1
    9    26	 1
    9    22	 1
    9    12	 1
    9    39	 1
    9    16	 1
   10    21	 1
   10    14	 1
   10    40	 1
   10    13	 1
   11    15	 1
   11    16	 1
   12    38	 1
   12    40	 1
   12    17	 1
   13    39	 1
   13    15	 1
   13    16	 1
   14    39	 1
   14    18	 1
   14    41	 1
   14    42	 1
   15    21	 1
   15    38	 1
   15    17	 1
   16    40	 1
   16    19	 1
   16    43	 1
   16    44	 1
   17    20	 1
   17    45	 1
   17    46	 1
   19    41	 1
   19    42	 1
   20    43	 1
   20    44	 1
   21    24	 1
   21    48	 1
   21    49	 1
   22    25	 1
   22    50	 1
   22    27	 1
   23    26	 1
   23    49	 1
   23    28	 1
   24    47	 1
   24    50	 1
   24    29	 1
   24    30	 1
   24    51	 1
   25    48	 1
   25    28	 1
   26    47	 1
   26    27	 1
   27    48	 1
   27    49	 1
   32    34	 1
   33    34	 1
   38    39	 1
   41    43	 1
   41    44	 1
   42    43	 1
   42    44	 1
   43    45	 1
   43    46	 1
   44    45	 1
   44    46	 1
   47    48	 1
   49    50	 1

[ angles ]
;	ai	  aj	ak funct			c0			  c1			c2			  c3
    7     1     2	5 ;     CG2R53     CG3C50     NG3C51
    7     1    21	5 ;     CG2R53     CG3C50     CG2R61
    7     1     9	5 ;     CG2R53     CG3C50     CG2R61
    2     1    21	5 ;     NG3C51     CG3C50     CG2R61
    2     1     9	5 ;     NG3C51     CG3C50     CG2R61
   21     1     9	5 ;     CG2R61     CG3C50     CG2R61
    4     2     3	5 ;     CG3C51     NG3C51       HGP1
    4     2     1	5 ;     CG3C51     NG3C51     CG3C50
    3     2     1	5 ;       HGP1     NG3C51     CG3C50
   31     4     5	5 ;      NG321     CG3C51     NG2R53
   31     4     2	5 ;      NG321     CG3C51     NG3C51
   31     4    34	5 ;      NG321     CG3C51       HGA1
    5     4     2	5 ;     NG2R53     CG3C51     NG3C51
    5     4    34	5 ;     NG2R53     CG3C51       HGA1
    2     4    34	5 ;     NG3C51     CG3C51       HGA1
    6     5     4	5 ;      CG331     NG2R53     CG3C51
    6     5     7	5 ;      CG331     NG2R53     CG2R53
    4     5     7	5 ;     CG3C51     NG2R53     CG2R53
    5     6    35	5 ;     NG2R53      CG331       HGA3
    5     6    36	5 ;     NG2R53      CG331       HGA3
    5     6    37	5 ;     NG2R53      CG331       HGA3
   35     6    36	5 ;       HGA3      CG331       HGA3
   35     6    37	5 ;       HGA3      CG331       HGA3
   36     6    37	5 ;       HGA3      CG331       HGA3
    5     7     8	5 ;     NG2R53     CG2R53      OG2D1
    5     7     1	5 ;     NG2R53     CG2R53     CG3C50
    8     7     1	5 ;      OG2D1     CG2R53     CG3C50
    1     9    15	5 ;     CG3C50     CG2R61     CG2R61
    1     9    10	5 ;     CG3C50     CG2R61     CG2R61
   15     9    10	5 ;     CG2R61     CG2R61     CG2R61
    9    10    11	5 ;     CG2R61     CG2R61     CG2R61
    9    10    38	5 ;     CG2R61     CG2R61      HGR61
   11    10    38	5 ;     CG2R61     CG2R61      HGR61
   10    11    12	5 ;     CG2R61     CG2R61     CG2R66
   10    11    39	5 ;     CG2R61     CG2R61      HGR62
   12    11    39	5 ;     CG2R66     CG2R61      HGR62
   14    12    11	5 ;     CG2R61     CG2R66     CG2R61
   14    12    13	5 ;     CG2R61     CG2R66       FGR1
   11    12    13	5 ;     CG2R61     CG2R66       FGR1
   15    14    16	5 ;     CG2R61     CG2R61      OG301
   15    14    12	5 ;     CG2R61     CG2R61     CG2R66
   16    14    12	5 ;      OG301     CG2R61     CG2R66
    9    15    14	5 ;     CG2R61     CG2R61     CG2R61
    9    15    40	5 ;     CG2R61     CG2R61      HGR61
   14    15    40	5 ;     CG2R61     CG2R61      HGR61
   17    16    14	5 ;      CG321      OG301     CG2R61
   18    17    16	5 ;      CG321      CG321      OG301
   18    17    41	5 ;      CG321      CG321       HGA2
   18    17    42	5 ;      CG321      CG321       HGA2
   16    17    41	5 ;      OG301      CG321       HGA2
   16    17    42	5 ;      OG301      CG321       HGA2
   41    17    42	5 ;       HGA2      CG321       HGA2
   19    18    17	5 ;      CG322      CG321      CG321
   19    18    43	5 ;      CG322      CG321       HGA2
   19    18    44	5 ;      CG322      CG321       HGA2
   17    18    43	5 ;      CG321      CG321       HGA2
   17    18    44	5 ;      CG321      CG321       HGA2
   43    18    44	5 ;       HGA2      CG321       HGA2
   20    19    18	5 ;       FGA1      CG322      CG321
   20    19    45	5 ;       FGA1      CG322       HGA6
   20    19    46	5 ;       FGA1      CG322       HGA6
   18    19    45	5 ;      CG321      CG322       HGA6
   18    19    46	5 ;      CG321      CG322       HGA6
   45    19    46	5 ;       HGA6      CG322       HGA6
    1    21    26	5 ;     CG3C50     CG2R61     CG2R61
    1    21    22	5 ;     CG3C50     CG2R61     CG2R61
   26    21    22	5 ;     CG2R61     CG2R61     CG2R61
   21    22    23	5 ;     CG2R61     CG2R61     CG2R61
   21    22    47	5 ;     CG2R61     CG2R61      HGR61
   23    22    47	5 ;     CG2R61     CG2R61      HGR61
   22    23    24	5 ;     CG2R61     CG2R61     CG2R61
   22    23    48	5 ;     CG2R61     CG2R61      HGR61
   24    23    48	5 ;     CG2R61     CG2R61      HGR61
   25    24    23	5 ;     CG2R61     CG2R61     CG2R61
   25    24    27	5 ;     CG2R61     CG2R61      OG301
   23    24    27	5 ;     CG2R61     CG2R61      OG301
   26    25    24	5 ;     CG2R61     CG2R61     CG2R61
   26    25    49	5 ;     CG2R61     CG2R61      HGR61
   24    25    49	5 ;     CG2R61     CG2R61      HGR61
   21    26    25	5 ;     CG2R61     CG2R61     CG2R61
   21    26    50	5 ;     CG2R61     CG2R61      HGR61
   25    26    50	5 ;     CG2R61     CG2R61      HGR61
   28    27    24	5 ;      CG312      OG301     CG2R61
   29    28    30	5 ;       FGA2      CG312       FGA2
   29    28    27	5 ;       FGA2      CG312      OG301
   29    28    51	5 ;       FGA2      CG312       HGA7
   30    28    27	5 ;       FGA2      CG312      OG301
   30    28    51	5 ;       FGA2      CG312       HGA7
   27    28    51	5 ;      OG301      CG312       HGA7
   32    31    33	5 ;     HGPAM2      NG321     HGPAM2
   32    31     4	5 ;     HGPAM2      NG321     CG3C51
   33    31     4	5 ;     HGPAM2      NG321     CG3C51

[ dihedrals ]
;	ai	  aj	ak	  al funct			  c0			c1			  c2			c3			  c4			c5
    2     1     7     5	 9 ;     NG3C51     CG3C50     CG2R53     NG2R53
    2     1     7     8	 9 ;     NG3C51     CG3C50     CG2R53      OG2D1
   21     1     7     5	 9 ;     CG2R61     CG3C50     CG2R53     NG2R53
   21     1     7     8	 9 ;     CG2R61     CG3C50     CG2R53      OG2D1
    9     1     7     5	 9 ;     CG2R61     CG3C50     CG2R53     NG2R53
    9     1     7     8	 9 ;     CG2R61     CG3C50     CG2R53      OG2D1
    7     1     2     4	 9 ;     CG2R53     CG3C50     NG3C51     CG3C51
    7     1     2     3	 9 ;     CG2R53     CG3C50     NG3C51       HGP1
   21     1     2     4	 9 ;     CG2R61     CG3C50     NG3C51     CG3C51
   21     1     2     3	 9 ;     CG2R61     CG3C50     NG3C51       HGP1
    9     1     2     4	 9 ;     CG2R61     CG3C50     NG3C51     CG3C51
    9     1     2     3	 9 ;     CG2R61     CG3C50     NG3C51       HGP1
    7     1    21    26	 9 ;     CG2R53     CG3C50     CG2R61     CG2R61
    7     1    21    22	 9 ;     CG2R53     CG3C50     CG2R61     CG2R61
    2     1    21    26	 9 ;     NG3C51     CG3C50     CG2R61     CG2R61
    2     1    21    22	 9 ;     NG3C51     CG3C50     CG2R61     CG2R61
    9     1    21    26	 9 ;     CG2R61     CG3C50     CG2R61     CG2R61
    9     1    21    22	 9 ;     CG2R61     CG3C50     CG2R61     CG2R61
    7     1     9    15	 9 ;     CG2R53     CG3C50     CG2R61     CG2R61
    7     1     9    10	 9 ;     CG2R53     CG3C50     CG2R61     CG2R61
    2     1     9    15	 9 ;     NG3C51     CG3C50     CG2R61     CG2R61
    2     1     9    10	 9 ;     NG3C51     CG3C50     CG2R61     CG2R61
   21     1     9    15	 9 ;     CG2R61     CG3C50     CG2R61     CG2R61
   21     1     9    10	 9 ;     CG2R61     CG3C50     CG2R61     CG2R61
    3     2     4    31	 9 ;       HGP1     NG3C51     CG3C51      NG321
    3     2     4     5	 9 ;       HGP1     NG3C51     CG3C51     NG2R53
    3     2     4    34	 9 ;       HGP1     NG3C51     CG3C51       HGA1
    1     2     4    31	 9 ;     CG3C50     NG3C51     CG3C51      NG321
    1     2     4     5	 9 ;     CG3C50     NG3C51     CG3C51     NG2R53
    1     2     4    34	 9 ;     CG3C50     NG3C51     CG3C51       HGA1
    5     4    31    32	 9 ;     NG2R53     CG3C51      NG321     HGPAM2
    5     4    31    33	 9 ;     NG2R53     CG3C51      NG321     HGPAM2
    2     4    31    32	 9 ;     NG3C51     CG3C51      NG321     HGPAM2
    2     4    31    33	 9 ;     NG3C51     CG3C51      NG321     HGPAM2
   34     4    31    32	 9 ;       HGA1     CG3C51      NG321     HGPAM2
   34     4    31    33	 9 ;       HGA1     CG3C51      NG321     HGPAM2
   31     4     5     6	 9 ;      NG321     CG3C51     NG2R53      CG331
   31     4     5     7	 9 ;      NG321     CG3C51     NG2R53     CG2R53
    2     4     5     6	 9 ;     NG3C51     CG3C51     NG2R53      CG331
    2     4     5     7	 9 ;     NG3C51     CG3C51     NG2R53     CG2R53
   34     4     5     6	 9 ;       HGA1     CG3C51     NG2R53      CG331
   34     4     5     7	 9 ;       HGA1     CG3C51     NG2R53     CG2R53
    4     5     6    35	 9 ;     CG3C51     NG2R53      CG331       HGA3
    4     5     6    36	 9 ;     CG3C51     NG2R53      CG331       HGA3
    4     5     6    37	 9 ;     CG3C51     NG2R53      CG331       HGA3
    7     5     6    35	 9 ;     CG2R53     NG2R53      CG331       HGA3
    7     5     6    36	 9 ;     CG2R53     NG2R53      CG331       HGA3
    7     5     6    37	 9 ;     CG2R53     NG2R53      CG331       HGA3
    6     5     7     8	 9 ;      CG331     NG2R53     CG2R53      OG2D1
    6     5     7     1	 9 ;      CG331     NG2R53     CG2R53     CG3C50
    4     5     7     8	 9 ;     CG3C51     NG2R53     CG2R53      OG2D1
    4     5     7     1	 9 ;     CG3C51     NG2R53     CG2R53     CG3C50
    1     9    15    14	 9 ;     CG3C50     CG2R61     CG2R61     CG2R61
    1     9    15    40	 9 ;     CG3C50     CG2R61     CG2R61      HGR61
   10     9    15    14	 9 ;     CG2R61     CG2R61     CG2R61     CG2R61
   10     9    15    40	 9 ;     CG2R61     CG2R61     CG2R61      HGR61
    1     9    10    11	 9 ;     CG3C50     CG2R61     CG2R61     CG2R61
    1     9    10    38	 9 ;     CG3C50     CG2R61     CG2R61      HGR61
   15     9    10    11	 9 ;     CG2R61     CG2R61     CG2R61     CG2R61
   15     9    10    38	 9 ;     CG2R61     CG2R61     CG2R61      HGR61
    9    10    11    12	 9 ;     CG2R61     CG2R61     CG2R61     CG2R66
    9    10    11    39	 9 ;     CG2R61     CG2R61     CG2R61      HGR62
   38    10    11    12	 9 ;      HGR61     CG2R61     CG2R61     CG2R66
   38    10    11    39	 9 ;      HGR61     CG2R61     CG2R61      HGR62
   10    11    12    14	 9 ;     CG2R61     CG2R61     CG2R66     CG2R61
   10    11    12    13	 9 ;     CG2R61     CG2R61     CG2R66       FGR1
   39    11    12    14	 9 ;      HGR62     CG2R61     CG2R66     CG2R61
   39    11    12    13	 9 ;      HGR62     CG2R61     CG2R66       FGR1
   11    12    14    15	 9 ;     CG2R61     CG2R66     CG2R61     CG2R61
   11    12    14    16	 9 ;     CG2R61     CG2R66     CG2R61      OG301
   13    12    14    15	 9 ;       FGR1     CG2R66     CG2R61     CG2R61
   13    12    14    16	 9 ;       FGR1     CG2R66     CG2R61      OG301
   16    14    15     9	 9 ;      OG301     CG2R61     CG2R61     CG2R61
   16    14    15    40	 9 ;      OG301     CG2R61     CG2R61      HGR61
   12    14    15     9	 9 ;     CG2R66     CG2R61     CG2R61     CG2R61
   12    14    15    40	 9 ;     CG2R66     CG2R61     CG2R61      HGR61
   15    14    16    17	 9 ;     CG2R61     CG2R61      OG301      CG321
   12    14    16    17	 9 ;     CG2R66     CG2R61      OG301      CG321
   14    16    17    18	 9 ;     CG2R61      OG301      CG321      CG321
   14    16    17    41	 9 ;     CG2R61      OG301      CG321       HGA2
   14    16    17    42	 9 ;     CG2R61      OG301      CG321       HGA2
   16    17    18    19	 9 ;      OG301      CG321      CG321      CG322
   16    17    18    43	 9 ;      OG301      CG321      CG321       HGA2
   16    17    18    44	 9 ;      OG301      CG321      CG321       HGA2
   41    17    18    19	 9 ;       HGA2      CG321      CG321      CG322
   41    17    18    43	 9 ;       HGA2      CG321      CG321       HGA2
   41    17    18    44	 9 ;       HGA2      CG321      CG321       HGA2
   42    17    18    19	 9 ;       HGA2      CG321      CG321      CG322
   42    17    18    43	 9 ;       HGA2      CG321      CG321       HGA2
   42    17    18    44	 9 ;       HGA2      CG321      CG321       HGA2
   17    18    19    20	 9 ;      CG321      CG321      CG322       FGA1
   17    18    19    45	 9 ;      CG321      CG321      CG322       HGA6
   17    18    19    46	 9 ;      CG321      CG321      CG322       HGA6
   43    18    19    20	 9 ;       HGA2      CG321      CG322       FGA1
   43    18    19    45	 9 ;       HGA2      CG321      CG322       HGA6
   43    18    19    46	 9 ;       HGA2      CG321      CG322       HGA6
   44    18    19    20	 9 ;       HGA2      CG321      CG322       FGA1
   44    18    19    45	 9 ;       HGA2      CG321      CG322       HGA6
   44    18    19    46	 9 ;       HGA2      CG321      CG322       HGA6
    1    21    26    25	 9 ;     CG3C50     CG2R61     CG2R61     CG2R61
    1    21    26    50	 9 ;     CG3C50     CG2R61     CG2R61      HGR61
   22    21    26    25	 9 ;     CG2R61     CG2R61     CG2R61     CG2R61
   22    21    26    50	 9 ;     CG2R61     CG2R61     CG2R61      HGR61
    1    21    22    23	 9 ;     CG3C50     CG2R61     CG2R61     CG2R61
    1    21    22    47	 9 ;     CG3C50     CG2R61     CG2R61      HGR61
   26    21    22    23	 9 ;     CG2R61     CG2R61     CG2R61     CG2R61
   26    21    22    47	 9 ;     CG2R61     CG2R61     CG2R61      HGR61
   21    22    23    24	 9 ;     CG2R61     CG2R61     CG2R61     CG2R61
   21    22    23    48	 9 ;     CG2R61     CG2R61     CG2R61      HGR61
   47    22    23    24	 9 ;      HGR61     CG2R61     CG2R61     CG2R61
   47    22    23    48	 9 ;      HGR61     CG2R61     CG2R61      HGR61
   22    23    24    25	 9 ;     CG2R61     CG2R61     CG2R61     CG2R61
   22    23    24    27	 9 ;     CG2R61     CG2R61     CG2R61      OG301
   48    23    24    25	 9 ;      HGR61     CG2R61     CG2R61     CG2R61
   48    23    24    27	 9 ;      HGR61     CG2R61     CG2R61      OG301
   23    24    25    26	 9 ;     CG2R61     CG2R61     CG2R61     CG2R61
   23    24    25    49	 9 ;     CG2R61     CG2R61     CG2R61      HGR61
   27    24    25    26	 9 ;      OG301     CG2R61     CG2R61     CG2R61
   27    24    25    49	 9 ;      OG301     CG2R61     CG2R61      HGR61
   25    24    27    28	 9 ;     CG2R61     CG2R61      OG301      CG312
   23    24    27    28	 9 ;     CG2R61     CG2R61      OG301      CG312
   24    25    26    21	 9 ;     CG2R61     CG2R61     CG2R61     CG2R61
   24    25    26    50	 9 ;     CG2R61     CG2R61     CG2R61      HGR61
   49    25    26    21	 9 ;      HGR61     CG2R61     CG2R61     CG2R61
   49    25    26    50	 9 ;      HGR61     CG2R61     CG2R61      HGR61
   24    27    28    29	 9 ;     CG2R61      OG301      CG312       FGA2
   24    27    28    30	 9 ;     CG2R61      OG301      CG312       FGA2
   24    27    28    51	 9 ;     CG2R61      OG301      CG312       HGA7

[ dihedrals ]
;	ai	  aj	ak	  al funct			  c0			c1			  c2			c3
    7     1     5     8	 2

