Great Red Oystrich Makes All Chemists Sane
   72
    1LIG     C1    1  -1.559   0.844  -1.603
    1LIG     C2    2  -1.436   0.822  -1.538
    1LIG     C3    3  -1.363   0.707  -1.566
    1LIG     C4    4  -1.405   0.623  -1.671
    1LIG     C5    5  -1.523   0.649  -1.743
    1LIG     C6    6  -1.602   0.758  -1.704
    1LIG     C7    7  -1.569   0.554  -1.852
    1LIG     O1    8  -1.577   0.416  -1.811
    1LIG     C8    9  -1.690   0.386  -1.728
    1LIG     C9   10  -1.640   0.326  -1.594
    1LIG    C10   11  -1.645   0.426  -1.477
    1LIG    C11   12  -1.765   0.423  -1.386
    1LIG    C12   13  -1.879   0.500  -1.416
    1LIG    C13   14  -1.995   0.487  -1.340
    1LIG    C14   15  -1.999   0.398  -1.233
    1LIG    C15   16  -1.887   0.323  -1.201
    1LIG    C16   17  -1.770   0.336  -1.276
    1LIG    C17   18  -1.495   0.274  -1.607
    1LIG     F1   19  -1.436   0.285  -1.484
    1LIG     F2   20  -1.494   0.141  -1.634
    1LIG     N1   21  -1.729   0.204  -1.564
    1LIG     H1   22  -1.706   0.160  -1.474
    1LIG     H2   23  -1.827   0.236  -1.559
    1LIG     H3   24  -1.723   0.133  -1.639
    1LIG    C18   25  -1.246   0.661  -1.482
    1LIG     O2   26  -1.162   0.744  -1.448
    1LIG     N2   27  -1.235   0.526  -1.452
    1LIG     H4   28  -1.301   0.460  -1.489
    1LIG    C19   29  -1.115   0.469  -1.392
    1LIG    C20   30  -1.110   0.498  -1.242
    1LIG    C21   31  -1.106   0.320  -1.425
    1LIG    C22   32  -1.087   0.228  -1.320
    1LIG    C23   33  -1.079   0.091  -1.345
    1LIG    C24   34  -1.089   0.044  -1.475
    1LIG     F3   35  -1.081  -0.087  -1.499
    1LIG    C25   36  -1.107   0.132  -1.581
    1LIG    C26   37  -1.115   0.270  -1.555
    1LIG     N3   38  -1.647   0.952  -1.566
    1LIG    C27   39  -1.674   1.049  -1.674
    1LIG      S   40  -1.776   0.909  -1.463
    1LIG     O3   41  -1.727   0.808  -1.372
    1LIG     O4   42  -1.893   0.887  -1.546
    1LIG    C28   43  -1.800   1.058  -1.368
    1LIG     HC   44  -1.399   0.895  -1.467
    1LIG    HC1   45  -1.345   0.537  -1.697
    1LIG    HC2   46  -1.697   0.775  -1.752
    1LIG    HC3   47  -1.498   0.561  -1.935
    1LIG    HC4   48  -1.667   0.586  -1.887
    1LIG    HC5   49  -1.754   0.314  -1.779
    1LIG    HC6   50  -1.745   0.477  -1.708
    1LIG    HC7   51  -1.639   0.526  -1.520
    1LIG    HC8   52  -1.556   0.410  -1.416
    1LIG    HC9   53  -1.877   0.568  -1.500
    1LIG   HC10   54  -2.082   0.546  -1.365
    1LIG   HC11   55  -2.089   0.388  -1.175
    1LIG   HC12   56  -1.889   0.254  -1.118
    1LIG   HC13   57  -1.682   0.278  -1.250
    1LIG   HC14   58  -1.439   0.330  -1.682
    1LIG   HC15   59  -1.028   0.517  -1.438
    1LIG   HC16   60  -1.120   0.605  -1.225
    1LIG   HC17   61  -1.015   0.463  -1.201
    1LIG   HC18   62  -1.191   0.445  -1.192
    1LIG   HC19   63  -1.079   0.264  -1.218
    1LIG   HC20   64  -1.064   0.021  -1.264
    1LIG   HC21   65  -1.115   0.095  -1.682
    1LIG   HC22   66  -1.128   0.339  -1.638
    1LIG   HC23   67  -1.741   1.127  -1.637
    1LIG   HC24   68  -1.721   0.998  -1.758
    1LIG   HC25   69  -1.580   1.094  -1.707
    1LIG   HC26   70  -1.843   1.033  -1.271
    1LIG   HC27   71  -1.867   1.125  -1.421
    1LIG   HC28   72  -1.704   1.108  -1.353
   0.00000   0.00000   0.00000
