GROwing Monsters And Cloning Shrimps
   73
    1LIG     C1    1  -1.714   0.619  -1.681
    1LIG     C2    2  -1.579   0.584  -1.681
    1LIG     C3    3  -1.535   0.474  -1.606
    1LIG     C4    4  -1.626   0.396  -1.534
    1LIG     C5    5  -1.761   0.436  -1.529
    1LIG     C6    6  -1.805   0.546  -1.605
    1LIG     C7    7  -1.859   0.373  -1.435
    1LIG     O1    8  -1.859   0.399  -1.316
    1LIG     N1    9  -1.944   0.276  -1.490
    1LIG     H1   10  -1.936   0.258  -1.588
    1LIG     C8   11  -2.046   0.212  -1.408
    1LIG     C9   12  -2.190   0.266  -1.430
    1LIG    C10   13  -2.300   0.166  -1.384
    1LIG    C11   14  -2.255   0.027  -1.348
    1LIG    C12   15  -2.229  -0.007  -1.215
    1LIG    C13   16  -2.193  -0.137  -1.181
    1LIG    C14   17  -2.183  -0.235  -1.279
    1LIG    C15   18  -2.207  -0.202  -1.412
    1LIG    C16   19  -2.243  -0.072  -1.447
    1LIG    C17   20  -2.212   0.315  -1.575
    1LIG     O2   21  -2.186   0.203  -1.661
    1LIG     H2   22  -2.208   0.122  -1.610
    1LIG     N2   23  -2.211   0.391  -1.342
    1LIG     H3   24  -2.312   0.394  -1.316
    1LIG     H4   25  -2.160   0.386  -1.253
    1LIG     H5   26  -2.187   0.480  -1.388
    1LIG    C18   27  -1.388   0.458  -1.587
    1LIG     O3   28  -1.323   0.556  -1.552
    1LIG     N3   29  -1.333   0.333  -1.604
    1LIG     H6   30  -1.389   0.256  -1.638
    1LIG    C19   31  -1.192   0.307  -1.572
    1LIG    C20   32  -1.107   0.307  -1.699
    1LIG    C21   33  -1.182   0.180  -1.488
    1LIG    C22   34  -1.097   0.076  -1.531
    1LIG    C23   35  -1.079  -0.039  -1.455
    1LIG    C24   36  -1.148  -0.052  -1.334
    1LIG      F   37  -1.127  -0.160  -1.258
    1LIG    C25   38  -1.235   0.047  -1.291
    1LIG    C26   39  -1.252   0.163  -1.367
    1LIG     N4   40  -1.755   0.738  -1.747
    1LIG    C27   41  -1.797   0.731  -1.888
    1LIG      S   42  -1.757   0.884  -1.664
    1LIG     O4   43  -1.758   0.855  -1.522
    1LIG     O5   44  -1.855   0.971  -1.724
    1LIG    C28   45  -1.596   0.950  -1.704
    1LIG     HC   46  -1.508   0.642  -1.737
    1LIG    HC1   47  -1.594   0.307  -1.483
    1LIG    HC2   48  -1.909   0.573  -1.605
    1LIG    HC3   49  -2.020   0.227  -1.303
    1LIG    HC4   50  -2.046   0.105  -1.428
    1LIG    HC5   51  -2.349   0.209  -1.297
    1LIG    HC6   52  -2.374   0.158  -1.464
    1LIG    HC7   53  -2.237   0.068  -1.138
    1LIG    HC8   54  -2.173  -0.162  -1.077
    1LIG    HC9   55  -2.156  -0.336  -1.252
    1LIG   HC10   56  -2.198  -0.278  -1.489
    1LIG   HC11   57  -2.263  -0.048  -1.550
    1LIG   HC12   58  -2.315   0.349  -1.588
    1LIG   HC13   59  -2.143   0.396  -1.598
    1LIG   HC14   60  -1.157   0.389  -1.510
    1LIG   HC15   61  -1.121   0.401  -1.753
    1LIG   HC16   62  -1.001   0.296  -1.673
    1LIG   HC17   63  -1.136   0.224  -1.764
    1LIG   HC18   64  -1.044   0.087  -1.625
    1LIG   HC19   65  -1.014  -0.118  -1.489
    1LIG   HC20   66  -1.289   0.034  -1.199
    1LIG   HC21   67  -1.320   0.240  -1.333
    1LIG   HC22   68  -1.825   0.831  -1.922
    1LIG   HC23   69  -1.882   0.664  -1.898
    1LIG   HC24   70  -1.714   0.695  -1.948
    1LIG   HC25   71  -1.583   1.046  -1.655
    1LIG   HC26   72  -1.587   0.961  -1.812
    1LIG   HC27   73  -1.519   0.881  -1.668
   0.00000   0.00000   0.00000
