; Created by cgenff_charmm2gmx.py

[ moleculetype ]
; Name			   nrexcl
LIG				 3

[ atoms ]
;	 nr		  type	resnr residue  atom   cgnr	   charge		mass  typeB    chargeB		massB
; residue	 1 LIG rtp LIG q	qsum
     1     CG2R61      1    LIG     C1      1      0.138     12.011   ;
     2     CG2R61      1    LIG     C2      2     -0.064     12.011   ;
     3     CG2R61      1    LIG     C3      3     -0.101     12.011   ;
     4     CG2R61      1    LIG     C4      4     -0.004     12.011   ;
     5     CG2R61      1    LIG     C5      5     -0.102     12.011   ;
     6     CG2R61      1    LIG     C6      6     -0.064     12.011   ;
     7      CG2O1      1    LIG     C7      7      0.345     12.011   ;
     8      OG2D1      1    LIG     O1      8     -0.467     15.999   ;
     9      NG2S1      1    LIG     N1      9     -0.334     14.007   ;
    10       HGP1      1    LIG     H1     10      0.290      1.008   ;
    11      CG321      1    LIG     C8     11     -0.010     12.011   ;
    12      CG301      1    LIG     C9     12      0.569     12.011   ;
    13      CG321      1    LIG    C10     13     -0.092     12.011   ;
    14     CG2R61      1    LIG    C11     14     -0.087     12.011   ;
    15     CG2R61      1    LIG    C12     15     -0.123     12.011   ;
    16     CG2R61      1    LIG    C13     16     -0.112     12.011   ;
    17     CG2R61      1    LIG    C14     17     -0.116     12.011   ;
    18     CG2R61      1    LIG    C15     18     -0.112     12.011   ;
    19     CG2R61      1    LIG    C16     19     -0.123     12.011   ;
    20      CG321      1    LIG    C17     20     -0.016     12.011   ;
    21      OG311      1    LIG     O2     21     -0.554     15.999   ;
    22       HGP1      1    LIG     H2     22      0.417      1.008   ;
    23      NG3P3      1    LIG     N2     23     -0.647     14.007   ;
    24       HGP2      1    LIG     H3     24      0.348      1.008   ;
    25       HGP2      1    LIG     H4     25      0.348      1.008   ;
    26       HGP2      1    LIG     H5     26      0.348      1.008   ;
    27      CG2O1      1    LIG    C18     27      0.320     12.011   ;
    28      OG2D1      1    LIG     O3     28     -0.463     15.999   ;
    29      NG2S1      1    LIG     N3     29     -0.366     14.007   ;
    30       HGP1      1    LIG     H6     30      0.314      1.008   ;
    31      CG311      1    LIG    C19     31      0.138     12.011   ;
    32      CG331      1    LIG    C20     32     -0.265     12.011   ;
    33     CG2R61      1    LIG    C21     33     -0.081     12.011   ;
    34     CG2R61      1    LIG    C22     34     -0.121     12.011   ;
    35     CG2R61      1    LIG    C23     35     -0.105     12.011   ;
    36     CG2R66      1    LIG    C24     36      0.107     12.011   ;
    37       FGR1      1    LIG      F     37     -0.211     18.998   ;
    38     CG2R61      1    LIG    C25     38     -0.105     12.011   ;
    39     CG2R61      1    LIG    C26     39     -0.121     12.011   ;
    40      NG301      1    LIG     N4     40     -0.228     14.007   ;
    41      CG331      1    LIG    C27     41     -0.103     12.011   ;
    42      SG3O2      1    LIG      S     42      0.397     32.060   ;
    43      OG2P1      1    LIG     O4     43     -0.388     15.999   ;
    44      OG2P1      1    LIG     O5     44     -0.388     15.999   ;
    45      CG331      1    LIG    C28     45      0.036     12.011   ;
    46      HGR61      1    LIG     HC     46      0.116      1.008   ;
    47      HGR61      1    LIG    HC1     47      0.116      1.008   ;
    48      HGR61      1    LIG    HC2     48      0.116      1.008   ;
    49       HGA2      1    LIG    HC3     49      0.090      1.008   ;
    50       HGA2      1    LIG    HC4     50      0.090      1.008   ;
    51       HGA2      1    LIG    HC5     51      0.090      1.008   ;
    52       HGA2      1    LIG    HC6     52      0.090      1.008   ;
    53      HGR61      1    LIG    HC7     53      0.116      1.008   ;
    54      HGR61      1    LIG    HC8     54      0.116      1.008   ;
    55      HGR61      1    LIG    HC9     55      0.116      1.008   ;
    56      HGR61      1    LIG   HC10     56      0.116      1.008   ;
    57      HGR61      1    LIG   HC11     57      0.116      1.008   ;
    58       HGA2      1    LIG   HC12     58      0.090      1.008   ;
    59       HGA2      1    LIG   HC13     59      0.090      1.008   ;
    60       HGA1      1    LIG   HC14     60      0.090      1.008   ;
    61       HGA3      1    LIG   HC15     61      0.090      1.008   ;
    62       HGA3      1    LIG   HC16     62      0.090      1.008   ;
    63       HGA3      1    LIG   HC17     63      0.090      1.008   ;
    64      HGR61      1    LIG   HC18     64      0.116      1.008   ;
    65      HGR62      1    LIG   HC19     65      0.179      1.008   ;
    66      HGR62      1    LIG   HC20     66      0.179      1.008   ;
    67      HGR61      1    LIG   HC21     67      0.116      1.008   ;
    68       HGA3      1    LIG   HC22     68      0.090      1.008   ;
    69       HGA3      1    LIG   HC23     69      0.090      1.008   ;
    70       HGA3      1    LIG   HC24     70      0.090      1.008   ;
    71       HGA3      1    LIG   HC25     71      0.090      1.008   ;
    72       HGA3      1    LIG   HC26     72      0.090      1.008   ;
    73       HGA3      1    LIG   HC27     73      0.090      1.008   ;

[ bonds ]
;	ai	  aj funct			  c0			c1			  c2			c3
    1     2	 1 ;      CG2R61     CG2R61
    1    40	 1 ;      CG2R61      NG301
    1     6	 1 ;      CG2R61     CG2R61
    2     3	 1 ;      CG2R61     CG2R61
    2    46	 1 ;      CG2R61      HGR61
    3    27	 1 ;      CG2R61      CG2O1
    3     4	 1 ;      CG2R61     CG2R61
    4     5	 1 ;      CG2R61     CG2R61
    4    47	 1 ;      CG2R61      HGR61
    5     6	 1 ;      CG2R61     CG2R61
    5     7	 1 ;      CG2R61      CG2O1
    6    48	 1 ;      CG2R61      HGR61
    7     9	 1 ;       CG2O1      NG2S1
    7     8	 1 ;       CG2O1      OG2D1
    9    10	 1 ;       NG2S1       HGP1
    9    11	 1 ;       NG2S1      CG321
   11    12	 1 ;       CG321      CG301
   11    49	 1 ;       CG321       HGA2
   11    50	 1 ;       CG321       HGA2
   12    20	 1 ;       CG301      CG321
   12    23	 1 ;       CG301      NG3P3
   12    13	 1 ;       CG301      CG321
   13    14	 1 ;       CG321     CG2R61
   13    51	 1 ;       CG321       HGA2
   13    52	 1 ;       CG321       HGA2
   14    19	 1 ;      CG2R61     CG2R61
   14    15	 1 ;      CG2R61     CG2R61
   15    16	 1 ;      CG2R61     CG2R61
   15    53	 1 ;      CG2R61      HGR61
   16    17	 1 ;      CG2R61     CG2R61
   16    54	 1 ;      CG2R61      HGR61
   17    18	 1 ;      CG2R61     CG2R61
   17    55	 1 ;      CG2R61      HGR61
   18    19	 1 ;      CG2R61     CG2R61
   18    56	 1 ;      CG2R61      HGR61
   19    57	 1 ;      CG2R61      HGR61
   20    21	 1 ;       CG321      OG311
   20    58	 1 ;       CG321       HGA2
   20    59	 1 ;       CG321       HGA2
   21    22	 1 ;       OG311       HGP1
   23    26	 1 ;       NG3P3       HGP2
   23    25	 1 ;       NG3P3       HGP2
   23    24	 1 ;       NG3P3       HGP2
   27    28	 1 ;       CG2O1      OG2D1
   27    29	 1 ;       CG2O1      NG2S1
   29    31	 1 ;       NG2S1      CG311
   29    30	 1 ;       NG2S1       HGP1
   31    32	 1 ;       CG311      CG331
   31    33	 1 ;       CG311     CG2R61
   31    60	 1 ;       CG311       HGA1
   32    61	 1 ;       CG331       HGA3
   32    62	 1 ;       CG331       HGA3
   32    63	 1 ;       CG331       HGA3
   33    34	 1 ;      CG2R61     CG2R61
   33    39	 1 ;      CG2R61     CG2R61
   34    35	 1 ;      CG2R61     CG2R61
   34    64	 1 ;      CG2R61      HGR61
   35    36	 1 ;      CG2R61     CG2R66
   35    65	 1 ;      CG2R61      HGR62
   36    37	 1 ;      CG2R66       FGR1
   36    38	 1 ;      CG2R66     CG2R61
   38    39	 1 ;      CG2R61     CG2R61
   38    66	 1 ;      CG2R61      HGR62
   39    67	 1 ;      CG2R61      HGR61
   40    41	 1 ;       NG301      CG331
   40    42	 1 ;       NG301      SG3O2
   41    68	 1 ;       CG331       HGA3
   41    69	 1 ;       CG331       HGA3
   41    70	 1 ;       CG331       HGA3
   42    45	 1 ;       SG3O2      CG331
   42    44	 1 ;       SG3O2      OG2P1
   42    43	 1 ;       SG3O2      OG2P1
   45    71	 1 ;       CG331       HGA3
   45    72	 1 ;       CG331       HGA3
   45    73	 1 ;       CG331       HGA3

[ pairs ]
;	ai	  aj funct			  c0			c1			  c2			c3
    1    27	 1
    1     4	 1
    1     7	 1
    1    68	 1
    1    69	 1
    1    70	 1
    1    45	 1
    1    44	 1
    1    43	 1
    2    41	 1
    2    42	 1
    2     5	 1
    2    48	 1
    2    28	 1
    2    29	 1
    2    47	 1
    3    40	 1
    3     6	 1
    3     7	 1
    3    31	 1
    3    30	 1
    4    46	 1
    4    28	 1
    4    29	 1
    4    48	 1
    4     9	 1
    4     8	 1
    5    40	 1
    5    27	 1
    5    10	 1
    5    11	 1
    6    46	 1
    6    41	 1
    6    42	 1
    6    47	 1
    6     9	 1
    6     8	 1
    7    47	 1
    7    48	 1
    7    12	 1
    7    49	 1
    7    50	 1
    8    10	 1
    8    11	 1
    9    20	 1
    9    23	 1
    9    13	 1
   10    12	 1
   10    49	 1
   10    50	 1
   11    21	 1
   11    58	 1
   11    59	 1
   11    26	 1
   11    25	 1
   11    24	 1
   11    14	 1
   11    51	 1
   11    52	 1
   12    19	 1
   12    15	 1
   12    22	 1
   13    49	 1
   13    50	 1
   13    21	 1
   13    58	 1
   13    59	 1
   13    26	 1
   13    25	 1
   13    24	 1
   13    18	 1
   13    57	 1
   13    16	 1
   13    53	 1
   14    20	 1
   14    23	 1
   14    17	 1
   14    54	 1
   14    56	 1
   15    51	 1
   15    52	 1
   15    18	 1
   15    57	 1
   15    55	 1
   16    19	 1
   16    56	 1
   17    53	 1
   17    57	 1
   18    54	 1
   19    51	 1
   19    52	 1
   19    53	 1
   19    55	 1
   20    49	 1
   20    50	 1
   20    26	 1
   20    25	 1
   20    24	 1
   20    51	 1
   20    52	 1
   21    23	 1
   22    58	 1
   22    59	 1
   23    49	 1
   23    50	 1
   23    58	 1
   23    59	 1
   23    51	 1
   23    52	 1
   27    46	 1
   27    47	 1
   27    32	 1
   27    33	 1
   27    60	 1
   28    31	 1
   28    30	 1
   29    61	 1
   29    62	 1
   29    63	 1
   29    34	 1
   29    39	 1
   30    32	 1
   30    33	 1
   30    60	 1
   31    35	 1
   31    64	 1
   31    38	 1
   31    67	 1
   32    34	 1
   32    39	 1
   33    61	 1
   33    62	 1
   33    63	 1
   33    36	 1
   33    65	 1
   33    66	 1
   34    60	 1
   34    38	 1
   34    67	 1
   34    37	 1
   35    39	 1
   35    66	 1
   36    64	 1
   36    67	 1
   37    65	 1
   37    39	 1
   37    66	 1
   38    65	 1
   39    60	 1
   39    64	 1
   40    46	 1
   40    48	 1
   40    71	 1
   40    72	 1
   40    73	 1
   41    45	 1
   41    44	 1
   41    43	 1
   42    68	 1
   42    69	 1
   42    70	 1
   43    71	 1
   43    72	 1
   43    73	 1
   44    71	 1
   44    72	 1
   44    73	 1
   53    54	 1
   54    55	 1
   55    56	 1
   56    57	 1
   60    61	 1
   60    62	 1
   60    63	 1
   64    65	 1
   66    67	 1

[ angles ]
;	ai	  aj	ak funct			c0			  c1			c2			  c3
    2     1    40	5 ;     CG2R61     CG2R61      NG301
    2     1     6	5 ;     CG2R61     CG2R61     CG2R61
   40     1     6	5 ;      NG301     CG2R61     CG2R61
    3     2     1	5 ;     CG2R61     CG2R61     CG2R61
    3     2    46	5 ;     CG2R61     CG2R61      HGR61
    1     2    46	5 ;     CG2R61     CG2R61      HGR61
   27     3     2	5 ;      CG2O1     CG2R61     CG2R61
   27     3     4	5 ;      CG2O1     CG2R61     CG2R61
    2     3     4	5 ;     CG2R61     CG2R61     CG2R61
    3     4     5	5 ;     CG2R61     CG2R61     CG2R61
    3     4    47	5 ;     CG2R61     CG2R61      HGR61
    5     4    47	5 ;     CG2R61     CG2R61      HGR61
    4     5     6	5 ;     CG2R61     CG2R61     CG2R61
    4     5     7	5 ;     CG2R61     CG2R61      CG2O1
    6     5     7	5 ;     CG2R61     CG2R61      CG2O1
    1     6     5	5 ;     CG2R61     CG2R61     CG2R61
    1     6    48	5 ;     CG2R61     CG2R61      HGR61
    5     6    48	5 ;     CG2R61     CG2R61      HGR61
    5     7     9	5 ;     CG2R61      CG2O1      NG2S1
    5     7     8	5 ;     CG2R61      CG2O1      OG2D1
    9     7     8	5 ;      NG2S1      CG2O1      OG2D1
   10     9     7	5 ;       HGP1      NG2S1      CG2O1
   10     9    11	5 ;       HGP1      NG2S1      CG321
    7     9    11	5 ;      CG2O1      NG2S1      CG321
    9    11    12	5 ;      NG2S1      CG321      CG301
    9    11    49	5 ;      NG2S1      CG321       HGA2
    9    11    50	5 ;      NG2S1      CG321       HGA2
   12    11    49	5 ;      CG301      CG321       HGA2
   12    11    50	5 ;      CG301      CG321       HGA2
   49    11    50	5 ;       HGA2      CG321       HGA2
   11    12    20	5 ;      CG321      CG301      CG321
   11    12    23	5 ;      CG321      CG301      NG3P3
   11    12    13	5 ;      CG321      CG301      CG321
   20    12    23	5 ;      CG321      CG301      NG3P3
   20    12    13	5 ;      CG321      CG301      CG321
   23    12    13	5 ;      NG3P3      CG301      CG321
   12    13    14	5 ;      CG301      CG321     CG2R61
   12    13    51	5 ;      CG301      CG321       HGA2
   12    13    52	5 ;      CG301      CG321       HGA2
   14    13    51	5 ;     CG2R61      CG321       HGA2
   14    13    52	5 ;     CG2R61      CG321       HGA2
   51    13    52	5 ;       HGA2      CG321       HGA2
   19    14    13	5 ;     CG2R61     CG2R61      CG321
   19    14    15	5 ;     CG2R61     CG2R61     CG2R61
   13    14    15	5 ;      CG321     CG2R61     CG2R61
   14    15    16	5 ;     CG2R61     CG2R61     CG2R61
   14    15    53	5 ;     CG2R61     CG2R61      HGR61
   16    15    53	5 ;     CG2R61     CG2R61      HGR61
   17    16    15	5 ;     CG2R61     CG2R61     CG2R61
   17    16    54	5 ;     CG2R61     CG2R61      HGR61
   15    16    54	5 ;     CG2R61     CG2R61      HGR61
   18    17    16	5 ;     CG2R61     CG2R61     CG2R61
   18    17    55	5 ;     CG2R61     CG2R61      HGR61
   16    17    55	5 ;     CG2R61     CG2R61      HGR61
   19    18    17	5 ;     CG2R61     CG2R61     CG2R61
   19    18    56	5 ;     CG2R61     CG2R61      HGR61
   17    18    56	5 ;     CG2R61     CG2R61      HGR61
   18    19    14	5 ;     CG2R61     CG2R61     CG2R61
   18    19    57	5 ;     CG2R61     CG2R61      HGR61
   14    19    57	5 ;     CG2R61     CG2R61      HGR61
   21    20    12	5 ;      OG311      CG321      CG301
   21    20    58	5 ;      OG311      CG321       HGA2
   21    20    59	5 ;      OG311      CG321       HGA2
   12    20    58	5 ;      CG301      CG321       HGA2
   12    20    59	5 ;      CG301      CG321       HGA2
   58    20    59	5 ;       HGA2      CG321       HGA2
   20    21    22	5 ;      CG321      OG311       HGP1
   26    23    12	5 ;       HGP2      NG3P3      CG301
   26    23    25	5 ;       HGP2      NG3P3       HGP2
   26    23    24	5 ;       HGP2      NG3P3       HGP2
   12    23    25	5 ;      CG301      NG3P3       HGP2
   12    23    24	5 ;      CG301      NG3P3       HGP2
   25    23    24	5 ;       HGP2      NG3P3       HGP2
   28    27    29	5 ;      OG2D1      CG2O1      NG2S1
   28    27     3	5 ;      OG2D1      CG2O1     CG2R61
   29    27     3	5 ;      NG2S1      CG2O1     CG2R61
   31    29    27	5 ;      CG311      NG2S1      CG2O1
   31    29    30	5 ;      CG311      NG2S1       HGP1
   27    29    30	5 ;      CG2O1      NG2S1       HGP1
   32    31    33	5 ;      CG331      CG311     CG2R61
   32    31    29	5 ;      CG331      CG311      NG2S1
   32    31    60	5 ;      CG331      CG311       HGA1
   33    31    29	5 ;     CG2R61      CG311      NG2S1
   33    31    60	5 ;     CG2R61      CG311       HGA1
   29    31    60	5 ;      NG2S1      CG311       HGA1
   31    32    61	5 ;      CG311      CG331       HGA3
   31    32    62	5 ;      CG311      CG331       HGA3
   31    32    63	5 ;      CG311      CG331       HGA3
   61    32    62	5 ;       HGA3      CG331       HGA3
   61    32    63	5 ;       HGA3      CG331       HGA3
   62    32    63	5 ;       HGA3      CG331       HGA3
   34    33    31	5 ;     CG2R61     CG2R61      CG311
   34    33    39	5 ;     CG2R61     CG2R61     CG2R61
   31    33    39	5 ;      CG311     CG2R61     CG2R61
   35    34    33	5 ;     CG2R61     CG2R61     CG2R61
   35    34    64	5 ;     CG2R61     CG2R61      HGR61
   33    34    64	5 ;     CG2R61     CG2R61      HGR61
   34    35    36	5 ;     CG2R61     CG2R61     CG2R66
   34    35    65	5 ;     CG2R61     CG2R61      HGR62
   36    35    65	5 ;     CG2R66     CG2R61      HGR62
   35    36    37	5 ;     CG2R61     CG2R66       FGR1
   35    36    38	5 ;     CG2R61     CG2R66     CG2R61
   37    36    38	5 ;       FGR1     CG2R66     CG2R61
   36    38    39	5 ;     CG2R66     CG2R61     CG2R61
   36    38    66	5 ;     CG2R66     CG2R61      HGR62
   39    38    66	5 ;     CG2R61     CG2R61      HGR62
   33    39    38	5 ;     CG2R61     CG2R61     CG2R61
   33    39    67	5 ;     CG2R61     CG2R61      HGR61
   38    39    67	5 ;     CG2R61     CG2R61      HGR61
   41    40    42	5 ;      CG331      NG301      SG3O2
   41    40     1	5 ;      CG331      NG301     CG2R61
   42    40     1	5 ;      SG3O2      NG301     CG2R61
   40    41    68	5 ;      NG301      CG331       HGA3
   40    41    69	5 ;      NG301      CG331       HGA3
   40    41    70	5 ;      NG301      CG331       HGA3
   68    41    69	5 ;       HGA3      CG331       HGA3
   68    41    70	5 ;       HGA3      CG331       HGA3
   69    41    70	5 ;       HGA3      CG331       HGA3
   45    42    40	5 ;      CG331      SG3O2      NG301
   45    42    44	5 ;      CG331      SG3O2      OG2P1
   45    42    43	5 ;      CG331      SG3O2      OG2P1
   40    42    44	5 ;      NG301      SG3O2      OG2P1
   40    42    43	5 ;      NG301      SG3O2      OG2P1
   44    42    43	5 ;      OG2P1      SG3O2      OG2P1
   42    45    71	5 ;      SG3O2      CG331       HGA3
   42    45    72	5 ;      SG3O2      CG331       HGA3
   42    45    73	5 ;      SG3O2      CG331       HGA3
   71    45    72	5 ;       HGA3      CG331       HGA3
   71    45    73	5 ;       HGA3      CG331       HGA3
   72    45    73	5 ;       HGA3      CG331       HGA3

[ dihedrals ]
;	ai	  aj	ak	  al funct			  c0			c1			  c2			c3			  c4			c5
   40     1     2     3	 9 ;      NG301     CG2R61     CG2R61     CG2R61
   40     1     2    46	 9 ;      NG301     CG2R61     CG2R61      HGR61
    6     1     2     3	 9 ;     CG2R61     CG2R61     CG2R61     CG2R61
    6     1     2    46	 9 ;     CG2R61     CG2R61     CG2R61      HGR61
    2     1    40    41	 9 ;     CG2R61     CG2R61      NG301      CG331
    2     1    40    42	 9 ;     CG2R61     CG2R61      NG301      SG3O2
    6     1    40    41	 9 ;     CG2R61     CG2R61      NG301      CG331
    6     1    40    42	 9 ;     CG2R61     CG2R61      NG301      SG3O2
    2     1     6     5	 9 ;     CG2R61     CG2R61     CG2R61     CG2R61
    2     1     6    48	 9 ;     CG2R61     CG2R61     CG2R61      HGR61
   40     1     6     5	 9 ;      NG301     CG2R61     CG2R61     CG2R61
   40     1     6    48	 9 ;      NG301     CG2R61     CG2R61      HGR61
    1     2     3    27	 9 ;     CG2R61     CG2R61     CG2R61      CG2O1
    1     2     3     4	 9 ;     CG2R61     CG2R61     CG2R61     CG2R61
   46     2     3    27	 9 ;      HGR61     CG2R61     CG2R61      CG2O1
   46     2     3     4	 9 ;      HGR61     CG2R61     CG2R61     CG2R61
    2     3    27    28	 9 ;     CG2R61     CG2R61      CG2O1      OG2D1
    2     3    27    29	 9 ;     CG2R61     CG2R61      CG2O1      NG2S1
    4     3    27    28	 9 ;     CG2R61     CG2R61      CG2O1      OG2D1
    4     3    27    29	 9 ;     CG2R61     CG2R61      CG2O1      NG2S1
   27     3     4     5	 9 ;      CG2O1     CG2R61     CG2R61     CG2R61
   27     3     4    47	 9 ;      CG2O1     CG2R61     CG2R61      HGR61
    2     3     4     5	 9 ;     CG2R61     CG2R61     CG2R61     CG2R61
    2     3     4    47	 9 ;     CG2R61     CG2R61     CG2R61      HGR61
    3     4     5     6	 9 ;     CG2R61     CG2R61     CG2R61     CG2R61
    3     4     5     7	 9 ;     CG2R61     CG2R61     CG2R61      CG2O1
   47     4     5     6	 9 ;      HGR61     CG2R61     CG2R61     CG2R61
   47     4     5     7	 9 ;      HGR61     CG2R61     CG2R61      CG2O1
    4     5     6     1	 9 ;     CG2R61     CG2R61     CG2R61     CG2R61
    4     5     6    48	 9 ;     CG2R61     CG2R61     CG2R61      HGR61
    7     5     6     1	 9 ;      CG2O1     CG2R61     CG2R61     CG2R61
    7     5     6    48	 9 ;      CG2O1     CG2R61     CG2R61      HGR61
    4     5     7     9	 9 ;     CG2R61     CG2R61      CG2O1      NG2S1
    4     5     7     8	 9 ;     CG2R61     CG2R61      CG2O1      OG2D1
    6     5     7     9	 9 ;     CG2R61     CG2R61      CG2O1      NG2S1
    6     5     7     8	 9 ;     CG2R61     CG2R61      CG2O1      OG2D1
    5     7     9    10	 9 ;     CG2R61      CG2O1      NG2S1       HGP1
    5     7     9    11	 9 ;     CG2R61      CG2O1      NG2S1      CG321
    8     7     9    10	 9 ;      OG2D1      CG2O1      NG2S1       HGP1
    8     7     9    11	 9 ;      OG2D1      CG2O1      NG2S1      CG321
   10     9    11    12	 9 ;       HGP1      NG2S1      CG321      CG301
   10     9    11    49	 9 ;       HGP1      NG2S1      CG321       HGA2
   10     9    11    50	 9 ;       HGP1      NG2S1      CG321       HGA2
    7     9    11    12	 9 ;      CG2O1      NG2S1      CG321      CG301
    7     9    11    49	 9 ;      CG2O1      NG2S1      CG321       HGA2
    7     9    11    50	 9 ;      CG2O1      NG2S1      CG321       HGA2
    9    11    12    20	 9 ;      NG2S1      CG321      CG301      CG321
    9    11    12    23	 9 ;      NG2S1      CG321      CG301      NG3P3
    9    11    12    13	 9 ;      NG2S1      CG321      CG301      CG321
   49    11    12    20	 9 ;       HGA2      CG321      CG301      CG321
   49    11    12    23	 9 ;       HGA2      CG321      CG301      NG3P3
   49    11    12    13	 9 ;       HGA2      CG321      CG301      CG321
   50    11    12    20	 9 ;       HGA2      CG321      CG301      CG321
   50    11    12    23	 9 ;       HGA2      CG321      CG301      NG3P3
   50    11    12    13	 9 ;       HGA2      CG321      CG301      CG321
   11    12    20    21	 9 ;      CG321      CG301      CG321      OG311
   11    12    20    58	 9 ;      CG321      CG301      CG321       HGA2
   11    12    20    59	 9 ;      CG321      CG301      CG321       HGA2
   23    12    20    21	 9 ;      NG3P3      CG301      CG321      OG311
   23    12    20    58	 9 ;      NG3P3      CG301      CG321       HGA2
   23    12    20    59	 9 ;      NG3P3      CG301      CG321       HGA2
   13    12    20    21	 9 ;      CG321      CG301      CG321      OG311
   13    12    20    58	 9 ;      CG321      CG301      CG321       HGA2
   13    12    20    59	 9 ;      CG321      CG301      CG321       HGA2
   11    12    23    26	 9 ;      CG321      CG301      NG3P3       HGP2
   11    12    23    25	 9 ;      CG321      CG301      NG3P3       HGP2
   11    12    23    24	 9 ;      CG321      CG301      NG3P3       HGP2
   20    12    23    26	 9 ;      CG321      CG301      NG3P3       HGP2
   20    12    23    25	 9 ;      CG321      CG301      NG3P3       HGP2
   20    12    23    24	 9 ;      CG321      CG301      NG3P3       HGP2
   13    12    23    26	 9 ;      CG321      CG301      NG3P3       HGP2
   13    12    23    25	 9 ;      CG321      CG301      NG3P3       HGP2
   13    12    23    24	 9 ;      CG321      CG301      NG3P3       HGP2
   11    12    13    14	 9 ;      CG321      CG301      CG321     CG2R61
   11    12    13    51	 9 ;      CG321      CG301      CG321       HGA2
   11    12    13    52	 9 ;      CG321      CG301      CG321       HGA2
   20    12    13    14	 9 ;      CG321      CG301      CG321     CG2R61
   20    12    13    51	 9 ;      CG321      CG301      CG321       HGA2
   20    12    13    52	 9 ;      CG321      CG301      CG321       HGA2
   23    12    13    14	 9 ;      NG3P3      CG301      CG321     CG2R61
   23    12    13    51	 9 ;      NG3P3      CG301      CG321       HGA2
   23    12    13    52	 9 ;      NG3P3      CG301      CG321       HGA2
   12    13    14    19	 9 ;      CG301      CG321     CG2R61     CG2R61
   12    13    14    15	 9 ;      CG301      CG321     CG2R61     CG2R61
   51    13    14    19	 9 ;       HGA2      CG321     CG2R61     CG2R61
   51    13    14    15	 9 ;       HGA2      CG321     CG2R61     CG2R61
   52    13    14    19	 9 ;       HGA2      CG321     CG2R61     CG2R61
   52    13    14    15	 9 ;       HGA2      CG321     CG2R61     CG2R61
   13    14    19    18	 9 ;      CG321     CG2R61     CG2R61     CG2R61
   13    14    19    57	 9 ;      CG321     CG2R61     CG2R61      HGR61
   15    14    19    18	 9 ;     CG2R61     CG2R61     CG2R61     CG2R61
   15    14    19    57	 9 ;     CG2R61     CG2R61     CG2R61      HGR61
   19    14    15    16	 9 ;     CG2R61     CG2R61     CG2R61     CG2R61
   19    14    15    53	 9 ;     CG2R61     CG2R61     CG2R61      HGR61
   13    14    15    16	 9 ;      CG321     CG2R61     CG2R61     CG2R61
   13    14    15    53	 9 ;      CG321     CG2R61     CG2R61      HGR61
   14    15    16    17	 9 ;     CG2R61     CG2R61     CG2R61     CG2R61
   14    15    16    54	 9 ;     CG2R61     CG2R61     CG2R61      HGR61
   53    15    16    17	 9 ;      HGR61     CG2R61     CG2R61     CG2R61
   53    15    16    54	 9 ;      HGR61     CG2R61     CG2R61      HGR61
   15    16    17    18	 9 ;     CG2R61     CG2R61     CG2R61     CG2R61
   15    16    17    55	 9 ;     CG2R61     CG2R61     CG2R61      HGR61
   54    16    17    18	 9 ;      HGR61     CG2R61     CG2R61     CG2R61
   54    16    17    55	 9 ;      HGR61     CG2R61     CG2R61      HGR61
   16    17    18    19	 9 ;     CG2R61     CG2R61     CG2R61     CG2R61
   16    17    18    56	 9 ;     CG2R61     CG2R61     CG2R61      HGR61
   55    17    18    19	 9 ;      HGR61     CG2R61     CG2R61     CG2R61
   55    17    18    56	 9 ;      HGR61     CG2R61     CG2R61      HGR61
   17    18    19    14	 9 ;     CG2R61     CG2R61     CG2R61     CG2R61
   17    18    19    57	 9 ;     CG2R61     CG2R61     CG2R61      HGR61
   56    18    19    14	 9 ;      HGR61     CG2R61     CG2R61     CG2R61
   56    18    19    57	 9 ;      HGR61     CG2R61     CG2R61      HGR61
   12    20    21    22	 9 ;      CG301      CG321      OG311       HGP1
   58    20    21    22	 9 ;       HGA2      CG321      OG311       HGP1
   59    20    21    22	 9 ;       HGA2      CG321      OG311       HGP1
   28    27    29    31	 9 ;      OG2D1      CG2O1      NG2S1      CG311
   28    27    29    30	 9 ;      OG2D1      CG2O1      NG2S1       HGP1
    3    27    29    31	 9 ;     CG2R61      CG2O1      NG2S1      CG311
    3    27    29    30	 9 ;     CG2R61      CG2O1      NG2S1       HGP1
   27    29    31    32	 9 ;      CG2O1      NG2S1      CG311      CG331
   27    29    31    33	 9 ;      CG2O1      NG2S1      CG311     CG2R61
   27    29    31    60	 9 ;      CG2O1      NG2S1      CG311       HGA1
   30    29    31    32	 9 ;       HGP1      NG2S1      CG311      CG331
   30    29    31    33	 9 ;       HGP1      NG2S1      CG311     CG2R61
   30    29    31    60	 9 ;       HGP1      NG2S1      CG311       HGA1
   33    31    32    61	 9 ;     CG2R61      CG311      CG331       HGA3
   33    31    32    62	 9 ;     CG2R61      CG311      CG331       HGA3
   33    31    32    63	 9 ;     CG2R61      CG311      CG331       HGA3
   29    31    32    61	 9 ;      NG2S1      CG311      CG331       HGA3
   29    31    32    62	 9 ;      NG2S1      CG311      CG331       HGA3
   29    31    32    63	 9 ;      NG2S1      CG311      CG331       HGA3
   60    31    32    61	 9 ;       HGA1      CG311      CG331       HGA3
   60    31    32    62	 9 ;       HGA1      CG311      CG331       HGA3
   60    31    32    63	 9 ;       HGA1      CG311      CG331       HGA3
   32    31    33    34	 9 ;      CG331      CG311     CG2R61     CG2R61
   32    31    33    39	 9 ;      CG331      CG311     CG2R61     CG2R61
   29    31    33    34	 9 ;      NG2S1      CG311     CG2R61     CG2R61
   29    31    33    39	 9 ;      NG2S1      CG311     CG2R61     CG2R61
   60    31    33    34	 9 ;       HGA1      CG311     CG2R61     CG2R61
   60    31    33    39	 9 ;       HGA1      CG311     CG2R61     CG2R61
   31    33    34    35	 9 ;      CG311     CG2R61     CG2R61     CG2R61
   31    33    34    64	 9 ;      CG311     CG2R61     CG2R61      HGR61
   39    33    34    35	 9 ;     CG2R61     CG2R61     CG2R61     CG2R61
   39    33    34    64	 9 ;     CG2R61     CG2R61     CG2R61      HGR61
   34    33    39    38	 9 ;     CG2R61     CG2R61     CG2R61     CG2R61
   34    33    39    67	 9 ;     CG2R61     CG2R61     CG2R61      HGR61
   31    33    39    38	 9 ;      CG311     CG2R61     CG2R61     CG2R61
   31    33    39    67	 9 ;      CG311     CG2R61     CG2R61      HGR61
   33    34    35    36	 9 ;     CG2R61     CG2R61     CG2R61     CG2R66
   33    34    35    65	 9 ;     CG2R61     CG2R61     CG2R61      HGR62
   64    34    35    36	 9 ;      HGR61     CG2R61     CG2R61     CG2R66
   64    34    35    65	 9 ;      HGR61     CG2R61     CG2R61      HGR62
   34    35    36    37	 9 ;     CG2R61     CG2R61     CG2R66       FGR1
   34    35    36    38	 9 ;     CG2R61     CG2R61     CG2R66     CG2R61
   65    35    36    37	 9 ;      HGR62     CG2R61     CG2R66       FGR1
   65    35    36    38	 9 ;      HGR62     CG2R61     CG2R66     CG2R61
   35    36    38    39	 9 ;     CG2R61     CG2R66     CG2R61     CG2R61
   35    36    38    66	 9 ;     CG2R61     CG2R66     CG2R61      HGR62
   37    36    38    39	 9 ;       FGR1     CG2R66     CG2R61     CG2R61
   37    36    38    66	 9 ;       FGR1     CG2R66     CG2R61      HGR62
   36    38    39    33	 9 ;     CG2R66     CG2R61     CG2R61     CG2R61
   36    38    39    67	 9 ;     CG2R66     CG2R61     CG2R61      HGR61
   66    38    39    33	 9 ;      HGR62     CG2R61     CG2R61     CG2R61
   66    38    39    67	 9 ;      HGR62     CG2R61     CG2R61      HGR61
   42    40    41    68	 9 ;      SG3O2      NG301      CG331       HGA3
   42    40    41    69	 9 ;      SG3O2      NG301      CG331       HGA3
   42    40    41    70	 9 ;      SG3O2      NG301      CG331       HGA3
    1    40    41    68	 9 ;     CG2R61      NG301      CG331       HGA3
    1    40    41    69	 9 ;     CG2R61      NG301      CG331       HGA3
    1    40    41    70	 9 ;     CG2R61      NG301      CG331       HGA3
   41    40    42    45	 9 ;      CG331      NG301      SG3O2      CG331
   41    40    42    44	 9 ;      CG331      NG301      SG3O2      OG2P1
   41    40    42    43	 9 ;      CG331      NG301      SG3O2      OG2P1
    1    40    42    45	 9 ;     CG2R61      NG301      SG3O2      CG331
    1    40    42    44	 9 ;     CG2R61      NG301      SG3O2      OG2P1
    1    40    42    43	 9 ;     CG2R61      NG301      SG3O2      OG2P1
   40    42    45    71	 9 ;      NG301      SG3O2      CG331       HGA3
   40    42    45    72	 9 ;      NG301      SG3O2      CG331       HGA3
   40    42    45    73	 9 ;      NG301      SG3O2      CG331       HGA3
   44    42    45    71	 9 ;      OG2P1      SG3O2      CG331       HGA3
   44    42    45    72	 9 ;      OG2P1      SG3O2      CG331       HGA3
   44    42    45    73	 9 ;      OG2P1      SG3O2      CG331       HGA3
   43    42    45    71	 9 ;      OG2P1      SG3O2      CG331       HGA3
   43    42    45    72	 9 ;      OG2P1      SG3O2      CG331       HGA3
   43    42    45    73	 9 ;      OG2P1      SG3O2      CG331       HGA3

[ dihedrals ]
;	ai	  aj	ak	  al funct			  c0			c1			  c2			c3
    7     5     9     8	 2
   27     3    29    28	 2

