; Created by cgenff_charmm2gmx.py

[ moleculetype ]
; Name			   nrexcl
LIG				 3

[ atoms ]
;	 nr		  type	resnr residue  atom   cgnr	   charge		mass  typeB    chargeB		massB
; residue	 1 LIG rtp LIG q	qsum
     1     CG2R67      1    LIG     C1      1      0.006     12.011   ;
     2     CG2R61      1    LIG     C2      2     -0.119     12.011   ;
     3     CG2R61      1    LIG     C3      3     -0.116     12.011   ;
     4     CG2R61      1    LIG     C4      4     -0.035     12.011   ;
     5     CG2R61      1    LIG     C5      5     -0.116     12.011   ;
     6     CG2R61      1    LIG     C6      6     -0.119     12.011   ;
     7     CG3C31      1    LIG     C7      7     -0.056     12.011   ;
     8     CG3C31      1    LIG     C8      8     -0.174     12.011   ;
     9     CG3C31      1    LIG     C9      9      0.064     12.011   ;
    10     CG2D1O      1    LIG    C10     10     -0.045     12.011   ;
    11      NG311      1    LIG     N1     11     -0.587     14.007   ;
    12      CG311      1    LIG    C11     12      0.307     12.011   ;
    13     HGPAM1      1    LIG     HN     13      0.349      1.008   ;
    14      NG2S0      1    LIG     N2     14     -0.161     14.007   ;
    15      CG331      1    LIG    C12     15     -0.238     12.011   ;
    16      CG2O1      1    LIG    C13     16      0.416     12.011   ;
    17      OG2D1      1    LIG     O1     17     -0.530     15.999   ;
    18     CG2DC1      1    LIG    C14     18      0.087     12.011   ;
    19      NG321      1    LIG     N3     19     -1.085     14.007   ;
    20     HGPAM2      1    LIG     H1     20      0.416      1.008   ;
    21     HGPAM2      1    LIG     H2     21      0.416      1.008   ;
    22     CG2R67      1    LIG    C15     22      0.006     12.011   ;
    23     CG2R61      1    LIG    C16     23     -0.120     12.011   ;
    24     CG2R61      1    LIG    C17     24      0.220     12.011   ;
    25     CG2R61      1    LIG    C18     25     -0.113     12.011   ;
    26     CG2R61      1    LIG    C19     26     -0.116     12.011   ;
    27     CG2R61      1    LIG    C20     27     -0.119     12.011   ;
    28      OG301      1    LIG     O2     28     -0.394     15.999   ;
    29      CG321      1    LIG    C21     29     -0.010     12.011   ;
    30      CG321      1    LIG    C22     30     -0.178     12.011   ;
    31      CG331      1    LIG    C23     31     -0.270     12.011   ;
    32      HGR61      1    LIG     HC     32      0.116      1.008   ;
    33      HGR61      1    LIG    HC1     33      0.116      1.008   ;
    34      HGR61      1    LIG    HC2     34      0.116      1.008   ;
    35      HGR61      1    LIG    HC3     35      0.116      1.008   ;
    36       HGA1      1    LIG    HC4     36      0.090      1.008   ;
    37       HGA2      1    LIG    HC5     37      0.090      1.008   ;
    38       HGA2      1    LIG    HC6     38      0.090      1.008   ;
    39       HGA1      1    LIG    HC7     39      0.090      1.008   ;
    40       HGA3      1    LIG    HC8     40      0.090      1.008   ;
    41       HGA3      1    LIG    HC9     41      0.090      1.008   ;
    42       HGA3      1    LIG   HC10     42      0.090      1.008   ;
    43       HGA4      1    LIG   HC11     43      0.136      1.008   ;
    44      HGR61      1    LIG   HC12     44      0.116      1.008   ;
    45      HGR61      1    LIG   HC13     45      0.116      1.008   ;
    46      HGR61      1    LIG   HC14     46      0.116      1.008   ;
    47      HGR61      1    LIG   HC15     47      0.116      1.008   ;
    48       HGA2      1    LIG   HC16     48      0.090      1.008   ;
    49       HGA2      1    LIG   HC17     49      0.090      1.008   ;
    50       HGA2      1    LIG   HC18     50      0.090      1.008   ;
    51       HGA2      1    LIG   HC19     51      0.090      1.008   ;
    52       HGA3      1    LIG   HC20     52      0.090      1.008   ;
    53       HGA3      1    LIG   HC21     53      0.090      1.008   ;
    54       HGA3      1    LIG   HC22     54      0.090      1.008   ;
    55       HGA1      1    LIG    H27     55      0.090      1.008   ;

[ bonds ]
;	ai	  aj funct			  c0			c1			  c2			c3
    1     6	 1 ;      CG2R67     CG2R61
    1     2	 1 ;      CG2R67     CG2R61
    1    22	 1 ;      CG2R67     CG2R67
    2     3	 1 ;      CG2R61     CG2R61
    2    32	 1 ;      CG2R61      HGR61
    3     4	 1 ;      CG2R61     CG2R61
    3    33	 1 ;      CG2R61      HGR61
    4     7	 1 ;      CG2R61     CG3C31
    4     5	 1 ;      CG2R61     CG2R61
    5     6	 1 ;      CG2R61     CG2R61
    5    34	 1 ;      CG2R61      HGR61
    6    35	 1 ;      CG2R61      HGR61
    7     9	 1 ;      CG3C31     CG3C31
    7     8	 1 ;      CG3C31     CG3C31
    7    36	 1 ;      CG3C31       HGA1
    8     9	 1 ;      CG3C31     CG3C31
    8    37	 1 ;      CG3C31       HGA2
    8    38	 1 ;      CG3C31       HGA2
    9    10	 1 ;      CG3C31     CG2D1O
    9    39	 1 ;      CG3C31       HGA1
   10    18	 1 ;      CG2D1O     CG2DC1
   10    11	 1 ;      CG2D1O      NG311
   11    13	 1 ;       NG311     HGPAM1
   11    12	 1 ;       NG311      CG311
   12    14	 1 ;       CG311      NG2S0
   12    19	 1 ;       CG311      NG321
   12    55	 1 ;       CG311       HGA1
   14    16	 1 ;       NG2S0      CG2O1
   14    15	 1 ;       NG2S0      CG331
   15    40	 1 ;       CG331       HGA3
   15    41	 1 ;       CG331       HGA3
   15    42	 1 ;       CG331       HGA3
   16    18	 1 ;       CG2O1     CG2DC1
   16    17	 1 ;       CG2O1      OG2D1
   18    43	 1 ;      CG2DC1       HGA4
   19    21	 1 ;       NG321     HGPAM2
   19    20	 1 ;       NG321     HGPAM2
   22    23	 1 ;      CG2R67     CG2R61
   22    27	 1 ;      CG2R67     CG2R61
   23    24	 1 ;      CG2R61     CG2R61
   23    44	 1 ;      CG2R61      HGR61
   24    28	 1 ;      CG2R61      OG301
   24    25	 1 ;      CG2R61     CG2R61
   25    26	 1 ;      CG2R61     CG2R61
   25    45	 1 ;      CG2R61      HGR61
   26    27	 1 ;      CG2R61     CG2R61
   26    46	 1 ;      CG2R61      HGR61
   27    47	 1 ;      CG2R61      HGR61
   28    29	 1 ;       OG301      CG321
   29    30	 1 ;       CG321      CG321
   29    48	 1 ;       CG321       HGA2
   29    49	 1 ;       CG321       HGA2
   30    31	 1 ;       CG321      CG331
   30    50	 1 ;       CG321       HGA2
   30    51	 1 ;       CG321       HGA2
   31    52	 1 ;       CG331       HGA3
   31    53	 1 ;       CG331       HGA3
   31    54	 1 ;       CG331       HGA3

[ pairs ]
;	ai	  aj funct			  c0			c1			  c2			c3
    1     4	 1
    1    33	 1
    1    34	 1
    1    24	 1
    1    44	 1
    1    26	 1
    1    47	 1
    2     5	 1
    2    35	 1
    2    23	 1
    2    27	 1
    2     7	 1
    3     6	 1
    3    22	 1
    3     9	 1
    3     8	 1
    3    36	 1
    3    34	 1
    4    32	 1
    4    35	 1
    4    10	 1
    4    39	 1
    4    37	 1
    4    38	 1
    5    22	 1
    5    33	 1
    5     9	 1
    5     8	 1
    5    36	 1
    6    32	 1
    6    23	 1
    6    27	 1
    6     7	 1
    7    33	 1
    7    34	 1
    7    18	 1
    7    11	 1
    8    18	 1
    8    11	 1
    9    16	 1
    9    43	 1
    9    13	 1
    9    12	 1
   10    36	 1
   10    37	 1
   10    38	 1
   10    14	 1
   10    19	 1
   10    55	 1
   10    17	 1
   11    39	 1
   11    16	 1
   11    43	 1
   11    15	 1
   11    21	 1
   11    20	 1
   12    18	 1
   12    17	 1
   12    40	 1
   12    41	 1
   12    42	 1
   13    18	 1
   13    14	 1
   13    19	 1
   13    55	 1
   14    21	 1
   14    20	 1
   14    43	 1
   15    19	 1
   15    55	 1
   15    18	 1
   15    17	 1
   16    19	 1
   16    55	 1
   16    40	 1
   16    41	 1
   16    42	 1
   17    43	 1
   18    39	 1
   20    55	 1
   21    55	 1
   22    35	 1
   22    32	 1
   22    28	 1
   22    25	 1
   22    46	 1
   23    26	 1
   23    47	 1
   23    29	 1
   23    45	 1
   24    27	 1
   24    46	 1
   24    30	 1
   24    48	 1
   24    49	 1
   25    44	 1
   25    29	 1
   25    47	 1
   26    28	 1
   27    44	 1
   27    45	 1
   28    44	 1
   28    45	 1
   28    31	 1
   28    50	 1
   28    51	 1
   29    52	 1
   29    53	 1
   29    54	 1
   31    48	 1
   31    49	 1
   32    33	 1
   34    35	 1
   36    39	 1
   36    37	 1
   36    38	 1
   37    39	 1
   38    39	 1
   45    46	 1
   46    47	 1
   48    50	 1
   48    51	 1
   49    50	 1
   49    51	 1
   50    52	 1
   50    53	 1
   50    54	 1
   51    52	 1
   51    53	 1
   51    54	 1

[ angles ]
;	ai	  aj	ak funct			c0			  c1			c2			  c3
    6     1     2	5 ;     CG2R61     CG2R67     CG2R61
    6     1    22	5 ;     CG2R61     CG2R67     CG2R67
    2     1    22	5 ;     CG2R61     CG2R67     CG2R67
    3     2     1	5 ;     CG2R61     CG2R61     CG2R67
    3     2    32	5 ;     CG2R61     CG2R61      HGR61
    1     2    32	5 ;     CG2R67     CG2R61      HGR61
    4     3     2	5 ;     CG2R61     CG2R61     CG2R61
    4     3    33	5 ;     CG2R61     CG2R61      HGR61
    2     3    33	5 ;     CG2R61     CG2R61      HGR61
    7     4     5	5 ;     CG3C31     CG2R61     CG2R61
    7     4     3	5 ;     CG3C31     CG2R61     CG2R61
    5     4     3	5 ;     CG2R61     CG2R61     CG2R61
    4     5     6	5 ;     CG2R61     CG2R61     CG2R61
    4     5    34	5 ;     CG2R61     CG2R61      HGR61
    6     5    34	5 ;     CG2R61     CG2R61      HGR61
    5     6     1	5 ;     CG2R61     CG2R61     CG2R67
    5     6    35	5 ;     CG2R61     CG2R61      HGR61
    1     6    35	5 ;     CG2R67     CG2R61      HGR61
    9     7     8	5 ;     CG3C31     CG3C31     CG3C31
    9     7     4	5 ;     CG3C31     CG3C31     CG2R61
    9     7    36	5 ;     CG3C31     CG3C31       HGA1
    8     7     4	5 ;     CG3C31     CG3C31     CG2R61
    8     7    36	5 ;     CG3C31     CG3C31       HGA1
    4     7    36	5 ;     CG2R61     CG3C31       HGA1
    9     8     7	5 ;     CG3C31     CG3C31     CG3C31
    9     8    37	5 ;     CG3C31     CG3C31       HGA2
    9     8    38	5 ;     CG3C31     CG3C31       HGA2
    7     8    37	5 ;     CG3C31     CG3C31       HGA2
    7     8    38	5 ;     CG3C31     CG3C31       HGA2
   37     8    38	5 ;       HGA2     CG3C31       HGA2
   10     9     8	5 ;     CG2D1O     CG3C31     CG3C31
   10     9     7	5 ;     CG2D1O     CG3C31     CG3C31
   10     9    39	5 ;     CG2D1O     CG3C31       HGA1
    8     9     7	5 ;     CG3C31     CG3C31     CG3C31
    8     9    39	5 ;     CG3C31     CG3C31       HGA1
    7     9    39	5 ;     CG3C31     CG3C31       HGA1
   18    10     9	5 ;     CG2DC1     CG2D1O     CG3C31
   18    10    11	5 ;     CG2DC1     CG2D1O      NG311
    9    10    11	5 ;     CG3C31     CG2D1O      NG311
   10    11    13	5 ;     CG2D1O      NG311     HGPAM1
   10    11    12	5 ;     CG2D1O      NG311      CG311
   13    11    12	5 ;     HGPAM1      NG311      CG311
   11    12    14	5 ;      NG311      CG311      NG2S0
   11    12    19	5 ;      NG311      CG311      NG321
   11    12    55	5 ;      NG311      CG311       HGA1
   14    12    19	5 ;      NG2S0      CG311      NG321
   14    12    55	5 ;      NG2S0      CG311       HGA1
   19    12    55	5 ;      NG321      CG311       HGA1
   16    14    12	5 ;      CG2O1      NG2S0      CG311
   16    14    15	5 ;      CG2O1      NG2S0      CG331
   12    14    15	5 ;      CG311      NG2S0      CG331
   14    15    40	5 ;      NG2S0      CG331       HGA3
   14    15    41	5 ;      NG2S0      CG331       HGA3
   14    15    42	5 ;      NG2S0      CG331       HGA3
   40    15    41	5 ;       HGA3      CG331       HGA3
   40    15    42	5 ;       HGA3      CG331       HGA3
   41    15    42	5 ;       HGA3      CG331       HGA3
   18    16    17	5 ;     CG2DC1      CG2O1      OG2D1
   18    16    14	5 ;     CG2DC1      CG2O1      NG2S0
   17    16    14	5 ;      OG2D1      CG2O1      NG2S0
   10    18    16	5 ;     CG2D1O     CG2DC1      CG2O1
   10    18    43	5 ;     CG2D1O     CG2DC1       HGA4
   16    18    43	5 ;      CG2O1     CG2DC1       HGA4
   12    19    21	5 ;      CG311      NG321     HGPAM2
   12    19    20	5 ;      CG311      NG321     HGPAM2
   21    19    20	5 ;     HGPAM2      NG321     HGPAM2
    1    22    23	5 ;     CG2R67     CG2R67     CG2R61
    1    22    27	5 ;     CG2R67     CG2R67     CG2R61
   23    22    27	5 ;     CG2R61     CG2R67     CG2R61
   22    23    24	5 ;     CG2R67     CG2R61     CG2R61
   22    23    44	5 ;     CG2R67     CG2R61      HGR61
   24    23    44	5 ;     CG2R61     CG2R61      HGR61
   23    24    28	5 ;     CG2R61     CG2R61      OG301
   23    24    25	5 ;     CG2R61     CG2R61     CG2R61
   28    24    25	5 ;      OG301     CG2R61     CG2R61
   24    25    26	5 ;     CG2R61     CG2R61     CG2R61
   24    25    45	5 ;     CG2R61     CG2R61      HGR61
   26    25    45	5 ;     CG2R61     CG2R61      HGR61
   27    26    25	5 ;     CG2R61     CG2R61     CG2R61
   27    26    46	5 ;     CG2R61     CG2R61      HGR61
   25    26    46	5 ;     CG2R61     CG2R61      HGR61
   22    27    26	5 ;     CG2R67     CG2R61     CG2R61
   22    27    47	5 ;     CG2R67     CG2R61      HGR61
   26    27    47	5 ;     CG2R61     CG2R61      HGR61
   24    28    29	5 ;     CG2R61      OG301      CG321
   28    29    30	5 ;      OG301      CG321      CG321
   28    29    48	5 ;      OG301      CG321       HGA2
   28    29    49	5 ;      OG301      CG321       HGA2
   30    29    48	5 ;      CG321      CG321       HGA2
   30    29    49	5 ;      CG321      CG321       HGA2
   48    29    49	5 ;       HGA2      CG321       HGA2
   29    30    31	5 ;      CG321      CG321      CG331
   29    30    50	5 ;      CG321      CG321       HGA2
   29    30    51	5 ;      CG321      CG321       HGA2
   31    30    50	5 ;      CG331      CG321       HGA2
   31    30    51	5 ;      CG331      CG321       HGA2
   50    30    51	5 ;       HGA2      CG321       HGA2
   30    31    52	5 ;      CG321      CG331       HGA3
   30    31    53	5 ;      CG321      CG331       HGA3
   30    31    54	5 ;      CG321      CG331       HGA3
   52    31    53	5 ;       HGA3      CG331       HGA3
   52    31    54	5 ;       HGA3      CG331       HGA3
   53    31    54	5 ;       HGA3      CG331       HGA3

[ dihedrals ]
;	ai	  aj	ak	  al funct			  c0			c1			  c2			c3			  c4			c5
    2     1     6     5	 9 ;     CG2R61     CG2R67     CG2R61     CG2R61
    2     1     6    35	 9 ;     CG2R61     CG2R67     CG2R61      HGR61
   22     1     6     5	 9 ;     CG2R67     CG2R67     CG2R61     CG2R61
   22     1     6    35	 9 ;     CG2R67     CG2R67     CG2R61      HGR61
    6     1     2     3	 9 ;     CG2R61     CG2R67     CG2R61     CG2R61
    6     1     2    32	 9 ;     CG2R61     CG2R67     CG2R61      HGR61
   22     1     2     3	 9 ;     CG2R67     CG2R67     CG2R61     CG2R61
   22     1     2    32	 9 ;     CG2R67     CG2R67     CG2R61      HGR61
    6     1    22    23	 9 ;     CG2R61     CG2R67     CG2R67     CG2R61
    6     1    22    27	 9 ;     CG2R61     CG2R67     CG2R67     CG2R61
    2     1    22    23	 9 ;     CG2R61     CG2R67     CG2R67     CG2R61
    2     1    22    27	 9 ;     CG2R61     CG2R67     CG2R67     CG2R61
    1     2     3     4	 9 ;     CG2R67     CG2R61     CG2R61     CG2R61
    1     2     3    33	 9 ;     CG2R67     CG2R61     CG2R61      HGR61
   32     2     3     4	 9 ;      HGR61     CG2R61     CG2R61     CG2R61
   32     2     3    33	 9 ;      HGR61     CG2R61     CG2R61      HGR61
    2     3     4     7	 9 ;     CG2R61     CG2R61     CG2R61     CG3C31
    2     3     4     5	 9 ;     CG2R61     CG2R61     CG2R61     CG2R61
   33     3     4     7	 9 ;      HGR61     CG2R61     CG2R61     CG3C31
   33     3     4     5	 9 ;      HGR61     CG2R61     CG2R61     CG2R61
    5     4     7     9	 9 ;     CG2R61     CG2R61     CG3C31     CG3C31
    5     4     7     8	 9 ;     CG2R61     CG2R61     CG3C31     CG3C31
    5     4     7    36	 9 ;     CG2R61     CG2R61     CG3C31       HGA1
    3     4     7     9	 9 ;     CG2R61     CG2R61     CG3C31     CG3C31
    3     4     7     8	 9 ;     CG2R61     CG2R61     CG3C31     CG3C31
    3     4     7    36	 9 ;     CG2R61     CG2R61     CG3C31       HGA1
    7     4     5     6	 9 ;     CG3C31     CG2R61     CG2R61     CG2R61
    7     4     5    34	 9 ;     CG3C31     CG2R61     CG2R61      HGR61
    3     4     5     6	 9 ;     CG2R61     CG2R61     CG2R61     CG2R61
    3     4     5    34	 9 ;     CG2R61     CG2R61     CG2R61      HGR61
    4     5     6     1	 9 ;     CG2R61     CG2R61     CG2R61     CG2R67
    4     5     6    35	 9 ;     CG2R61     CG2R61     CG2R61      HGR61
   34     5     6     1	 9 ;      HGR61     CG2R61     CG2R61     CG2R67
   34     5     6    35	 9 ;      HGR61     CG2R61     CG2R61      HGR61
    8     7     9    10	 9 ;     CG3C31     CG3C31     CG3C31     CG2D1O
    8     7     9    39	 9 ;     CG3C31     CG3C31     CG3C31       HGA1
    4     7     9    10	 9 ;     CG2R61     CG3C31     CG3C31     CG2D1O
    4     7     9     8	 9 ;     CG2R61     CG3C31     CG3C31     CG3C31
    4     7     9    39	 9 ;     CG2R61     CG3C31     CG3C31       HGA1
   36     7     9    10	 9 ;       HGA1     CG3C31     CG3C31     CG2D1O
   36     7     9     8	 9 ;       HGA1     CG3C31     CG3C31     CG3C31
   36     7     9    39	 9 ;       HGA1     CG3C31     CG3C31       HGA1
    9     7     8    37	 9 ;     CG3C31     CG3C31     CG3C31       HGA2
    9     7     8    38	 9 ;     CG3C31     CG3C31     CG3C31       HGA2
    4     7     8     9	 9 ;     CG2R61     CG3C31     CG3C31     CG3C31
    4     7     8    37	 9 ;     CG2R61     CG3C31     CG3C31       HGA2
    4     7     8    38	 9 ;     CG2R61     CG3C31     CG3C31       HGA2
   36     7     8     9	 9 ;       HGA1     CG3C31     CG3C31     CG3C31
   36     7     8    37	 9 ;       HGA1     CG3C31     CG3C31       HGA2
   36     7     8    38	 9 ;       HGA1     CG3C31     CG3C31       HGA2
    7     8     9    10	 9 ;     CG3C31     CG3C31     CG3C31     CG2D1O
    7     8     9    39	 9 ;     CG3C31     CG3C31     CG3C31       HGA1
   37     8     9    10	 9 ;       HGA2     CG3C31     CG3C31     CG2D1O
   37     8     9     7	 9 ;       HGA2     CG3C31     CG3C31     CG3C31
   37     8     9    39	 9 ;       HGA2     CG3C31     CG3C31       HGA1
   38     8     9    10	 9 ;       HGA2     CG3C31     CG3C31     CG2D1O
   38     8     9     7	 9 ;       HGA2     CG3C31     CG3C31     CG3C31
   38     8     9    39	 9 ;       HGA2     CG3C31     CG3C31       HGA1
    8     9    10    18	 9 ;     CG3C31     CG3C31     CG2D1O     CG2DC1
    8     9    10    11	 9 ;     CG3C31     CG3C31     CG2D1O      NG311
    7     9    10    18	 9 ;     CG3C31     CG3C31     CG2D1O     CG2DC1
    7     9    10    11	 9 ;     CG3C31     CG3C31     CG2D1O      NG311
   39     9    10    18	 9 ;       HGA1     CG3C31     CG2D1O     CG2DC1
   39     9    10    11	 9 ;       HGA1     CG3C31     CG2D1O      NG311
    9    10    18    16	 9 ;     CG3C31     CG2D1O     CG2DC1      CG2O1
    9    10    18    43	 9 ;     CG3C31     CG2D1O     CG2DC1       HGA4
   11    10    18    16	 9 ;      NG311     CG2D1O     CG2DC1      CG2O1
   11    10    18    43	 9 ;      NG311     CG2D1O     CG2DC1       HGA4
   18    10    11    13	 9 ;     CG2DC1     CG2D1O      NG311     HGPAM1
   18    10    11    12	 9 ;     CG2DC1     CG2D1O      NG311      CG311
    9    10    11    13	 9 ;     CG3C31     CG2D1O      NG311     HGPAM1
    9    10    11    12	 9 ;     CG3C31     CG2D1O      NG311      CG311
   10    11    12    14	 9 ;     CG2D1O      NG311      CG311      NG2S0
   10    11    12    19	 9 ;     CG2D1O      NG311      CG311      NG321
   10    11    12    55	 9 ;     CG2D1O      NG311      CG311       HGA1
   13    11    12    14	 9 ;     HGPAM1      NG311      CG311      NG2S0
   13    11    12    19	 9 ;     HGPAM1      NG311      CG311      NG321
   13    11    12    55	 9 ;     HGPAM1      NG311      CG311       HGA1
   11    12    14    16	 9 ;      NG311      CG311      NG2S0      CG2O1
   11    12    14    15	 9 ;      NG311      CG311      NG2S0      CG331
   19    12    14    16	 9 ;      NG321      CG311      NG2S0      CG2O1
   19    12    14    15	 9 ;      NG321      CG311      NG2S0      CG331
   55    12    14    16	 9 ;       HGA1      CG311      NG2S0      CG2O1
   55    12    14    15	 9 ;       HGA1      CG311      NG2S0      CG331
   11    12    19    21	 9 ;      NG311      CG311      NG321     HGPAM2
   11    12    19    20	 9 ;      NG311      CG311      NG321     HGPAM2
   14    12    19    21	 9 ;      NG2S0      CG311      NG321     HGPAM2
   14    12    19    20	 9 ;      NG2S0      CG311      NG321     HGPAM2
   55    12    19    21	 9 ;       HGA1      CG311      NG321     HGPAM2
   55    12    19    20	 9 ;       HGA1      CG311      NG321     HGPAM2
   12    14    16    18	 9 ;      CG311      NG2S0      CG2O1     CG2DC1
   12    14    16    17	 9 ;      CG311      NG2S0      CG2O1      OG2D1
   15    14    16    18	 9 ;      CG331      NG2S0      CG2O1     CG2DC1
   15    14    16    17	 9 ;      CG331      NG2S0      CG2O1      OG2D1
   16    14    15    40	 9 ;      CG2O1      NG2S0      CG331       HGA3
   16    14    15    41	 9 ;      CG2O1      NG2S0      CG331       HGA3
   16    14    15    42	 9 ;      CG2O1      NG2S0      CG331       HGA3
   12    14    15    40	 9 ;      CG311      NG2S0      CG331       HGA3
   12    14    15    41	 9 ;      CG311      NG2S0      CG331       HGA3
   12    14    15    42	 9 ;      CG311      NG2S0      CG331       HGA3
   17    16    18    10	 9 ;      OG2D1      CG2O1     CG2DC1     CG2D1O
   17    16    18    43	 9 ;      OG2D1      CG2O1     CG2DC1       HGA4
   14    16    18    10	 9 ;      NG2S0      CG2O1     CG2DC1     CG2D1O
   14    16    18    43	 9 ;      NG2S0      CG2O1     CG2DC1       HGA4
    1    22    23    24	 9 ;     CG2R67     CG2R67     CG2R61     CG2R61
    1    22    23    44	 9 ;     CG2R67     CG2R67     CG2R61      HGR61
   27    22    23    24	 9 ;     CG2R61     CG2R67     CG2R61     CG2R61
   27    22    23    44	 9 ;     CG2R61     CG2R67     CG2R61      HGR61
    1    22    27    26	 9 ;     CG2R67     CG2R67     CG2R61     CG2R61
    1    22    27    47	 9 ;     CG2R67     CG2R67     CG2R61      HGR61
   23    22    27    26	 9 ;     CG2R61     CG2R67     CG2R61     CG2R61
   23    22    27    47	 9 ;     CG2R61     CG2R67     CG2R61      HGR61
   22    23    24    28	 9 ;     CG2R67     CG2R61     CG2R61      OG301
   22    23    24    25	 9 ;     CG2R67     CG2R61     CG2R61     CG2R61
   44    23    24    28	 9 ;      HGR61     CG2R61     CG2R61      OG301
   44    23    24    25	 9 ;      HGR61     CG2R61     CG2R61     CG2R61
   23    24    28    29	 9 ;     CG2R61     CG2R61      OG301      CG321
   25    24    28    29	 9 ;     CG2R61     CG2R61      OG301      CG321
   23    24    25    26	 9 ;     CG2R61     CG2R61     CG2R61     CG2R61
   23    24    25    45	 9 ;     CG2R61     CG2R61     CG2R61      HGR61
   28    24    25    26	 9 ;      OG301     CG2R61     CG2R61     CG2R61
   28    24    25    45	 9 ;      OG301     CG2R61     CG2R61      HGR61
   24    25    26    27	 9 ;     CG2R61     CG2R61     CG2R61     CG2R61
   24    25    26    46	 9 ;     CG2R61     CG2R61     CG2R61      HGR61
   45    25    26    27	 9 ;      HGR61     CG2R61     CG2R61     CG2R61
   45    25    26    46	 9 ;      HGR61     CG2R61     CG2R61      HGR61
   25    26    27    22	 9 ;     CG2R61     CG2R61     CG2R61     CG2R67
   25    26    27    47	 9 ;     CG2R61     CG2R61     CG2R61      HGR61
   46    26    27    22	 9 ;      HGR61     CG2R61     CG2R61     CG2R67
   46    26    27    47	 9 ;      HGR61     CG2R61     CG2R61      HGR61
   24    28    29    30	 9 ;     CG2R61      OG301      CG321      CG321
   24    28    29    48	 9 ;     CG2R61      OG301      CG321       HGA2
   24    28    29    49	 9 ;     CG2R61      OG301      CG321       HGA2
   28    29    30    31	 9 ;      OG301      CG321      CG321      CG331
   28    29    30    50	 9 ;      OG301      CG321      CG321       HGA2
   28    29    30    51	 9 ;      OG301      CG321      CG321       HGA2
   48    29    30    31	 9 ;       HGA2      CG321      CG321      CG331
   48    29    30    50	 9 ;       HGA2      CG321      CG321       HGA2
   48    29    30    51	 9 ;       HGA2      CG321      CG321       HGA2
   49    29    30    31	 9 ;       HGA2      CG321      CG321      CG331
   49    29    30    50	 9 ;       HGA2      CG321      CG321       HGA2
   49    29    30    51	 9 ;       HGA2      CG321      CG321       HGA2
   29    30    31    52	 9 ;      CG321      CG321      CG331       HGA3
   29    30    31    53	 9 ;      CG321      CG321      CG331       HGA3
   29    30    31    54	 9 ;      CG321      CG321      CG331       HGA3
   50    30    31    52	 9 ;       HGA2      CG321      CG331       HGA3
   50    30    31    53	 9 ;       HGA2      CG321      CG331       HGA3
   50    30    31    54	 9 ;       HGA2      CG321      CG331       HGA3
   51    30    31    52	 9 ;       HGA2      CG321      CG331       HGA3
   51    30    31    53	 9 ;       HGA2      CG321      CG331       HGA3
   51    30    31    54	 9 ;       HGA2      CG321      CG331       HGA3

[ dihedrals ]
;	ai	  aj	ak	  al funct			  c0			c1			  c2			c3
   10    18     9    11	 2
   16    18    14    17	 2

