GROningen MAchine for Chemical Simulation
   55
    1LIG     C1    1  -1.952   0.280  -1.497
    1LIG     C2    2  -1.864   0.367  -1.430
    1LIG     C3    3  -1.745   0.409  -1.488
    1LIG     C4    4  -1.704   0.367  -1.616
    1LIG     C5    5  -1.785   0.273  -1.679
    1LIG     C6    6  -1.907   0.231  -1.621
    1LIG     C7    7  -1.585   0.438  -1.677
    1LIG     C8    8  -1.513   0.539  -1.591
    1LIG     C9    9  -1.436   0.429  -1.658
    1LIG    C10   10  -1.353   0.338  -1.578
    1LIG     N1   11  -1.329   0.379  -1.449
    1LIG    C11   12  -1.286   0.292  -1.362
    1LIG     HN   13  -1.344   0.477  -1.422
    1LIG     N2   14  -1.263   0.160  -1.392
    1LIG    C12   15  -1.221   0.059  -1.296
    1LIG    C13   16  -1.276   0.115  -1.522
    1LIG     O1   17  -1.255  -0.000  -1.559
    1LIG    C14   18  -1.326   0.214  -1.619
    1LIG     N3   19  -1.268   0.339  -1.234
    1LIG     H1   20  -1.324   0.304  -1.160
    1LIG     H2   21  -1.255   0.440  -1.232
    1LIG    C15   22  -2.081   0.241  -1.434
    1LIG    C16   23  -2.113   0.105  -1.408
    1LIG    C17   24  -2.241   0.065  -1.372
    1LIG    C18   25  -2.338   0.162  -1.348
    1LIG    C19   26  -2.307   0.298  -1.361
    1LIG    C20   27  -2.180   0.336  -1.407
    1LIG     O2   28  -2.288  -0.065  -1.366
    1LIG    C21   29  -2.191  -0.169  -1.361
    1LIG    C22   30  -2.198  -0.245  -1.227
    1LIG    C23   31  -2.157  -0.165  -1.105
    1LIG     HC   32  -1.890   0.402  -1.331
    1LIG    HC1   33  -1.682   0.477  -1.433
    1LIG    HC2   34  -1.754   0.231  -1.774
    1LIG    HC3   35  -1.967   0.159  -1.673
    1LIG    HC4   36  -1.610   0.479  -1.774
    1LIG    HC5   37  -1.503   0.642  -1.625
    1LIG    HC6   38  -1.527   0.527  -1.484
    1LIG    HC7   39  -1.383   0.465  -1.746
    1LIG    HC8   40  -1.214   0.104  -1.197
    1LIG    HC9   41  -1.295  -0.021  -1.294
    1LIG   HC10   42  -1.124   0.019  -1.325
    1LIG   HC11   43  -1.340   0.186  -1.722
    1LIG   HC12   44  -2.035   0.031  -1.417
    1LIG   HC13   45  -2.438   0.133  -1.318
    1LIG   HC14   46  -2.380   0.373  -1.337
    1LIG   HC15   47  -2.159   0.441  -1.421
    1LIG   HC16   48  -2.209  -0.239  -1.442
    1LIG   HC17   49  -2.091  -0.127  -1.372
    1LIG   HC18   50  -2.132  -0.332  -1.235
    1LIG   HC19   51  -2.300  -0.281  -1.213
    1LIG   HC20   52  -2.165  -0.227  -1.016
    1LIG   HC21   53  -2.222  -0.078  -1.095
    1LIG   HC22   54  -2.054  -0.131  -1.116
    1LIG    H27   55  -1.183   0.317  -1.386
   0.00000   0.00000   0.00000
