Glycine aRginine prOline Methionine Alanine Cystine Serine
   45
    1LIG     C1    1  -1.381   0.527  -1.695
    1LIG     O5    2  -1.116   0.458  -1.730
    1LIG     C3    3  -1.158   0.229  -1.685
    1LIG     C4    4  -1.253   0.130  -1.653
    1LIG     C5    5  -1.025   0.194  -1.714
    1LIG     C6    6  -1.212  -0.004  -1.656
    1LIG     C7    7  -0.986   0.061  -1.712
    1LIG     C8    8  -1.080  -0.038  -1.684
    1LIG     C9    9  -1.335   0.409  -1.650
    1LIG    C10   10  -1.402   0.310  -1.561
    1LIG    C11   11  -1.196   0.373  -1.691
    1LIG    C12   12  -1.395   0.170  -1.621
    1LIG     N1   13  -1.515   0.709  -1.622
    1LIG     O4   14  -1.619   0.517  -1.689
    1LIG     C2   15  -1.517   0.581  -1.670
    1LIG     H2   16  -1.427   0.745  -1.585
    1LIG    C13   17  -1.637   0.774  -1.572
    1LIG    C15   18  -1.694   0.872  -1.677
    1LIG    C16   19  -1.585   0.919  -1.774
    1LIG    C17   20  -1.808   0.808  -1.758
    1LIG     O2   21  -1.612   0.968  -1.426
    1LIG    C14   22  -1.597   0.848  -1.444
    1LIG     O3   23  -1.547   0.761  -1.352
    1LIG    C18   24  -1.644   0.671  -1.297
    1LIG     O1   25  -1.297  -0.108  -1.634
    1LIG     H1   26  -1.389  -0.079  -1.645
    1LIG     H3   27  -1.317   0.585  -1.752
    1LIG     H4   28  -0.957   0.268  -1.736
    1LIG     H5   29  -0.888   0.035  -1.732
    1LIG     H6   30  -1.051  -0.138  -1.684
    1LIG     H7   31  -1.505   0.337  -1.548
    1LIG     H8   32  -1.353   0.309  -1.466
    1LIG     H9   33  -1.436   0.100  -1.551
    1LIG    H10   34  -1.451   0.170  -1.712
    1LIG    H11   35  -1.713   0.701  -1.553
    1LIG    H12   36  -1.733   0.955  -1.622
    1LIG    H13   37  -1.547   0.836  -1.828
    1LIG    H14   38  -1.506   0.965  -1.719
    1LIG    H15   39  -1.627   0.990  -1.842
    1LIG    H16   40  -1.771   0.725  -1.813
    1LIG    H17   41  -1.848   0.881  -1.826
    1LIG    H18   42  -1.885   0.776  -1.691
    1LIG    H19   43  -1.597   0.607  -1.226
    1LIG    H20   44  -1.686   0.613  -1.376
    1LIG    H21   45  -1.721   0.728  -1.249
   0.00000   0.00000   0.00000
