; Created by cgenff_charmm2gmx.py

[ moleculetype ]
; Name			   nrexcl
LIG				 3

[ atoms ]
;	 nr		  type	resnr residue  atom   cgnr	   charge		mass  typeB    chargeB		massB
; residue	 1 LIG rtp LIG q	qsum
     1     CG2DC1      1    LIG     C1      1      0.012     12.011   ;
     2      OG2D3      1    LIG     O5      2     -0.309     15.999   ;
     3     CG2R61      1    LIG     C3      3      0.161     12.011   ;
     4     CG2R61      1    LIG     C4      4      0.098     12.011   ;
     5     CG2R61      1    LIG     C5      5     -0.117     12.011   ;
     6     CG2R61      1    LIG     C6      6      0.099     12.011   ;
     7     CG2R61      1    LIG     C7      7     -0.109     12.011   ;
     8     CG2R61      1    LIG     C8      8     -0.113     12.011   ;
     9     CG2DC1      1    LIG     C9      9     -0.207     12.011   ;
    10      CG321      1    LIG    C10     10     -0.251     12.011   ;
    11      CG2O5      1    LIG    C11     11      0.301     12.011   ;
    12      CG321      1    LIG    C12     12     -0.168     12.011   ;
    13      NG2S1      1    LIG     N1     13     -0.451     14.007   ;
    14      OG2D1      1    LIG     O4     14     -0.528     15.999   ;
    15      CG2O1      1    LIG     C2     15      0.394     12.011   ;
    16       HGP1      1    LIG     H2     16      0.257      1.008   ;
    17      CG311      1    LIG    C13     17      0.049     12.011   ;
    18      CG311      1    LIG    C15     18     -0.087     12.011   ;
    19      CG331      1    LIG    C16     19     -0.266     12.011   ;
    20      CG331      1    LIG    C17     20     -0.266     12.011   ;
    21      OG2D1      1    LIG     O2     21     -0.629     15.999   ;
    22      CG2O2      1    LIG    C14     22      0.897     12.011   ;
    23      OG302      1    LIG     O3     23     -0.486     15.999   ;
    24      CG331      1    LIG    C18     24     -0.010     12.011   ;
    25      OG311      1    LIG     O1     25     -0.537     15.999   ;
    26       HGP1      1    LIG     H1     26      0.421      1.008   ;
    27       HGA4      1    LIG     H3     27      0.147      1.008   ;
    28      HGR61      1    LIG     H4     28      0.116      1.008   ;
    29      HGR61      1    LIG     H5     29      0.116      1.008   ;
    30      HGR61      1    LIG     H6     30      0.116      1.008   ;
    31       HGA2      1    LIG     H7     31      0.090      1.008   ;
    32       HGA2      1    LIG     H8     32      0.090      1.008   ;
    33       HGA2      1    LIG     H9     33      0.090      1.008   ;
    34       HGA2      1    LIG    H10     34      0.090      1.008   ;
    35       HGA1      1    LIG    H11     35      0.090      1.008   ;
    36       HGA1      1    LIG    H12     36      0.090      1.008   ;
    37       HGA3      1    LIG    H13     37      0.090      1.008   ;
    38       HGA3      1    LIG    H14     38      0.090      1.008   ;
    39       HGA3      1    LIG    H15     39      0.090      1.008   ;
    40       HGA3      1    LIG    H16     40      0.090      1.008   ;
    41       HGA3      1    LIG    H17     41      0.090      1.008   ;
    42       HGA3      1    LIG    H18     42      0.090      1.008   ;
    43       HGA3      1    LIG    H19     43      0.090      1.008   ;
    44       HGA3      1    LIG    H20     44      0.090      1.008   ;
    45       HGA3      1    LIG    H21     45      0.090      1.008   ;

[ bonds ]
;	ai	  aj funct			  c0			c1			  c2			c3
    1    15	 1 ;      CG2DC1      CG2O1
    1     9	 1 ;      CG2DC1     CG2DC1
    1    27	 1 ;      CG2DC1       HGA4
    2    11	 1 ;       OG2D3      CG2O5
    3     5	 1 ;      CG2R61     CG2R61
    3    11	 1 ;      CG2R61      CG2O5
    3     4	 1 ;      CG2R61     CG2R61
    4     6	 1 ;      CG2R61     CG2R61
    4    12	 1 ;      CG2R61      CG321
    5     7	 1 ;      CG2R61     CG2R61
    5    28	 1 ;      CG2R61      HGR61
    6     8	 1 ;      CG2R61     CG2R61
    6    25	 1 ;      CG2R61      OG311
    7     8	 1 ;      CG2R61     CG2R61
    7    29	 1 ;      CG2R61      HGR61
    8    30	 1 ;      CG2R61      HGR61
    9    11	 1 ;      CG2DC1      CG2O5
    9    10	 1 ;      CG2DC1      CG321
   10    12	 1 ;       CG321      CG321
   10    31	 1 ;       CG321       HGA2
   10    32	 1 ;       CG321       HGA2
   12    33	 1 ;       CG321       HGA2
   12    34	 1 ;       CG321       HGA2
   13    15	 1 ;       NG2S1      CG2O1
   13    16	 1 ;       NG2S1       HGP1
   13    17	 1 ;       NG2S1      CG311
   14    15	 1 ;       OG2D1      CG2O1
   17    18	 1 ;       CG311      CG311
   17    22	 1 ;       CG311      CG2O2
   17    35	 1 ;       CG311       HGA1
   18    19	 1 ;       CG311      CG331
   18    20	 1 ;       CG311      CG331
   18    36	 1 ;       CG311       HGA1
   19    37	 1 ;       CG331       HGA3
   19    38	 1 ;       CG331       HGA3
   19    39	 1 ;       CG331       HGA3
   20    40	 1 ;       CG331       HGA3
   20    41	 1 ;       CG331       HGA3
   20    42	 1 ;       CG331       HGA3
   21    22	 1 ;       OG2D1      CG2O2
   22    23	 1 ;       CG2O2      OG302
   23    24	 1 ;       OG302      CG331
   24    43	 1 ;       CG331       HGA3
   24    44	 1 ;       CG331       HGA3
   24    45	 1 ;       CG331       HGA3
   25    26	 1 ;       OG311       HGP1

[ pairs ]
;	ai	  aj funct			  c0			c1			  c2			c3
    1     2	 1
    1     3	 1
    1    12	 1
    1    31	 1
    1    32	 1
    1    16	 1
    1    17	 1
    2     5	 1
    2     4	 1
    2    10	 1
    3     8	 1
    3    25	 1
    3    10	 1
    3    33	 1
    3    34	 1
    3    29	 1
    4     7	 1
    4    28	 1
    4     9	 1
    4    30	 1
    4    26	 1
    4    31	 1
    4    32	 1
    5     9	 1
    5     6	 1
    5    12	 1
    5    30	 1
    6    11	 1
    6    10	 1
    6    33	 1
    6    34	 1
    6    29	 1
    7    11	 1
    7    25	 1
    8    12	 1
    8    28	 1
    8    26	 1
    9    14	 1
    9    13	 1
    9    33	 1
    9    34	 1
   10    15	 1
   10    27	 1
   11    15	 1
   11    27	 1
   11    28	 1
   11    12	 1
   11    31	 1
   11    32	 1
   12    25	 1
   13    27	 1
   13    19	 1
   13    20	 1
   13    36	 1
   13    21	 1
   13    23	 1
   14    27	 1
   14    16	 1
   14    17	 1
   15    18	 1
   15    22	 1
   15    35	 1
   16    18	 1
   16    22	 1
   16    35	 1
   17    37	 1
   17    38	 1
   17    39	 1
   17    40	 1
   17    41	 1
   17    42	 1
   17    24	 1
   18    21	 1
   18    23	 1
   19    22	 1
   19    35	 1
   19    40	 1
   19    41	 1
   19    42	 1
   20    22	 1
   20    35	 1
   20    37	 1
   20    38	 1
   20    39	 1
   21    35	 1
   21    24	 1
   22    36	 1
   22    43	 1
   22    44	 1
   22    45	 1
   23    35	 1
   25    30	 1
   28    29	 1
   29    30	 1
   31    33	 1
   31    34	 1
   32    33	 1
   32    34	 1
   35    36	 1
   36    37	 1
   36    38	 1
   36    39	 1
   36    40	 1
   36    41	 1
   36    42	 1

[ angles ]
;	ai	  aj	ak funct			c0			  c1			c2			  c3
   15     1     9	5 ;      CG2O1     CG2DC1     CG2DC1
   15     1    27	5 ;      CG2O1     CG2DC1       HGA4
    9     1    27	5 ;     CG2DC1     CG2DC1       HGA4
    5     3    11	5 ;     CG2R61     CG2R61      CG2O5
    5     3     4	5 ;     CG2R61     CG2R61     CG2R61
   11     3     4	5 ;      CG2O5     CG2R61     CG2R61
    3     4     6	5 ;     CG2R61     CG2R61     CG2R61
    3     4    12	5 ;     CG2R61     CG2R61      CG321
    6     4    12	5 ;     CG2R61     CG2R61      CG321
    7     5     3	5 ;     CG2R61     CG2R61     CG2R61
    7     5    28	5 ;     CG2R61     CG2R61      HGR61
    3     5    28	5 ;     CG2R61     CG2R61      HGR61
    8     6     4	5 ;     CG2R61     CG2R61     CG2R61
    8     6    25	5 ;     CG2R61     CG2R61      OG311
    4     6    25	5 ;     CG2R61     CG2R61      OG311
    5     7     8	5 ;     CG2R61     CG2R61     CG2R61
    5     7    29	5 ;     CG2R61     CG2R61      HGR61
    8     7    29	5 ;     CG2R61     CG2R61      HGR61
    7     8     6	5 ;     CG2R61     CG2R61     CG2R61
    7     8    30	5 ;     CG2R61     CG2R61      HGR61
    6     8    30	5 ;     CG2R61     CG2R61      HGR61
    1     9    11	5 ;     CG2DC1     CG2DC1      CG2O5
    1     9    10	5 ;     CG2DC1     CG2DC1      CG321
   11     9    10	5 ;      CG2O5     CG2DC1      CG321
    9    10    12	5 ;     CG2DC1      CG321      CG321
    9    10    31	5 ;     CG2DC1      CG321       HGA2
    9    10    32	5 ;     CG2DC1      CG321       HGA2
   12    10    31	5 ;      CG321      CG321       HGA2
   12    10    32	5 ;      CG321      CG321       HGA2
   31    10    32	5 ;       HGA2      CG321       HGA2
    2    11     3	5 ;      OG2D3      CG2O5     CG2R61
    2    11     9	5 ;      OG2D3      CG2O5     CG2DC1
    3    11     9	5 ;     CG2R61      CG2O5     CG2DC1
    4    12    10	5 ;     CG2R61      CG321      CG321
    4    12    33	5 ;     CG2R61      CG321       HGA2
    4    12    34	5 ;     CG2R61      CG321       HGA2
   10    12    33	5 ;      CG321      CG321       HGA2
   10    12    34	5 ;      CG321      CG321       HGA2
   33    12    34	5 ;       HGA2      CG321       HGA2
   15    13    16	5 ;      CG2O1      NG2S1       HGP1
   15    13    17	5 ;      CG2O1      NG2S1      CG311
   16    13    17	5 ;       HGP1      NG2S1      CG311
    1    15    14	5 ;     CG2DC1      CG2O1      OG2D1
    1    15    13	5 ;     CG2DC1      CG2O1      NG2S1
   14    15    13	5 ;      OG2D1      CG2O1      NG2S1
   18    17    13	5 ;      CG311      CG311      NG2S1
   18    17    22	5 ;      CG311      CG311      CG2O2
   18    17    35	5 ;      CG311      CG311       HGA1
   13    17    22	5 ;      NG2S1      CG311      CG2O2
   13    17    35	5 ;      NG2S1      CG311       HGA1
   22    17    35	5 ;      CG2O2      CG311       HGA1
   19    18    20	5 ;      CG331      CG311      CG331
   19    18    17	5 ;      CG331      CG311      CG311
   19    18    36	5 ;      CG331      CG311       HGA1
   20    18    17	5 ;      CG331      CG311      CG311
   20    18    36	5 ;      CG331      CG311       HGA1
   17    18    36	5 ;      CG311      CG311       HGA1
   18    19    37	5 ;      CG311      CG331       HGA3
   18    19    38	5 ;      CG311      CG331       HGA3
   18    19    39	5 ;      CG311      CG331       HGA3
   37    19    38	5 ;       HGA3      CG331       HGA3
   37    19    39	5 ;       HGA3      CG331       HGA3
   38    19    39	5 ;       HGA3      CG331       HGA3
   18    20    40	5 ;      CG311      CG331       HGA3
   18    20    41	5 ;      CG311      CG331       HGA3
   18    20    42	5 ;      CG311      CG331       HGA3
   40    20    41	5 ;       HGA3      CG331       HGA3
   40    20    42	5 ;       HGA3      CG331       HGA3
   41    20    42	5 ;       HGA3      CG331       HGA3
   17    22    21	5 ;      CG311      CG2O2      OG2D1
   17    22    23	5 ;      CG311      CG2O2      OG302
   21    22    23	5 ;      OG2D1      CG2O2      OG302
   22    23    24	5 ;      CG2O2      OG302      CG331
   23    24    43	5 ;      OG302      CG331       HGA3
   23    24    44	5 ;      OG302      CG331       HGA3
   23    24    45	5 ;      OG302      CG331       HGA3
   43    24    44	5 ;       HGA3      CG331       HGA3
   43    24    45	5 ;       HGA3      CG331       HGA3
   44    24    45	5 ;       HGA3      CG331       HGA3
    6    25    26	5 ;     CG2R61      OG311       HGP1

[ dihedrals ]
;	ai	  aj	ak	  al funct			  c0			c1			  c2			c3			  c4			c5
    9     1    15    14	 9 ;     CG2DC1     CG2DC1      CG2O1      OG2D1
    9     1    15    13	 9 ;     CG2DC1     CG2DC1      CG2O1      NG2S1
   27     1    15    14	 9 ;       HGA4     CG2DC1      CG2O1      OG2D1
   27     1    15    13	 9 ;       HGA4     CG2DC1      CG2O1      NG2S1
   15     1     9    11	 9 ;      CG2O1     CG2DC1     CG2DC1      CG2O5
   15     1     9    10	 9 ;      CG2O1     CG2DC1     CG2DC1      CG321
   27     1     9    11	 9 ;       HGA4     CG2DC1     CG2DC1      CG2O5
   27     1     9    10	 9 ;       HGA4     CG2DC1     CG2DC1      CG321
   11     3     5     7	 9 ;      CG2O5     CG2R61     CG2R61     CG2R61
   11     3     5    28	 9 ;      CG2O5     CG2R61     CG2R61      HGR61
    4     3     5     7	 9 ;     CG2R61     CG2R61     CG2R61     CG2R61
    4     3     5    28	 9 ;     CG2R61     CG2R61     CG2R61      HGR61
    5     3    11     2	 9 ;     CG2R61     CG2R61      CG2O5      OG2D3
    5     3    11     9	 9 ;     CG2R61     CG2R61      CG2O5     CG2DC1
    4     3    11     2	 9 ;     CG2R61     CG2R61      CG2O5      OG2D3
    4     3    11     9	 9 ;     CG2R61     CG2R61      CG2O5     CG2DC1
    5     3     4     6	 9 ;     CG2R61     CG2R61     CG2R61     CG2R61
    5     3     4    12	 9 ;     CG2R61     CG2R61     CG2R61      CG321
   11     3     4     6	 9 ;      CG2O5     CG2R61     CG2R61     CG2R61
   11     3     4    12	 9 ;      CG2O5     CG2R61     CG2R61      CG321
    3     4     6     8	 9 ;     CG2R61     CG2R61     CG2R61     CG2R61
    3     4     6    25	 9 ;     CG2R61     CG2R61     CG2R61      OG311
   12     4     6     8	 9 ;      CG321     CG2R61     CG2R61     CG2R61
   12     4     6    25	 9 ;      CG321     CG2R61     CG2R61      OG311
    3     4    12    10	 9 ;     CG2R61     CG2R61      CG321      CG321
    3     4    12    33	 9 ;     CG2R61     CG2R61      CG321       HGA2
    3     4    12    34	 9 ;     CG2R61     CG2R61      CG321       HGA2
    6     4    12    10	 9 ;     CG2R61     CG2R61      CG321      CG321
    6     4    12    33	 9 ;     CG2R61     CG2R61      CG321       HGA2
    6     4    12    34	 9 ;     CG2R61     CG2R61      CG321       HGA2
    3     5     7     8	 9 ;     CG2R61     CG2R61     CG2R61     CG2R61
    3     5     7    29	 9 ;     CG2R61     CG2R61     CG2R61      HGR61
   28     5     7     8	 9 ;      HGR61     CG2R61     CG2R61     CG2R61
   28     5     7    29	 9 ;      HGR61     CG2R61     CG2R61      HGR61
    4     6     8     7	 9 ;     CG2R61     CG2R61     CG2R61     CG2R61
    4     6     8    30	 9 ;     CG2R61     CG2R61     CG2R61      HGR61
   25     6     8     7	 9 ;      OG311     CG2R61     CG2R61     CG2R61
   25     6     8    30	 9 ;      OG311     CG2R61     CG2R61      HGR61
    8     6    25    26	 9 ;     CG2R61     CG2R61      OG311       HGP1
    4     6    25    26	 9 ;     CG2R61     CG2R61      OG311       HGP1
    5     7     8     6	 9 ;     CG2R61     CG2R61     CG2R61     CG2R61
    5     7     8    30	 9 ;     CG2R61     CG2R61     CG2R61      HGR61
   29     7     8     6	 9 ;      HGR61     CG2R61     CG2R61     CG2R61
   29     7     8    30	 9 ;      HGR61     CG2R61     CG2R61      HGR61
    1     9    11     2	 9 ;     CG2DC1     CG2DC1      CG2O5      OG2D3
    1     9    11     3	 9 ;     CG2DC1     CG2DC1      CG2O5     CG2R61
   10     9    11     2	 9 ;      CG321     CG2DC1      CG2O5      OG2D3
   10     9    11     3	 9 ;      CG321     CG2DC1      CG2O5     CG2R61
    1     9    10    12	 9 ;     CG2DC1     CG2DC1      CG321      CG321
    1     9    10    31	 9 ;     CG2DC1     CG2DC1      CG321       HGA2
    1     9    10    32	 9 ;     CG2DC1     CG2DC1      CG321       HGA2
   11     9    10    12	 9 ;      CG2O5     CG2DC1      CG321      CG321
   11     9    10    31	 9 ;      CG2O5     CG2DC1      CG321       HGA2
   11     9    10    32	 9 ;      CG2O5     CG2DC1      CG321       HGA2
    9    10    12     4	 9 ;     CG2DC1      CG321      CG321     CG2R61
    9    10    12    33	 9 ;     CG2DC1      CG321      CG321       HGA2
    9    10    12    34	 9 ;     CG2DC1      CG321      CG321       HGA2
   31    10    12     4	 9 ;       HGA2      CG321      CG321     CG2R61
   31    10    12    33	 9 ;       HGA2      CG321      CG321       HGA2
   31    10    12    34	 9 ;       HGA2      CG321      CG321       HGA2
   32    10    12     4	 9 ;       HGA2      CG321      CG321     CG2R61
   32    10    12    33	 9 ;       HGA2      CG321      CG321       HGA2
   32    10    12    34	 9 ;       HGA2      CG321      CG321       HGA2
   16    13    15     1	 9 ;       HGP1      NG2S1      CG2O1     CG2DC1
   16    13    15    14	 9 ;       HGP1      NG2S1      CG2O1      OG2D1
   17    13    15     1	 9 ;      CG311      NG2S1      CG2O1     CG2DC1
   17    13    15    14	 9 ;      CG311      NG2S1      CG2O1      OG2D1
   15    13    17    18	 9 ;      CG2O1      NG2S1      CG311      CG311
   15    13    17    22	 9 ;      CG2O1      NG2S1      CG311      CG2O2
   15    13    17    35	 9 ;      CG2O1      NG2S1      CG311       HGA1
   16    13    17    18	 9 ;       HGP1      NG2S1      CG311      CG311
   16    13    17    22	 9 ;       HGP1      NG2S1      CG311      CG2O2
   16    13    17    35	 9 ;       HGP1      NG2S1      CG311       HGA1
   13    17    18    19	 9 ;      NG2S1      CG311      CG311      CG331
   13    17    18    20	 9 ;      NG2S1      CG311      CG311      CG331
   13    17    18    36	 9 ;      NG2S1      CG311      CG311       HGA1
   22    17    18    19	 9 ;      CG2O2      CG311      CG311      CG331
   22    17    18    20	 9 ;      CG2O2      CG311      CG311      CG331
   22    17    18    36	 9 ;      CG2O2      CG311      CG311       HGA1
   35    17    18    19	 9 ;       HGA1      CG311      CG311      CG331
   35    17    18    20	 9 ;       HGA1      CG311      CG311      CG331
   35    17    18    36	 9 ;       HGA1      CG311      CG311       HGA1
   18    17    22    21	 9 ;      CG311      CG311      CG2O2      OG2D1
   18    17    22    23	 9 ;      CG311      CG311      CG2O2      OG302
   13    17    22    21	 9 ;      NG2S1      CG311      CG2O2      OG2D1
   13    17    22    23	 9 ;      NG2S1      CG311      CG2O2      OG302
   35    17    22    21	 9 ;       HGA1      CG311      CG2O2      OG2D1
   35    17    22    23	 9 ;       HGA1      CG311      CG2O2      OG302
   20    18    19    37	 9 ;      CG331      CG311      CG331       HGA3
   20    18    19    38	 9 ;      CG331      CG311      CG331       HGA3
   20    18    19    39	 9 ;      CG331      CG311      CG331       HGA3
   17    18    19    37	 9 ;      CG311      CG311      CG331       HGA3
   17    18    19    38	 9 ;      CG311      CG311      CG331       HGA3
   17    18    19    39	 9 ;      CG311      CG311      CG331       HGA3
   36    18    19    37	 9 ;       HGA1      CG311      CG331       HGA3
   36    18    19    38	 9 ;       HGA1      CG311      CG331       HGA3
   36    18    19    39	 9 ;       HGA1      CG311      CG331       HGA3
   19    18    20    40	 9 ;      CG331      CG311      CG331       HGA3
   19    18    20    41	 9 ;      CG331      CG311      CG331       HGA3
   19    18    20    42	 9 ;      CG331      CG311      CG331       HGA3
   17    18    20    40	 9 ;      CG311      CG311      CG331       HGA3
   17    18    20    41	 9 ;      CG311      CG311      CG331       HGA3
   17    18    20    42	 9 ;      CG311      CG311      CG331       HGA3
   36    18    20    40	 9 ;       HGA1      CG311      CG331       HGA3
   36    18    20    41	 9 ;       HGA1      CG311      CG331       HGA3
   36    18    20    42	 9 ;       HGA1      CG311      CG331       HGA3
   17    22    23    24	 9 ;      CG311      CG2O2      OG302      CG331
   21    22    23    24	 9 ;      OG2D1      CG2O2      OG302      CG331
   22    23    24    43	 9 ;      CG2O2      OG302      CG331       HGA3
   22    23    24    44	 9 ;      CG2O2      OG302      CG331       HGA3
   22    23    24    45	 9 ;      CG2O2      OG302      CG331       HGA3

[ dihedrals ]
;	ai	  aj	ak	  al funct			  c0			c1			  c2			c3
   11     9     3     2	 2
   15     1    13    14	 2
   22    17    21    23	 2

