; Created by cgenff_charmm2gmx.py

[ moleculetype ]
; Name			   nrexcl
LIG				 3

[ atoms ]
;	 nr		  type	resnr residue  atom   cgnr	   charge		mass  typeB    chargeB		massB
; residue	 1 LIG rtp LIG q	qsum
     1     SG2R50      1    LIG      S      1     -0.177     32.060   ;
     2     CG2R51      1    LIG     C1      2     -0.383     12.011   ;
     3     CG2R51      1    LIG     C2      3      0.271     12.011   ;
     4     CG2R51      1    LIG     C3      4     -0.313     12.011   ;
     5     CG2R51      1    LIG     C4      5      0.162     12.011   ;
     6      CG1T1      1    LIG     C5      6     -0.028     12.011   ;
     7      CG1T2      1    LIG     C6      7     -0.410     12.011   ;
     8      CG301      1    LIG     C7      8      0.386     12.011   ;
     9      CG321      1    LIG     C8      9     -0.147     12.011   ;
    10      CG321      1    LIG     C9     10     -0.194     12.011   ;
    11      CG321      1    LIG    C10     11     -0.176     12.011   ;
    12      CG321      1    LIG    C11     12     -0.194     12.011   ;
    13      CG321      1    LIG    C12     13     -0.147     12.011   ;
    14      NG3P2      1    LIG     N1     14     -0.446     14.007   ;
    15       HGP2      1    LIG     H1     15      0.341      1.008   ;
    16       HGP2      1    LIG     H2     16      0.341      1.008   ;
    17      CG324      1    LIG    C13     17      0.208     12.011   ;
    18      CG311      1    LIG    C14     18      0.089     12.011   ;
    19      OG311      1    LIG     O1     19     -0.625     15.999   ;
    20       HGP1      1    LIG     H3     20      0.415      1.008   ;
    21      CG311      1    LIG    C15     21     -0.007     12.011   ;
    22      CG321      1    LIG    C16     22     -0.153     12.011   ;
    23     CG2R61      1    LIG    C17     23      0.057     12.011   ;
    24     CG2R61      1    LIG    C18     24     -0.218     12.011   ;
    25     CG2R66      1    LIG    C19     25      0.261     12.011   ;
    26       FGR1      1    LIG     F1     26     -0.210     18.998   ;
    27     CG2R61      1    LIG    C20     27     -0.240     12.011   ;
    28     CG2R66      1    LIG    C21     28      0.261     12.011   ;
    29       FGR1      1    LIG     F2     29     -0.210     18.998   ;
    30     CG2R61      1    LIG    C22     30     -0.218     12.011   ;
    31      NG2S1      1    LIG     N2     31     -0.339     14.007   ;
    32      CG2O1      1    LIG    C23     32      0.488     12.011   ;
    33      OG2D1      1    LIG     O2     33     -0.509     15.999   ;
    34      CG331      1    LIG    C24     34     -0.270     12.011   ;
    35       HGP1      1    LIG     H4     35      0.261      1.008   ;
    36      HGR52      1    LIG     HC     36      0.270      1.008   ;
    37      HGR51      1    LIG    HC1     37      0.268      1.008   ;
    38     HGPAM1      1    LIG    HC2     38      0.291      1.008   ;
    39       HGA2      1    LIG    HC3     39      0.090      1.008   ;
    40       HGA2      1    LIG    HC4     40      0.090      1.008   ;
    41       HGA2      1    LIG    HC5     41      0.090      1.008   ;
    42       HGA2      1    LIG    HC6     42      0.090      1.008   ;
    43       HGA2      1    LIG    HC7     43      0.090      1.008   ;
    44       HGA2      1    LIG    HC8     44      0.090      1.008   ;
    45       HGA2      1    LIG    HC9     45      0.090      1.008   ;
    46       HGA2      1    LIG   HC10     46      0.090      1.008   ;
    47       HGA2      1    LIG   HC11     47      0.090      1.008   ;
    48       HGA2      1    LIG   HC12     48      0.090      1.008   ;
    49       HGA2      1    LIG   HC13     49      0.090      1.008   ;
    50       HGA2      1    LIG   HC14     50      0.090      1.008   ;
    51       HGA1      1    LIG   HC15     51      0.090      1.008   ;
    52       HGA1      1    LIG   HC16     52      0.090      1.008   ;
    53       HGA2      1    LIG   HC17     53      0.090      1.008   ;
    54       HGA2      1    LIG   HC18     54      0.090      1.008   ;
    55      HGR62      1    LIG   HC19     55      0.174      1.008   ;
    56      HGR62      1    LIG   HC20     56      0.186      1.008   ;
    57      HGR62      1    LIG   HC21     57      0.174      1.008   ;
    58       HGA3      1    LIG   HC22     58      0.090      1.008   ;
    59       HGA3      1    LIG   HC23     59      0.090      1.008   ;
    60       HGA3      1    LIG   HC24     60      0.090      1.008   ;

[ bonds ]
;	ai	  aj funct			  c0			c1			  c2			c3
    1     2	 1 ;      SG2R50     CG2R51
    1     5	 1 ;      SG2R50     CG2R51
    2     3	 1 ;      CG2R51     CG2R51
    2    36	 1 ;      CG2R51      HGR52
    3     6	 1 ;      CG2R51      CG1T1
    3     4	 1 ;      CG2R51     CG2R51
    4     5	 1 ;      CG2R51     CG2R51
    4    37	 1 ;      CG2R51      HGR51
    5     8	 1 ;      CG2R51      CG301
    6     7	 1 ;       CG1T1      CG1T2
    7    38	 1 ;       CG1T2     HGPAM1
    8    14	 1 ;       CG301      NG3P2
    8     9	 1 ;       CG301      CG321
    8    13	 1 ;       CG301      CG321
    9    10	 1 ;       CG321      CG321
    9    39	 1 ;       CG321       HGA2
    9    40	 1 ;       CG321       HGA2
   10    11	 1 ;       CG321      CG321
   10    41	 1 ;       CG321       HGA2
   10    42	 1 ;       CG321       HGA2
   11    12	 1 ;       CG321      CG321
   11    43	 1 ;       CG321       HGA2
   11    44	 1 ;       CG321       HGA2
   12    13	 1 ;       CG321      CG321
   12    45	 1 ;       CG321       HGA2
   12    46	 1 ;       CG321       HGA2
   13    47	 1 ;       CG321       HGA2
   13    48	 1 ;       CG321       HGA2
   14    17	 1 ;       NG3P2      CG324
   14    15	 1 ;       NG3P2       HGP2
   14    16	 1 ;       NG3P2       HGP2
   17    18	 1 ;       CG324      CG311
   17    49	 1 ;       CG324       HGA2
   17    50	 1 ;       CG324       HGA2
   18    21	 1 ;       CG311      CG311
   18    19	 1 ;       CG311      OG311
   18    51	 1 ;       CG311       HGA1
   19    20	 1 ;       OG311       HGP1
   21    22	 1 ;       CG311      CG321
   21    31	 1 ;       CG311      NG2S1
   21    52	 1 ;       CG311       HGA1
   22    23	 1 ;       CG321     CG2R61
   22    53	 1 ;       CG321       HGA2
   22    54	 1 ;       CG321       HGA2
   23    30	 1 ;      CG2R61     CG2R61
   23    24	 1 ;      CG2R61     CG2R61
   24    25	 1 ;      CG2R61     CG2R66
   24    55	 1 ;      CG2R61      HGR62
   25    27	 1 ;      CG2R66     CG2R61
   25    26	 1 ;      CG2R66       FGR1
   27    28	 1 ;      CG2R61     CG2R66
   27    56	 1 ;      CG2R61      HGR62
   28    30	 1 ;      CG2R66     CG2R61
   28    29	 1 ;      CG2R66       FGR1
   30    57	 1 ;      CG2R61      HGR62
   31    35	 1 ;       NG2S1       HGP1
   31    32	 1 ;       NG2S1      CG2O1
   32    33	 1 ;       CG2O1      OG2D1
   32    34	 1 ;       CG2O1      CG331
   34    58	 1 ;       CG331       HGA3
   34    59	 1 ;       CG331       HGA3
   34    60	 1 ;       CG331       HGA3

[ pairs ]
;	ai	  aj funct			  c0			c1			  c2			c3
    1     6	 1
    1    37	 1
    1    14	 1
    1     9	 1
    1    13	 1
    2     8	 1
    2     7	 1
    2    37	 1
    3     8	 1
    3    38	 1
    4    36	 1
    4     7	 1
    4    14	 1
    4     9	 1
    4    13	 1
    5    36	 1
    5     6	 1
    5    17	 1
    5    15	 1
    5    16	 1
    5    10	 1
    5    39	 1
    5    40	 1
    5    12	 1
    5    47	 1
    5    48	 1
    6    36	 1
    6    37	 1
    8    37	 1
    8    11	 1
    8    41	 1
    8    42	 1
    8    45	 1
    8    46	 1
    8    18	 1
    8    49	 1
    8    50	 1
    9    17	 1
    9    15	 1
    9    16	 1
    9    12	 1
    9    47	 1
    9    48	 1
    9    43	 1
    9    44	 1
   10    14	 1
   10    13	 1
   10    45	 1
   10    46	 1
   11    39	 1
   11    40	 1
   11    47	 1
   11    48	 1
   12    14	 1
   12    41	 1
   12    42	 1
   13    17	 1
   13    15	 1
   13    16	 1
   13    39	 1
   13    40	 1
   13    43	 1
   13    44	 1
   14    39	 1
   14    40	 1
   14    47	 1
   14    48	 1
   14    21	 1
   14    19	 1
   14    51	 1
   15    18	 1
   15    49	 1
   15    50	 1
   16    18	 1
   16    49	 1
   16    50	 1
   17    22	 1
   17    31	 1
   17    52	 1
   17    20	 1
   18    23	 1
   18    53	 1
   18    54	 1
   18    35	 1
   18    32	 1
   19    49	 1
   19    50	 1
   19    22	 1
   19    31	 1
   19    52	 1
   20    21	 1
   20    51	 1
   21    49	 1
   21    50	 1
   21    30	 1
   21    24	 1
   21    33	 1
   21    34	 1
   22    51	 1
   22    35	 1
   22    32	 1
   22    28	 1
   22    57	 1
   22    25	 1
   22    55	 1
   23    31	 1
   23    52	 1
   23    27	 1
   23    26	 1
   23    29	 1
   24    53	 1
   24    54	 1
   24    28	 1
   24    57	 1
   24    56	 1
   25    30	 1
   25    29	 1
   26    55	 1
   26    28	 1
   26    56	 1
   27    55	 1
   27    57	 1
   29    56	 1
   29    57	 1
   30    53	 1
   30    54	 1
   30    55	 1
   30    56	 1
   31    51	 1
   31    53	 1
   31    54	 1
   31    58	 1
   31    59	 1
   31    60	 1
   32    52	 1
   33    35	 1
   33    58	 1
   33    59	 1
   33    60	 1
   34    35	 1
   35    52	 1
   39    41	 1
   39    42	 1
   40    41	 1
   40    42	 1
   41    43	 1
   41    44	 1
   42    43	 1
   42    44	 1
   43    45	 1
   43    46	 1
   44    45	 1
   44    46	 1
   45    47	 1
   45    48	 1
   46    47	 1
   46    48	 1
   49    51	 1
   50    51	 1
   51    52	 1
   52    53	 1
   52    54	 1

[ angles ]
;	ai	  aj	ak funct			c0			  c1			c2			  c3
    2     1     5	5 ;     CG2R51     SG2R50     CG2R51
    1     2     3	5 ;     SG2R50     CG2R51     CG2R51
    1     2    36	5 ;     SG2R50     CG2R51      HGR52
    3     2    36	5 ;     CG2R51     CG2R51      HGR52
    2     3     6	5 ;     CG2R51     CG2R51      CG1T1
    2     3     4	5 ;     CG2R51     CG2R51     CG2R51
    6     3     4	5 ;      CG1T1     CG2R51     CG2R51
    3     4     5	5 ;     CG2R51     CG2R51     CG2R51
    3     4    37	5 ;     CG2R51     CG2R51      HGR51
    5     4    37	5 ;     CG2R51     CG2R51      HGR51
    1     5     4	5 ;     SG2R50     CG2R51     CG2R51
    1     5     8	5 ;     SG2R50     CG2R51      CG301
    4     5     8	5 ;     CG2R51     CG2R51      CG301
    7     6     3	5 ;      CG1T2      CG1T1     CG2R51
    6     7    38	5 ;      CG1T1      CG1T2     HGPAM1
   14     8     5	5 ;      NG3P2      CG301     CG2R51
   14     8     9	5 ;      NG3P2      CG301      CG321
   14     8    13	5 ;      NG3P2      CG301      CG321
    5     8     9	5 ;     CG2R51      CG301      CG321
    5     8    13	5 ;     CG2R51      CG301      CG321
    9     8    13	5 ;      CG321      CG301      CG321
    8     9    10	5 ;      CG301      CG321      CG321
    8     9    39	5 ;      CG301      CG321       HGA2
    8     9    40	5 ;      CG301      CG321       HGA2
   10     9    39	5 ;      CG321      CG321       HGA2
   10     9    40	5 ;      CG321      CG321       HGA2
   39     9    40	5 ;       HGA2      CG321       HGA2
    9    10    11	5 ;      CG321      CG321      CG321
    9    10    41	5 ;      CG321      CG321       HGA2
    9    10    42	5 ;      CG321      CG321       HGA2
   11    10    41	5 ;      CG321      CG321       HGA2
   11    10    42	5 ;      CG321      CG321       HGA2
   41    10    42	5 ;       HGA2      CG321       HGA2
   10    11    12	5 ;      CG321      CG321      CG321
   10    11    43	5 ;      CG321      CG321       HGA2
   10    11    44	5 ;      CG321      CG321       HGA2
   12    11    43	5 ;      CG321      CG321       HGA2
   12    11    44	5 ;      CG321      CG321       HGA2
   43    11    44	5 ;       HGA2      CG321       HGA2
   13    12    11	5 ;      CG321      CG321      CG321
   13    12    45	5 ;      CG321      CG321       HGA2
   13    12    46	5 ;      CG321      CG321       HGA2
   11    12    45	5 ;      CG321      CG321       HGA2
   11    12    46	5 ;      CG321      CG321       HGA2
   45    12    46	5 ;       HGA2      CG321       HGA2
    8    13    12	5 ;      CG301      CG321      CG321
    8    13    47	5 ;      CG301      CG321       HGA2
    8    13    48	5 ;      CG301      CG321       HGA2
   12    13    47	5 ;      CG321      CG321       HGA2
   12    13    48	5 ;      CG321      CG321       HGA2
   47    13    48	5 ;       HGA2      CG321       HGA2
   17    14    15	5 ;      CG324      NG3P2       HGP2
   17    14    16	5 ;      CG324      NG3P2       HGP2
   17    14     8	5 ;      CG324      NG3P2      CG301
   15    14    16	5 ;       HGP2      NG3P2       HGP2
   15    14     8	5 ;       HGP2      NG3P2      CG301
   16    14     8	5 ;       HGP2      NG3P2      CG301
   18    17    14	5 ;      CG311      CG324      NG3P2
   18    17    49	5 ;      CG311      CG324       HGA2
   18    17    50	5 ;      CG311      CG324       HGA2
   14    17    49	5 ;      NG3P2      CG324       HGA2
   14    17    50	5 ;      NG3P2      CG324       HGA2
   49    17    50	5 ;       HGA2      CG324       HGA2
   21    18    17	5 ;      CG311      CG311      CG324
   21    18    19	5 ;      CG311      CG311      OG311
   21    18    51	5 ;      CG311      CG311       HGA1
   17    18    19	5 ;      CG324      CG311      OG311
   17    18    51	5 ;      CG324      CG311       HGA1
   19    18    51	5 ;      OG311      CG311       HGA1
   18    19    20	5 ;      CG311      OG311       HGP1
   22    21    31	5 ;      CG321      CG311      NG2S1
   22    21    18	5 ;      CG321      CG311      CG311
   22    21    52	5 ;      CG321      CG311       HGA1
   31    21    18	5 ;      NG2S1      CG311      CG311
   31    21    52	5 ;      NG2S1      CG311       HGA1
   18    21    52	5 ;      CG311      CG311       HGA1
   23    22    21	5 ;     CG2R61      CG321      CG311
   23    22    53	5 ;     CG2R61      CG321       HGA2
   23    22    54	5 ;     CG2R61      CG321       HGA2
   21    22    53	5 ;      CG311      CG321       HGA2
   21    22    54	5 ;      CG311      CG321       HGA2
   53    22    54	5 ;       HGA2      CG321       HGA2
   22    23    30	5 ;      CG321     CG2R61     CG2R61
   22    23    24	5 ;      CG321     CG2R61     CG2R61
   30    23    24	5 ;     CG2R61     CG2R61     CG2R61
   23    24    25	5 ;     CG2R61     CG2R61     CG2R66
   23    24    55	5 ;     CG2R61     CG2R61      HGR62
   25    24    55	5 ;     CG2R66     CG2R61      HGR62
   24    25    27	5 ;     CG2R61     CG2R66     CG2R61
   24    25    26	5 ;     CG2R61     CG2R66       FGR1
   27    25    26	5 ;     CG2R61     CG2R66       FGR1
   28    27    25	5 ;     CG2R66     CG2R61     CG2R66
   28    27    56	5 ;     CG2R66     CG2R61      HGR62
   25    27    56	5 ;     CG2R66     CG2R61      HGR62
   30    28    29	5 ;     CG2R61     CG2R66       FGR1
   30    28    27	5 ;     CG2R61     CG2R66     CG2R61
   29    28    27	5 ;       FGR1     CG2R66     CG2R61
   23    30    28	5 ;     CG2R61     CG2R61     CG2R66
   23    30    57	5 ;     CG2R61     CG2R61      HGR62
   28    30    57	5 ;     CG2R66     CG2R61      HGR62
   35    31    32	5 ;       HGP1      NG2S1      CG2O1
   35    31    21	5 ;       HGP1      NG2S1      CG311
   32    31    21	5 ;      CG2O1      NG2S1      CG311
   33    32    31	5 ;      OG2D1      CG2O1      NG2S1
   33    32    34	5 ;      OG2D1      CG2O1      CG331
   31    32    34	5 ;      NG2S1      CG2O1      CG331
   32    34    58	5 ;      CG2O1      CG331       HGA3
   32    34    59	5 ;      CG2O1      CG331       HGA3
   32    34    60	5 ;      CG2O1      CG331       HGA3
   58    34    59	5 ;       HGA3      CG331       HGA3
   58    34    60	5 ;       HGA3      CG331       HGA3
   59    34    60	5 ;       HGA3      CG331       HGA3

[ dihedrals ]
;	ai	  aj	ak	  al funct			  c0			c1			  c2			c3			  c4			c5
    5     1     2     3	 9 ;     CG2R51     SG2R50     CG2R51     CG2R51
    5     1     2    36	 9 ;     CG2R51     SG2R50     CG2R51      HGR52
    2     1     5     4	 9 ;     CG2R51     SG2R50     CG2R51     CG2R51
    2     1     5     8	 9 ;     CG2R51     SG2R50     CG2R51      CG301
    1     2     3     6	 9 ;     SG2R50     CG2R51     CG2R51      CG1T1
    1     2     3     4	 9 ;     SG2R50     CG2R51     CG2R51     CG2R51
   36     2     3     6	 9 ;      HGR52     CG2R51     CG2R51      CG1T1
   36     2     3     4	 9 ;      HGR52     CG2R51     CG2R51     CG2R51
    2     3     4     5	 9 ;     CG2R51     CG2R51     CG2R51     CG2R51
    2     3     4    37	 9 ;     CG2R51     CG2R51     CG2R51      HGR51
    6     3     4     5	 9 ;      CG1T1     CG2R51     CG2R51     CG2R51
    6     3     4    37	 9 ;      CG1T1     CG2R51     CG2R51      HGR51
    3     4     5     1	 9 ;     CG2R51     CG2R51     CG2R51     SG2R50
    3     4     5     8	 9 ;     CG2R51     CG2R51     CG2R51      CG301
   37     4     5     1	 9 ;      HGR51     CG2R51     CG2R51     SG2R50
   37     4     5     8	 9 ;      HGR51     CG2R51     CG2R51      CG301
    1     5     8    14	 9 ;     SG2R50     CG2R51      CG301      NG3P2
    1     5     8     9	 9 ;     SG2R50     CG2R51      CG301      CG321
    1     5     8    13	 9 ;     SG2R50     CG2R51      CG301      CG321
    4     5     8    14	 9 ;     CG2R51     CG2R51      CG301      NG3P2
    4     5     8     9	 9 ;     CG2R51     CG2R51      CG301      CG321
    4     5     8    13	 9 ;     CG2R51     CG2R51      CG301      CG321
    5     8    14    17	 9 ;     CG2R51      CG301      NG3P2      CG324
    5     8    14    15	 9 ;     CG2R51      CG301      NG3P2       HGP2
    5     8    14    16	 9 ;     CG2R51      CG301      NG3P2       HGP2
    9     8    14    17	 9 ;      CG321      CG301      NG3P2      CG324
    9     8    14    15	 9 ;      CG321      CG301      NG3P2       HGP2
    9     8    14    16	 9 ;      CG321      CG301      NG3P2       HGP2
   13     8    14    17	 9 ;      CG321      CG301      NG3P2      CG324
   13     8    14    15	 9 ;      CG321      CG301      NG3P2       HGP2
   13     8    14    16	 9 ;      CG321      CG301      NG3P2       HGP2
   14     8     9    10	 9 ;      NG3P2      CG301      CG321      CG321
   14     8     9    39	 9 ;      NG3P2      CG301      CG321       HGA2
   14     8     9    40	 9 ;      NG3P2      CG301      CG321       HGA2
    5     8     9    10	 9 ;     CG2R51      CG301      CG321      CG321
    5     8     9    39	 9 ;     CG2R51      CG301      CG321       HGA2
    5     8     9    40	 9 ;     CG2R51      CG301      CG321       HGA2
   13     8     9    10	 9 ;      CG321      CG301      CG321      CG321
   13     8     9    39	 9 ;      CG321      CG301      CG321       HGA2
   13     8     9    40	 9 ;      CG321      CG301      CG321       HGA2
   14     8    13    12	 9 ;      NG3P2      CG301      CG321      CG321
   14     8    13    47	 9 ;      NG3P2      CG301      CG321       HGA2
   14     8    13    48	 9 ;      NG3P2      CG301      CG321       HGA2
    5     8    13    12	 9 ;     CG2R51      CG301      CG321      CG321
    5     8    13    47	 9 ;     CG2R51      CG301      CG321       HGA2
    5     8    13    48	 9 ;     CG2R51      CG301      CG321       HGA2
    9     8    13    12	 9 ;      CG321      CG301      CG321      CG321
    9     8    13    47	 9 ;      CG321      CG301      CG321       HGA2
    9     8    13    48	 9 ;      CG321      CG301      CG321       HGA2
    8     9    10    11	 9 ;      CG301      CG321      CG321      CG321
    8     9    10    41	 9 ;      CG301      CG321      CG321       HGA2
    8     9    10    42	 9 ;      CG301      CG321      CG321       HGA2
   39     9    10    11	 9 ;       HGA2      CG321      CG321      CG321
   39     9    10    41	 9 ;       HGA2      CG321      CG321       HGA2
   39     9    10    42	 9 ;       HGA2      CG321      CG321       HGA2
   40     9    10    11	 9 ;       HGA2      CG321      CG321      CG321
   40     9    10    41	 9 ;       HGA2      CG321      CG321       HGA2
   40     9    10    42	 9 ;       HGA2      CG321      CG321       HGA2
    9    10    11    12	 9 ;      CG321      CG321      CG321      CG321
    9    10    11    43	 9 ;      CG321      CG321      CG321       HGA2
    9    10    11    44	 9 ;      CG321      CG321      CG321       HGA2
   41    10    11    12	 9 ;       HGA2      CG321      CG321      CG321
   41    10    11    43	 9 ;       HGA2      CG321      CG321       HGA2
   41    10    11    44	 9 ;       HGA2      CG321      CG321       HGA2
   42    10    11    12	 9 ;       HGA2      CG321      CG321      CG321
   42    10    11    43	 9 ;       HGA2      CG321      CG321       HGA2
   42    10    11    44	 9 ;       HGA2      CG321      CG321       HGA2
   10    11    12    13	 9 ;      CG321      CG321      CG321      CG321
   10    11    12    45	 9 ;      CG321      CG321      CG321       HGA2
   10    11    12    46	 9 ;      CG321      CG321      CG321       HGA2
   43    11    12    13	 9 ;       HGA2      CG321      CG321      CG321
   43    11    12    45	 9 ;       HGA2      CG321      CG321       HGA2
   43    11    12    46	 9 ;       HGA2      CG321      CG321       HGA2
   44    11    12    13	 9 ;       HGA2      CG321      CG321      CG321
   44    11    12    45	 9 ;       HGA2      CG321      CG321       HGA2
   44    11    12    46	 9 ;       HGA2      CG321      CG321       HGA2
   11    12    13     8	 9 ;      CG321      CG321      CG321      CG301
   11    12    13    47	 9 ;      CG321      CG321      CG321       HGA2
   11    12    13    48	 9 ;      CG321      CG321      CG321       HGA2
   45    12    13     8	 9 ;       HGA2      CG321      CG321      CG301
   45    12    13    47	 9 ;       HGA2      CG321      CG321       HGA2
   45    12    13    48	 9 ;       HGA2      CG321      CG321       HGA2
   46    12    13     8	 9 ;       HGA2      CG321      CG321      CG301
   46    12    13    47	 9 ;       HGA2      CG321      CG321       HGA2
   46    12    13    48	 9 ;       HGA2      CG321      CG321       HGA2
   15    14    17    18	 9 ;       HGP2      NG3P2      CG324      CG311
   15    14    17    49	 9 ;       HGP2      NG3P2      CG324       HGA2
   15    14    17    50	 9 ;       HGP2      NG3P2      CG324       HGA2
   16    14    17    18	 9 ;       HGP2      NG3P2      CG324      CG311
   16    14    17    49	 9 ;       HGP2      NG3P2      CG324       HGA2
   16    14    17    50	 9 ;       HGP2      NG3P2      CG324       HGA2
    8    14    17    18	 9 ;      CG301      NG3P2      CG324      CG311
    8    14    17    49	 9 ;      CG301      NG3P2      CG324       HGA2
    8    14    17    50	 9 ;      CG301      NG3P2      CG324       HGA2
   14    17    18    21	 9 ;      NG3P2      CG324      CG311      CG311
   14    17    18    19	 9 ;      NG3P2      CG324      CG311      OG311
   14    17    18    51	 9 ;      NG3P2      CG324      CG311       HGA1
   49    17    18    21	 9 ;       HGA2      CG324      CG311      CG311
   49    17    18    19	 9 ;       HGA2      CG324      CG311      OG311
   49    17    18    51	 9 ;       HGA2      CG324      CG311       HGA1
   50    17    18    21	 9 ;       HGA2      CG324      CG311      CG311
   50    17    18    19	 9 ;       HGA2      CG324      CG311      OG311
   50    17    18    51	 9 ;       HGA2      CG324      CG311       HGA1
   17    18    21    22	 9 ;      CG324      CG311      CG311      CG321
   17    18    21    31	 9 ;      CG324      CG311      CG311      NG2S1
   17    18    21    52	 9 ;      CG324      CG311      CG311       HGA1
   19    18    21    22	 9 ;      OG311      CG311      CG311      CG321
   19    18    21    31	 9 ;      OG311      CG311      CG311      NG2S1
   19    18    21    52	 9 ;      OG311      CG311      CG311       HGA1
   51    18    21    22	 9 ;       HGA1      CG311      CG311      CG321
   51    18    21    31	 9 ;       HGA1      CG311      CG311      NG2S1
   51    18    21    52	 9 ;       HGA1      CG311      CG311       HGA1
   21    18    19    20	 9 ;      CG311      CG311      OG311       HGP1
   17    18    19    20	 9 ;      CG324      CG311      OG311       HGP1
   51    18    19    20	 9 ;       HGA1      CG311      OG311       HGP1
   31    21    22    23	 9 ;      NG2S1      CG311      CG321     CG2R61
   31    21    22    53	 9 ;      NG2S1      CG311      CG321       HGA2
   31    21    22    54	 9 ;      NG2S1      CG311      CG321       HGA2
   18    21    22    23	 9 ;      CG311      CG311      CG321     CG2R61
   18    21    22    53	 9 ;      CG311      CG311      CG321       HGA2
   18    21    22    54	 9 ;      CG311      CG311      CG321       HGA2
   52    21    22    23	 9 ;       HGA1      CG311      CG321     CG2R61
   52    21    22    53	 9 ;       HGA1      CG311      CG321       HGA2
   52    21    22    54	 9 ;       HGA1      CG311      CG321       HGA2
   22    21    31    35	 9 ;      CG321      CG311      NG2S1       HGP1
   22    21    31    32	 9 ;      CG321      CG311      NG2S1      CG2O1
   18    21    31    35	 9 ;      CG311      CG311      NG2S1       HGP1
   18    21    31    32	 9 ;      CG311      CG311      NG2S1      CG2O1
   52    21    31    35	 9 ;       HGA1      CG311      NG2S1       HGP1
   52    21    31    32	 9 ;       HGA1      CG311      NG2S1      CG2O1
   21    22    23    30	 9 ;      CG311      CG321     CG2R61     CG2R61
   21    22    23    24	 9 ;      CG311      CG321     CG2R61     CG2R61
   53    22    23    30	 9 ;       HGA2      CG321     CG2R61     CG2R61
   53    22    23    24	 9 ;       HGA2      CG321     CG2R61     CG2R61
   54    22    23    30	 9 ;       HGA2      CG321     CG2R61     CG2R61
   54    22    23    24	 9 ;       HGA2      CG321     CG2R61     CG2R61
   22    23    30    28	 9 ;      CG321     CG2R61     CG2R61     CG2R66
   22    23    30    57	 9 ;      CG321     CG2R61     CG2R61      HGR62
   24    23    30    28	 9 ;     CG2R61     CG2R61     CG2R61     CG2R66
   24    23    30    57	 9 ;     CG2R61     CG2R61     CG2R61      HGR62
   22    23    24    25	 9 ;      CG321     CG2R61     CG2R61     CG2R66
   22    23    24    55	 9 ;      CG321     CG2R61     CG2R61      HGR62
   30    23    24    25	 9 ;     CG2R61     CG2R61     CG2R61     CG2R66
   30    23    24    55	 9 ;     CG2R61     CG2R61     CG2R61      HGR62
   23    24    25    27	 9 ;     CG2R61     CG2R61     CG2R66     CG2R61
   23    24    25    26	 9 ;     CG2R61     CG2R61     CG2R66       FGR1
   55    24    25    27	 9 ;      HGR62     CG2R61     CG2R66     CG2R61
   55    24    25    26	 9 ;      HGR62     CG2R61     CG2R66       FGR1
   24    25    27    28	 9 ;     CG2R61     CG2R66     CG2R61     CG2R66
   24    25    27    56	 9 ;     CG2R61     CG2R66     CG2R61      HGR62
   26    25    27    28	 9 ;       FGR1     CG2R66     CG2R61     CG2R66
   26    25    27    56	 9 ;       FGR1     CG2R66     CG2R61      HGR62
   25    27    28    30	 9 ;     CG2R66     CG2R61     CG2R66     CG2R61
   25    27    28    29	 9 ;     CG2R66     CG2R61     CG2R66       FGR1
   56    27    28    30	 9 ;      HGR62     CG2R61     CG2R66     CG2R61
   56    27    28    29	 9 ;      HGR62     CG2R61     CG2R66       FGR1
   29    28    30    23	 9 ;       FGR1     CG2R66     CG2R61     CG2R61
   29    28    30    57	 9 ;       FGR1     CG2R66     CG2R61      HGR62
   27    28    30    23	 9 ;     CG2R61     CG2R66     CG2R61     CG2R61
   27    28    30    57	 9 ;     CG2R61     CG2R66     CG2R61      HGR62
   35    31    32    33	 9 ;       HGP1      NG2S1      CG2O1      OG2D1
   35    31    32    34	 9 ;       HGP1      NG2S1      CG2O1      CG331
   21    31    32    33	 9 ;      CG311      NG2S1      CG2O1      OG2D1
   21    31    32    34	 9 ;      CG311      NG2S1      CG2O1      CG331
   33    32    34    58	 9 ;      OG2D1      CG2O1      CG331       HGA3
   33    32    34    59	 9 ;      OG2D1      CG2O1      CG331       HGA3
   33    32    34    60	 9 ;      OG2D1      CG2O1      CG331       HGA3
   31    32    34    58	 9 ;      NG2S1      CG2O1      CG331       HGA3
   31    32    34    59	 9 ;      NG2S1      CG2O1      CG331       HGA3
   31    32    34    60	 9 ;      NG2S1      CG2O1      CG331       HGA3

[ dihedrals ]
;	ai	  aj	ak	  al funct			  c0			c1			  c2			c3
   32    34    31    33	 2

