Giant Rising Ordinary Mutants for A Clerical Setup
   60
    1LIG      S    1  -1.789   0.664  -1.681
    1LIG     C1    2  -1.799   0.828  -1.637
    1LIG     C2    3  -1.798   0.845  -1.501
    1LIG     C3    4  -1.801   0.720  -1.432
    1LIG     C4    5  -1.783   0.611  -1.517
    1LIG     C5    6  -1.791   0.974  -1.440
    1LIG     C6    7  -1.774   1.084  -1.396
    1LIG     C7    8  -1.759   0.463  -1.481
    1LIG     C8    9  -1.822   0.362  -1.581
    1LIG     C9   10  -1.809   0.216  -1.536
    1LIG    C10   11  -1.872   0.197  -1.399
    1LIG    C11   12  -1.812   0.291  -1.295
    1LIG    C12   13  -1.816   0.437  -1.339
    1LIG     N1   14  -1.609   0.433  -1.475
    1LIG     H1   15  -1.569   0.479  -1.393
    1LIG     H2   16  -1.591   0.334  -1.457
    1LIG    C13   17  -1.527   0.467  -1.597
    1LIG    C14   18  -1.423   0.357  -1.623
    1LIG     O1   19  -1.487   0.231  -1.599
    1LIG     H3   20  -1.447   0.166  -1.662
    1LIG    C15   21  -1.291   0.369  -1.541
    1LIG    C16   22  -1.168   0.318  -1.621
    1LIG    C17   23  -1.103   0.196  -1.560
    1LIG    C18   24  -1.166   0.071  -1.564
    1LIG    C19   25  -1.105  -0.040  -1.504
    1LIG     F1   26  -1.169  -0.158  -1.507
    1LIG    C20   27  -0.983  -0.029  -1.440
    1LIG    C21   28  -0.921   0.095  -1.438
    1LIG     F2   29  -0.802   0.108  -1.376
    1LIG    C22   30  -0.979   0.207  -1.496
    1LIG     N2   31  -1.263   0.508  -1.498
    1LIG    C23   32  -1.182   0.548  -1.396
    1LIG     O2   33  -1.142   0.664  -1.400
    1LIG    C24   34  -1.144   0.453  -1.286
    1LIG     H4   35  -1.256   0.580  -1.570
    1LIG     HC   36  -1.806   0.910  -1.708
    1LIG    HC1   37  -1.816   0.710  -1.326
    1LIG    HC2   38  -1.759   1.181  -1.356
    1LIG    HC3   39  -1.773   0.373  -1.677
    1LIG    HC4   40  -1.928   0.386  -1.592
    1LIG    HC5   41  -1.859   0.152  -1.608
    1LIG    HC6   42  -1.704   0.190  -1.531
    1LIG    HC7   43  -1.857   0.094  -1.367
    1LIG    HC8   44  -1.980   0.216  -1.406
    1LIG    HC9   45  -1.868   0.280  -1.202
    1LIG   HC10   46  -1.709   0.262  -1.277
    1LIG   HC11   47  -1.759   0.496  -1.268
    1LIG   HC12   48  -1.920   0.471  -1.337
    1LIG   HC13   49  -1.593   0.476  -1.683
    1LIG   HC14   50  -1.476   0.562  -1.580
    1LIG   HC15   51  -1.397   0.361  -1.729
    1LIG   HC16   52  -1.301   0.308  -1.452
    1LIG   HC17   53  -1.094   0.398  -1.625
    1LIG   HC18   54  -1.200   0.294  -1.722
    1LIG   HC19   55  -1.261   0.060  -1.615
    1LIG   HC20   56  -0.937  -0.115  -1.394
    1LIG   HC21   57  -0.929   0.302  -1.493
    1LIG   HC22   58  -1.093   0.508  -1.206
    1LIG   HC23   59  -1.077   0.376  -1.325
    1LIG   HC24   60  -1.234   0.406  -1.245
   0.00000   0.00000   0.00000
