; Created by cgenff_charmm2gmx.py

[ moleculetype ]
; Name			   nrexcl
LIG				 3

[ atoms ]
;	 nr		  type	resnr residue  atom   cgnr	   charge		mass  typeB    chargeB		massB
; residue	 1 LIG rtp LIG q	qsum
     1      NG3P2      1    LIG     N1      1     -0.450     14.007   ;
     2       HGP2      1    LIG     H1      2      0.341      1.008   ;
     3       HGP2      1    LIG     H2      3      0.341      1.008   ;
     4      CG301      1    LIG     C1      4      0.295     12.011   ;
     5      CG321      1    LIG     C2      5     -0.147     12.011   ;
     6      CG321      1    LIG     C3      6     -0.202     12.011   ;
     7      CG321      1    LIG     C4      7     -0.176     12.011   ;
     8      CG321      1    LIG     C5      8     -0.202     12.011   ;
     9      CG321      1    LIG     C6      9     -0.147     12.011   ;
    10     CG2R61      1    LIG     C7     10      0.083     12.011   ;
    11     CG2R61      1    LIG     C8     11     -0.130     12.011   ;
    12     CG2R61      1    LIG     C9     12     -0.010     12.011   ;
    13     CG2R61      1    LIG    C10     13     -0.117     12.011   ;
    14     CG2R61      1    LIG    C11     14     -0.112     12.011   ;
    15     CG2R61      1    LIG    C12     15     -0.129     12.011   ;
    16     CG2R51      1    LIG    C13     16      0.110     12.011   ;
    17     CG2R51      1    LIG    C14     17     -0.172     12.011   ;
    18     CG2R51      1    LIG    C15     18     -0.199     12.011   ;
    19     CG2R51      1    LIG    C16     19     -0.152     12.011   ;
    20     SG2R50      1    LIG      S     20     -0.178     32.060   ;
    21      CG324      1    LIG    C17     21      0.208     12.011   ;
    22      CG311      1    LIG    C18     22      0.089     12.011   ;
    23      OG311      1    LIG     O1     23     -0.625     15.999   ;
    24       HGP1      1    LIG     H3     24      0.415      1.008   ;
    25      CG311      1    LIG    C19     25     -0.007     12.011   ;
    26      CG321      1    LIG    C20     26     -0.153     12.011   ;
    27     CG2R61      1    LIG    C21     27      0.057     12.011   ;
    28     CG2R61      1    LIG    C22     28     -0.218     12.011   ;
    29     CG2R66      1    LIG    C23     29      0.261     12.011   ;
    30       FGR1      1    LIG     F1     30     -0.210     18.998   ;
    31     CG2R61      1    LIG    C24     31     -0.240     12.011   ;
    32     CG2R66      1    LIG    C25     32      0.261     12.011   ;
    33       FGR1      1    LIG     F2     33     -0.210     18.998   ;
    34     CG2R61      1    LIG    C26     34     -0.218     12.011   ;
    35      NG2S1      1    LIG     N2     35     -0.339     14.007   ;
    36      CG2O1      1    LIG    C27     36      0.488     12.011   ;
    37      OG2D1      1    LIG     O2     37     -0.509     15.999   ;
    38      CG331      1    LIG    C28     38     -0.270     12.011   ;
    39       HGP1      1    LIG     H4     39      0.261      1.008   ;
    40       HGA2      1    LIG    HC2     40      0.090      1.008   ;
    41       HGA2      1    LIG    HC3     41      0.090      1.008   ;
    42       HGA2      1    LIG    HC4     42      0.090      1.008   ;
    43       HGA2      1    LIG    HC5     43      0.090      1.008   ;
    44       HGA2      1    LIG    HC6     44      0.090      1.008   ;
    45       HGA2      1    LIG    HC7     45      0.090      1.008   ;
    46       HGA2      1    LIG    HC8     46      0.090      1.008   ;
    47       HGA2      1    LIG    HC9     47      0.090      1.008   ;
    48       HGA2      1    LIG   HC10     48      0.090      1.008   ;
    49       HGA2      1    LIG   HC11     49      0.090      1.008   ;
    50      HGR61      1    LIG     HC     50      0.116      1.008   ;
    51      HGR61      1    LIG    HC1     51      0.116      1.008   ;
    52      HGR61      1    LIG   HC12     52      0.116      1.008   ;
    53      HGR61      1    LIG   HC13     53      0.116      1.008   ;
    54      HGR51      1    LIG   HC14     54      0.221      1.008   ;
    55      HGR51      1    LIG   HC15     55      0.194      1.008   ;
    56      HGR52      1    LIG   HC16     56      0.189      1.008   ;
    57       HGA2      1    LIG   HC17     57      0.090      1.008   ;
    58       HGA2      1    LIG   HC18     58      0.090      1.008   ;
    59       HGA1      1    LIG   HC19     59      0.090      1.008   ;
    60       HGA1      1    LIG   HC20     60      0.090      1.008   ;
    61       HGA2      1    LIG   HC21     61      0.090      1.008   ;
    62       HGA2      1    LIG   HC22     62      0.090      1.008   ;
    63      HGR62      1    LIG   HC23     63      0.174      1.008   ;
    64      HGR62      1    LIG   HC24     64      0.186      1.008   ;
    65      HGR62      1    LIG   HC25     65      0.174      1.008   ;
    66       HGA3      1    LIG   HC26     66      0.090      1.008   ;
    67       HGA3      1    LIG   HC27     67      0.090      1.008   ;
    68       HGA3      1    LIG   HC28     68      0.090      1.008   ;

[ bonds ]
;	ai	  aj funct			  c0			c1			  c2			c3
    1     2	 1 ;       NG3P2       HGP2
    1    21	 1 ;       NG3P2      CG324
    1     4	 1 ;       NG3P2      CG301
    1     3	 1 ;       NG3P2       HGP2
    4    10	 1 ;       CG301     CG2R61
    4     9	 1 ;       CG301      CG321
    4     5	 1 ;       CG301      CG321
    5     6	 1 ;       CG321      CG321
    5    40	 1 ;       CG321       HGA2
    5    41	 1 ;       CG321       HGA2
    6     7	 1 ;       CG321      CG321
    6    42	 1 ;       CG321       HGA2
    6    43	 1 ;       CG321       HGA2
    7     8	 1 ;       CG321      CG321
    7    44	 1 ;       CG321       HGA2
    7    45	 1 ;       CG321       HGA2
    8     9	 1 ;       CG321      CG321
    8    46	 1 ;       CG321       HGA2
    8    47	 1 ;       CG321       HGA2
    9    48	 1 ;       CG321       HGA2
    9    49	 1 ;       CG321       HGA2
   10    15	 1 ;      CG2R61     CG2R61
   10    11	 1 ;      CG2R61     CG2R61
   11    12	 1 ;      CG2R61     CG2R61
   11    50	 1 ;      CG2R61      HGR61
   12    13	 1 ;      CG2R61     CG2R61
   12    16	 1 ;      CG2R61     CG2R51
   13    14	 1 ;      CG2R61     CG2R61
   13    51	 1 ;      CG2R61      HGR61
   14    15	 1 ;      CG2R61     CG2R61
   14    52	 1 ;      CG2R61      HGR61
   15    53	 1 ;      CG2R61      HGR61
   16    17	 1 ;      CG2R51     CG2R51
   16    20	 1 ;      CG2R51     SG2R50
   17    18	 1 ;      CG2R51     CG2R51
   17    54	 1 ;      CG2R51      HGR51
   18    19	 1 ;      CG2R51     CG2R51
   18    55	 1 ;      CG2R51      HGR51
   19    20	 1 ;      CG2R51     SG2R50
   19    56	 1 ;      CG2R51      HGR52
   21    22	 1 ;       CG324      CG311
   21    57	 1 ;       CG324       HGA2
   21    58	 1 ;       CG324       HGA2
   22    25	 1 ;       CG311      CG311
   22    23	 1 ;       CG311      OG311
   22    59	 1 ;       CG311       HGA1
   23    24	 1 ;       OG311       HGP1
   25    26	 1 ;       CG311      CG321
   25    35	 1 ;       CG311      NG2S1
   25    60	 1 ;       CG311       HGA1
   26    27	 1 ;       CG321     CG2R61
   26    61	 1 ;       CG321       HGA2
   26    62	 1 ;       CG321       HGA2
   27    28	 1 ;      CG2R61     CG2R61
   27    34	 1 ;      CG2R61     CG2R61
   28    29	 1 ;      CG2R61     CG2R66
   28    63	 1 ;      CG2R61      HGR62
   29    30	 1 ;      CG2R66       FGR1
   29    31	 1 ;      CG2R66     CG2R61
   31    32	 1 ;      CG2R61     CG2R66
   31    64	 1 ;      CG2R61      HGR62
   32    34	 1 ;      CG2R66     CG2R61
   32    33	 1 ;      CG2R66       FGR1
   34    65	 1 ;      CG2R61      HGR62
   35    36	 1 ;       NG2S1      CG2O1
   35    39	 1 ;       NG2S1       HGP1
   36    37	 1 ;       CG2O1      OG2D1
   36    38	 1 ;       CG2O1      CG331
   38    66	 1 ;       CG331       HGA3
   38    67	 1 ;       CG331       HGA3
   38    68	 1 ;       CG331       HGA3

[ pairs ]
;	ai	  aj funct			  c0			c1			  c2			c3
    1    15	 1
    1    11	 1
    1     8	 1
    1    48	 1
    1    49	 1
    1     6	 1
    1    40	 1
    1    41	 1
    1    25	 1
    1    23	 1
    1    59	 1
    2    22	 1
    2    57	 1
    2    58	 1
    2    10	 1
    2     9	 1
    2     5	 1
    3    22	 1
    3    57	 1
    3    58	 1
    3    10	 1
    3     9	 1
    3     5	 1
    4    22	 1
    4    57	 1
    4    58	 1
    4     7	 1
    4    42	 1
    4    43	 1
    4    46	 1
    4    47	 1
    4    14	 1
    4    53	 1
    4    12	 1
    4    50	 1
    5    21	 1
    5    15	 1
    5    11	 1
    5     8	 1
    5    48	 1
    5    49	 1
    5    44	 1
    5    45	 1
    6    10	 1
    6     9	 1
    6    46	 1
    6    47	 1
    7    40	 1
    7    41	 1
    7    48	 1
    7    49	 1
    8    10	 1
    8    42	 1
    8    43	 1
    9    21	 1
    9    15	 1
    9    11	 1
    9    40	 1
    9    41	 1
    9    44	 1
    9    45	 1
   10    21	 1
   10    48	 1
   10    49	 1
   10    40	 1
   10    41	 1
   10    13	 1
   10    16	 1
   10    52	 1
   11    14	 1
   11    53	 1
   11    51	 1
   11    17	 1
   11    20	 1
   12    15	 1
   12    52	 1
   12    18	 1
   12    54	 1
   12    19	 1
   13    50	 1
   13    17	 1
   13    20	 1
   13    53	 1
   14    16	 1
   15    50	 1
   15    51	 1
   16    50	 1
   16    51	 1
   16    55	 1
   16    56	 1
   17    56	 1
   19    54	 1
   20    54	 1
   20    55	 1
   21    26	 1
   21    35	 1
   21    60	 1
   21    24	 1
   22    27	 1
   22    61	 1
   22    62	 1
   22    36	 1
   22    39	 1
   23    57	 1
   23    58	 1
   23    26	 1
   23    35	 1
   23    60	 1
   24    25	 1
   24    59	 1
   25    57	 1
   25    58	 1
   25    28	 1
   25    34	 1
   25    37	 1
   25    38	 1
   26    59	 1
   26    36	 1
   26    39	 1
   26    29	 1
   26    63	 1
   26    32	 1
   26    65	 1
   27    35	 1
   27    60	 1
   27    30	 1
   27    31	 1
   27    33	 1
   28    61	 1
   28    62	 1
   28    32	 1
   28    65	 1
   28    64	 1
   29    34	 1
   29    33	 1
   30    63	 1
   30    32	 1
   30    64	 1
   31    63	 1
   31    65	 1
   33    64	 1
   33    65	 1
   34    61	 1
   34    62	 1
   34    63	 1
   34    64	 1
   35    59	 1
   35    61	 1
   35    62	 1
   35    66	 1
   35    67	 1
   35    68	 1
   36    60	 1
   37    39	 1
   37    66	 1
   37    67	 1
   37    68	 1
   38    39	 1
   39    60	 1
   40    42	 1
   40    43	 1
   41    42	 1
   41    43	 1
   42    44	 1
   42    45	 1
   43    44	 1
   43    45	 1
   44    46	 1
   44    47	 1
   45    46	 1
   45    47	 1
   46    48	 1
   46    49	 1
   47    48	 1
   47    49	 1
   51    52	 1
   52    53	 1
   54    55	 1
   55    56	 1
   57    59	 1
   58    59	 1
   59    60	 1
   60    61	 1
   60    62	 1

[ angles ]
;	ai	  aj	ak funct			c0			  c1			c2			  c3
    2     1    21	5 ;       HGP2      NG3P2      CG324
    2     1     4	5 ;       HGP2      NG3P2      CG301
    2     1     3	5 ;       HGP2      NG3P2       HGP2
   21     1     4	5 ;      CG324      NG3P2      CG301
   21     1     3	5 ;      CG324      NG3P2       HGP2
    4     1     3	5 ;      CG301      NG3P2       HGP2
   10     4     1	5 ;     CG2R61      CG301      NG3P2
   10     4     9	5 ;     CG2R61      CG301      CG321
   10     4     5	5 ;     CG2R61      CG301      CG321
    1     4     9	5 ;      NG3P2      CG301      CG321
    1     4     5	5 ;      NG3P2      CG301      CG321
    9     4     5	5 ;      CG321      CG301      CG321
    4     5     6	5 ;      CG301      CG321      CG321
    4     5    40	5 ;      CG301      CG321       HGA2
    4     5    41	5 ;      CG301      CG321       HGA2
    6     5    40	5 ;      CG321      CG321       HGA2
    6     5    41	5 ;      CG321      CG321       HGA2
   40     5    41	5 ;       HGA2      CG321       HGA2
    5     6     7	5 ;      CG321      CG321      CG321
    5     6    42	5 ;      CG321      CG321       HGA2
    5     6    43	5 ;      CG321      CG321       HGA2
    7     6    42	5 ;      CG321      CG321       HGA2
    7     6    43	5 ;      CG321      CG321       HGA2
   42     6    43	5 ;       HGA2      CG321       HGA2
    8     7     6	5 ;      CG321      CG321      CG321
    8     7    44	5 ;      CG321      CG321       HGA2
    8     7    45	5 ;      CG321      CG321       HGA2
    6     7    44	5 ;      CG321      CG321       HGA2
    6     7    45	5 ;      CG321      CG321       HGA2
   44     7    45	5 ;       HGA2      CG321       HGA2
    9     8     7	5 ;      CG321      CG321      CG321
    9     8    46	5 ;      CG321      CG321       HGA2
    9     8    47	5 ;      CG321      CG321       HGA2
    7     8    46	5 ;      CG321      CG321       HGA2
    7     8    47	5 ;      CG321      CG321       HGA2
   46     8    47	5 ;       HGA2      CG321       HGA2
    4     9     8	5 ;      CG301      CG321      CG321
    4     9    48	5 ;      CG301      CG321       HGA2
    4     9    49	5 ;      CG301      CG321       HGA2
    8     9    48	5 ;      CG321      CG321       HGA2
    8     9    49	5 ;      CG321      CG321       HGA2
   48     9    49	5 ;       HGA2      CG321       HGA2
   15    10    11	5 ;     CG2R61     CG2R61     CG2R61
   15    10     4	5 ;     CG2R61     CG2R61      CG301
   11    10     4	5 ;     CG2R61     CG2R61      CG301
   12    11    10	5 ;     CG2R61     CG2R61     CG2R61
   12    11    50	5 ;     CG2R61     CG2R61      HGR61
   10    11    50	5 ;     CG2R61     CG2R61      HGR61
   13    12    16	5 ;     CG2R61     CG2R61     CG2R51
   13    12    11	5 ;     CG2R61     CG2R61     CG2R61
   16    12    11	5 ;     CG2R51     CG2R61     CG2R61
   14    13    12	5 ;     CG2R61     CG2R61     CG2R61
   14    13    51	5 ;     CG2R61     CG2R61      HGR61
   12    13    51	5 ;     CG2R61     CG2R61      HGR61
   13    14    15	5 ;     CG2R61     CG2R61     CG2R61
   13    14    52	5 ;     CG2R61     CG2R61      HGR61
   15    14    52	5 ;     CG2R61     CG2R61      HGR61
   14    15    10	5 ;     CG2R61     CG2R61     CG2R61
   14    15    53	5 ;     CG2R61     CG2R61      HGR61
   10    15    53	5 ;     CG2R61     CG2R61      HGR61
   17    16    12	5 ;     CG2R51     CG2R51     CG2R61
   17    16    20	5 ;     CG2R51     CG2R51     SG2R50
   12    16    20	5 ;     CG2R61     CG2R51     SG2R50
   18    17    16	5 ;     CG2R51     CG2R51     CG2R51
   18    17    54	5 ;     CG2R51     CG2R51      HGR51
   16    17    54	5 ;     CG2R51     CG2R51      HGR51
   17    18    19	5 ;     CG2R51     CG2R51     CG2R51
   17    18    55	5 ;     CG2R51     CG2R51      HGR51
   19    18    55	5 ;     CG2R51     CG2R51      HGR51
   18    19    20	5 ;     CG2R51     CG2R51     SG2R50
   18    19    56	5 ;     CG2R51     CG2R51      HGR52
   20    19    56	5 ;     SG2R50     CG2R51      HGR52
   19    20    16	5 ;     CG2R51     SG2R50     CG2R51
   22    21     1	5 ;      CG311      CG324      NG3P2
   22    21    57	5 ;      CG311      CG324       HGA2
   22    21    58	5 ;      CG311      CG324       HGA2
    1    21    57	5 ;      NG3P2      CG324       HGA2
    1    21    58	5 ;      NG3P2      CG324       HGA2
   57    21    58	5 ;       HGA2      CG324       HGA2
   25    22    21	5 ;      CG311      CG311      CG324
   25    22    23	5 ;      CG311      CG311      OG311
   25    22    59	5 ;      CG311      CG311       HGA1
   21    22    23	5 ;      CG324      CG311      OG311
   21    22    59	5 ;      CG324      CG311       HGA1
   23    22    59	5 ;      OG311      CG311       HGA1
   22    23    24	5 ;      CG311      OG311       HGP1
   26    25    35	5 ;      CG321      CG311      NG2S1
   26    25    22	5 ;      CG321      CG311      CG311
   26    25    60	5 ;      CG321      CG311       HGA1
   35    25    22	5 ;      NG2S1      CG311      CG311
   35    25    60	5 ;      NG2S1      CG311       HGA1
   22    25    60	5 ;      CG311      CG311       HGA1
   27    26    25	5 ;     CG2R61      CG321      CG311
   27    26    61	5 ;     CG2R61      CG321       HGA2
   27    26    62	5 ;     CG2R61      CG321       HGA2
   25    26    61	5 ;      CG311      CG321       HGA2
   25    26    62	5 ;      CG311      CG321       HGA2
   61    26    62	5 ;       HGA2      CG321       HGA2
   28    27    26	5 ;     CG2R61     CG2R61      CG321
   28    27    34	5 ;     CG2R61     CG2R61     CG2R61
   26    27    34	5 ;      CG321     CG2R61     CG2R61
   29    28    27	5 ;     CG2R66     CG2R61     CG2R61
   29    28    63	5 ;     CG2R66     CG2R61      HGR62
   27    28    63	5 ;     CG2R61     CG2R61      HGR62
   30    29    28	5 ;       FGR1     CG2R66     CG2R61
   30    29    31	5 ;       FGR1     CG2R66     CG2R61
   28    29    31	5 ;     CG2R61     CG2R66     CG2R61
   29    31    32	5 ;     CG2R66     CG2R61     CG2R66
   29    31    64	5 ;     CG2R66     CG2R61      HGR62
   32    31    64	5 ;     CG2R66     CG2R61      HGR62
   31    32    34	5 ;     CG2R61     CG2R66     CG2R61
   31    32    33	5 ;     CG2R61     CG2R66       FGR1
   34    32    33	5 ;     CG2R61     CG2R66       FGR1
   27    34    32	5 ;     CG2R61     CG2R61     CG2R66
   27    34    65	5 ;     CG2R61     CG2R61      HGR62
   32    34    65	5 ;     CG2R66     CG2R61      HGR62
   36    35    25	5 ;      CG2O1      NG2S1      CG311
   36    35    39	5 ;      CG2O1      NG2S1       HGP1
   25    35    39	5 ;      CG311      NG2S1       HGP1
   37    36    38	5 ;      OG2D1      CG2O1      CG331
   37    36    35	5 ;      OG2D1      CG2O1      NG2S1
   38    36    35	5 ;      CG331      CG2O1      NG2S1
   36    38    66	5 ;      CG2O1      CG331       HGA3
   36    38    67	5 ;      CG2O1      CG331       HGA3
   36    38    68	5 ;      CG2O1      CG331       HGA3
   66    38    67	5 ;       HGA3      CG331       HGA3
   66    38    68	5 ;       HGA3      CG331       HGA3
   67    38    68	5 ;       HGA3      CG331       HGA3

[ dihedrals ]
;	ai	  aj	ak	  al funct			  c0			c1			  c2			c3			  c4			c5
    2     1    21    22	 9 ;       HGP2      NG3P2      CG324      CG311
    2     1    21    57	 9 ;       HGP2      NG3P2      CG324       HGA2
    2     1    21    58	 9 ;       HGP2      NG3P2      CG324       HGA2
    4     1    21    22	 9 ;      CG301      NG3P2      CG324      CG311
    4     1    21    57	 9 ;      CG301      NG3P2      CG324       HGA2
    4     1    21    58	 9 ;      CG301      NG3P2      CG324       HGA2
    3     1    21    22	 9 ;       HGP2      NG3P2      CG324      CG311
    3     1    21    57	 9 ;       HGP2      NG3P2      CG324       HGA2
    3     1    21    58	 9 ;       HGP2      NG3P2      CG324       HGA2
    2     1     4    10	 9 ;       HGP2      NG3P2      CG301     CG2R61
    2     1     4     9	 9 ;       HGP2      NG3P2      CG301      CG321
    2     1     4     5	 9 ;       HGP2      NG3P2      CG301      CG321
   21     1     4    10	 9 ;      CG324      NG3P2      CG301     CG2R61
   21     1     4     9	 9 ;      CG324      NG3P2      CG301      CG321
   21     1     4     5	 9 ;      CG324      NG3P2      CG301      CG321
    3     1     4    10	 9 ;       HGP2      NG3P2      CG301     CG2R61
    3     1     4     9	 9 ;       HGP2      NG3P2      CG301      CG321
    3     1     4     5	 9 ;       HGP2      NG3P2      CG301      CG321
    1     4    10    15	 9 ;      NG3P2      CG301     CG2R61     CG2R61
    1     4    10    11	 9 ;      NG3P2      CG301     CG2R61     CG2R61
    9     4    10    15	 9 ;      CG321      CG301     CG2R61     CG2R61
    9     4    10    11	 9 ;      CG321      CG301     CG2R61     CG2R61
    5     4    10    15	 9 ;      CG321      CG301     CG2R61     CG2R61
    5     4    10    11	 9 ;      CG321      CG301     CG2R61     CG2R61
   10     4     9     8	 9 ;     CG2R61      CG301      CG321      CG321
   10     4     9    48	 9 ;     CG2R61      CG301      CG321       HGA2
   10     4     9    49	 9 ;     CG2R61      CG301      CG321       HGA2
    1     4     9     8	 9 ;      NG3P2      CG301      CG321      CG321
    1     4     9    48	 9 ;      NG3P2      CG301      CG321       HGA2
    1     4     9    49	 9 ;      NG3P2      CG301      CG321       HGA2
    5     4     9     8	 9 ;      CG321      CG301      CG321      CG321
    5     4     9    48	 9 ;      CG321      CG301      CG321       HGA2
    5     4     9    49	 9 ;      CG321      CG301      CG321       HGA2
   10     4     5     6	 9 ;     CG2R61      CG301      CG321      CG321
   10     4     5    40	 9 ;     CG2R61      CG301      CG321       HGA2
   10     4     5    41	 9 ;     CG2R61      CG301      CG321       HGA2
    1     4     5     6	 9 ;      NG3P2      CG301      CG321      CG321
    1     4     5    40	 9 ;      NG3P2      CG301      CG321       HGA2
    1     4     5    41	 9 ;      NG3P2      CG301      CG321       HGA2
    9     4     5     6	 9 ;      CG321      CG301      CG321      CG321
    9     4     5    40	 9 ;      CG321      CG301      CG321       HGA2
    9     4     5    41	 9 ;      CG321      CG301      CG321       HGA2
    4     5     6     7	 9 ;      CG301      CG321      CG321      CG321
    4     5     6    42	 9 ;      CG301      CG321      CG321       HGA2
    4     5     6    43	 9 ;      CG301      CG321      CG321       HGA2
   40     5     6     7	 9 ;       HGA2      CG321      CG321      CG321
   40     5     6    42	 9 ;       HGA2      CG321      CG321       HGA2
   40     5     6    43	 9 ;       HGA2      CG321      CG321       HGA2
   41     5     6     7	 9 ;       HGA2      CG321      CG321      CG321
   41     5     6    42	 9 ;       HGA2      CG321      CG321       HGA2
   41     5     6    43	 9 ;       HGA2      CG321      CG321       HGA2
    5     6     7     8	 9 ;      CG321      CG321      CG321      CG321
    5     6     7    44	 9 ;      CG321      CG321      CG321       HGA2
    5     6     7    45	 9 ;      CG321      CG321      CG321       HGA2
   42     6     7     8	 9 ;       HGA2      CG321      CG321      CG321
   42     6     7    44	 9 ;       HGA2      CG321      CG321       HGA2
   42     6     7    45	 9 ;       HGA2      CG321      CG321       HGA2
   43     6     7     8	 9 ;       HGA2      CG321      CG321      CG321
   43     6     7    44	 9 ;       HGA2      CG321      CG321       HGA2
   43     6     7    45	 9 ;       HGA2      CG321      CG321       HGA2
    6     7     8     9	 9 ;      CG321      CG321      CG321      CG321
    6     7     8    46	 9 ;      CG321      CG321      CG321       HGA2
    6     7     8    47	 9 ;      CG321      CG321      CG321       HGA2
   44     7     8     9	 9 ;       HGA2      CG321      CG321      CG321
   44     7     8    46	 9 ;       HGA2      CG321      CG321       HGA2
   44     7     8    47	 9 ;       HGA2      CG321      CG321       HGA2
   45     7     8     9	 9 ;       HGA2      CG321      CG321      CG321
   45     7     8    46	 9 ;       HGA2      CG321      CG321       HGA2
   45     7     8    47	 9 ;       HGA2      CG321      CG321       HGA2
    7     8     9     4	 9 ;      CG321      CG321      CG321      CG301
    7     8     9    48	 9 ;      CG321      CG321      CG321       HGA2
    7     8     9    49	 9 ;      CG321      CG321      CG321       HGA2
   46     8     9     4	 9 ;       HGA2      CG321      CG321      CG301
   46     8     9    48	 9 ;       HGA2      CG321      CG321       HGA2
   46     8     9    49	 9 ;       HGA2      CG321      CG321       HGA2
   47     8     9     4	 9 ;       HGA2      CG321      CG321      CG301
   47     8     9    48	 9 ;       HGA2      CG321      CG321       HGA2
   47     8     9    49	 9 ;       HGA2      CG321      CG321       HGA2
   11    10    15    14	 9 ;     CG2R61     CG2R61     CG2R61     CG2R61
   11    10    15    53	 9 ;     CG2R61     CG2R61     CG2R61      HGR61
    4    10    15    14	 9 ;      CG301     CG2R61     CG2R61     CG2R61
    4    10    15    53	 9 ;      CG301     CG2R61     CG2R61      HGR61
   15    10    11    12	 9 ;     CG2R61     CG2R61     CG2R61     CG2R61
   15    10    11    50	 9 ;     CG2R61     CG2R61     CG2R61      HGR61
    4    10    11    12	 9 ;      CG301     CG2R61     CG2R61     CG2R61
    4    10    11    50	 9 ;      CG301     CG2R61     CG2R61      HGR61
   10    11    12    13	 9 ;     CG2R61     CG2R61     CG2R61     CG2R61
   10    11    12    16	 9 ;     CG2R61     CG2R61     CG2R61     CG2R51
   50    11    12    13	 9 ;      HGR61     CG2R61     CG2R61     CG2R61
   50    11    12    16	 9 ;      HGR61     CG2R61     CG2R61     CG2R51
   16    12    13    14	 9 ;     CG2R51     CG2R61     CG2R61     CG2R61
   16    12    13    51	 9 ;     CG2R51     CG2R61     CG2R61      HGR61
   11    12    13    14	 9 ;     CG2R61     CG2R61     CG2R61     CG2R61
   11    12    13    51	 9 ;     CG2R61     CG2R61     CG2R61      HGR61
   13    12    16    17	 9 ;     CG2R61     CG2R61     CG2R51     CG2R51
   13    12    16    20	 9 ;     CG2R61     CG2R61     CG2R51     SG2R50
   11    12    16    17	 9 ;     CG2R61     CG2R61     CG2R51     CG2R51
   11    12    16    20	 9 ;     CG2R61     CG2R61     CG2R51     SG2R50
   12    13    14    15	 9 ;     CG2R61     CG2R61     CG2R61     CG2R61
   12    13    14    52	 9 ;     CG2R61     CG2R61     CG2R61      HGR61
   51    13    14    15	 9 ;      HGR61     CG2R61     CG2R61     CG2R61
   51    13    14    52	 9 ;      HGR61     CG2R61     CG2R61      HGR61
   13    14    15    10	 9 ;     CG2R61     CG2R61     CG2R61     CG2R61
   13    14    15    53	 9 ;     CG2R61     CG2R61     CG2R61      HGR61
   52    14    15    10	 9 ;      HGR61     CG2R61     CG2R61     CG2R61
   52    14    15    53	 9 ;      HGR61     CG2R61     CG2R61      HGR61
   12    16    17    18	 9 ;     CG2R61     CG2R51     CG2R51     CG2R51
   12    16    17    54	 9 ;     CG2R61     CG2R51     CG2R51      HGR51
   20    16    17    18	 9 ;     SG2R50     CG2R51     CG2R51     CG2R51
   20    16    17    54	 9 ;     SG2R50     CG2R51     CG2R51      HGR51
   17    16    20    19	 9 ;     CG2R51     CG2R51     SG2R50     CG2R51
   12    16    20    19	 9 ;     CG2R61     CG2R51     SG2R50     CG2R51
   16    17    18    19	 9 ;     CG2R51     CG2R51     CG2R51     CG2R51
   16    17    18    55	 9 ;     CG2R51     CG2R51     CG2R51      HGR51
   54    17    18    19	 9 ;      HGR51     CG2R51     CG2R51     CG2R51
   54    17    18    55	 9 ;      HGR51     CG2R51     CG2R51      HGR51
   17    18    19    20	 9 ;     CG2R51     CG2R51     CG2R51     SG2R50
   17    18    19    56	 9 ;     CG2R51     CG2R51     CG2R51      HGR52
   55    18    19    20	 9 ;      HGR51     CG2R51     CG2R51     SG2R50
   55    18    19    56	 9 ;      HGR51     CG2R51     CG2R51      HGR52
   18    19    20    16	 9 ;     CG2R51     CG2R51     SG2R50     CG2R51
   56    19    20    16	 9 ;      HGR52     CG2R51     SG2R50     CG2R51
    1    21    22    25	 9 ;      NG3P2      CG324      CG311      CG311
    1    21    22    23	 9 ;      NG3P2      CG324      CG311      OG311
    1    21    22    59	 9 ;      NG3P2      CG324      CG311       HGA1
   57    21    22    25	 9 ;       HGA2      CG324      CG311      CG311
   57    21    22    23	 9 ;       HGA2      CG324      CG311      OG311
   57    21    22    59	 9 ;       HGA2      CG324      CG311       HGA1
   58    21    22    25	 9 ;       HGA2      CG324      CG311      CG311
   58    21    22    23	 9 ;       HGA2      CG324      CG311      OG311
   58    21    22    59	 9 ;       HGA2      CG324      CG311       HGA1
   21    22    25    26	 9 ;      CG324      CG311      CG311      CG321
   21    22    25    35	 9 ;      CG324      CG311      CG311      NG2S1
   21    22    25    60	 9 ;      CG324      CG311      CG311       HGA1
   23    22    25    26	 9 ;      OG311      CG311      CG311      CG321
   23    22    25    35	 9 ;      OG311      CG311      CG311      NG2S1
   23    22    25    60	 9 ;      OG311      CG311      CG311       HGA1
   59    22    25    26	 9 ;       HGA1      CG311      CG311      CG321
   59    22    25    35	 9 ;       HGA1      CG311      CG311      NG2S1
   59    22    25    60	 9 ;       HGA1      CG311      CG311       HGA1
   25    22    23    24	 9 ;      CG311      CG311      OG311       HGP1
   21    22    23    24	 9 ;      CG324      CG311      OG311       HGP1
   59    22    23    24	 9 ;       HGA1      CG311      OG311       HGP1
   35    25    26    27	 9 ;      NG2S1      CG311      CG321     CG2R61
   35    25    26    61	 9 ;      NG2S1      CG311      CG321       HGA2
   35    25    26    62	 9 ;      NG2S1      CG311      CG321       HGA2
   22    25    26    27	 9 ;      CG311      CG311      CG321     CG2R61
   22    25    26    61	 9 ;      CG311      CG311      CG321       HGA2
   22    25    26    62	 9 ;      CG311      CG311      CG321       HGA2
   60    25    26    27	 9 ;       HGA1      CG311      CG321     CG2R61
   60    25    26    61	 9 ;       HGA1      CG311      CG321       HGA2
   60    25    26    62	 9 ;       HGA1      CG311      CG321       HGA2
   26    25    35    36	 9 ;      CG321      CG311      NG2S1      CG2O1
   26    25    35    39	 9 ;      CG321      CG311      NG2S1       HGP1
   22    25    35    36	 9 ;      CG311      CG311      NG2S1      CG2O1
   22    25    35    39	 9 ;      CG311      CG311      NG2S1       HGP1
   60    25    35    36	 9 ;       HGA1      CG311      NG2S1      CG2O1
   60    25    35    39	 9 ;       HGA1      CG311      NG2S1       HGP1
   25    26    27    28	 9 ;      CG311      CG321     CG2R61     CG2R61
   25    26    27    34	 9 ;      CG311      CG321     CG2R61     CG2R61
   61    26    27    28	 9 ;       HGA2      CG321     CG2R61     CG2R61
   61    26    27    34	 9 ;       HGA2      CG321     CG2R61     CG2R61
   62    26    27    28	 9 ;       HGA2      CG321     CG2R61     CG2R61
   62    26    27    34	 9 ;       HGA2      CG321     CG2R61     CG2R61
   26    27    28    29	 9 ;      CG321     CG2R61     CG2R61     CG2R66
   26    27    28    63	 9 ;      CG321     CG2R61     CG2R61      HGR62
   34    27    28    29	 9 ;     CG2R61     CG2R61     CG2R61     CG2R66
   34    27    28    63	 9 ;     CG2R61     CG2R61     CG2R61      HGR62
   28    27    34    32	 9 ;     CG2R61     CG2R61     CG2R61     CG2R66
   28    27    34    65	 9 ;     CG2R61     CG2R61     CG2R61      HGR62
   26    27    34    32	 9 ;      CG321     CG2R61     CG2R61     CG2R66
   26    27    34    65	 9 ;      CG321     CG2R61     CG2R61      HGR62
   27    28    29    30	 9 ;     CG2R61     CG2R61     CG2R66       FGR1
   27    28    29    31	 9 ;     CG2R61     CG2R61     CG2R66     CG2R61
   63    28    29    30	 9 ;      HGR62     CG2R61     CG2R66       FGR1
   63    28    29    31	 9 ;      HGR62     CG2R61     CG2R66     CG2R61
   30    29    31    32	 9 ;       FGR1     CG2R66     CG2R61     CG2R66
   30    29    31    64	 9 ;       FGR1     CG2R66     CG2R61      HGR62
   28    29    31    32	 9 ;     CG2R61     CG2R66     CG2R61     CG2R66
   28    29    31    64	 9 ;     CG2R61     CG2R66     CG2R61      HGR62
   29    31    32    34	 9 ;     CG2R66     CG2R61     CG2R66     CG2R61
   29    31    32    33	 9 ;     CG2R66     CG2R61     CG2R66       FGR1
   64    31    32    34	 9 ;      HGR62     CG2R61     CG2R66     CG2R61
   64    31    32    33	 9 ;      HGR62     CG2R61     CG2R66       FGR1
   31    32    34    27	 9 ;     CG2R61     CG2R66     CG2R61     CG2R61
   31    32    34    65	 9 ;     CG2R61     CG2R66     CG2R61      HGR62
   33    32    34    27	 9 ;       FGR1     CG2R66     CG2R61     CG2R61
   33    32    34    65	 9 ;       FGR1     CG2R66     CG2R61      HGR62
   25    35    36    37	 9 ;      CG311      NG2S1      CG2O1      OG2D1
   25    35    36    38	 9 ;      CG311      NG2S1      CG2O1      CG331
   39    35    36    37	 9 ;       HGP1      NG2S1      CG2O1      OG2D1
   39    35    36    38	 9 ;       HGP1      NG2S1      CG2O1      CG331
   37    36    38    66	 9 ;      OG2D1      CG2O1      CG331       HGA3
   37    36    38    67	 9 ;      OG2D1      CG2O1      CG331       HGA3
   37    36    38    68	 9 ;      OG2D1      CG2O1      CG331       HGA3
   35    36    38    66	 9 ;      NG2S1      CG2O1      CG331       HGA3
   35    36    38    67	 9 ;      NG2S1      CG2O1      CG331       HGA3
   35    36    38    68	 9 ;      NG2S1      CG2O1      CG331       HGA3

[ dihedrals ]
;	ai	  aj	ak	  al funct			  c0			c1			  c2			c3
   36    38    35    37	 2

