Grunge ROck MAChoS
   68
    1LIG     N1    1  -1.717   0.583  -1.602
    1LIG     H1    2  -1.678   0.576  -1.697
    1LIG     H2    3  -1.817   0.602  -1.618
    1LIG     C1    4  -1.706   0.448  -1.531
    1LIG     C2    5  -1.719   0.479  -1.379
    1LIG     C3    6  -1.857   0.530  -1.335
    1LIG     C4    7  -1.969   0.437  -1.380
    1LIG     C5    8  -1.963   0.413  -1.530
    1LIG     C6    9  -1.827   0.359  -1.573
    1LIG     C7   10  -1.571   0.383  -1.567
    1LIG     C8   11  -1.489   0.321  -1.469
    1LIG     C9   12  -1.363   0.265  -1.500
    1LIG    C10   13  -1.316   0.280  -1.631
    1LIG    C11   14  -1.394   0.338  -1.730
    1LIG    C12   15  -1.521   0.386  -1.699
    1LIG    C13   16  -1.285   0.186  -1.404
    1LIG    C14   17  -1.179   0.228  -1.324
    1LIG    C15   18  -1.121   0.123  -1.248
    1LIG    C16   19  -1.185   0.004  -1.268
    1LIG      S   20  -1.315   0.018  -1.378
    1LIG    C17   21  -1.658   0.706  -1.535
    1LIG    C18   22  -1.643   0.816  -1.642
    1LIG     O1   23  -1.746   0.913  -1.618
    1LIG     H3   24  -1.821   0.900  -1.678
    1LIG    C19   25  -1.498   0.877  -1.655
    1LIG    C20   26  -1.417   0.790  -1.753
    1LIG    C21   27  -1.309   0.697  -1.703
    1LIG    C22   28  -1.198   0.660  -1.781
    1LIG    C23   29  -1.089   0.595  -1.722
    1LIG     F1   30  -0.982   0.566  -1.798
    1LIG    C24   31  -1.086   0.565  -1.587
    1LIG    C25   32  -1.196   0.599  -1.510
    1LIG     F2   33  -1.196   0.573  -1.379
    1LIG    C26   34  -1.307   0.663  -1.566
    1LIG     N2   35  -1.504   1.017  -1.698
    1LIG    C27   36  -1.511   1.062  -1.827
    1LIG     O2   37  -1.447   1.162  -1.858
    1LIG    C28   38  -1.592   0.984  -1.928
    1LIG     H4   39  -1.459   1.086  -1.638
    1LIG    HC2   40  -1.646   0.556  -1.354
    1LIG    HC3   41  -1.696   0.389  -1.323
    1LIG    HC4   42  -1.859   0.537  -1.226
    1LIG    HC5   43  -1.874   0.629  -1.377
    1LIG    HC6   44  -1.958   0.341  -1.329
    1LIG    HC7   45  -2.065   0.481  -1.354
    1LIG    HC8   46  -1.982   0.508  -1.582
    1LIG    HC9   47  -2.040   0.342  -1.558
    1LIG   HC10   48  -1.827   0.350  -1.681
    1LIG   HC11   49  -1.814   0.260  -1.530
    1LIG     HC   50  -1.524   0.316  -1.367
    1LIG    HC1   51  -1.216   0.245  -1.656
    1LIG   HC12   52  -1.357   0.346  -1.831
    1LIG   HC13   53  -1.583   0.428  -1.777
    1LIG   HC14   54  -1.145   0.331  -1.321
    1LIG   HC15   55  -1.036   0.137  -1.182
    1LIG   HC16   56  -1.156  -0.089  -1.220
    1LIG   HC17   57  -1.725   0.740  -1.456
    1LIG   HC18   58  -1.561   0.681  -1.493
    1LIG   HC19   59  -1.666   0.769  -1.738
    1LIG   HC20   60  -1.450   0.873  -1.557
    1LIG   HC21   61  -1.368   0.859  -1.822
    1LIG   HC22   62  -1.487   0.731  -1.811
    1LIG   HC23   63  -1.197   0.681  -1.887
    1LIG   HC24   64  -1.000   0.517  -1.542
    1LIG   HC25   65  -1.392   0.688  -1.504
    1LIG   HC26   66  -1.652   1.053  -1.987
    1LIG   HC27   67  -1.524   0.929  -1.993
    1LIG   HC28   68  -1.657   0.914  -1.876
   0.00000   0.00000   0.00000
