Good gRace! Old Maple Actually Chews Slate
   72
    1LIG      S    1  -1.758   0.367  -1.389
    1LIG     O1    2  -1.658   0.275  -1.337
    1LIG     O2    3  -1.889   0.320  -1.429
    1LIG     C1    4  -1.780   0.501  -1.272
    1LIG     C2    5  -1.654   0.587  -1.253
    1LIG     C3    6  -1.602   0.635  -1.392
    1LIG     C4    7  -1.560   0.522  -1.490
    1LIG     C5    8  -1.685   0.444  -1.530
    1LIG     C6    9  -1.558   0.512  -1.156
    1LIG     C7   10  -1.610   0.470  -1.022
    1LIG     C8   11  -1.613   0.336  -0.982
    1LIG     C9   12  -1.664   0.300  -0.856
    1LIG    C10   13  -1.722   0.397  -0.773
    1LIG    C11   14  -1.715   0.531  -0.813
    1LIG      F   15  -1.769   0.627  -0.737
    1LIG    C12   16  -1.656   0.568  -0.933
    1LIG     O3   17  -1.665   0.168  -0.815
    1LIG    C13   18  -1.545   0.127  -0.746
    1LIG    C14   19  -1.550  -0.024  -0.721
    1LIG    C15   20  -1.661  -0.093  -0.799
    1LIG     N1   21  -1.807   0.363  -0.665
    1LIG     H1   22  -1.891   0.314  -0.695
    1LIG     H2   23  -1.824   0.440  -0.601
    1LIG     O4   24  -1.504   0.737  -1.382
    1LIG     H3   25  -1.467   0.743  -1.293
    1LIG     N2   26  -1.498   0.578  -1.620
    1LIG     H4   27  -1.568   0.635  -1.670
    1LIG     H5   28  -1.421   0.643  -1.598
    1LIG    C16   29  -1.445   0.483  -1.724
    1LIG    C17   30  -1.300   0.447  -1.699
    1LIG    C18   31  -1.263   0.312  -1.678
    1LIG    C19   32  -1.128   0.271  -1.662
    1LIG    C20   33  -1.031   0.373  -1.664
    1LIG    C21   34  -1.067   0.507  -1.684
    1LIG    C22   35  -1.200   0.545  -1.701
    1LIG    C23   36  -1.087   0.122  -1.655
    1LIG    C24   37  -1.031   0.084  -1.516
    1LIG    C25   38  -1.209   0.032  -1.684
    1LIG    C26   39  -0.977   0.083  -1.757
    1LIG     H6   40  -1.807   0.459  -1.178
    1LIG     H7   41  -1.856   0.564  -1.312
    1LIG     H8   42  -1.672   0.680  -1.202
    1LIG     H9   43  -1.689   0.679  -1.436
    1LIG    H10   44  -1.487   0.461  -1.441
    1LIG    H11   45  -1.659   0.369  -1.602
    1LIG    H12   46  -1.756   0.512  -1.572
    1LIG    H13   47  -1.475   0.577  -1.139
    1LIG    H14   48  -1.537   0.420  -1.206
    1LIG    H15   49  -1.576   0.263  -1.045
    1LIG    H16   50  -1.646   0.668  -0.957
    1LIG    H17   51  -1.537   0.179  -0.653
    1LIG    H18   52  -1.460   0.150  -0.807
    1LIG    H19   53  -1.457  -0.067  -0.749
    1LIG    H20   54  -1.571  -0.038  -0.617
    1LIG    H21   55  -1.644  -0.081  -0.904
    1LIG    H22   56  -1.755  -0.050  -0.773
    1LIG    H23   57  -1.662  -0.197  -0.775
    1LIG    H24   58  -1.504   0.394  -1.722
    1LIG    H25   59  -1.452   0.531  -1.819
    1LIG    H26   60  -1.337   0.241  -1.674
    1LIG    H27   61  -0.932   0.348  -1.651
    1LIG    H28   62  -0.993   0.580  -1.685
    1LIG    H29   63  -1.225   0.644  -1.714
    1LIG    H30   64  -1.004  -0.020  -1.516
    1LIG    H31   65  -1.107   0.101  -1.442
    1LIG    H32   66  -0.945   0.143  -1.494
    1LIG    H33   67  -1.250   0.056  -1.780
    1LIG    H34   68  -1.283   0.047  -1.609
    1LIG    H35   69  -1.179  -0.071  -1.683
    1LIG    H36   70  -1.010   0.108  -1.856
    1LIG    H37   71  -0.958  -0.022  -1.751
    1LIG    H38   72  -0.887   0.137  -1.735
   0.00000   0.00000   0.00000
