; Created by cgenff_charmm2gmx.py

[ moleculetype ]
; Name			   nrexcl
LIG				 3

[ atoms ]
;	 nr		  type	resnr residue  atom   cgnr	   charge		mass  typeB    chargeB		massB
; residue	 1 LIG rtp LIG q	qsum
     1      SG3O2      1    LIG      S      1      0.113     32.060   ;
     2      OG2P1      1    LIG     O1      2     -0.300     15.999   ;
     3      OG2P1      1    LIG     O2      3     -0.300     15.999   ;
     4      CG321      1    LIG     C1      4      0.180     12.011   ;
     5      CG311      1    LIG     C2      5     -0.145     12.011   ;
     6      CG311      1    LIG     C3      6      0.100     12.011   ;
     7      CG314      1    LIG     C4      7     -0.043     12.011   ;
     8      CG321      1    LIG     C5      8      0.224     12.011   ;
     9      CG321      1    LIG     C6      9     -0.108     12.011   ;
    10     CG2R61      1    LIG     C7     10      0.006     12.011   ;
    11     CG2R61      1    LIG     C8     11     -0.111     12.011   ;
    12     CG2R61      1    LIG     C9     12      0.295     12.011   ;
    13     CG2R61      1    LIG    C10     13     -0.028     12.011   ;
    14     CG2R66      1    LIG    C11     14      0.028     12.011   ;
    15       FGR1      1    LIG      F     15     -0.230     18.998   ;
    16     CG2R61      1    LIG    C12     16     -0.121     12.011   ;
    17      OG301      1    LIG     O3     17     -0.304     15.999   ;
    18      CG321      1    LIG    C13     18     -0.010     12.011   ;
    19      CG321      1    LIG    C14     19     -0.178     12.011   ;
    20      CG331      1    LIG    C15     20     -0.270     12.011   ;
    21      NG2S3      1    LIG     N1     21     -0.731     14.007   ;
    22       HGP4      1    LIG     H1     22      0.357      1.008   ;
    23       HGP4      1    LIG     H2     23      0.357      1.008   ;
    24      OG311      1    LIG     O4     24     -0.595     15.999   ;
    25       HGP1      1    LIG     H3     25      0.422      1.008   ;
    26      NG3P2      1    LIG     N2     26     -0.444     14.007   ;
    27       HGP2      1    LIG     H4     27      0.346      1.008   ;
    28       HGP2      1    LIG     H5     28      0.346      1.008   ;
    29      CG324      1    LIG    C16     29      0.178     12.011   ;
    30     CG2R61      1    LIG    C17     30      0.036     12.011   ;
    31     CG2R61      1    LIG    C18     31     -0.124     12.011   ;
    32     CG2R61      1    LIG    C19     32      0.084     12.011   ;
    33     CG2R61      1    LIG    C20     33     -0.121     12.011   ;
    34     CG2R61      1    LIG    C21     34     -0.108     12.011   ;
    35     CG2R61      1    LIG    C22     35     -0.119     12.011   ;
    36      CG301      1    LIG    C23     36     -0.018     12.011   ;
    37      CG331      1    LIG    C24     37     -0.289     12.011   ;
    38      CG331      1    LIG    C25     38     -0.289     12.011   ;
    39      CG331      1    LIG    C26     39     -0.289     12.011   ;
    40       HGA2      1    LIG     H6     40      0.090      1.008   ;
    41       HGA2      1    LIG     H7     41      0.090      1.008   ;
    42       HGA1      1    LIG     H8     42      0.090      1.008   ;
    43       HGA1      1    LIG     H9     43      0.090      1.008   ;
    44       HGA1      1    LIG    H10     44      0.109      1.008   ;
    45       HGA2      1    LIG    H11     45      0.090      1.008   ;
    46       HGA2      1    LIG    H12     46      0.090      1.008   ;
    47       HGA2      1    LIG    H13     47      0.090      1.008   ;
    48       HGA2      1    LIG    H14     48      0.090      1.008   ;
    49      HGR61      1    LIG    H15     49      0.116      1.008   ;
    50      HGR62      1    LIG    H16     50      0.174      1.008   ;
    51       HGA2      1    LIG    H17     51      0.090      1.008   ;
    52       HGA2      1    LIG    H18     52      0.090      1.008   ;
    53       HGA2      1    LIG    H19     53      0.090      1.008   ;
    54       HGA2      1    LIG    H20     54      0.090      1.008   ;
    55       HGA3      1    LIG    H21     55      0.090      1.008   ;
    56       HGA3      1    LIG    H22     56      0.090      1.008   ;
    57       HGA3      1    LIG    H23     57      0.090      1.008   ;
    58       HGA2      1    LIG    H24     58      0.090      1.008   ;
    59       HGA2      1    LIG    H25     59      0.090      1.008   ;
    60      HGR61      1    LIG    H26     60      0.116      1.008   ;
    61      HGR61      1    LIG    H27     61      0.116      1.008   ;
    62      HGR61      1    LIG    H28     62      0.116      1.008   ;
    63      HGR61      1    LIG    H29     63      0.116      1.008   ;
    64       HGA3      1    LIG    H30     64      0.090      1.008   ;
    65       HGA3      1    LIG    H31     65      0.090      1.008   ;
    66       HGA3      1    LIG    H32     66      0.090      1.008   ;
    67       HGA3      1    LIG    H33     67      0.090      1.008   ;
    68       HGA3      1    LIG    H34     68      0.090      1.008   ;
    69       HGA3      1    LIG    H35     69      0.090      1.008   ;
    70       HGA3      1    LIG    H36     70      0.090      1.008   ;
    71       HGA3      1    LIG    H37     71      0.090      1.008   ;
    72       HGA3      1    LIG    H38     72      0.090      1.008   ;

[ bonds ]
;	ai	  aj funct			  c0			c1			  c2			c3
    1     8	 1 ;       SG3O2      CG321
    1     3	 1 ;       SG3O2      OG2P1
    1     2	 1 ;       SG3O2      OG2P1
    1     4	 1 ;       SG3O2      CG321
    4     5	 1 ;       CG321      CG311
    4    40	 1 ;       CG321       HGA2
    4    41	 1 ;       CG321       HGA2
    5     6	 1 ;       CG311      CG311
    5     9	 1 ;       CG311      CG321
    5    42	 1 ;       CG311       HGA1
    6     7	 1 ;       CG311      CG314
    6    24	 1 ;       CG311      OG311
    6    43	 1 ;       CG311       HGA1
    7    26	 1 ;       CG314      NG3P2
    7     8	 1 ;       CG314      CG321
    7    44	 1 ;       CG314       HGA1
    8    45	 1 ;       CG321       HGA2
    8    46	 1 ;       CG321       HGA2
    9    10	 1 ;       CG321     CG2R61
    9    47	 1 ;       CG321       HGA2
    9    48	 1 ;       CG321       HGA2
   10    11	 1 ;      CG2R61     CG2R61
   10    16	 1 ;      CG2R61     CG2R61
   11    12	 1 ;      CG2R61     CG2R61
   11    49	 1 ;      CG2R61      HGR61
   12    17	 1 ;      CG2R61      OG301
   12    13	 1 ;      CG2R61     CG2R61
   13    14	 1 ;      CG2R61     CG2R66
   13    21	 1 ;      CG2R61      NG2S3
   14    16	 1 ;      CG2R66     CG2R61
   14    15	 1 ;      CG2R66       FGR1
   16    50	 1 ;      CG2R61      HGR62
   17    18	 1 ;       OG301      CG321
   18    19	 1 ;       CG321      CG321
   18    51	 1 ;       CG321       HGA2
   18    52	 1 ;       CG321       HGA2
   19    20	 1 ;       CG321      CG331
   19    53	 1 ;       CG321       HGA2
   19    54	 1 ;       CG321       HGA2
   20    55	 1 ;       CG331       HGA3
   20    56	 1 ;       CG331       HGA3
   20    57	 1 ;       CG331       HGA3
   21    22	 1 ;       NG2S3       HGP4
   21    23	 1 ;       NG2S3       HGP4
   24    25	 1 ;       OG311       HGP1
   26    29	 1 ;       NG3P2      CG324
   26    27	 1 ;       NG3P2       HGP2
   26    28	 1 ;       NG3P2       HGP2
   29    30	 1 ;       CG324     CG2R61
   29    58	 1 ;       CG324       HGA2
   29    59	 1 ;       CG324       HGA2
   30    35	 1 ;      CG2R61     CG2R61
   30    31	 1 ;      CG2R61     CG2R61
   31    32	 1 ;      CG2R61     CG2R61
   31    60	 1 ;      CG2R61      HGR61
   32    33	 1 ;      CG2R61     CG2R61
   32    36	 1 ;      CG2R61      CG301
   33    34	 1 ;      CG2R61     CG2R61
   33    61	 1 ;      CG2R61      HGR61
   34    35	 1 ;      CG2R61     CG2R61
   34    62	 1 ;      CG2R61      HGR61
   35    63	 1 ;      CG2R61      HGR61
   36    39	 1 ;       CG301      CG331
   36    38	 1 ;       CG301      CG331
   36    37	 1 ;       CG301      CG331
   37    64	 1 ;       CG331       HGA3
   37    65	 1 ;       CG331       HGA3
   37    66	 1 ;       CG331       HGA3
   38    67	 1 ;       CG331       HGA3
   38    68	 1 ;       CG331       HGA3
   38    69	 1 ;       CG331       HGA3
   39    70	 1 ;       CG331       HGA3
   39    71	 1 ;       CG331       HGA3
   39    72	 1 ;       CG331       HGA3

[ pairs ]
;	ai	  aj funct			  c0			c1			  c2			c3
    1     6	 1
    1     9	 1
    1    42	 1
    1    26	 1
    1    44	 1
    2     7	 1
    2    45	 1
    2    46	 1
    2     5	 1
    2    40	 1
    2    41	 1
    3     7	 1
    3    45	 1
    3    46	 1
    3     5	 1
    3    40	 1
    3    41	 1
    4     7	 1
    4    45	 1
    4    46	 1
    4    24	 1
    4    43	 1
    4    10	 1
    4    47	 1
    4    48	 1
    5     8	 1
    5    26	 1
    5    44	 1
    5    25	 1
    5    11	 1
    5    16	 1
    6    40	 1
    6    41	 1
    6    10	 1
    6    47	 1
    6    48	 1
    6    29	 1
    6    27	 1
    6    28	 1
    6    45	 1
    6    46	 1
    7     9	 1
    7    42	 1
    7    25	 1
    7    30	 1
    7    58	 1
    7    59	 1
    8    40	 1
    8    41	 1
    8    24	 1
    8    43	 1
    8    29	 1
    8    27	 1
    8    28	 1
    9    40	 1
    9    41	 1
    9    24	 1
    9    43	 1
    9    12	 1
    9    49	 1
    9    14	 1
    9    50	 1
   10    42	 1
   10    17	 1
   10    13	 1
   10    15	 1
   11    47	 1
   11    48	 1
   11    14	 1
   11    50	 1
   11    18	 1
   11    21	 1
   12    16	 1
   12    15	 1
   12    22	 1
   12    23	 1
   12    19	 1
   12    51	 1
   12    52	 1
   13    49	 1
   13    18	 1
   13    50	 1
   14    17	 1
   14    22	 1
   14    23	 1
   15    21	 1
   15    50	 1
   16    47	 1
   16    48	 1
   16    49	 1
   16    21	 1
   17    49	 1
   17    21	 1
   17    20	 1
   17    53	 1
   17    54	 1
   18    55	 1
   18    56	 1
   18    57	 1
   20    51	 1
   20    52	 1
   24    42	 1
   24    26	 1
   24    44	 1
   25    43	 1
   26    43	 1
   26    45	 1
   26    46	 1
   26    35	 1
   26    31	 1
   27    44	 1
   27    30	 1
   27    58	 1
   27    59	 1
   28    44	 1
   28    30	 1
   28    58	 1
   28    59	 1
   29    44	 1
   29    34	 1
   29    63	 1
   29    32	 1
   29    60	 1
   30    33	 1
   30    36	 1
   30    62	 1
   31    58	 1
   31    59	 1
   31    34	 1
   31    63	 1
   31    61	 1
   31    39	 1
   31    38	 1
   31    37	 1
   32    35	 1
   32    62	 1
   32    70	 1
   32    71	 1
   32    72	 1
   32    67	 1
   32    68	 1
   32    69	 1
   32    64	 1
   32    65	 1
   32    66	 1
   33    60	 1
   33    39	 1
   33    38	 1
   33    37	 1
   33    63	 1
   34    36	 1
   35    58	 1
   35    59	 1
   35    60	 1
   35    61	 1
   36    60	 1
   36    61	 1
   37    70	 1
   37    71	 1
   37    72	 1
   37    67	 1
   37    68	 1
   37    69	 1
   38    70	 1
   38    71	 1
   38    72	 1
   38    64	 1
   38    65	 1
   38    66	 1
   39    67	 1
   39    68	 1
   39    69	 1
   39    64	 1
   39    65	 1
   39    66	 1
   40    42	 1
   41    42	 1
   42    43	 1
   42    47	 1
   42    48	 1
   43    44	 1
   44    45	 1
   44    46	 1
   51    53	 1
   51    54	 1
   52    53	 1
   52    54	 1
   53    55	 1
   53    56	 1
   53    57	 1
   54    55	 1
   54    56	 1
   54    57	 1
   61    62	 1
   62    63	 1

[ angles ]
;	ai	  aj	ak funct			c0			  c1			c2			  c3
    8     1     3	5 ;      CG321      SG3O2      OG2P1
    8     1     2	5 ;      CG321      SG3O2      OG2P1
    8     1     4	5 ;      CG321      SG3O2      CG321
    3     1     2	5 ;      OG2P1      SG3O2      OG2P1
    3     1     4	5 ;      OG2P1      SG3O2      CG321
    2     1     4	5 ;      OG2P1      SG3O2      CG321
    1     4     5	5 ;      SG3O2      CG321      CG311
    1     4    40	5 ;      SG3O2      CG321       HGA2
    1     4    41	5 ;      SG3O2      CG321       HGA2
    5     4    40	5 ;      CG311      CG321       HGA2
    5     4    41	5 ;      CG311      CG321       HGA2
   40     4    41	5 ;       HGA2      CG321       HGA2
    6     5     4	5 ;      CG311      CG311      CG321
    6     5     9	5 ;      CG311      CG311      CG321
    6     5    42	5 ;      CG311      CG311       HGA1
    4     5     9	5 ;      CG321      CG311      CG321
    4     5    42	5 ;      CG321      CG311       HGA1
    9     5    42	5 ;      CG321      CG311       HGA1
    7     6    24	5 ;      CG314      CG311      OG311
    7     6     5	5 ;      CG314      CG311      CG311
    7     6    43	5 ;      CG314      CG311       HGA1
   24     6     5	5 ;      OG311      CG311      CG311
   24     6    43	5 ;      OG311      CG311       HGA1
    5     6    43	5 ;      CG311      CG311       HGA1
   26     7     8	5 ;      NG3P2      CG314      CG321
   26     7     6	5 ;      NG3P2      CG314      CG311
   26     7    44	5 ;      NG3P2      CG314       HGA1
    8     7     6	5 ;      CG321      CG314      CG311
    8     7    44	5 ;      CG321      CG314       HGA1
    6     7    44	5 ;      CG311      CG314       HGA1
    7     8     1	5 ;      CG314      CG321      SG3O2
    7     8    45	5 ;      CG314      CG321       HGA2
    7     8    46	5 ;      CG314      CG321       HGA2
    1     8    45	5 ;      SG3O2      CG321       HGA2
    1     8    46	5 ;      SG3O2      CG321       HGA2
   45     8    46	5 ;       HGA2      CG321       HGA2
    5     9    10	5 ;      CG311      CG321     CG2R61
    5     9    47	5 ;      CG311      CG321       HGA2
    5     9    48	5 ;      CG311      CG321       HGA2
   10     9    47	5 ;     CG2R61      CG321       HGA2
   10     9    48	5 ;     CG2R61      CG321       HGA2
   47     9    48	5 ;       HGA2      CG321       HGA2
    9    10    11	5 ;      CG321     CG2R61     CG2R61
    9    10    16	5 ;      CG321     CG2R61     CG2R61
   11    10    16	5 ;     CG2R61     CG2R61     CG2R61
   10    11    12	5 ;     CG2R61     CG2R61     CG2R61
   10    11    49	5 ;     CG2R61     CG2R61      HGR61
   12    11    49	5 ;     CG2R61     CG2R61      HGR61
   11    12    17	5 ;     CG2R61     CG2R61      OG301
   11    12    13	5 ;     CG2R61     CG2R61     CG2R61
   17    12    13	5 ;      OG301     CG2R61     CG2R61
   12    13    14	5 ;     CG2R61     CG2R61     CG2R66
   12    13    21	5 ;     CG2R61     CG2R61      NG2S3
   14    13    21	5 ;     CG2R66     CG2R61      NG2S3
   16    14    13	5 ;     CG2R61     CG2R66     CG2R61
   16    14    15	5 ;     CG2R61     CG2R66       FGR1
   13    14    15	5 ;     CG2R61     CG2R66       FGR1
   10    16    14	5 ;     CG2R61     CG2R61     CG2R66
   10    16    50	5 ;     CG2R61     CG2R61      HGR62
   14    16    50	5 ;     CG2R66     CG2R61      HGR62
   12    17    18	5 ;     CG2R61      OG301      CG321
   17    18    19	5 ;      OG301      CG321      CG321
   17    18    51	5 ;      OG301      CG321       HGA2
   17    18    52	5 ;      OG301      CG321       HGA2
   19    18    51	5 ;      CG321      CG321       HGA2
   19    18    52	5 ;      CG321      CG321       HGA2
   51    18    52	5 ;       HGA2      CG321       HGA2
   20    19    18	5 ;      CG331      CG321      CG321
   20    19    53	5 ;      CG331      CG321       HGA2
   20    19    54	5 ;      CG331      CG321       HGA2
   18    19    53	5 ;      CG321      CG321       HGA2
   18    19    54	5 ;      CG321      CG321       HGA2
   53    19    54	5 ;       HGA2      CG321       HGA2
   19    20    55	5 ;      CG321      CG331       HGA3
   19    20    56	5 ;      CG321      CG331       HGA3
   19    20    57	5 ;      CG321      CG331       HGA3
   55    20    56	5 ;       HGA3      CG331       HGA3
   55    20    57	5 ;       HGA3      CG331       HGA3
   56    20    57	5 ;       HGA3      CG331       HGA3
   13    21    22	5 ;     CG2R61      NG2S3       HGP4
   13    21    23	5 ;     CG2R61      NG2S3       HGP4
   22    21    23	5 ;       HGP4      NG2S3       HGP4
    6    24    25	5 ;      CG311      OG311       HGP1
   29    26    27	5 ;      CG324      NG3P2       HGP2
   29    26    28	5 ;      CG324      NG3P2       HGP2
   29    26     7	5 ;      CG324      NG3P2      CG314
   27    26    28	5 ;       HGP2      NG3P2       HGP2
   27    26     7	5 ;       HGP2      NG3P2      CG314
   28    26     7	5 ;       HGP2      NG3P2      CG314
   30    29    26	5 ;     CG2R61      CG324      NG3P2
   30    29    58	5 ;     CG2R61      CG324       HGA2
   30    29    59	5 ;     CG2R61      CG324       HGA2
   26    29    58	5 ;      NG3P2      CG324       HGA2
   26    29    59	5 ;      NG3P2      CG324       HGA2
   58    29    59	5 ;       HGA2      CG324       HGA2
   29    30    35	5 ;      CG324     CG2R61     CG2R61
   29    30    31	5 ;      CG324     CG2R61     CG2R61
   35    30    31	5 ;     CG2R61     CG2R61     CG2R61
   30    31    32	5 ;     CG2R61     CG2R61     CG2R61
   30    31    60	5 ;     CG2R61     CG2R61      HGR61
   32    31    60	5 ;     CG2R61     CG2R61      HGR61
   31    32    33	5 ;     CG2R61     CG2R61     CG2R61
   31    32    36	5 ;     CG2R61     CG2R61      CG301
   33    32    36	5 ;     CG2R61     CG2R61      CG301
   34    33    32	5 ;     CG2R61     CG2R61     CG2R61
   34    33    61	5 ;     CG2R61     CG2R61      HGR61
   32    33    61	5 ;     CG2R61     CG2R61      HGR61
   35    34    33	5 ;     CG2R61     CG2R61     CG2R61
   35    34    62	5 ;     CG2R61     CG2R61      HGR61
   33    34    62	5 ;     CG2R61     CG2R61      HGR61
   30    35    34	5 ;     CG2R61     CG2R61     CG2R61
   30    35    63	5 ;     CG2R61     CG2R61      HGR61
   34    35    63	5 ;     CG2R61     CG2R61      HGR61
   39    36    38	5 ;      CG331      CG301      CG331
   39    36    32	5 ;      CG331      CG301     CG2R61
   39    36    37	5 ;      CG331      CG301      CG331
   38    36    32	5 ;      CG331      CG301     CG2R61
   38    36    37	5 ;      CG331      CG301      CG331
   32    36    37	5 ;     CG2R61      CG301      CG331
   36    37    64	5 ;      CG301      CG331       HGA3
   36    37    65	5 ;      CG301      CG331       HGA3
   36    37    66	5 ;      CG301      CG331       HGA3
   64    37    65	5 ;       HGA3      CG331       HGA3
   64    37    66	5 ;       HGA3      CG331       HGA3
   65    37    66	5 ;       HGA3      CG331       HGA3
   36    38    67	5 ;      CG301      CG331       HGA3
   36    38    68	5 ;      CG301      CG331       HGA3
   36    38    69	5 ;      CG301      CG331       HGA3
   67    38    68	5 ;       HGA3      CG331       HGA3
   67    38    69	5 ;       HGA3      CG331       HGA3
   68    38    69	5 ;       HGA3      CG331       HGA3
   36    39    70	5 ;      CG301      CG331       HGA3
   36    39    71	5 ;      CG301      CG331       HGA3
   36    39    72	5 ;      CG301      CG331       HGA3
   70    39    71	5 ;       HGA3      CG331       HGA3
   70    39    72	5 ;       HGA3      CG331       HGA3
   71    39    72	5 ;       HGA3      CG331       HGA3

[ dihedrals ]
;	ai	  aj	ak	  al funct			  c0			c1			  c2			c3			  c4			c5
    3     1     8     7	 9 ;      OG2P1      SG3O2      CG321      CG314
    3     1     8    45	 9 ;      OG2P1      SG3O2      CG321       HGA2
    3     1     8    46	 9 ;      OG2P1      SG3O2      CG321       HGA2
    2     1     8     7	 9 ;      OG2P1      SG3O2      CG321      CG314
    2     1     8    45	 9 ;      OG2P1      SG3O2      CG321       HGA2
    2     1     8    46	 9 ;      OG2P1      SG3O2      CG321       HGA2
    4     1     8     7	 9 ;      CG321      SG3O2      CG321      CG314
    4     1     8    45	 9 ;      CG321      SG3O2      CG321       HGA2
    4     1     8    46	 9 ;      CG321      SG3O2      CG321       HGA2
    8     1     4     5	 9 ;      CG321      SG3O2      CG321      CG311
    8     1     4    40	 9 ;      CG321      SG3O2      CG321       HGA2
    8     1     4    41	 9 ;      CG321      SG3O2      CG321       HGA2
    3     1     4     5	 9 ;      OG2P1      SG3O2      CG321      CG311
    3     1     4    40	 9 ;      OG2P1      SG3O2      CG321       HGA2
    3     1     4    41	 9 ;      OG2P1      SG3O2      CG321       HGA2
    2     1     4     5	 9 ;      OG2P1      SG3O2      CG321      CG311
    2     1     4    40	 9 ;      OG2P1      SG3O2      CG321       HGA2
    2     1     4    41	 9 ;      OG2P1      SG3O2      CG321       HGA2
    1     4     5     6	 9 ;      SG3O2      CG321      CG311      CG311
    1     4     5     9	 9 ;      SG3O2      CG321      CG311      CG321
    1     4     5    42	 9 ;      SG3O2      CG321      CG311       HGA1
   40     4     5     6	 9 ;       HGA2      CG321      CG311      CG311
   40     4     5     9	 9 ;       HGA2      CG321      CG311      CG321
   40     4     5    42	 9 ;       HGA2      CG321      CG311       HGA1
   41     4     5     6	 9 ;       HGA2      CG321      CG311      CG311
   41     4     5     9	 9 ;       HGA2      CG321      CG311      CG321
   41     4     5    42	 9 ;       HGA2      CG321      CG311       HGA1
    4     5     6     7	 9 ;      CG321      CG311      CG311      CG314
    4     5     6    24	 9 ;      CG321      CG311      CG311      OG311
    4     5     6    43	 9 ;      CG321      CG311      CG311       HGA1
    9     5     6     7	 9 ;      CG321      CG311      CG311      CG314
    9     5     6    24	 9 ;      CG321      CG311      CG311      OG311
    9     5     6    43	 9 ;      CG321      CG311      CG311       HGA1
   42     5     6     7	 9 ;       HGA1      CG311      CG311      CG314
   42     5     6    24	 9 ;       HGA1      CG311      CG311      OG311
   42     5     6    43	 9 ;       HGA1      CG311      CG311       HGA1
    6     5     9    10	 9 ;      CG311      CG311      CG321     CG2R61
    6     5     9    47	 9 ;      CG311      CG311      CG321       HGA2
    6     5     9    48	 9 ;      CG311      CG311      CG321       HGA2
    4     5     9    10	 9 ;      CG321      CG311      CG321     CG2R61
    4     5     9    47	 9 ;      CG321      CG311      CG321       HGA2
    4     5     9    48	 9 ;      CG321      CG311      CG321       HGA2
   42     5     9    10	 9 ;       HGA1      CG311      CG321     CG2R61
   42     5     9    47	 9 ;       HGA1      CG311      CG321       HGA2
   42     5     9    48	 9 ;       HGA1      CG311      CG321       HGA2
   24     6     7    26	 9 ;      OG311      CG311      CG314      NG3P2
   24     6     7     8	 9 ;      OG311      CG311      CG314      CG321
   24     6     7    44	 9 ;      OG311      CG311      CG314       HGA1
    5     6     7    26	 9 ;      CG311      CG311      CG314      NG3P2
    5     6     7     8	 9 ;      CG311      CG311      CG314      CG321
    5     6     7    44	 9 ;      CG311      CG311      CG314       HGA1
   43     6     7    26	 9 ;       HGA1      CG311      CG314      NG3P2
   43     6     7     8	 9 ;       HGA1      CG311      CG314      CG321
   43     6     7    44	 9 ;       HGA1      CG311      CG314       HGA1
    7     6    24    25	 9 ;      CG314      CG311      OG311       HGP1
    5     6    24    25	 9 ;      CG311      CG311      OG311       HGP1
   43     6    24    25	 9 ;       HGA1      CG311      OG311       HGP1
    8     7    26    29	 9 ;      CG321      CG314      NG3P2      CG324
    8     7    26    27	 9 ;      CG321      CG314      NG3P2       HGP2
    8     7    26    28	 9 ;      CG321      CG314      NG3P2       HGP2
    6     7    26    29	 9 ;      CG311      CG314      NG3P2      CG324
    6     7    26    27	 9 ;      CG311      CG314      NG3P2       HGP2
    6     7    26    28	 9 ;      CG311      CG314      NG3P2       HGP2
   44     7    26    29	 9 ;       HGA1      CG314      NG3P2      CG324
   44     7    26    27	 9 ;       HGA1      CG314      NG3P2       HGP2
   44     7    26    28	 9 ;       HGA1      CG314      NG3P2       HGP2
   26     7     8     1	 9 ;      NG3P2      CG314      CG321      SG3O2
   26     7     8    45	 9 ;      NG3P2      CG314      CG321       HGA2
   26     7     8    46	 9 ;      NG3P2      CG314      CG321       HGA2
    6     7     8     1	 9 ;      CG311      CG314      CG321      SG3O2
    6     7     8    45	 9 ;      CG311      CG314      CG321       HGA2
    6     7     8    46	 9 ;      CG311      CG314      CG321       HGA2
   44     7     8     1	 9 ;       HGA1      CG314      CG321      SG3O2
   44     7     8    45	 9 ;       HGA1      CG314      CG321       HGA2
   44     7     8    46	 9 ;       HGA1      CG314      CG321       HGA2
    5     9    10    11	 9 ;      CG311      CG321     CG2R61     CG2R61
    5     9    10    16	 9 ;      CG311      CG321     CG2R61     CG2R61
   47     9    10    11	 9 ;       HGA2      CG321     CG2R61     CG2R61
   47     9    10    16	 9 ;       HGA2      CG321     CG2R61     CG2R61
   48     9    10    11	 9 ;       HGA2      CG321     CG2R61     CG2R61
   48     9    10    16	 9 ;       HGA2      CG321     CG2R61     CG2R61
    9    10    11    12	 9 ;      CG321     CG2R61     CG2R61     CG2R61
    9    10    11    49	 9 ;      CG321     CG2R61     CG2R61      HGR61
   16    10    11    12	 9 ;     CG2R61     CG2R61     CG2R61     CG2R61
   16    10    11    49	 9 ;     CG2R61     CG2R61     CG2R61      HGR61
    9    10    16    14	 9 ;      CG321     CG2R61     CG2R61     CG2R66
    9    10    16    50	 9 ;      CG321     CG2R61     CG2R61      HGR62
   11    10    16    14	 9 ;     CG2R61     CG2R61     CG2R61     CG2R66
   11    10    16    50	 9 ;     CG2R61     CG2R61     CG2R61      HGR62
   10    11    12    17	 9 ;     CG2R61     CG2R61     CG2R61      OG301
   10    11    12    13	 9 ;     CG2R61     CG2R61     CG2R61     CG2R61
   49    11    12    17	 9 ;      HGR61     CG2R61     CG2R61      OG301
   49    11    12    13	 9 ;      HGR61     CG2R61     CG2R61     CG2R61
   11    12    17    18	 9 ;     CG2R61     CG2R61      OG301      CG321
   13    12    17    18	 9 ;     CG2R61     CG2R61      OG301      CG321
   11    12    13    14	 9 ;     CG2R61     CG2R61     CG2R61     CG2R66
   11    12    13    21	 9 ;     CG2R61     CG2R61     CG2R61      NG2S3
   17    12    13    14	 9 ;      OG301     CG2R61     CG2R61     CG2R66
   17    12    13    21	 9 ;      OG301     CG2R61     CG2R61      NG2S3
   12    13    14    16	 9 ;     CG2R61     CG2R61     CG2R66     CG2R61
   12    13    14    15	 9 ;     CG2R61     CG2R61     CG2R66       FGR1
   21    13    14    16	 9 ;      NG2S3     CG2R61     CG2R66     CG2R61
   21    13    14    15	 9 ;      NG2S3     CG2R61     CG2R66       FGR1
   12    13    21    22	 9 ;     CG2R61     CG2R61      NG2S3       HGP4
   12    13    21    23	 9 ;     CG2R61     CG2R61      NG2S3       HGP4
   14    13    21    22	 9 ;     CG2R66     CG2R61      NG2S3       HGP4
   14    13    21    23	 9 ;     CG2R66     CG2R61      NG2S3       HGP4
   13    14    16    10	 9 ;     CG2R61     CG2R66     CG2R61     CG2R61
   13    14    16    50	 9 ;     CG2R61     CG2R66     CG2R61      HGR62
   15    14    16    10	 9 ;       FGR1     CG2R66     CG2R61     CG2R61
   15    14    16    50	 9 ;       FGR1     CG2R66     CG2R61      HGR62
   12    17    18    19	 9 ;     CG2R61      OG301      CG321      CG321
   12    17    18    51	 9 ;     CG2R61      OG301      CG321       HGA2
   12    17    18    52	 9 ;     CG2R61      OG301      CG321       HGA2
   17    18    19    20	 9 ;      OG301      CG321      CG321      CG331
   17    18    19    53	 9 ;      OG301      CG321      CG321       HGA2
   17    18    19    54	 9 ;      OG301      CG321      CG321       HGA2
   51    18    19    20	 9 ;       HGA2      CG321      CG321      CG331
   51    18    19    53	 9 ;       HGA2      CG321      CG321       HGA2
   51    18    19    54	 9 ;       HGA2      CG321      CG321       HGA2
   52    18    19    20	 9 ;       HGA2      CG321      CG321      CG331
   52    18    19    53	 9 ;       HGA2      CG321      CG321       HGA2
   52    18    19    54	 9 ;       HGA2      CG321      CG321       HGA2
   18    19    20    55	 9 ;      CG321      CG321      CG331       HGA3
   18    19    20    56	 9 ;      CG321      CG321      CG331       HGA3
   18    19    20    57	 9 ;      CG321      CG321      CG331       HGA3
   53    19    20    55	 9 ;       HGA2      CG321      CG331       HGA3
   53    19    20    56	 9 ;       HGA2      CG321      CG331       HGA3
   53    19    20    57	 9 ;       HGA2      CG321      CG331       HGA3
   54    19    20    55	 9 ;       HGA2      CG321      CG331       HGA3
   54    19    20    56	 9 ;       HGA2      CG321      CG331       HGA3
   54    19    20    57	 9 ;       HGA2      CG321      CG331       HGA3
   27    26    29    30	 9 ;       HGP2      NG3P2      CG324     CG2R61
   27    26    29    58	 9 ;       HGP2      NG3P2      CG324       HGA2
   27    26    29    59	 9 ;       HGP2      NG3P2      CG324       HGA2
   28    26    29    30	 9 ;       HGP2      NG3P2      CG324     CG2R61
   28    26    29    58	 9 ;       HGP2      NG3P2      CG324       HGA2
   28    26    29    59	 9 ;       HGP2      NG3P2      CG324       HGA2
    7    26    29    30	 9 ;      CG314      NG3P2      CG324     CG2R61
    7    26    29    58	 9 ;      CG314      NG3P2      CG324       HGA2
    7    26    29    59	 9 ;      CG314      NG3P2      CG324       HGA2
   26    29    30    35	 9 ;      NG3P2      CG324     CG2R61     CG2R61
   26    29    30    31	 9 ;      NG3P2      CG324     CG2R61     CG2R61
   58    29    30    35	 9 ;       HGA2      CG324     CG2R61     CG2R61
   58    29    30    31	 9 ;       HGA2      CG324     CG2R61     CG2R61
   59    29    30    35	 9 ;       HGA2      CG324     CG2R61     CG2R61
   59    29    30    31	 9 ;       HGA2      CG324     CG2R61     CG2R61
   29    30    35    34	 9 ;      CG324     CG2R61     CG2R61     CG2R61
   29    30    35    63	 9 ;      CG324     CG2R61     CG2R61      HGR61
   31    30    35    34	 9 ;     CG2R61     CG2R61     CG2R61     CG2R61
   31    30    35    63	 9 ;     CG2R61     CG2R61     CG2R61      HGR61
   29    30    31    32	 9 ;      CG324     CG2R61     CG2R61     CG2R61
   29    30    31    60	 9 ;      CG324     CG2R61     CG2R61      HGR61
   35    30    31    32	 9 ;     CG2R61     CG2R61     CG2R61     CG2R61
   35    30    31    60	 9 ;     CG2R61     CG2R61     CG2R61      HGR61
   30    31    32    33	 9 ;     CG2R61     CG2R61     CG2R61     CG2R61
   30    31    32    36	 9 ;     CG2R61     CG2R61     CG2R61      CG301
   60    31    32    33	 9 ;      HGR61     CG2R61     CG2R61     CG2R61
   60    31    32    36	 9 ;      HGR61     CG2R61     CG2R61      CG301
   31    32    33    34	 9 ;     CG2R61     CG2R61     CG2R61     CG2R61
   31    32    33    61	 9 ;     CG2R61     CG2R61     CG2R61      HGR61
   36    32    33    34	 9 ;      CG301     CG2R61     CG2R61     CG2R61
   36    32    33    61	 9 ;      CG301     CG2R61     CG2R61      HGR61
   31    32    36    39	 9 ;     CG2R61     CG2R61      CG301      CG331
   31    32    36    38	 9 ;     CG2R61     CG2R61      CG301      CG331
   31    32    36    37	 9 ;     CG2R61     CG2R61      CG301      CG331
   33    32    36    39	 9 ;     CG2R61     CG2R61      CG301      CG331
   33    32    36    38	 9 ;     CG2R61     CG2R61      CG301      CG331
   33    32    36    37	 9 ;     CG2R61     CG2R61      CG301      CG331
   32    33    34    35	 9 ;     CG2R61     CG2R61     CG2R61     CG2R61
   32    33    34    62	 9 ;     CG2R61     CG2R61     CG2R61      HGR61
   61    33    34    35	 9 ;      HGR61     CG2R61     CG2R61     CG2R61
   61    33    34    62	 9 ;      HGR61     CG2R61     CG2R61      HGR61
   33    34    35    30	 9 ;     CG2R61     CG2R61     CG2R61     CG2R61
   33    34    35    63	 9 ;     CG2R61     CG2R61     CG2R61      HGR61
   62    34    35    30	 9 ;      HGR61     CG2R61     CG2R61     CG2R61
   62    34    35    63	 9 ;      HGR61     CG2R61     CG2R61      HGR61
   38    36    39    70	 9 ;      CG331      CG301      CG331       HGA3
   38    36    39    71	 9 ;      CG331      CG301      CG331       HGA3
   38    36    39    72	 9 ;      CG331      CG301      CG331       HGA3
   32    36    39    70	 9 ;     CG2R61      CG301      CG331       HGA3
   32    36    39    71	 9 ;     CG2R61      CG301      CG331       HGA3
   32    36    39    72	 9 ;     CG2R61      CG301      CG331       HGA3
   37    36    39    70	 9 ;      CG331      CG301      CG331       HGA3
   37    36    39    71	 9 ;      CG331      CG301      CG331       HGA3
   37    36    39    72	 9 ;      CG331      CG301      CG331       HGA3
   39    36    38    67	 9 ;      CG331      CG301      CG331       HGA3
   39    36    38    68	 9 ;      CG331      CG301      CG331       HGA3
   39    36    38    69	 9 ;      CG331      CG301      CG331       HGA3
   32    36    38    67	 9 ;     CG2R61      CG301      CG331       HGA3
   32    36    38    68	 9 ;     CG2R61      CG301      CG331       HGA3
   32    36    38    69	 9 ;     CG2R61      CG301      CG331       HGA3
   37    36    38    67	 9 ;      CG331      CG301      CG331       HGA3
   37    36    38    68	 9 ;      CG331      CG301      CG331       HGA3
   37    36    38    69	 9 ;      CG331      CG301      CG331       HGA3
   39    36    37    64	 9 ;      CG331      CG301      CG331       HGA3
   39    36    37    65	 9 ;      CG331      CG301      CG331       HGA3
   39    36    37    66	 9 ;      CG331      CG301      CG331       HGA3
   38    36    37    64	 9 ;      CG331      CG301      CG331       HGA3
   38    36    37    65	 9 ;      CG331      CG301      CG331       HGA3
   38    36    37    66	 9 ;      CG331      CG301      CG331       HGA3
   32    36    37    64	 9 ;     CG2R61      CG301      CG331       HGA3
   32    36    37    65	 9 ;     CG2R61      CG301      CG331       HGA3
   32    36    37    66	 9 ;     CG2R61      CG301      CG331       HGA3

[ dihedrals ]
;	ai	  aj	ak	  al funct			  c0			c1			  c2			c3
   21    23    22    13	 2

