; Created by cgenff_charmm2gmx.py

[ moleculetype ]
; Name			   nrexcl
LIG				 3

[ atoms ]
;	 nr		  type	resnr residue  atom   cgnr	   charge		mass  typeB    chargeB		massB
; residue	 1 LIG rtp LIG q	qsum
     1     OG3R60      1    LIG     O1      1     -0.368     15.999   ;
     2     CG2R61      1    LIG     C1      2      0.130     12.011   ;
     3     CG2R61      1    LIG     C2      3     -0.256     12.011   ;
     4     CG2R61      1    LIG     C3      4     -0.128     12.011   ;
     5     CG2R67      1    LIG     C4      5      0.014     12.011   ;
     6     CG2R61      1    LIG     C5      6     -0.115     12.011   ;
     7     CG2R61      1    LIG     C6      7     -0.112     12.011   ;
     8     CG3C50      1    LIG     C7      8      1.577     12.011   ;
     9      NG3P2      1    LIG     N1      9     -0.588     14.007   ;
    10       HGP2      1    LIG     HN     10      0.336      1.008   ;
    11     CG3C53      1    LIG     C8     11      0.785     12.011   ;
    12     NG2R53      1    LIG     N2     12     -0.178     14.007   ;
    13      CG331      1    LIG     C9     13     -0.169     12.011   ;
    14     CG2R53      1    LIG    C10     14     -0.420     12.011   ;
    15      OG2D1      1    LIG     O2     15     -0.325     15.999   ;
    16      CG321      1    LIG    C11     16     -0.251     12.011   ;
    17      CG301      1    LIG    C12     17      0.259     12.011   ;
    18      CG331      1    LIG    C13     18     -0.287     12.011   ;
    19      CG331      1    LIG    C14     19     -0.287     12.011   ;
    20     CG2R67      1    LIG    C15     20      0.006     12.011   ;
    21     CG2R61      1    LIG    C16     21     -0.120     12.011   ;
    22     CG2R61      1    LIG    C17     22      0.152     12.011   ;
    23     CG2R61      1    LIG    C18     23     -0.113     12.011   ;
    24     CG2R61      1    LIG    C19     24     -0.116     12.011   ;
    25     CG2R61      1    LIG    C20     25     -0.119     12.011   ;
    26      OG301      1    LIG     O3     26     -0.341     15.999   ;
    27      CG311      1    LIG    C21     27      0.059     12.011   ;
    28      CG331      1    LIG    C22     28     -0.251     12.011   ;
    29      CG331      1    LIG    C23     29     -0.251     12.011   ;
    30      NG3P3      1    LIG     N3     30     -0.267     14.007   ;
    31       HGP2      1    LIG     H1     31      0.301      1.008   ;
    32       HGP2      1    LIG     H2     32      0.301      1.008   ;
    33      HGR61      1    LIG     HC     33      0.116      1.008   ;
    34      HGR61      1    LIG    HC1     34      0.116      1.008   ;
    35      HGR61      1    LIG    HC2     35      0.116      1.008   ;
    36       HGP2      1    LIG    HN2     36      0.336      1.008   ;
    37       HGA1      1    LIG    HC3     37      0.073      1.008   ;
    38       HGA3      1    LIG    HC4     38      0.090      1.008   ;
    39       HGA3      1    LIG    HC5     39      0.090      1.008   ;
    40       HGA3      1    LIG    HC6     40      0.090      1.008   ;
    41       HGA2      1    LIG    HC7     41      0.090      1.008   ;
    42       HGA2      1    LIG    HC8     42      0.090      1.008   ;
    43       HGA3      1    LIG    HC9     43      0.090      1.008   ;
    44       HGA3      1    LIG   HC10     44      0.090      1.008   ;
    45       HGA3      1    LIG   HC11     45      0.090      1.008   ;
    46       HGA3      1    LIG   HC12     46      0.090      1.008   ;
    47       HGA3      1    LIG   HC13     47      0.090      1.008   ;
    48       HGA3      1    LIG   HC14     48      0.090      1.008   ;
    49      HGR61      1    LIG   HC15     49      0.116      1.008   ;
    50      HGR61      1    LIG   HC16     50      0.116      1.008   ;
    51      HGR61      1    LIG   HC17     51      0.116      1.008   ;
    52      HGR61      1    LIG   HC18     52      0.116      1.008   ;
    53       HGA1      1    LIG   HC19     53      0.090      1.008   ;
    54       HGA3      1    LIG   HC20     54      0.090      1.008   ;
    55       HGA3      1    LIG   HC21     55      0.090      1.008   ;
    56       HGA3      1    LIG   HC22     56      0.090      1.008   ;
    57       HGA3      1    LIG   HC23     57      0.090      1.008   ;
    58       HGA3      1    LIG   HC24     58      0.090      1.008   ;
    59       HGA3      1    LIG   HC25     59      0.090      1.008   ;
    60       HGP2      1    LIG    HN1     60      0.301      1.008   ;

[ bonds ]
;	ai	  aj funct			  c0			c1			  c2			c3
    1    17	 1 ;      OG3R60      CG301
    1     2	 1 ;      OG3R60     CG2R61
    2     3	 1 ;      CG2R61     CG2R61
    2     7	 1 ;      CG2R61     CG2R61
    3     8	 1 ;      CG2R61     CG3C50
    3     4	 1 ;      CG2R61     CG2R61
    4     5	 1 ;      CG2R61     CG2R67
    4    33	 1 ;      CG2R61      HGR61
    5    20	 1 ;      CG2R67     CG2R67
    5     6	 1 ;      CG2R67     CG2R61
    6     7	 1 ;      CG2R61     CG2R61
    6    34	 1 ;      CG2R61      HGR61
    7    35	 1 ;      CG2R61      HGR61
    8    14	 1 ;      CG3C50     CG2R53
    8     9	 1 ;      CG3C50      NG3P2
    8    16	 1 ;      CG3C50      CG321
    9    11	 1 ;       NG3P2     CG3C53
    9    10	 1 ;       NG3P2       HGP2
    9    36	 1 ;       NG3P2       HGP2
   11    12	 1 ;      CG3C53     NG2R53
   11    30	 1 ;      CG3C53      NG3P3
   11    37	 1 ;      CG3C53       HGA1
   12    14	 1 ;      NG2R53     CG2R53
   12    13	 1 ;      NG2R53      CG331
   13    38	 1 ;       CG331       HGA3
   13    39	 1 ;       CG331       HGA3
   13    40	 1 ;       CG331       HGA3
   14    15	 1 ;      CG2R53      OG2D1
   16    17	 1 ;       CG321      CG301
   16    41	 1 ;       CG321       HGA2
   16    42	 1 ;       CG321       HGA2
   17    19	 1 ;       CG301      CG331
   17    18	 1 ;       CG301      CG331
   18    43	 1 ;       CG331       HGA3
   18    44	 1 ;       CG331       HGA3
   18    45	 1 ;       CG331       HGA3
   19    46	 1 ;       CG331       HGA3
   19    47	 1 ;       CG331       HGA3
   19    48	 1 ;       CG331       HGA3
   20    21	 1 ;      CG2R67     CG2R61
   20    25	 1 ;      CG2R67     CG2R61
   21    22	 1 ;      CG2R61     CG2R61
   21    49	 1 ;      CG2R61      HGR61
   22    26	 1 ;      CG2R61      OG301
   22    23	 1 ;      CG2R61     CG2R61
   23    24	 1 ;      CG2R61     CG2R61
   23    50	 1 ;      CG2R61      HGR61
   24    25	 1 ;      CG2R61     CG2R61
   24    51	 1 ;      CG2R61      HGR61
   25    52	 1 ;      CG2R61      HGR61
   26    27	 1 ;       OG301      CG311
   27    29	 1 ;       CG311      CG331
   27    28	 1 ;       CG311      CG331
   27    53	 1 ;       CG311       HGA1
   28    54	 1 ;       CG331       HGA3
   28    55	 1 ;       CG331       HGA3
   28    56	 1 ;       CG331       HGA3
   29    57	 1 ;       CG331       HGA3
   29    58	 1 ;       CG331       HGA3
   29    59	 1 ;       CG331       HGA3
   30    31	 1 ;       NG3P3       HGP2
   30    32	 1 ;       NG3P3       HGP2
   30    60	 1 ;       NG3P3       HGP2

[ pairs ]
;	ai	  aj funct			  c0			c1			  c2			c3
    1     8	 1
    1     4	 1
    1     6	 1
    1    35	 1
    1    41	 1
    1    42	 1
    1    46	 1
    1    47	 1
    1    48	 1
    1    43	 1
    1    44	 1
    1    45	 1
    2    16	 1
    2    19	 1
    2    18	 1
    2    14	 1
    2     9	 1
    2     5	 1
    2    33	 1
    2    34	 1
    3    17	 1
    3     6	 1
    3    35	 1
    3    20	 1
    3    15	 1
    3    12	 1
    3    11	 1
    3    10	 1
    3    36	 1
    3    41	 1
    3    42	 1
    4     7	 1
    4    14	 1
    4     9	 1
    4    16	 1
    4    21	 1
    4    25	 1
    4    34	 1
    5     8	 1
    5    35	 1
    5    22	 1
    5    49	 1
    5    24	 1
    5    52	 1
    6    33	 1
    6    21	 1
    6    25	 1
    7    17	 1
    7     8	 1
    7    20	 1
    8    33	 1
    8    30	 1
    8    37	 1
    8    13	 1
    8    19	 1
    8    18	 1
    9    15	 1
    9    17	 1
    9    41	 1
    9    42	 1
    9    13	 1
    9    31	 1
    9    32	 1
    9    60	 1
   10    14	 1
   10    16	 1
   10    12	 1
   10    30	 1
   10    37	 1
   11    16	 1
   11    15	 1
   11    38	 1
   11    39	 1
   11    40	 1
   12    16	 1
   12    36	 1
   12    31	 1
   12    32	 1
   12    60	 1
   13    30	 1
   13    37	 1
   13    15	 1
   14    36	 1
   14    17	 1
   14    41	 1
   14    42	 1
   14    30	 1
   14    37	 1
   14    38	 1
   14    39	 1
   14    40	 1
   15    16	 1
   16    36	 1
   16    46	 1
   16    47	 1
   16    48	 1
   16    43	 1
   16    44	 1
   16    45	 1
   18    41	 1
   18    42	 1
   18    46	 1
   18    47	 1
   18    48	 1
   19    41	 1
   19    42	 1
   19    43	 1
   19    44	 1
   19    45	 1
   20    33	 1
   20    34	 1
   20    26	 1
   20    23	 1
   20    51	 1
   21    24	 1
   21    52	 1
   21    27	 1
   21    50	 1
   22    25	 1
   22    51	 1
   22    29	 1
   22    28	 1
   22    53	 1
   23    49	 1
   23    27	 1
   23    52	 1
   24    26	 1
   25    49	 1
   25    50	 1
   26    49	 1
   26    50	 1
   26    57	 1
   26    58	 1
   26    59	 1
   26    54	 1
   26    55	 1
   26    56	 1
   28    57	 1
   28    58	 1
   28    59	 1
   29    54	 1
   29    55	 1
   29    56	 1
   30    36	 1
   31    37	 1
   32    37	 1
   34    35	 1
   36    37	 1
   37    60	 1
   50    51	 1
   51    52	 1
   53    57	 1
   53    58	 1
   53    59	 1
   53    54	 1
   53    55	 1
   53    56	 1

[ angles ]
;	ai	  aj	ak funct			c0			  c1			c2			  c3
   17     1     2	5 ;      CG301     OG3R60     CG2R61
    3     2     1	5 ;     CG2R61     CG2R61     OG3R60
    3     2     7	5 ;     CG2R61     CG2R61     CG2R61
    1     2     7	5 ;     OG3R60     CG2R61     CG2R61
    8     3     4	5 ;     CG3C50     CG2R61     CG2R61
    8     3     2	5 ;     CG3C50     CG2R61     CG2R61
    4     3     2	5 ;     CG2R61     CG2R61     CG2R61
    3     4     5	5 ;     CG2R61     CG2R61     CG2R67
    3     4    33	5 ;     CG2R61     CG2R61      HGR61
    5     4    33	5 ;     CG2R67     CG2R61      HGR61
    4     5    20	5 ;     CG2R61     CG2R67     CG2R67
    4     5     6	5 ;     CG2R61     CG2R67     CG2R61
   20     5     6	5 ;     CG2R67     CG2R67     CG2R61
    5     6     7	5 ;     CG2R67     CG2R61     CG2R61
    5     6    34	5 ;     CG2R67     CG2R61      HGR61
    7     6    34	5 ;     CG2R61     CG2R61      HGR61
    2     7     6	5 ;     CG2R61     CG2R61     CG2R61
    2     7    35	5 ;     CG2R61     CG2R61      HGR61
    6     7    35	5 ;     CG2R61     CG2R61      HGR61
   14     8     9	5 ;     CG2R53     CG3C50      NG3P2
   14     8    16	5 ;     CG2R53     CG3C50      CG321
   14     8     3	5 ;     CG2R53     CG3C50     CG2R61
    9     8    16	5 ;      NG3P2     CG3C50      CG321
    9     8     3	5 ;      NG3P2     CG3C50     CG2R61
   16     8     3	5 ;      CG321     CG3C50     CG2R61
   11     9     8	5 ;     CG3C53      NG3P2     CG3C50
   11     9    10	5 ;     CG3C53      NG3P2       HGP2
   11     9    36	5 ;     CG3C53      NG3P2       HGP2
    8     9    10	5 ;     CG3C50      NG3P2       HGP2
    8     9    36	5 ;     CG3C50      NG3P2       HGP2
   10     9    36	5 ;       HGP2      NG3P2       HGP2
   12    11    30	5 ;     NG2R53     CG3C53      NG3P3
   12    11     9	5 ;     NG2R53     CG3C53      NG3P2
   12    11    37	5 ;     NG2R53     CG3C53       HGA1
   30    11     9	5 ;      NG3P3     CG3C53      NG3P2
   30    11    37	5 ;      NG3P3     CG3C53       HGA1
    9    11    37	5 ;      NG3P2     CG3C53       HGA1
   14    12    13	5 ;     CG2R53     NG2R53      CG331
   14    12    11	5 ;     CG2R53     NG2R53     CG3C53
   13    12    11	5 ;      CG331     NG2R53     CG3C53
   12    13    38	5 ;     NG2R53      CG331       HGA3
   12    13    39	5 ;     NG2R53      CG331       HGA3
   12    13    40	5 ;     NG2R53      CG331       HGA3
   38    13    39	5 ;       HGA3      CG331       HGA3
   38    13    40	5 ;       HGA3      CG331       HGA3
   39    13    40	5 ;       HGA3      CG331       HGA3
   15    14    12	5 ;      OG2D1     CG2R53     NG2R53
   15    14     8	5 ;      OG2D1     CG2R53     CG3C50
   12    14     8	5 ;     NG2R53     CG2R53     CG3C50
    8    16    17	5 ;     CG3C50      CG321      CG301
    8    16    41	5 ;     CG3C50      CG321       HGA2
    8    16    42	5 ;     CG3C50      CG321       HGA2
   17    16    41	5 ;      CG301      CG321       HGA2
   17    16    42	5 ;      CG301      CG321       HGA2
   41    16    42	5 ;       HGA2      CG321       HGA2
   16    17    19	5 ;      CG321      CG301      CG331
   16    17    18	5 ;      CG321      CG301      CG331
   16    17     1	5 ;      CG321      CG301     OG3R60
   19    17    18	5 ;      CG331      CG301      CG331
   19    17     1	5 ;      CG331      CG301     OG3R60
   18    17     1	5 ;      CG331      CG301     OG3R60
   17    18    43	5 ;      CG301      CG331       HGA3
   17    18    44	5 ;      CG301      CG331       HGA3
   17    18    45	5 ;      CG301      CG331       HGA3
   43    18    44	5 ;       HGA3      CG331       HGA3
   43    18    45	5 ;       HGA3      CG331       HGA3
   44    18    45	5 ;       HGA3      CG331       HGA3
   17    19    46	5 ;      CG301      CG331       HGA3
   17    19    47	5 ;      CG301      CG331       HGA3
   17    19    48	5 ;      CG301      CG331       HGA3
   46    19    47	5 ;       HGA3      CG331       HGA3
   46    19    48	5 ;       HGA3      CG331       HGA3
   47    19    48	5 ;       HGA3      CG331       HGA3
   21    20    25	5 ;     CG2R61     CG2R67     CG2R61
   21    20     5	5 ;     CG2R61     CG2R67     CG2R67
   25    20     5	5 ;     CG2R61     CG2R67     CG2R67
   22    21    20	5 ;     CG2R61     CG2R61     CG2R67
   22    21    49	5 ;     CG2R61     CG2R61      HGR61
   20    21    49	5 ;     CG2R67     CG2R61      HGR61
   26    22    23	5 ;      OG301     CG2R61     CG2R61
   26    22    21	5 ;      OG301     CG2R61     CG2R61
   23    22    21	5 ;     CG2R61     CG2R61     CG2R61
   22    23    24	5 ;     CG2R61     CG2R61     CG2R61
   22    23    50	5 ;     CG2R61     CG2R61      HGR61
   24    23    50	5 ;     CG2R61     CG2R61      HGR61
   23    24    25	5 ;     CG2R61     CG2R61     CG2R61
   23    24    51	5 ;     CG2R61     CG2R61      HGR61
   25    24    51	5 ;     CG2R61     CG2R61      HGR61
   24    25    20	5 ;     CG2R61     CG2R61     CG2R67
   24    25    52	5 ;     CG2R61     CG2R61      HGR61
   20    25    52	5 ;     CG2R67     CG2R61      HGR61
   22    26    27	5 ;     CG2R61      OG301      CG311
   29    27    26	5 ;      CG331      CG311      OG301
   29    27    28	5 ;      CG331      CG311      CG331
   29    27    53	5 ;      CG331      CG311       HGA1
   26    27    28	5 ;      OG301      CG311      CG331
   26    27    53	5 ;      OG301      CG311       HGA1
   28    27    53	5 ;      CG331      CG311       HGA1
   27    28    54	5 ;      CG311      CG331       HGA3
   27    28    55	5 ;      CG311      CG331       HGA3
   27    28    56	5 ;      CG311      CG331       HGA3
   54    28    55	5 ;       HGA3      CG331       HGA3
   54    28    56	5 ;       HGA3      CG331       HGA3
   55    28    56	5 ;       HGA3      CG331       HGA3
   27    29    57	5 ;      CG311      CG331       HGA3
   27    29    58	5 ;      CG311      CG331       HGA3
   27    29    59	5 ;      CG311      CG331       HGA3
   57    29    58	5 ;       HGA3      CG331       HGA3
   57    29    59	5 ;       HGA3      CG331       HGA3
   58    29    59	5 ;       HGA3      CG331       HGA3
   31    30    11	5 ;       HGP2      NG3P3     CG3C53
   31    30    32	5 ;       HGP2      NG3P3       HGP2
   31    30    60	5 ;       HGP2      NG3P3       HGP2
   11    30    32	5 ;     CG3C53      NG3P3       HGP2
   11    30    60	5 ;     CG3C53      NG3P3       HGP2
   32    30    60	5 ;       HGP2      NG3P3       HGP2

[ dihedrals ]
;	ai	  aj	ak	  al funct			  c0			c1			  c2			c3			  c4			c5
    2     1    17    16	 9 ;     CG2R61     OG3R60      CG301      CG321
    2     1    17    19	 9 ;     CG2R61     OG3R60      CG301      CG331
    2     1    17    18	 9 ;     CG2R61     OG3R60      CG301      CG331
   17     1     2     3	 9 ;      CG301     OG3R60     CG2R61     CG2R61
   17     1     2     7	 9 ;      CG301     OG3R60     CG2R61     CG2R61
    1     2     3     8	 9 ;     OG3R60     CG2R61     CG2R61     CG3C50
    1     2     3     4	 9 ;     OG3R60     CG2R61     CG2R61     CG2R61
    7     2     3     8	 9 ;     CG2R61     CG2R61     CG2R61     CG3C50
    7     2     3     4	 9 ;     CG2R61     CG2R61     CG2R61     CG2R61
    3     2     7     6	 9 ;     CG2R61     CG2R61     CG2R61     CG2R61
    3     2     7    35	 9 ;     CG2R61     CG2R61     CG2R61      HGR61
    1     2     7     6	 9 ;     OG3R60     CG2R61     CG2R61     CG2R61
    1     2     7    35	 9 ;     OG3R60     CG2R61     CG2R61      HGR61
    4     3     8    14	 9 ;     CG2R61     CG2R61     CG3C50     CG2R53
    4     3     8     9	 9 ;     CG2R61     CG2R61     CG3C50      NG3P2
    4     3     8    16	 9 ;     CG2R61     CG2R61     CG3C50      CG321
    2     3     8    14	 9 ;     CG2R61     CG2R61     CG3C50     CG2R53
    2     3     8     9	 9 ;     CG2R61     CG2R61     CG3C50      NG3P2
    2     3     8    16	 9 ;     CG2R61     CG2R61     CG3C50      CG321
    8     3     4     5	 9 ;     CG3C50     CG2R61     CG2R61     CG2R67
    8     3     4    33	 9 ;     CG3C50     CG2R61     CG2R61      HGR61
    2     3     4     5	 9 ;     CG2R61     CG2R61     CG2R61     CG2R67
    2     3     4    33	 9 ;     CG2R61     CG2R61     CG2R61      HGR61
    3     4     5    20	 9 ;     CG2R61     CG2R61     CG2R67     CG2R67
    3     4     5     6	 9 ;     CG2R61     CG2R61     CG2R67     CG2R61
   33     4     5    20	 9 ;      HGR61     CG2R61     CG2R67     CG2R67
   33     4     5     6	 9 ;      HGR61     CG2R61     CG2R67     CG2R61
    4     5    20    21	 9 ;     CG2R61     CG2R67     CG2R67     CG2R61
    4     5    20    25	 9 ;     CG2R61     CG2R67     CG2R67     CG2R61
    6     5    20    21	 9 ;     CG2R61     CG2R67     CG2R67     CG2R61
    6     5    20    25	 9 ;     CG2R61     CG2R67     CG2R67     CG2R61
    4     5     6     7	 9 ;     CG2R61     CG2R67     CG2R61     CG2R61
    4     5     6    34	 9 ;     CG2R61     CG2R67     CG2R61      HGR61
   20     5     6     7	 9 ;     CG2R67     CG2R67     CG2R61     CG2R61
   20     5     6    34	 9 ;     CG2R67     CG2R67     CG2R61      HGR61
    5     6     7     2	 9 ;     CG2R67     CG2R61     CG2R61     CG2R61
    5     6     7    35	 9 ;     CG2R67     CG2R61     CG2R61      HGR61
   34     6     7     2	 9 ;      HGR61     CG2R61     CG2R61     CG2R61
   34     6     7    35	 9 ;      HGR61     CG2R61     CG2R61      HGR61
    9     8    14    15	 9 ;      NG3P2     CG3C50     CG2R53      OG2D1
    9     8    14    12	 9 ;      NG3P2     CG3C50     CG2R53     NG2R53
   16     8    14    15	 9 ;      CG321     CG3C50     CG2R53      OG2D1
   16     8    14    12	 9 ;      CG321     CG3C50     CG2R53     NG2R53
    3     8    14    15	 9 ;     CG2R61     CG3C50     CG2R53      OG2D1
    3     8    14    12	 9 ;     CG2R61     CG3C50     CG2R53     NG2R53
   14     8     9    11	 9 ;     CG2R53     CG3C50      NG3P2     CG3C53
   14     8     9    10	 9 ;     CG2R53     CG3C50      NG3P2       HGP2
   14     8     9    36	 9 ;     CG2R53     CG3C50      NG3P2       HGP2
   16     8     9    11	 9 ;      CG321     CG3C50      NG3P2     CG3C53
   16     8     9    10	 9 ;      CG321     CG3C50      NG3P2       HGP2
   16     8     9    36	 9 ;      CG321     CG3C50      NG3P2       HGP2
    3     8     9    11	 9 ;     CG2R61     CG3C50      NG3P2     CG3C53
    3     8     9    10	 9 ;     CG2R61     CG3C50      NG3P2       HGP2
    3     8     9    36	 9 ;     CG2R61     CG3C50      NG3P2       HGP2
   14     8    16    17	 9 ;     CG2R53     CG3C50      CG321      CG301
   14     8    16    41	 9 ;     CG2R53     CG3C50      CG321       HGA2
   14     8    16    42	 9 ;     CG2R53     CG3C50      CG321       HGA2
    9     8    16    17	 9 ;      NG3P2     CG3C50      CG321      CG301
    9     8    16    41	 9 ;      NG3P2     CG3C50      CG321       HGA2
    9     8    16    42	 9 ;      NG3P2     CG3C50      CG321       HGA2
    3     8    16    17	 9 ;     CG2R61     CG3C50      CG321      CG301
    3     8    16    41	 9 ;     CG2R61     CG3C50      CG321       HGA2
    3     8    16    42	 9 ;     CG2R61     CG3C50      CG321       HGA2
    8     9    11    12	 9 ;     CG3C50      NG3P2     CG3C53     NG2R53
    8     9    11    30	 9 ;     CG3C50      NG3P2     CG3C53      NG3P3
    8     9    11    37	 9 ;     CG3C50      NG3P2     CG3C53       HGA1
   10     9    11    12	 9 ;       HGP2      NG3P2     CG3C53     NG2R53
   10     9    11    30	 9 ;       HGP2      NG3P2     CG3C53      NG3P3
   10     9    11    37	 9 ;       HGP2      NG3P2     CG3C53       HGA1
   36     9    11    12	 9 ;       HGP2      NG3P2     CG3C53     NG2R53
   36     9    11    30	 9 ;       HGP2      NG3P2     CG3C53      NG3P3
   36     9    11    37	 9 ;       HGP2      NG3P2     CG3C53       HGA1
   30    11    12    14	 9 ;      NG3P3     CG3C53     NG2R53     CG2R53
   30    11    12    13	 9 ;      NG3P3     CG3C53     NG2R53      CG331
    9    11    12    14	 9 ;      NG3P2     CG3C53     NG2R53     CG2R53
    9    11    12    13	 9 ;      NG3P2     CG3C53     NG2R53      CG331
   37    11    12    14	 9 ;       HGA1     CG3C53     NG2R53     CG2R53
   37    11    12    13	 9 ;       HGA1     CG3C53     NG2R53      CG331
   12    11    30    31	 9 ;     NG2R53     CG3C53      NG3P3       HGP2
   12    11    30    32	 9 ;     NG2R53     CG3C53      NG3P3       HGP2
   12    11    30    60	 9 ;     NG2R53     CG3C53      NG3P3       HGP2
    9    11    30    31	 9 ;      NG3P2     CG3C53      NG3P3       HGP2
    9    11    30    32	 9 ;      NG3P2     CG3C53      NG3P3       HGP2
    9    11    30    60	 9 ;      NG3P2     CG3C53      NG3P3       HGP2
   37    11    30    31	 9 ;       HGA1     CG3C53      NG3P3       HGP2
   37    11    30    32	 9 ;       HGA1     CG3C53      NG3P3       HGP2
   37    11    30    60	 9 ;       HGA1     CG3C53      NG3P3       HGP2
   13    12    14    15	 9 ;      CG331     NG2R53     CG2R53      OG2D1
   13    12    14     8	 9 ;      CG331     NG2R53     CG2R53     CG3C50
   11    12    14    15	 9 ;     CG3C53     NG2R53     CG2R53      OG2D1
   11    12    14     8	 9 ;     CG3C53     NG2R53     CG2R53     CG3C50
   14    12    13    38	 9 ;     CG2R53     NG2R53      CG331       HGA3
   14    12    13    39	 9 ;     CG2R53     NG2R53      CG331       HGA3
   14    12    13    40	 9 ;     CG2R53     NG2R53      CG331       HGA3
   11    12    13    38	 9 ;     CG3C53     NG2R53      CG331       HGA3
   11    12    13    39	 9 ;     CG3C53     NG2R53      CG331       HGA3
   11    12    13    40	 9 ;     CG3C53     NG2R53      CG331       HGA3
    8    16    17    19	 9 ;     CG3C50      CG321      CG301      CG331
    8    16    17    18	 9 ;     CG3C50      CG321      CG301      CG331
    8    16    17     1	 9 ;     CG3C50      CG321      CG301     OG3R60
   41    16    17    19	 9 ;       HGA2      CG321      CG301      CG331
   41    16    17    18	 9 ;       HGA2      CG321      CG301      CG331
   41    16    17     1	 9 ;       HGA2      CG321      CG301     OG3R60
   42    16    17    19	 9 ;       HGA2      CG321      CG301      CG331
   42    16    17    18	 9 ;       HGA2      CG321      CG301      CG331
   42    16    17     1	 9 ;       HGA2      CG321      CG301     OG3R60
   16    17    19    46	 9 ;      CG321      CG301      CG331       HGA3
   16    17    19    47	 9 ;      CG321      CG301      CG331       HGA3
   16    17    19    48	 9 ;      CG321      CG301      CG331       HGA3
   18    17    19    46	 9 ;      CG331      CG301      CG331       HGA3
   18    17    19    47	 9 ;      CG331      CG301      CG331       HGA3
   18    17    19    48	 9 ;      CG331      CG301      CG331       HGA3
    1    17    19    46	 9 ;     OG3R60      CG301      CG331       HGA3
    1    17    19    47	 9 ;     OG3R60      CG301      CG331       HGA3
    1    17    19    48	 9 ;     OG3R60      CG301      CG331       HGA3
   16    17    18    43	 9 ;      CG321      CG301      CG331       HGA3
   16    17    18    44	 9 ;      CG321      CG301      CG331       HGA3
   16    17    18    45	 9 ;      CG321      CG301      CG331       HGA3
   19    17    18    43	 9 ;      CG331      CG301      CG331       HGA3
   19    17    18    44	 9 ;      CG331      CG301      CG331       HGA3
   19    17    18    45	 9 ;      CG331      CG301      CG331       HGA3
    1    17    18    43	 9 ;     OG3R60      CG301      CG331       HGA3
    1    17    18    44	 9 ;     OG3R60      CG301      CG331       HGA3
    1    17    18    45	 9 ;     OG3R60      CG301      CG331       HGA3
   25    20    21    22	 9 ;     CG2R61     CG2R67     CG2R61     CG2R61
   25    20    21    49	 9 ;     CG2R61     CG2R67     CG2R61      HGR61
    5    20    21    22	 9 ;     CG2R67     CG2R67     CG2R61     CG2R61
    5    20    21    49	 9 ;     CG2R67     CG2R67     CG2R61      HGR61
   21    20    25    24	 9 ;     CG2R61     CG2R67     CG2R61     CG2R61
   21    20    25    52	 9 ;     CG2R61     CG2R67     CG2R61      HGR61
    5    20    25    24	 9 ;     CG2R67     CG2R67     CG2R61     CG2R61
    5    20    25    52	 9 ;     CG2R67     CG2R67     CG2R61      HGR61
   20    21    22    26	 9 ;     CG2R67     CG2R61     CG2R61      OG301
   20    21    22    23	 9 ;     CG2R67     CG2R61     CG2R61     CG2R61
   49    21    22    26	 9 ;      HGR61     CG2R61     CG2R61      OG301
   49    21    22    23	 9 ;      HGR61     CG2R61     CG2R61     CG2R61
   23    22    26    27	 9 ;     CG2R61     CG2R61      OG301      CG311
   21    22    26    27	 9 ;     CG2R61     CG2R61      OG301      CG311
   26    22    23    24	 9 ;      OG301     CG2R61     CG2R61     CG2R61
   26    22    23    50	 9 ;      OG301     CG2R61     CG2R61      HGR61
   21    22    23    24	 9 ;     CG2R61     CG2R61     CG2R61     CG2R61
   21    22    23    50	 9 ;     CG2R61     CG2R61     CG2R61      HGR61
   22    23    24    25	 9 ;     CG2R61     CG2R61     CG2R61     CG2R61
   22    23    24    51	 9 ;     CG2R61     CG2R61     CG2R61      HGR61
   50    23    24    25	 9 ;      HGR61     CG2R61     CG2R61     CG2R61
   50    23    24    51	 9 ;      HGR61     CG2R61     CG2R61      HGR61
   23    24    25    20	 9 ;     CG2R61     CG2R61     CG2R61     CG2R67
   23    24    25    52	 9 ;     CG2R61     CG2R61     CG2R61      HGR61
   51    24    25    20	 9 ;      HGR61     CG2R61     CG2R61     CG2R67
   51    24    25    52	 9 ;      HGR61     CG2R61     CG2R61      HGR61
   22    26    27    29	 9 ;     CG2R61      OG301      CG311      CG331
   22    26    27    28	 9 ;     CG2R61      OG301      CG311      CG331
   22    26    27    53	 9 ;     CG2R61      OG301      CG311       HGA1
   26    27    29    57	 9 ;      OG301      CG311      CG331       HGA3
   26    27    29    58	 9 ;      OG301      CG311      CG331       HGA3
   26    27    29    59	 9 ;      OG301      CG311      CG331       HGA3
   28    27    29    57	 9 ;      CG331      CG311      CG331       HGA3
   28    27    29    58	 9 ;      CG331      CG311      CG331       HGA3
   28    27    29    59	 9 ;      CG331      CG311      CG331       HGA3
   53    27    29    57	 9 ;       HGA1      CG311      CG331       HGA3
   53    27    29    58	 9 ;       HGA1      CG311      CG331       HGA3
   53    27    29    59	 9 ;       HGA1      CG311      CG331       HGA3
   29    27    28    54	 9 ;      CG331      CG311      CG331       HGA3
   29    27    28    55	 9 ;      CG331      CG311      CG331       HGA3
   29    27    28    56	 9 ;      CG331      CG311      CG331       HGA3
   26    27    28    54	 9 ;      OG301      CG311      CG331       HGA3
   26    27    28    55	 9 ;      OG301      CG311      CG331       HGA3
   26    27    28    56	 9 ;      OG301      CG311      CG331       HGA3
   53    27    28    54	 9 ;       HGA1      CG311      CG331       HGA3
   53    27    28    55	 9 ;       HGA1      CG311      CG331       HGA3
   53    27    28    56	 9 ;       HGA1      CG311      CG331       HGA3

[ dihedrals ]
;	ai	  aj	ak	  al funct			  c0			c1			  c2			c3
   14     8    12    15	 2

