Gromacs Runs On Most of All Computer Systems
   60
    1LIG     O1    1  -1.840   0.515  -1.551
    1LIG     C1    2  -1.707   0.494  -1.526
    1LIG     C2    3  -1.605   0.563  -1.590
    1LIG     C3    4  -1.475   0.507  -1.585
    1LIG     C4    5  -1.437   0.409  -1.494
    1LIG     C5    6  -1.540   0.352  -1.419
    1LIG     C6    7  -1.674   0.390  -1.439
    1LIG     C7    8  -1.635   0.688  -1.671
    1LIG     N1    9  -1.668   0.818  -1.602
    1LIG     HN   10  -1.752   0.840  -1.549
    1LIG     C8   11  -1.567   0.896  -1.623
    1LIG     N2   12  -1.455   0.835  -1.659
    1LIG     C9   13  -1.388   0.796  -1.533
    1LIG    C10   14  -1.506   0.736  -1.741
    1LIG     O2   15  -1.464   0.701  -1.851
    1LIG    C11   16  -1.763   0.654  -1.747
    1LIG    C12   17  -1.875   0.623  -1.641
    1LIG    C13   18  -1.916   0.741  -1.549
    1LIG    C14   19  -2.003   0.581  -1.715
    1LIG    C15   20  -1.292   0.383  -1.469
    1LIG    C16   21  -1.236   0.262  -1.513
    1LIG    C17   22  -1.106   0.223  -1.479
    1LIG    C18   23  -1.027   0.309  -1.403
    1LIG    C19   24  -1.079   0.430  -1.359
    1LIG    C20   25  -1.210   0.467  -1.391
    1LIG     O3   26  -1.050   0.104  -1.516
    1LIG    C21   27  -0.955   0.047  -1.424
    1LIG    C22   28  -1.024  -0.058  -1.337
    1LIG    C23   29  -0.844  -0.016  -1.507
    1LIG     N3   30  -1.569   1.029  -1.604
    1LIG     H1   31  -1.655   1.072  -1.638
    1LIG     H2   32  -1.549   1.055  -1.508
    1LIG     HC   33  -1.401   0.544  -1.655
    1LIG    HC1   34  -1.517   0.277  -1.345
    1LIG    HC2   35  -1.753   0.339  -1.386
    1LIG    HN2   36  -1.712   0.852  -1.687
    1LIG    HC3   37  -1.596   0.908  -1.728
    1LIG    HC4   38  -1.343   0.883  -1.486
    1LIG    HC5   39  -1.310   0.722  -1.554
    1LIG    HC6   40  -1.461   0.752  -1.465
    1LIG    HC7   41  -1.793   0.739  -1.809
    1LIG    HC8   42  -1.747   0.567  -1.810
    1LIG    HC9   43  -2.020   0.728  -1.518
    1LIG   HC10   44  -1.906   0.835  -1.605
    1LIG   HC11   45  -1.852   0.743  -1.462
    1LIG   HC12   46  -1.980   0.497  -1.781
    1LIG   HC13   47  -2.078   0.550  -1.643
    1LIG   HC14   48  -2.040   0.664  -1.773
    1LIG   HC15   49  -1.296   0.197  -1.575
    1LIG   HC16   50  -0.925   0.281  -1.379
    1LIG   HC17   51  -1.017   0.496  -1.299
    1LIG   HC18   52  -1.249   0.561  -1.356
    1LIG   HC19   53  -0.914   0.125  -1.360
    1LIG   HC20   54  -1.103  -0.012  -1.279
    1LIG   HC21   55  -1.067  -0.135  -1.402
    1LIG   HC22   56  -0.951  -0.104  -1.270
    1LIG   HC23   57  -0.796   0.060  -1.568
    1LIG   HC24   58  -0.771  -0.061  -1.440
    1LIG   HC25   59  -0.887  -0.093  -1.571
    1LIG    HN1   60  -1.494   1.067  -1.660
   0.00000   0.00000   0.00000
