GRowing Old MAkes el Chrono Sweat
   89
    1LIG     C1    1  -1.209   0.297  -1.539
    1LIG     N1    2  -1.353   0.314  -1.567
    1LIG     C2    3  -1.450   0.348  -1.475
    1LIG     O1    4  -1.422   0.374  -1.359
    1LIG     H1    5  -1.386   0.280  -1.656
    1LIG     C3    6  -1.593   0.350  -1.524
    1LIG     C4    7  -1.671   0.462  -1.492
    1LIG     C5    8  -1.809   0.465  -1.519
    1LIG     C6    9  -1.868   0.357  -1.586
    1LIG     C7   10  -1.790   0.248  -1.624
    1LIG     C8   11  -1.653   0.242  -1.592
    1LIG     N2   12  -1.882   0.580  -1.471
    1LIG      S   13  -1.862   0.732  -1.545
    1LIG     O2   14  -1.737   0.787  -1.495
    1LIG     O3   15  -1.985   0.805  -1.527
    1LIG     C9   16  -1.842   0.705  -1.719
    1LIG    C10   17  -1.895   0.595  -1.323
    1LIG    C11   18  -2.031   0.557  -1.272
    1LIG    C12   19  -2.134   0.651  -1.270
    1LIG    C13   20  -2.265   0.610  -1.246
    1LIG    C14   21  -2.292   0.475  -1.221
    1LIG    C15   22  -2.189   0.382  -1.215
    1LIG    C16   23  -2.058   0.423  -1.240
    1LIG    C17   24  -1.183   0.140  -1.521
    1LIG    C18   25  -1.209   0.072  -1.385
    1LIG    C19   26  -1.319  -0.011  -1.361
    1LIG    C20   27  -1.324  -0.094  -1.248
    1LIG    C21   28  -1.225  -0.088  -1.151
    1LIG    C22   29  -1.125   0.007  -1.163
    1LIG    C23   30  -1.116   0.085  -1.280
    1LIG    C24   31  -1.109   0.355  -1.652
    1LIG     O4   32  -1.156   0.328  -1.785
    1LIG     H2   33  -1.251   0.307  -1.783
    1LIG    C25   34  -1.059   0.503  -1.660
    1LIG     N3   35  -1.127   0.593  -1.758
    1LIG     H3   36  -1.055   0.661  -1.789
    1LIG     H4   37  -1.147   0.538  -1.844
    1LIG    C26   38  -1.249   0.675  -1.713
    1LIG    C27   39  -1.243   0.675  -1.561
    1LIG    C28   40  -1.382   0.620  -1.768
    1LIG     O5   41  -1.392   0.500  -1.792
    1LIG     N4   42  -1.492   0.699  -1.794
    1LIG     H5   43  -1.566   0.641  -1.833
    1LIG    C29   44  -1.521   0.844  -1.808
    1LIG    C30   45  -1.435   0.910  -1.915
    1LIG    C31   46  -1.476   1.053  -1.947
    1LIG    C32   47  -1.488   1.141  -1.823
    1LIG    C33   48  -1.563   1.073  -1.709
    1LIG    C34   49  -1.514   0.929  -1.680
    1LIG     HC   50  -1.186   0.347  -1.445
    1LIG    HC1   51  -1.624   0.547  -1.446
    1LIG    HC2   52  -1.974   0.359  -1.608
    1LIG    HC3   53  -1.835   0.166  -1.679
    1LIG    HC4   54  -1.594   0.156  -1.619
    1LIG    HC5   55  -1.820   0.531  -1.275
    1LIG    HC6   56  -1.874   0.698  -1.296
    1LIG    HC7   57  -2.112   0.755  -1.286
    1LIG    HC8   58  -2.345   0.682  -1.247
    1LIG    HC9   59  -2.394   0.443  -1.207
    1LIG   HC10   60  -2.210   0.279  -1.192
    1LIG   HC11   61  -1.978   0.352  -1.235
    1LIG   HC12   62  -1.079   0.122  -1.545
    1LIG   HC13   63  -1.244   0.088  -1.595
    1LIG   HC14   64  -1.402  -0.010  -1.431
    1LIG   HC15   65  -1.406  -0.164  -1.237
    1LIG   HC16   66  -1.227  -0.156  -1.067
    1LIG   HC17   67  -1.053   0.021  -1.084
    1LIG   HC18   68  -1.035   0.157  -1.290
    1LIG   HC19   69  -1.018   0.296  -1.642
    1LIG   HC20   70  -0.953   0.501  -1.684
    1LIG   HC21   71  -1.070   0.548  -1.561
    1LIG   HC22   72  -1.236   0.777  -1.748
    1LIG   HC23   73  -1.624   0.851  -1.843
    1LIG   HC24   74  -1.443   0.851  -2.007
    1LIG   HC25   75  -1.331   0.910  -1.882
    1LIG   HC26   76  -1.402   1.097  -2.013
    1LIG   HC27   77  -1.573   1.052  -1.998
    1LIG   HC28   78  -1.388   1.166  -1.788
    1LIG   HC29   79  -1.540   1.233  -1.849
    1LIG   HC30   80  -1.669   1.069  -1.734
    1LIG   HC31   81  -1.551   1.132  -1.618
    1LIG   HC32   82  -1.411   0.932  -1.645
    1LIG   HC33   83  -1.577   0.884  -1.604
    1LIG   HC34   84  -1.318   0.745  -1.522
    1LIG   HC35   85  -1.264   0.575  -1.524
    1LIG   HC36   86  -1.144   0.706  -1.528
    1LIG   HC37   87  -1.930   0.653  -1.758
    1LIG   HC38   88  -1.754   0.644  -1.736
    1LIG   HC39   89  -1.831   0.800  -1.770
   0.00000   0.00000   0.00000
