; Created by cgenff_charmm2gmx.py

[ moleculetype ]
; Name			   nrexcl
LIG				 3

[ atoms ]
;	 nr		  type	resnr residue  atom   cgnr	   charge		mass  typeB    chargeB		massB
; residue	 1 LIG rtp LIG q	qsum
     1      CG311      1    LIG     C1      1      0.010     12.011   ;
     2      NG2S1      1    LIG     N1      2     -0.226     14.007   ;
     3      CG2O1      1    LIG     C2      3      0.302     12.011   ;
     4      OG2D1      1    LIG     O1      4     -0.463     15.999   ;
     5       HGP1      1    LIG     H1      5      0.262      1.008   ;
     6     CG2R61      1    LIG     C3      6     -0.103     12.011   ;
     7     CG2R61      1    LIG     C4      7     -0.065     12.011   ;
     8     CG2R61      1    LIG     C5      8      0.112     12.011   ;
     9     CG2R61      1    LIG     C6      9     -0.121     12.011   ;
    10     CG2R61      1    LIG     C7     10     -0.110     12.011   ;
    11     CG2R61      1    LIG     C8     11     -0.060     12.011   ;
    12      NG301      1    LIG     N2     12     -0.186     14.007   ;
    13      SG3O2      1    LIG      S     13      0.404     32.060   ;
    14      OG2P1      1    LIG     O2     14     -0.388     15.999   ;
    15      OG2P1      1    LIG     O3     15     -0.388     15.999   ;
    16      CG331      1    LIG     C9     16      0.036     12.011   ;
    17      CG321      1    LIG    C10     17     -0.040     12.011   ;
    18     CG2R61      1    LIG    C11     18      0.010     12.011   ;
    19     CG2R61      1    LIG    C12     19     -0.123     12.011   ;
    20     CG2R61      1    LIG    C13     20     -0.112     12.011   ;
    21     CG2R61      1    LIG    C14     21     -0.116     12.011   ;
    22     CG2R61      1    LIG    C15     22     -0.112     12.011   ;
    23     CG2R61      1    LIG    C16     23     -0.123     12.011   ;
    24      CG321      1    LIG    C17     24     -0.111     12.011   ;
    25     CG2R61      1    LIG    C18     25     -0.019     12.011   ;
    26     CG2R61      1    LIG    C19     26     -0.123     12.011   ;
    27     CG2R61      1    LIG    C20     27     -0.112     12.011   ;
    28     CG2R61      1    LIG    C21     28     -0.116     12.011   ;
    29     CG2R61      1    LIG    C22     29     -0.112     12.011   ;
    30     CG2R61      1    LIG    C23     30     -0.123     12.011   ;
    31      CG311      1    LIG    C24     31      0.089     12.011   ;
    32      OG311      1    LIG     O4     32     -0.625     15.999   ;
    33       HGP1      1    LIG     H2     33      0.415      1.008   ;
    34      CG324      1    LIG    C25     34      0.198     12.011   ;
    35      NG3P2      1    LIG     N3     35     -0.406     14.007   ;
    36       HGP2      1    LIG     H3     36      0.329      1.008   ;
    37       HGP2      1    LIG     H4     37      0.329      1.008   ;
    38      CG314      1    LIG    C26     38      0.189     12.011   ;
    39      CG331      1    LIG    C27     39     -0.216     12.011   ;
    40      CG2O1      1    LIG    C28     40      0.385     12.011   ;
    41      OG2D1      1    LIG     O5     41     -0.443     15.999   ;
    42      NG2S1      1    LIG     N4     42     -0.285     14.007   ;
    43       HGP1      1    LIG     H5     43      0.319      1.008   ;
    44      CG311      1    LIG    C29     44     -0.146     12.011   ;
    45      CG321      1    LIG    C30     45     -0.115     12.011   ;
    46      CG321      1    LIG    C31     46     -0.198     12.011   ;
    47      CG321      1    LIG    C32     47     -0.154     12.011   ;
    48      CG321      1    LIG    C33     48     -0.198     12.011   ;
    49      CG321      1    LIG    C34     49     -0.115     12.011   ;
    50       HGA1      1    LIG     HC     50      0.090      1.008   ;
    51      HGR61      1    LIG    HC1     51      0.116      1.008   ;
    52      HGR61      1    LIG    HC2     52      0.116      1.008   ;
    53      HGR61      1    LIG    HC3     53      0.116      1.008   ;
    54      HGR61      1    LIG    HC4     54      0.116      1.008   ;
    55       HGA2      1    LIG    HC5     55      0.090      1.008   ;
    56       HGA2      1    LIG    HC6     56      0.090      1.008   ;
    57      HGR61      1    LIG    HC7     57      0.116      1.008   ;
    58      HGR61      1    LIG    HC8     58      0.116      1.008   ;
    59      HGR61      1    LIG    HC9     59      0.116      1.008   ;
    60      HGR61      1    LIG   HC10     60      0.116      1.008   ;
    61      HGR61      1    LIG   HC11     61      0.116      1.008   ;
    62       HGA2      1    LIG   HC12     62      0.090      1.008   ;
    63       HGA2      1    LIG   HC13     63      0.090      1.008   ;
    64      HGR61      1    LIG   HC14     64      0.116      1.008   ;
    65      HGR61      1    LIG   HC15     65      0.116      1.008   ;
    66      HGR61      1    LIG   HC16     66      0.116      1.008   ;
    67      HGR61      1    LIG   HC17     67      0.116      1.008   ;
    68      HGR61      1    LIG   HC18     68      0.116      1.008   ;
    69       HGA1      1    LIG   HC19     69      0.090      1.008   ;
    70       HGA2      1    LIG   HC20     70      0.090      1.008   ;
    71       HGA2      1    LIG   HC21     71      0.090      1.008   ;
    72       HGA1      1    LIG   HC22     72      0.090      1.008   ;
    73       HGA1      1    LIG   HC23     73      0.090      1.008   ;
    74       HGA2      1    LIG   HC24     74      0.090      1.008   ;
    75       HGA2      1    LIG   HC25     75      0.090      1.008   ;
    76       HGA2      1    LIG   HC26     76      0.090      1.008   ;
    77       HGA2      1    LIG   HC27     77      0.090      1.008   ;
    78       HGA2      1    LIG   HC28     78      0.090      1.008   ;
    79       HGA2      1    LIG   HC29     79      0.090      1.008   ;
    80       HGA2      1    LIG   HC30     80      0.090      1.008   ;
    81       HGA2      1    LIG   HC31     81      0.090      1.008   ;
    82       HGA2      1    LIG   HC32     82      0.090      1.008   ;
    83       HGA2      1    LIG   HC33     83      0.090      1.008   ;
    84       HGA3      1    LIG   HC34     84      0.090      1.008   ;
    85       HGA3      1    LIG   HC35     85      0.090      1.008   ;
    86       HGA3      1    LIG   HC36     86      0.090      1.008   ;
    87       HGA3      1    LIG   HC37     87      0.090      1.008   ;
    88       HGA3      1    LIG   HC38     88      0.090      1.008   ;
    89       HGA3      1    LIG   HC39     89      0.090      1.008   ;

[ bonds ]
;	ai	  aj funct			  c0			c1			  c2			c3
    1    31	 1 ;       CG311      CG311
    1    24	 1 ;       CG311      CG321
    1     2	 1 ;       CG311      NG2S1
    1    50	 1 ;       CG311       HGA1
    2     5	 1 ;       NG2S1       HGP1
    2     3	 1 ;       NG2S1      CG2O1
    3     4	 1 ;       CG2O1      OG2D1
    3     6	 1 ;       CG2O1     CG2R61
    6    11	 1 ;      CG2R61     CG2R61
    6     7	 1 ;      CG2R61     CG2R61
    7     8	 1 ;      CG2R61     CG2R61
    7    51	 1 ;      CG2R61      HGR61
    8     9	 1 ;      CG2R61     CG2R61
    8    12	 1 ;      CG2R61      NG301
    9    10	 1 ;      CG2R61     CG2R61
    9    52	 1 ;      CG2R61      HGR61
   10    11	 1 ;      CG2R61     CG2R61
   10    53	 1 ;      CG2R61      HGR61
   11    54	 1 ;      CG2R61      HGR61
   12    13	 1 ;       NG301      SG3O2
   12    17	 1 ;       NG301      CG321
   13    16	 1 ;       SG3O2      CG331
   13    14	 1 ;       SG3O2      OG2P1
   13    15	 1 ;       SG3O2      OG2P1
   16    87	 1 ;       CG331       HGA3
   16    88	 1 ;       CG331       HGA3
   16    89	 1 ;       CG331       HGA3
   17    18	 1 ;       CG321     CG2R61
   17    55	 1 ;       CG321       HGA2
   17    56	 1 ;       CG321       HGA2
   18    23	 1 ;      CG2R61     CG2R61
   18    19	 1 ;      CG2R61     CG2R61
   19    20	 1 ;      CG2R61     CG2R61
   19    57	 1 ;      CG2R61      HGR61
   20    21	 1 ;      CG2R61     CG2R61
   20    58	 1 ;      CG2R61      HGR61
   21    22	 1 ;      CG2R61     CG2R61
   21    59	 1 ;      CG2R61      HGR61
   22    23	 1 ;      CG2R61     CG2R61
   22    60	 1 ;      CG2R61      HGR61
   23    61	 1 ;      CG2R61      HGR61
   24    25	 1 ;       CG321     CG2R61
   24    62	 1 ;       CG321       HGA2
   24    63	 1 ;       CG321       HGA2
   25    30	 1 ;      CG2R61     CG2R61
   25    26	 1 ;      CG2R61     CG2R61
   26    27	 1 ;      CG2R61     CG2R61
   26    64	 1 ;      CG2R61      HGR61
   27    28	 1 ;      CG2R61     CG2R61
   27    65	 1 ;      CG2R61      HGR61
   28    29	 1 ;      CG2R61     CG2R61
   28    66	 1 ;      CG2R61      HGR61
   29    30	 1 ;      CG2R61     CG2R61
   29    67	 1 ;      CG2R61      HGR61
   30    68	 1 ;      CG2R61      HGR61
   31    32	 1 ;       CG311      OG311
   31    34	 1 ;       CG311      CG324
   31    69	 1 ;       CG311       HGA1
   32    33	 1 ;       OG311       HGP1
   34    35	 1 ;       CG324      NG3P2
   34    70	 1 ;       CG324       HGA2
   34    71	 1 ;       CG324       HGA2
   35    36	 1 ;       NG3P2       HGP2
   35    37	 1 ;       NG3P2       HGP2
   35    38	 1 ;       NG3P2      CG314
   38    40	 1 ;       CG314      CG2O1
   38    39	 1 ;       CG314      CG331
   38    72	 1 ;       CG314       HGA1
   39    84	 1 ;       CG331       HGA3
   39    85	 1 ;       CG331       HGA3
   39    86	 1 ;       CG331       HGA3
   40    41	 1 ;       CG2O1      OG2D1
   40    42	 1 ;       CG2O1      NG2S1
   42    43	 1 ;       NG2S1       HGP1
   42    44	 1 ;       NG2S1      CG311
   44    45	 1 ;       CG311      CG321
   44    49	 1 ;       CG311      CG321
   44    73	 1 ;       CG311       HGA1
   45    46	 1 ;       CG321      CG321
   45    74	 1 ;       CG321       HGA2
   45    75	 1 ;       CG321       HGA2
   46    47	 1 ;       CG321      CG321
   46    76	 1 ;       CG321       HGA2
   46    77	 1 ;       CG321       HGA2
   47    48	 1 ;       CG321      CG321
   47    78	 1 ;       CG321       HGA2
   47    79	 1 ;       CG321       HGA2
   48    49	 1 ;       CG321      CG321
   48    80	 1 ;       CG321       HGA2
   48    81	 1 ;       CG321       HGA2
   49    82	 1 ;       CG321       HGA2
   49    83	 1 ;       CG321       HGA2

[ pairs ]
;	ai	  aj funct			  c0			c1			  c2			c3
    1     4	 1
    1     6	 1
    1    30	 1
    1    26	 1
    1    33	 1
    1    35	 1
    1    70	 1
    1    71	 1
    2    32	 1
    2    34	 1
    2    69	 1
    2    25	 1
    2    62	 1
    2    63	 1
    2    11	 1
    2     7	 1
    3    31	 1
    3    24	 1
    3    50	 1
    3    10	 1
    3    54	 1
    3     8	 1
    3    51	 1
    4     5	 1
    4    11	 1
    4     7	 1
    5    31	 1
    5    24	 1
    5    50	 1
    5     6	 1
    6     9	 1
    6    12	 1
    6    53	 1
    7    10	 1
    7    54	 1
    7    52	 1
    7    13	 1
    7    17	 1
    8    11	 1
    8    53	 1
    8    16	 1
    8    14	 1
    8    15	 1
    8    18	 1
    8    55	 1
    8    56	 1
    9    51	 1
    9    13	 1
    9    17	 1
    9    54	 1
   10    12	 1
   11    51	 1
   11    52	 1
   12    51	 1
   12    52	 1
   12    87	 1
   12    88	 1
   12    89	 1
   12    23	 1
   12    19	 1
   13    18	 1
   13    55	 1
   13    56	 1
   14    17	 1
   14    87	 1
   14    88	 1
   14    89	 1
   15    17	 1
   15    87	 1
   15    88	 1
   15    89	 1
   16    17	 1
   17    22	 1
   17    61	 1
   17    20	 1
   17    57	 1
   18    21	 1
   18    58	 1
   18    60	 1
   19    55	 1
   19    56	 1
   19    22	 1
   19    61	 1
   19    59	 1
   20    23	 1
   20    60	 1
   21    57	 1
   21    61	 1
   22    58	 1
   23    55	 1
   23    56	 1
   23    57	 1
   23    59	 1
   24    32	 1
   24    34	 1
   24    69	 1
   24    29	 1
   24    68	 1
   24    27	 1
   24    64	 1
   25    31	 1
   25    50	 1
   25    28	 1
   25    65	 1
   25    67	 1
   26    62	 1
   26    63	 1
   26    29	 1
   26    68	 1
   26    66	 1
   27    30	 1
   27    67	 1
   28    64	 1
   28    68	 1
   29    65	 1
   30    62	 1
   30    63	 1
   30    64	 1
   30    66	 1
   31    62	 1
   31    63	 1
   31    36	 1
   31    37	 1
   31    38	 1
   32    50	 1
   32    35	 1
   32    70	 1
   32    71	 1
   33    34	 1
   33    69	 1
   34    50	 1
   34    40	 1
   34    39	 1
   34    72	 1
   35    69	 1
   35    41	 1
   35    42	 1
   35    84	 1
   35    85	 1
   35    86	 1
   36    70	 1
   36    71	 1
   36    40	 1
   36    39	 1
   36    72	 1
   37    70	 1
   37    71	 1
   37    40	 1
   37    39	 1
   37    72	 1
   38    70	 1
   38    71	 1
   38    43	 1
   38    44	 1
   39    41	 1
   39    42	 1
   40    84	 1
   40    85	 1
   40    86	 1
   40    45	 1
   40    49	 1
   40    73	 1
   41    72	 1
   41    43	 1
   41    44	 1
   42    72	 1
   42    46	 1
   42    74	 1
   42    75	 1
   42    48	 1
   42    82	 1
   42    83	 1
   43    45	 1
   43    49	 1
   43    73	 1
   44    47	 1
   44    76	 1
   44    77	 1
   44    80	 1
   44    81	 1
   45    48	 1
   45    82	 1
   45    83	 1
   45    78	 1
   45    79	 1
   46    49	 1
   46    73	 1
   46    80	 1
   46    81	 1
   47    74	 1
   47    75	 1
   47    82	 1
   47    83	 1
   48    73	 1
   48    76	 1
   48    77	 1
   49    74	 1
   49    75	 1
   49    78	 1
   49    79	 1
   50    69	 1
   50    62	 1
   50    63	 1
   52    53	 1
   53    54	 1
   57    58	 1
   58    59	 1
   59    60	 1
   60    61	 1
   64    65	 1
   65    66	 1
   66    67	 1
   67    68	 1
   69    70	 1
   69    71	 1
   72    84	 1
   72    85	 1
   72    86	 1
   73    74	 1
   73    75	 1
   73    82	 1
   73    83	 1
   74    76	 1
   74    77	 1
   75    76	 1
   75    77	 1
   76    78	 1
   76    79	 1
   77    78	 1
   77    79	 1
   78    80	 1
   78    81	 1
   79    80	 1
   79    81	 1
   80    82	 1
   80    83	 1
   81    82	 1
   81    83	 1

[ angles ]
;	ai	  aj	ak funct			c0			  c1			c2			  c3
   31     1    24	5 ;      CG311      CG311      CG321
   31     1     2	5 ;      CG311      CG311      NG2S1
   31     1    50	5 ;      CG311      CG311       HGA1
   24     1     2	5 ;      CG321      CG311      NG2S1
   24     1    50	5 ;      CG321      CG311       HGA1
    2     1    50	5 ;      NG2S1      CG311       HGA1
    1     2     5	5 ;      CG311      NG2S1       HGP1
    1     2     3	5 ;      CG311      NG2S1      CG2O1
    5     2     3	5 ;       HGP1      NG2S1      CG2O1
    2     3     4	5 ;      NG2S1      CG2O1      OG2D1
    2     3     6	5 ;      NG2S1      CG2O1     CG2R61
    4     3     6	5 ;      OG2D1      CG2O1     CG2R61
    3     6    11	5 ;      CG2O1     CG2R61     CG2R61
    3     6     7	5 ;      CG2O1     CG2R61     CG2R61
   11     6     7	5 ;     CG2R61     CG2R61     CG2R61
    6     7     8	5 ;     CG2R61     CG2R61     CG2R61
    6     7    51	5 ;     CG2R61     CG2R61      HGR61
    8     7    51	5 ;     CG2R61     CG2R61      HGR61
    7     8     9	5 ;     CG2R61     CG2R61     CG2R61
    7     8    12	5 ;     CG2R61     CG2R61      NG301
    9     8    12	5 ;     CG2R61     CG2R61      NG301
   10     9     8	5 ;     CG2R61     CG2R61     CG2R61
   10     9    52	5 ;     CG2R61     CG2R61      HGR61
    8     9    52	5 ;     CG2R61     CG2R61      HGR61
   11    10     9	5 ;     CG2R61     CG2R61     CG2R61
   11    10    53	5 ;     CG2R61     CG2R61      HGR61
    9    10    53	5 ;     CG2R61     CG2R61      HGR61
    6    11    10	5 ;     CG2R61     CG2R61     CG2R61
    6    11    54	5 ;     CG2R61     CG2R61      HGR61
   10    11    54	5 ;     CG2R61     CG2R61      HGR61
    8    12    13	5 ;     CG2R61      NG301      SG3O2
    8    12    17	5 ;     CG2R61      NG301      CG321
   13    12    17	5 ;      SG3O2      NG301      CG321
   16    13    14	5 ;      CG331      SG3O2      OG2P1
   16    13    12	5 ;      CG331      SG3O2      NG301
   16    13    15	5 ;      CG331      SG3O2      OG2P1
   14    13    12	5 ;      OG2P1      SG3O2      NG301
   14    13    15	5 ;      OG2P1      SG3O2      OG2P1
   12    13    15	5 ;      NG301      SG3O2      OG2P1
   13    16    87	5 ;      SG3O2      CG331       HGA3
   13    16    88	5 ;      SG3O2      CG331       HGA3
   13    16    89	5 ;      SG3O2      CG331       HGA3
   87    16    88	5 ;       HGA3      CG331       HGA3
   87    16    89	5 ;       HGA3      CG331       HGA3
   88    16    89	5 ;       HGA3      CG331       HGA3
   12    17    18	5 ;      NG301      CG321     CG2R61
   12    17    55	5 ;      NG301      CG321       HGA2
   12    17    56	5 ;      NG301      CG321       HGA2
   18    17    55	5 ;     CG2R61      CG321       HGA2
   18    17    56	5 ;     CG2R61      CG321       HGA2
   55    17    56	5 ;       HGA2      CG321       HGA2
   17    18    23	5 ;      CG321     CG2R61     CG2R61
   17    18    19	5 ;      CG321     CG2R61     CG2R61
   23    18    19	5 ;     CG2R61     CG2R61     CG2R61
   18    19    20	5 ;     CG2R61     CG2R61     CG2R61
   18    19    57	5 ;     CG2R61     CG2R61      HGR61
   20    19    57	5 ;     CG2R61     CG2R61      HGR61
   19    20    21	5 ;     CG2R61     CG2R61     CG2R61
   19    20    58	5 ;     CG2R61     CG2R61      HGR61
   21    20    58	5 ;     CG2R61     CG2R61      HGR61
   22    21    20	5 ;     CG2R61     CG2R61     CG2R61
   22    21    59	5 ;     CG2R61     CG2R61      HGR61
   20    21    59	5 ;     CG2R61     CG2R61      HGR61
   23    22    21	5 ;     CG2R61     CG2R61     CG2R61
   23    22    60	5 ;     CG2R61     CG2R61      HGR61
   21    22    60	5 ;     CG2R61     CG2R61      HGR61
   18    23    22	5 ;     CG2R61     CG2R61     CG2R61
   18    23    61	5 ;     CG2R61     CG2R61      HGR61
   22    23    61	5 ;     CG2R61     CG2R61      HGR61
    1    24    25	5 ;      CG311      CG321     CG2R61
    1    24    62	5 ;      CG311      CG321       HGA2
    1    24    63	5 ;      CG311      CG321       HGA2
   25    24    62	5 ;     CG2R61      CG321       HGA2
   25    24    63	5 ;     CG2R61      CG321       HGA2
   62    24    63	5 ;       HGA2      CG321       HGA2
   24    25    30	5 ;      CG321     CG2R61     CG2R61
   24    25    26	5 ;      CG321     CG2R61     CG2R61
   30    25    26	5 ;     CG2R61     CG2R61     CG2R61
   25    26    27	5 ;     CG2R61     CG2R61     CG2R61
   25    26    64	5 ;     CG2R61     CG2R61      HGR61
   27    26    64	5 ;     CG2R61     CG2R61      HGR61
   26    27    28	5 ;     CG2R61     CG2R61     CG2R61
   26    27    65	5 ;     CG2R61     CG2R61      HGR61
   28    27    65	5 ;     CG2R61     CG2R61      HGR61
   29    28    27	5 ;     CG2R61     CG2R61     CG2R61
   29    28    66	5 ;     CG2R61     CG2R61      HGR61
   27    28    66	5 ;     CG2R61     CG2R61      HGR61
   30    29    28	5 ;     CG2R61     CG2R61     CG2R61
   30    29    67	5 ;     CG2R61     CG2R61      HGR61
   28    29    67	5 ;     CG2R61     CG2R61      HGR61
   25    30    29	5 ;     CG2R61     CG2R61     CG2R61
   25    30    68	5 ;     CG2R61     CG2R61      HGR61
   29    30    68	5 ;     CG2R61     CG2R61      HGR61
   32    31    34	5 ;      OG311      CG311      CG324
   32    31     1	5 ;      OG311      CG311      CG311
   32    31    69	5 ;      OG311      CG311       HGA1
   34    31     1	5 ;      CG324      CG311      CG311
   34    31    69	5 ;      CG324      CG311       HGA1
    1    31    69	5 ;      CG311      CG311       HGA1
   31    32    33	5 ;      CG311      OG311       HGP1
   35    34    31	5 ;      NG3P2      CG324      CG311
   35    34    70	5 ;      NG3P2      CG324       HGA2
   35    34    71	5 ;      NG3P2      CG324       HGA2
   31    34    70	5 ;      CG311      CG324       HGA2
   31    34    71	5 ;      CG311      CG324       HGA2
   70    34    71	5 ;       HGA2      CG324       HGA2
   36    35    37	5 ;       HGP2      NG3P2       HGP2
   36    35    34	5 ;       HGP2      NG3P2      CG324
   36    35    38	5 ;       HGP2      NG3P2      CG314
   37    35    34	5 ;       HGP2      NG3P2      CG324
   37    35    38	5 ;       HGP2      NG3P2      CG314
   34    35    38	5 ;      CG324      NG3P2      CG314
   35    38    40	5 ;      NG3P2      CG314      CG2O1
   35    38    39	5 ;      NG3P2      CG314      CG331
   35    38    72	5 ;      NG3P2      CG314       HGA1
   40    38    39	5 ;      CG2O1      CG314      CG331
   40    38    72	5 ;      CG2O1      CG314       HGA1
   39    38    72	5 ;      CG331      CG314       HGA1
   38    39    84	5 ;      CG314      CG331       HGA3
   38    39    85	5 ;      CG314      CG331       HGA3
   38    39    86	5 ;      CG314      CG331       HGA3
   84    39    85	5 ;       HGA3      CG331       HGA3
   84    39    86	5 ;       HGA3      CG331       HGA3
   85    39    86	5 ;       HGA3      CG331       HGA3
   38    40    41	5 ;      CG314      CG2O1      OG2D1
   38    40    42	5 ;      CG314      CG2O1      NG2S1
   41    40    42	5 ;      OG2D1      CG2O1      NG2S1
   40    42    43	5 ;      CG2O1      NG2S1       HGP1
   40    42    44	5 ;      CG2O1      NG2S1      CG311
   43    42    44	5 ;       HGP1      NG2S1      CG311
   45    44    42	5 ;      CG321      CG311      NG2S1
   45    44    49	5 ;      CG321      CG311      CG321
   45    44    73	5 ;      CG321      CG311       HGA1
   42    44    49	5 ;      NG2S1      CG311      CG321
   42    44    73	5 ;      NG2S1      CG311       HGA1
   49    44    73	5 ;      CG321      CG311       HGA1
   46    45    44	5 ;      CG321      CG321      CG311
   46    45    74	5 ;      CG321      CG321       HGA2
   46    45    75	5 ;      CG321      CG321       HGA2
   44    45    74	5 ;      CG311      CG321       HGA2
   44    45    75	5 ;      CG311      CG321       HGA2
   74    45    75	5 ;       HGA2      CG321       HGA2
   45    46    47	5 ;      CG321      CG321      CG321
   45    46    76	5 ;      CG321      CG321       HGA2
   45    46    77	5 ;      CG321      CG321       HGA2
   47    46    76	5 ;      CG321      CG321       HGA2
   47    46    77	5 ;      CG321      CG321       HGA2
   76    46    77	5 ;       HGA2      CG321       HGA2
   46    47    48	5 ;      CG321      CG321      CG321
   46    47    78	5 ;      CG321      CG321       HGA2
   46    47    79	5 ;      CG321      CG321       HGA2
   48    47    78	5 ;      CG321      CG321       HGA2
   48    47    79	5 ;      CG321      CG321       HGA2
   78    47    79	5 ;       HGA2      CG321       HGA2
   47    48    49	5 ;      CG321      CG321      CG321
   47    48    80	5 ;      CG321      CG321       HGA2
   47    48    81	5 ;      CG321      CG321       HGA2
   49    48    80	5 ;      CG321      CG321       HGA2
   49    48    81	5 ;      CG321      CG321       HGA2
   80    48    81	5 ;       HGA2      CG321       HGA2
   44    49    48	5 ;      CG311      CG321      CG321
   44    49    82	5 ;      CG311      CG321       HGA2
   44    49    83	5 ;      CG311      CG321       HGA2
   48    49    82	5 ;      CG321      CG321       HGA2
   48    49    83	5 ;      CG321      CG321       HGA2
   82    49    83	5 ;       HGA2      CG321       HGA2

[ dihedrals ]
;	ai	  aj	ak	  al funct			  c0			c1			  c2			c3			  c4			c5
   24     1    31    32	 9 ;      CG321      CG311      CG311      OG311
   24     1    31    34	 9 ;      CG321      CG311      CG311      CG324
   24     1    31    69	 9 ;      CG321      CG311      CG311       HGA1
    2     1    31    32	 9 ;      NG2S1      CG311      CG311      OG311
    2     1    31    34	 9 ;      NG2S1      CG311      CG311      CG324
    2     1    31    69	 9 ;      NG2S1      CG311      CG311       HGA1
   50     1    31    32	 9 ;       HGA1      CG311      CG311      OG311
   50     1    31    34	 9 ;       HGA1      CG311      CG311      CG324
   50     1    31    69	 9 ;       HGA1      CG311      CG311       HGA1
   31     1    24    25	 9 ;      CG311      CG311      CG321     CG2R61
   31     1    24    62	 9 ;      CG311      CG311      CG321       HGA2
   31     1    24    63	 9 ;      CG311      CG311      CG321       HGA2
    2     1    24    25	 9 ;      NG2S1      CG311      CG321     CG2R61
    2     1    24    62	 9 ;      NG2S1      CG311      CG321       HGA2
    2     1    24    63	 9 ;      NG2S1      CG311      CG321       HGA2
   50     1    24    25	 9 ;       HGA1      CG311      CG321     CG2R61
   50     1    24    62	 9 ;       HGA1      CG311      CG321       HGA2
   50     1    24    63	 9 ;       HGA1      CG311      CG321       HGA2
   31     1     2     5	 9 ;      CG311      CG311      NG2S1       HGP1
   31     1     2     3	 9 ;      CG311      CG311      NG2S1      CG2O1
   24     1     2     5	 9 ;      CG321      CG311      NG2S1       HGP1
   24     1     2     3	 9 ;      CG321      CG311      NG2S1      CG2O1
   50     1     2     5	 9 ;       HGA1      CG311      NG2S1       HGP1
   50     1     2     3	 9 ;       HGA1      CG311      NG2S1      CG2O1
    1     2     3     4	 9 ;      CG311      NG2S1      CG2O1      OG2D1
    1     2     3     6	 9 ;      CG311      NG2S1      CG2O1     CG2R61
    5     2     3     4	 9 ;       HGP1      NG2S1      CG2O1      OG2D1
    5     2     3     6	 9 ;       HGP1      NG2S1      CG2O1     CG2R61
    2     3     6    11	 9 ;      NG2S1      CG2O1     CG2R61     CG2R61
    2     3     6     7	 9 ;      NG2S1      CG2O1     CG2R61     CG2R61
    4     3     6    11	 9 ;      OG2D1      CG2O1     CG2R61     CG2R61
    4     3     6     7	 9 ;      OG2D1      CG2O1     CG2R61     CG2R61
    3     6    11    10	 9 ;      CG2O1     CG2R61     CG2R61     CG2R61
    3     6    11    54	 9 ;      CG2O1     CG2R61     CG2R61      HGR61
    7     6    11    10	 9 ;     CG2R61     CG2R61     CG2R61     CG2R61
    7     6    11    54	 9 ;     CG2R61     CG2R61     CG2R61      HGR61
    3     6     7     8	 9 ;      CG2O1     CG2R61     CG2R61     CG2R61
    3     6     7    51	 9 ;      CG2O1     CG2R61     CG2R61      HGR61
   11     6     7     8	 9 ;     CG2R61     CG2R61     CG2R61     CG2R61
   11     6     7    51	 9 ;     CG2R61     CG2R61     CG2R61      HGR61
    6     7     8     9	 9 ;     CG2R61     CG2R61     CG2R61     CG2R61
    6     7     8    12	 9 ;     CG2R61     CG2R61     CG2R61      NG301
   51     7     8     9	 9 ;      HGR61     CG2R61     CG2R61     CG2R61
   51     7     8    12	 9 ;      HGR61     CG2R61     CG2R61      NG301
    7     8     9    10	 9 ;     CG2R61     CG2R61     CG2R61     CG2R61
    7     8     9    52	 9 ;     CG2R61     CG2R61     CG2R61      HGR61
   12     8     9    10	 9 ;      NG301     CG2R61     CG2R61     CG2R61
   12     8     9    52	 9 ;      NG301     CG2R61     CG2R61      HGR61
    7     8    12    13	 9 ;     CG2R61     CG2R61      NG301      SG3O2
    7     8    12    17	 9 ;     CG2R61     CG2R61      NG301      CG321
    9     8    12    13	 9 ;     CG2R61     CG2R61      NG301      SG3O2
    9     8    12    17	 9 ;     CG2R61     CG2R61      NG301      CG321
    8     9    10    11	 9 ;     CG2R61     CG2R61     CG2R61     CG2R61
    8     9    10    53	 9 ;     CG2R61     CG2R61     CG2R61      HGR61
   52     9    10    11	 9 ;      HGR61     CG2R61     CG2R61     CG2R61
   52     9    10    53	 9 ;      HGR61     CG2R61     CG2R61      HGR61
    9    10    11     6	 9 ;     CG2R61     CG2R61     CG2R61     CG2R61
    9    10    11    54	 9 ;     CG2R61     CG2R61     CG2R61      HGR61
   53    10    11     6	 9 ;      HGR61     CG2R61     CG2R61     CG2R61
   53    10    11    54	 9 ;      HGR61     CG2R61     CG2R61      HGR61
    8    12    13    16	 9 ;     CG2R61      NG301      SG3O2      CG331
    8    12    13    14	 9 ;     CG2R61      NG301      SG3O2      OG2P1
    8    12    13    15	 9 ;     CG2R61      NG301      SG3O2      OG2P1
   17    12    13    16	 9 ;      CG321      NG301      SG3O2      CG331
   17    12    13    14	 9 ;      CG321      NG301      SG3O2      OG2P1
   17    12    13    15	 9 ;      CG321      NG301      SG3O2      OG2P1
    8    12    17    18	 9 ;     CG2R61      NG301      CG321     CG2R61
    8    12    17    55	 9 ;     CG2R61      NG301      CG321       HGA2
    8    12    17    56	 9 ;     CG2R61      NG301      CG321       HGA2
   13    12    17    18	 9 ;      SG3O2      NG301      CG321     CG2R61
   13    12    17    55	 9 ;      SG3O2      NG301      CG321       HGA2
   13    12    17    56	 9 ;      SG3O2      NG301      CG321       HGA2
   14    13    16    87	 9 ;      OG2P1      SG3O2      CG331       HGA3
   14    13    16    88	 9 ;      OG2P1      SG3O2      CG331       HGA3
   14    13    16    89	 9 ;      OG2P1      SG3O2      CG331       HGA3
   12    13    16    87	 9 ;      NG301      SG3O2      CG331       HGA3
   12    13    16    88	 9 ;      NG301      SG3O2      CG331       HGA3
   12    13    16    89	 9 ;      NG301      SG3O2      CG331       HGA3
   15    13    16    87	 9 ;      OG2P1      SG3O2      CG331       HGA3
   15    13    16    88	 9 ;      OG2P1      SG3O2      CG331       HGA3
   15    13    16    89	 9 ;      OG2P1      SG3O2      CG331       HGA3
   12    17    18    23	 9 ;      NG301      CG321     CG2R61     CG2R61
   12    17    18    19	 9 ;      NG301      CG321     CG2R61     CG2R61
   55    17    18    23	 9 ;       HGA2      CG321     CG2R61     CG2R61
   55    17    18    19	 9 ;       HGA2      CG321     CG2R61     CG2R61
   56    17    18    23	 9 ;       HGA2      CG321     CG2R61     CG2R61
   56    17    18    19	 9 ;       HGA2      CG321     CG2R61     CG2R61
   17    18    23    22	 9 ;      CG321     CG2R61     CG2R61     CG2R61
   17    18    23    61	 9 ;      CG321     CG2R61     CG2R61      HGR61
   19    18    23    22	 9 ;     CG2R61     CG2R61     CG2R61     CG2R61
   19    18    23    61	 9 ;     CG2R61     CG2R61     CG2R61      HGR61
   17    18    19    20	 9 ;      CG321     CG2R61     CG2R61     CG2R61
   17    18    19    57	 9 ;      CG321     CG2R61     CG2R61      HGR61
   23    18    19    20	 9 ;     CG2R61     CG2R61     CG2R61     CG2R61
   23    18    19    57	 9 ;     CG2R61     CG2R61     CG2R61      HGR61
   18    19    20    21	 9 ;     CG2R61     CG2R61     CG2R61     CG2R61
   18    19    20    58	 9 ;     CG2R61     CG2R61     CG2R61      HGR61
   57    19    20    21	 9 ;      HGR61     CG2R61     CG2R61     CG2R61
   57    19    20    58	 9 ;      HGR61     CG2R61     CG2R61      HGR61
   19    20    21    22	 9 ;     CG2R61     CG2R61     CG2R61     CG2R61
   19    20    21    59	 9 ;     CG2R61     CG2R61     CG2R61      HGR61
   58    20    21    22	 9 ;      HGR61     CG2R61     CG2R61     CG2R61
   58    20    21    59	 9 ;      HGR61     CG2R61     CG2R61      HGR61
   20    21    22    23	 9 ;     CG2R61     CG2R61     CG2R61     CG2R61
   20    21    22    60	 9 ;     CG2R61     CG2R61     CG2R61      HGR61
   59    21    22    23	 9 ;      HGR61     CG2R61     CG2R61     CG2R61
   59    21    22    60	 9 ;      HGR61     CG2R61     CG2R61      HGR61
   21    22    23    18	 9 ;     CG2R61     CG2R61     CG2R61     CG2R61
   21    22    23    61	 9 ;     CG2R61     CG2R61     CG2R61      HGR61
   60    22    23    18	 9 ;      HGR61     CG2R61     CG2R61     CG2R61
   60    22    23    61	 9 ;      HGR61     CG2R61     CG2R61      HGR61
    1    24    25    30	 9 ;      CG311      CG321     CG2R61     CG2R61
    1    24    25    26	 9 ;      CG311      CG321     CG2R61     CG2R61
   62    24    25    30	 9 ;       HGA2      CG321     CG2R61     CG2R61
   62    24    25    26	 9 ;       HGA2      CG321     CG2R61     CG2R61
   63    24    25    30	 9 ;       HGA2      CG321     CG2R61     CG2R61
   63    24    25    26	 9 ;       HGA2      CG321     CG2R61     CG2R61
   24    25    30    29	 9 ;      CG321     CG2R61     CG2R61     CG2R61
   24    25    30    68	 9 ;      CG321     CG2R61     CG2R61      HGR61
   26    25    30    29	 9 ;     CG2R61     CG2R61     CG2R61     CG2R61
   26    25    30    68	 9 ;     CG2R61     CG2R61     CG2R61      HGR61
   24    25    26    27	 9 ;      CG321     CG2R61     CG2R61     CG2R61
   24    25    26    64	 9 ;      CG321     CG2R61     CG2R61      HGR61
   30    25    26    27	 9 ;     CG2R61     CG2R61     CG2R61     CG2R61
   30    25    26    64	 9 ;     CG2R61     CG2R61     CG2R61      HGR61
   25    26    27    28	 9 ;     CG2R61     CG2R61     CG2R61     CG2R61
   25    26    27    65	 9 ;     CG2R61     CG2R61     CG2R61      HGR61
   64    26    27    28	 9 ;      HGR61     CG2R61     CG2R61     CG2R61
   64    26    27    65	 9 ;      HGR61     CG2R61     CG2R61      HGR61
   26    27    28    29	 9 ;     CG2R61     CG2R61     CG2R61     CG2R61
   26    27    28    66	 9 ;     CG2R61     CG2R61     CG2R61      HGR61
   65    27    28    29	 9 ;      HGR61     CG2R61     CG2R61     CG2R61
   65    27    28    66	 9 ;      HGR61     CG2R61     CG2R61      HGR61
   27    28    29    30	 9 ;     CG2R61     CG2R61     CG2R61     CG2R61
   27    28    29    67	 9 ;     CG2R61     CG2R61     CG2R61      HGR61
   66    28    29    30	 9 ;      HGR61     CG2R61     CG2R61     CG2R61
   66    28    29    67	 9 ;      HGR61     CG2R61     CG2R61      HGR61
   28    29    30    25	 9 ;     CG2R61     CG2R61     CG2R61     CG2R61
   28    29    30    68	 9 ;     CG2R61     CG2R61     CG2R61      HGR61
   67    29    30    25	 9 ;      HGR61     CG2R61     CG2R61     CG2R61
   67    29    30    68	 9 ;      HGR61     CG2R61     CG2R61      HGR61
   34    31    32    33	 9 ;      CG324      CG311      OG311       HGP1
    1    31    32    33	 9 ;      CG311      CG311      OG311       HGP1
   69    31    32    33	 9 ;       HGA1      CG311      OG311       HGP1
   32    31    34    35	 9 ;      OG311      CG311      CG324      NG3P2
   32    31    34    70	 9 ;      OG311      CG311      CG324       HGA2
   32    31    34    71	 9 ;      OG311      CG311      CG324       HGA2
    1    31    34    35	 9 ;      CG311      CG311      CG324      NG3P2
    1    31    34    70	 9 ;      CG311      CG311      CG324       HGA2
    1    31    34    71	 9 ;      CG311      CG311      CG324       HGA2
   69    31    34    35	 9 ;       HGA1      CG311      CG324      NG3P2
   69    31    34    70	 9 ;       HGA1      CG311      CG324       HGA2
   69    31    34    71	 9 ;       HGA1      CG311      CG324       HGA2
   31    34    35    36	 9 ;      CG311      CG324      NG3P2       HGP2
   31    34    35    37	 9 ;      CG311      CG324      NG3P2       HGP2
   31    34    35    38	 9 ;      CG311      CG324      NG3P2      CG314
   70    34    35    36	 9 ;       HGA2      CG324      NG3P2       HGP2
   70    34    35    37	 9 ;       HGA2      CG324      NG3P2       HGP2
   70    34    35    38	 9 ;       HGA2      CG324      NG3P2      CG314
   71    34    35    36	 9 ;       HGA2      CG324      NG3P2       HGP2
   71    34    35    37	 9 ;       HGA2      CG324      NG3P2       HGP2
   71    34    35    38	 9 ;       HGA2      CG324      NG3P2      CG314
   36    35    38    40	 9 ;       HGP2      NG3P2      CG314      CG2O1
   36    35    38    39	 9 ;       HGP2      NG3P2      CG314      CG331
   36    35    38    72	 9 ;       HGP2      NG3P2      CG314       HGA1
   37    35    38    40	 9 ;       HGP2      NG3P2      CG314      CG2O1
   37    35    38    39	 9 ;       HGP2      NG3P2      CG314      CG331
   37    35    38    72	 9 ;       HGP2      NG3P2      CG314       HGA1
   34    35    38    40	 9 ;      CG324      NG3P2      CG314      CG2O1
   34    35    38    39	 9 ;      CG324      NG3P2      CG314      CG331
   34    35    38    72	 9 ;      CG324      NG3P2      CG314       HGA1
   35    38    40    41	 9 ;      NG3P2      CG314      CG2O1      OG2D1
   35    38    40    42	 9 ;      NG3P2      CG314      CG2O1      NG2S1
   39    38    40    41	 9 ;      CG331      CG314      CG2O1      OG2D1
   39    38    40    42	 9 ;      CG331      CG314      CG2O1      NG2S1
   72    38    40    41	 9 ;       HGA1      CG314      CG2O1      OG2D1
   72    38    40    42	 9 ;       HGA1      CG314      CG2O1      NG2S1
   35    38    39    84	 9 ;      NG3P2      CG314      CG331       HGA3
   35    38    39    85	 9 ;      NG3P2      CG314      CG331       HGA3
   35    38    39    86	 9 ;      NG3P2      CG314      CG331       HGA3
   40    38    39    84	 9 ;      CG2O1      CG314      CG331       HGA3
   40    38    39    85	 9 ;      CG2O1      CG314      CG331       HGA3
   40    38    39    86	 9 ;      CG2O1      CG314      CG331       HGA3
   72    38    39    84	 9 ;       HGA1      CG314      CG331       HGA3
   72    38    39    85	 9 ;       HGA1      CG314      CG331       HGA3
   72    38    39    86	 9 ;       HGA1      CG314      CG331       HGA3
   38    40    42    43	 9 ;      CG314      CG2O1      NG2S1       HGP1
   38    40    42    44	 9 ;      CG314      CG2O1      NG2S1      CG311
   41    40    42    43	 9 ;      OG2D1      CG2O1      NG2S1       HGP1
   41    40    42    44	 9 ;      OG2D1      CG2O1      NG2S1      CG311
   40    42    44    45	 9 ;      CG2O1      NG2S1      CG311      CG321
   40    42    44    49	 9 ;      CG2O1      NG2S1      CG311      CG321
   40    42    44    73	 9 ;      CG2O1      NG2S1      CG311       HGA1
   43    42    44    45	 9 ;       HGP1      NG2S1      CG311      CG321
   43    42    44    49	 9 ;       HGP1      NG2S1      CG311      CG321
   43    42    44    73	 9 ;       HGP1      NG2S1      CG311       HGA1
   42    44    45    46	 9 ;      NG2S1      CG311      CG321      CG321
   42    44    45    74	 9 ;      NG2S1      CG311      CG321       HGA2
   42    44    45    75	 9 ;      NG2S1      CG311      CG321       HGA2
   49    44    45    46	 9 ;      CG321      CG311      CG321      CG321
   49    44    45    74	 9 ;      CG321      CG311      CG321       HGA2
   49    44    45    75	 9 ;      CG321      CG311      CG321       HGA2
   73    44    45    46	 9 ;       HGA1      CG311      CG321      CG321
   73    44    45    74	 9 ;       HGA1      CG311      CG321       HGA2
   73    44    45    75	 9 ;       HGA1      CG311      CG321       HGA2
   45    44    49    48	 9 ;      CG321      CG311      CG321      CG321
   45    44    49    82	 9 ;      CG321      CG311      CG321       HGA2
   45    44    49    83	 9 ;      CG321      CG311      CG321       HGA2
   42    44    49    48	 9 ;      NG2S1      CG311      CG321      CG321
   42    44    49    82	 9 ;      NG2S1      CG311      CG321       HGA2
   42    44    49    83	 9 ;      NG2S1      CG311      CG321       HGA2
   73    44    49    48	 9 ;       HGA1      CG311      CG321      CG321
   73    44    49    82	 9 ;       HGA1      CG311      CG321       HGA2
   73    44    49    83	 9 ;       HGA1      CG311      CG321       HGA2
   44    45    46    47	 9 ;      CG311      CG321      CG321      CG321
   44    45    46    76	 9 ;      CG311      CG321      CG321       HGA2
   44    45    46    77	 9 ;      CG311      CG321      CG321       HGA2
   74    45    46    47	 9 ;       HGA2      CG321      CG321      CG321
   74    45    46    76	 9 ;       HGA2      CG321      CG321       HGA2
   74    45    46    77	 9 ;       HGA2      CG321      CG321       HGA2
   75    45    46    47	 9 ;       HGA2      CG321      CG321      CG321
   75    45    46    76	 9 ;       HGA2      CG321      CG321       HGA2
   75    45    46    77	 9 ;       HGA2      CG321      CG321       HGA2
   45    46    47    48	 9 ;      CG321      CG321      CG321      CG321
   45    46    47    78	 9 ;      CG321      CG321      CG321       HGA2
   45    46    47    79	 9 ;      CG321      CG321      CG321       HGA2
   76    46    47    48	 9 ;       HGA2      CG321      CG321      CG321
   76    46    47    78	 9 ;       HGA2      CG321      CG321       HGA2
   76    46    47    79	 9 ;       HGA2      CG321      CG321       HGA2
   77    46    47    48	 9 ;       HGA2      CG321      CG321      CG321
   77    46    47    78	 9 ;       HGA2      CG321      CG321       HGA2
   77    46    47    79	 9 ;       HGA2      CG321      CG321       HGA2
   46    47    48    49	 9 ;      CG321      CG321      CG321      CG321
   46    47    48    80	 9 ;      CG321      CG321      CG321       HGA2
   46    47    48    81	 9 ;      CG321      CG321      CG321       HGA2
   78    47    48    49	 9 ;       HGA2      CG321      CG321      CG321
   78    47    48    80	 9 ;       HGA2      CG321      CG321       HGA2
   78    47    48    81	 9 ;       HGA2      CG321      CG321       HGA2
   79    47    48    49	 9 ;       HGA2      CG321      CG321      CG321
   79    47    48    80	 9 ;       HGA2      CG321      CG321       HGA2
   79    47    48    81	 9 ;       HGA2      CG321      CG321       HGA2
   47    48    49    44	 9 ;      CG321      CG321      CG321      CG311
   47    48    49    82	 9 ;      CG321      CG321      CG321       HGA2
   47    48    49    83	 9 ;      CG321      CG321      CG321       HGA2
   80    48    49    44	 9 ;       HGA2      CG321      CG321      CG311
   80    48    49    82	 9 ;       HGA2      CG321      CG321       HGA2
   80    48    49    83	 9 ;       HGA2      CG321      CG321       HGA2
   81    48    49    44	 9 ;       HGA2      CG321      CG321      CG311
   81    48    49    82	 9 ;       HGA2      CG321      CG321       HGA2
   81    48    49    83	 9 ;       HGA2      CG321      CG321       HGA2

[ dihedrals ]
;	ai	  aj	ak	  al funct			  c0			c1			  c2			c3
    3     6     2     4	 2
   40    38    42    41	 2

