Good ROcking Metal Altar for Chronical Sinners
   65
    1LIG      S    1  -1.518   0.812  -1.589
    1LIG     O1    2  -1.573   0.750  -1.469
    1LIG     O2    3  -1.530   0.953  -1.614
    1LIG     C1    4  -1.348   0.764  -1.600
    1LIG     C2    5  -1.333   0.611  -1.595
    1LIG     C3    6  -1.414   0.541  -1.707
    1LIG     C4    7  -1.565   0.577  -1.712
    1LIG     C5    8  -1.589   0.726  -1.726
    1LIG     C6    9  -1.185   0.572  -1.590
    1LIG     C7   10  -1.149   0.457  -1.500
    1LIG     C8   11  -1.112   0.333  -1.554
    1LIG     C9   12  -1.095   0.219  -1.474
    1LIG    C10   13  -1.116   0.232  -1.337
    1LIG    C11   14  -1.146   0.356  -1.280
    1LIG    C12   15  -1.163   0.468  -1.361
    1LIG    C13   16  -1.069   0.088  -1.544
    1LIG    C14   17  -0.931   0.030  -1.510
    1LIG     O3   18  -0.938  -0.055  -1.396
    1LIG     H1   19  -1.032  -0.056  -1.368
    1LIG     O4   20  -1.110   0.128  -1.249
    1LIG     H2   21  -1.142   0.046  -1.291
    1LIG     O5   22  -1.411   0.398  -1.695
    1LIG     H3   23  -1.339   0.368  -1.636
    1LIG      N   24  -1.632   0.516  -1.591
    1LIG     H4   25  -1.557   0.481  -1.528
    1LIG     H5   26  -1.682   0.588  -1.536
    1LIG    C15   27  -1.732   0.408  -1.610
    1LIG    C16   28  -1.783   0.366  -1.475
    1LIG    C17   29  -1.875   0.260  -1.466
    1LIG    C18   30  -1.910   0.207  -1.342
    1LIG    C19   31  -1.854   0.263  -1.226
    1LIG    C20   32  -1.765   0.369  -1.234
    1LIG    C21   33  -1.729   0.420  -1.358
    1LIG    C22   34  -2.004   0.088  -1.336
    1LIG    C23   35  -1.999   0.020  -1.199
    1LIG    C24   36  -2.147   0.127  -1.374
    1LIG    HC2   37  -1.306   0.800  -1.694
    1LIG    HC3   38  -1.293   0.808  -1.517
    1LIG     HC   39  -1.377   0.579  -1.500
    1LIG    HC1   40  -1.369   0.568  -1.803
    1LIG    HC4   41  -1.608   0.529  -1.800
    1LIG    HC5   42  -1.696   0.745  -1.729
    1LIG    HC6   43  -1.543   0.761  -1.819
    1LIG    HC7   44  -1.154   0.545  -1.691
    1LIG    HC8   45  -1.127   0.659  -1.558
    1LIG    HC9   46  -1.094   0.326  -1.661
    1LIG   HC10   47  -1.158   0.365  -1.173
    1LIG   HC11   48  -1.185   0.564  -1.316
    1LIG   HC12   49  -1.145   0.016  -1.515
    1LIG   HC13   50  -1.074   0.104  -1.652
    1LIG   HC14   51  -0.894  -0.027  -1.595
    1LIG   HC15   52  -0.862   0.112  -1.489
    1LIG   HC16   53  -1.685   0.323  -1.660
    1LIG   HC17   54  -1.815   0.444  -1.671
    1LIG   HC18   55  -1.919   0.220  -1.556
    1LIG   HC19   56  -1.881   0.223  -1.129
    1LIG   HC20   57  -1.724   0.412  -1.144
    1LIG   HC21   58  -1.658   0.502  -1.365
    1LIG   HC22   59  -1.969   0.015  -1.410
    1LIG   HC23   60  -2.058  -0.072  -1.202
    1LIG   HC24   61  -2.040   0.087  -1.124
    1LIG   HC25   62  -1.895  -0.004  -1.174
    1LIG   HC26   63  -2.147   0.175  -1.472
    1LIG   HC27   64  -2.187   0.196  -1.300
    1LIG   HC28   65  -2.209   0.037  -1.378
   0.00000   0.00000   0.00000
