Gravel Rubs Often Many Awfully Cauterized Sores
   82
    1LIG      F    1  -1.502   0.809  -1.418
    1LIG     C1    2  -1.570   0.863  -1.519
    1LIG     C2    3  -1.683   0.939  -1.488
    1LIG     C3    4  -1.758   1.000  -1.588
    1LIG     C4    5  -1.716   0.986  -1.721
    1LIG     C5    6  -1.599   0.914  -1.751
    1LIG     C6    7  -1.528   0.845  -1.651
    1LIG     C7    8  -1.799   1.029  -1.828
    1LIG     C8    9  -1.871   1.049  -1.924
    1LIG     C9   10  -1.410   0.760  -1.691
    1LIG    C10   11  -1.398   0.705  -1.837
    1LIG    C11   12  -1.255   0.680  -1.897
    1LIG     O1   13  -1.160   0.771  -1.837
    1LIG     H1   14  -1.095   0.715  -1.788
    1LIG    C12   15  -1.191   0.538  -1.884
    1LIG     N1   16  -1.113   0.537  -1.751
    1LIG     H2   17  -1.015   0.558  -1.773
    1LIG     H3   18  -1.146   0.623  -1.704
    1LIG    C13   19  -1.116   0.423  -1.650
    1LIG    C14   20  -1.004   0.316  -1.673
    1LIG    C15   21  -1.060   0.171  -1.673
    1LIG     O2   22  -1.188   0.173  -1.740
    1LIG    C16   23  -0.973   0.055  -1.730
    1LIG    C17   24  -1.055   0.099  -1.534
    1LIG    C18   25  -1.282   0.239  -1.668
    1LIG     N2   26  -1.394   0.170  -1.645
    1LIG    C19   27  -1.253   0.366  -1.622
    1LIG    C20   28  -1.490   0.234  -1.576
    1LIG     HN   29  -1.406   0.074  -1.677
    1LIG    C21   30  -1.478   0.366  -1.534
    1LIG    C22   31  -1.354   0.431  -1.551
    1LIG    C23   32  -0.989  -0.023  -1.599
    1LIG    C24   33  -1.601   0.439  -1.488
    1LIG    C25   34  -1.617   0.442  -1.333
    1LIG    C26   35  -1.484   0.459  -1.258
    1LIG    C27   36  -1.707   0.562  -1.298
    1LIG    C28   37  -1.685   0.313  -1.282
    1LIG     N3   38  -1.482   0.584  -1.855
    1LIG    C29   39  -1.559   0.559  -1.967
    1LIG     O3   40  -1.554   0.629  -2.067
    1LIG     H4   41  -1.509   0.528  -1.773
    1LIG    C30   42  -1.645   0.431  -1.959
    1LIG     O4   43  -1.673   0.394  -1.824
    1LIG    C31   44  -1.814   0.393  -1.799
    1LIG     H5   45  -1.711   0.951  -1.389
    1LIG     H6   46  -1.842   1.054  -1.565
    1LIG     H7   47  -1.565   0.911  -1.849
    1LIG     H8   48  -1.930   1.065  -2.002
    1LIG     H9   49  -1.322   0.818  -1.673
    1LIG    H10   50  -1.424   0.671  -1.633
    1LIG    H11   51  -1.433   0.789  -1.893
    1LIG    H12   52  -1.274   0.693  -2.001
    1LIG    H13   53  -1.124   0.520  -1.966
    1LIG    H14   54  -1.265   0.461  -1.885
    1LIG    H15   55  -1.091   0.468  -1.556
    1LIG    H16   56  -0.958   0.335  -1.768
    1LIG    H17   57  -0.934   0.324  -1.593
    1LIG    H18   58  -0.872   0.083  -1.751
    1LIG    H19   59  -0.998   0.010  -1.823
    1LIG    H20   60  -1.151   0.079  -1.492
    1LIG    H21   61  -1.009   0.146  -1.450
    1LIG    H22   62  -1.347   0.320  -1.640
    1LIG    H23   63  -1.577   0.184  -1.554
    1LIG    H24   64  -1.338   0.525  -1.510
    1LIG    H25   65  -0.897  -0.052  -1.554
    1LIG    H26   66  -1.039  -0.118  -1.599
    1LIG    H27   67  -1.687   0.390  -1.530
    1LIG    H28   68  -1.592   0.540  -1.521
    1LIG    H29   69  -1.435   0.548  -1.292
    1LIG    H30   70  -1.421   0.375  -1.277
    1LIG    H31   71  -1.502   0.466  -1.153
    1LIG    H32   72  -1.801   0.553  -1.349
    1LIG    H33   73  -1.659   0.652  -1.329
    1LIG    H34   74  -1.724   0.564  -1.192
    1LIG    H35   75  -1.778   0.299  -1.332
    1LIG    H36   76  -1.702   0.321  -1.177
    1LIG    H37   77  -1.621   0.229  -1.301
    1LIG    H38   78  -1.592   0.352  -2.007
    1LIG    H39   79  -1.738   0.451  -2.008
    1LIG    H40   80  -1.832   0.365  -1.697
    1LIG    H41   81  -1.862   0.324  -1.865
    1LIG    H42   82  -1.853   0.491  -1.816
   0.00000   0.00000   0.00000
