; Created by cgenff_charmm2gmx.py

[ moleculetype ]
; Name			   nrexcl
LIG				 3

[ atoms ]
;	 nr		  type	resnr residue  atom   cgnr	   charge		mass  typeB    chargeB		massB
; residue	 1 LIG rtp LIG q	qsum
     1       FGR1      1    LIG      F      1     -0.137     18.998   ;
     2     CG2R66      1    LIG     C1      2     -0.047     12.011   ;
     3     CG2R61      1    LIG     C2      3     -0.094     12.011   ;
     4     CG2R61      1    LIG     C3      4     -0.153     12.011   ;
     5     CG2R61      1    LIG     C4      5      0.155     12.011   ;
     6     CG2R61      1    LIG     C5      6     -0.157     12.011   ;
     7     CG2R61      1    LIG     C6      7      0.117     12.011   ;
     8      CG1T1      1    LIG     C7      8     -0.006     12.011   ;
     9      CG1T2      1    LIG     C8      9     -0.410     12.011   ;
    10      CG321      1    LIG     C9     10     -0.108     12.011   ;
    11      CG311      1    LIG    C10     11     -0.002     12.011   ;
    12      CG311      1    LIG    C11     12      0.089     12.011   ;
    13      OG311      1    LIG     O1     13     -0.625     15.999   ;
    14       HGP1      1    LIG     H1     14      0.415      1.008   ;
    15      CG324      1    LIG    C12     15      0.191     12.011   ;
    16      NG3P2      1    LIG     N1     16     -0.445     14.007   ;
    17       HGP2      1    LIG     H2     17      0.339      1.008   ;
    18       HGP2      1    LIG     H3     18      0.339      1.008   ;
    19      CG314      1    LIG    C13     19      0.361     12.011   ;
    20      CG321      1    LIG    C14     20     -0.254     12.011   ;
    21     CG3C41      1    LIG    C15     21      0.278     12.011   ;
    22     OG3C61      1    LIG     O2     22     -0.389     15.999   ;
    23     CG3C41      1    LIG    C16     23     -0.203     12.011   ;
    24     CG3C41      1    LIG    C17     24     -0.203     12.011   ;
    25      CG311      1    LIG    C18     25      0.450     12.011   ;
    26      NG311      1    LIG     N2     26     -0.567     14.007   ;
    27     CG2DC1      1    LIG    C19     27     -0.330     12.011   ;
    28     CG2D2O      1    LIG    C20     28     -0.109     12.011   ;
    29     HGPAM1      1    LIG     HN     29      0.368      1.008   ;
    30     CG2DC2      1    LIG    C21     30      0.091     12.011   ;
    31     CG2DC1      1    LIG    C22     31     -0.108     12.011   ;
    32     CG3C41      1    LIG    C23     32     -0.168     12.011   ;
    33      CG321      1    LIG    C24     33     -0.131     12.011   ;
    34      CG301      1    LIG    C25     34     -0.287     12.011   ;
    35      CG331      1    LIG    C26     35     -0.197     12.011   ;
    36      CG331      1    LIG    C27     36     -0.197     12.011   ;
    37      CG331      1    LIG    C28     37     -0.197     12.011   ;
    38      NG2S1      1    LIG     N3     38     -0.388     14.007   ;
    39      CG2O1      1    LIG    C29     39      0.541     12.011   ;
    40      OG2D1      1    LIG     O3     40     -0.453     15.999   ;
    41       HGP1      1    LIG     H4     41      0.281      1.008   ;
    42      CG321      1    LIG    C30     42      0.138     12.011   ;
    43      OG301      1    LIG     O4     43     -0.578     15.999   ;
    44      CG331      1    LIG    C31     44     -0.093     12.011   ;
    45      HGR62      1    LIG     H5     45      0.179      1.008   ;
    46      HGR61      1    LIG     H6     46      0.116      1.008   ;
    47      HGR61      1    LIG     H7     47      0.116      1.008   ;
    48     HGPAM1      1    LIG     H8     48      0.291      1.008   ;
    49       HGA2      1    LIG     H9     49      0.090      1.008   ;
    50       HGA2      1    LIG    H10     50      0.090      1.008   ;
    51       HGA1      1    LIG    H11     51      0.090      1.008   ;
    52       HGA1      1    LIG    H12     52      0.090      1.008   ;
    53       HGA2      1    LIG    H13     53      0.090      1.008   ;
    54       HGA2      1    LIG    H14     54      0.090      1.008   ;
    55       HGA1      1    LIG    H15     55      0.090      1.008   ;
    56       HGA2      1    LIG    H16     56      0.090      1.008   ;
    57       HGA2      1    LIG    H17     57      0.090      1.008   ;
    58       HGA2      1    LIG    H18     58      0.090      1.008   ;
    59       HGA2      1    LIG    H19     59      0.090      1.008   ;
    60       HGA2      1    LIG    H20     60      0.090      1.008   ;
    61       HGA2      1    LIG    H21     61      0.090      1.008   ;
    62       HGA1      1    LIG    H22     62      0.090      1.008   ;
    63       HGA4      1    LIG    H23     63      0.158      1.008   ;
    64       HGA4      1    LIG    H24     64      0.143      1.008   ;
    65       HGA2      1    LIG    H25     65      0.090      1.008   ;
    66       HGA2      1    LIG    H26     66      0.090      1.008   ;
    67       HGA2      1    LIG    H27     67      0.090      1.008   ;
    68       HGA2      1    LIG    H28     68      0.090      1.008   ;
    69       HGA3      1    LIG    H29     69      0.090      1.008   ;
    70       HGA3      1    LIG    H30     70      0.090      1.008   ;
    71       HGA3      1    LIG    H31     71      0.090      1.008   ;
    72       HGA3      1    LIG    H32     72      0.090      1.008   ;
    73       HGA3      1    LIG    H33     73      0.090      1.008   ;
    74       HGA3      1    LIG    H34     74      0.090      1.008   ;
    75       HGA3      1    LIG    H35     75      0.090      1.008   ;
    76       HGA3      1    LIG    H36     76      0.090      1.008   ;
    77       HGA3      1    LIG    H37     77      0.090      1.008   ;
    78       HGA2      1    LIG    H38     78      0.090      1.008   ;
    79       HGA2      1    LIG    H39     79      0.090      1.008   ;
    80       HGA3      1    LIG    H40     80      0.090      1.008   ;
    81       HGA3      1    LIG    H41     81      0.090      1.008   ;
    82       HGA3      1    LIG    H42     82      0.090      1.008   ;

[ bonds ]
;	ai	  aj funct			  c0			c1			  c2			c3
    1     2	 1 ;        FGR1     CG2R66
    2     7	 1 ;      CG2R66     CG2R61
    2     3	 1 ;      CG2R66     CG2R61
    3     4	 1 ;      CG2R61     CG2R61
    3    45	 1 ;      CG2R61      HGR62
    4     5	 1 ;      CG2R61     CG2R61
    4    46	 1 ;      CG2R61      HGR61
    5     8	 1 ;      CG2R61      CG1T1
    5     6	 1 ;      CG2R61     CG2R61
    6     7	 1 ;      CG2R61     CG2R61
    6    47	 1 ;      CG2R61      HGR61
    7    10	 1 ;      CG2R61      CG321
    8     9	 1 ;       CG1T1      CG1T2
    9    48	 1 ;       CG1T2     HGPAM1
   10    11	 1 ;       CG321      CG311
   10    49	 1 ;       CG321       HGA2
   10    50	 1 ;       CG321       HGA2
   11    12	 1 ;       CG311      CG311
   11    38	 1 ;       CG311      NG2S1
   11    51	 1 ;       CG311       HGA1
   12    15	 1 ;       CG311      CG324
   12    13	 1 ;       CG311      OG311
   12    52	 1 ;       CG311       HGA1
   13    14	 1 ;       OG311       HGP1
   15    16	 1 ;       CG324      NG3P2
   15    53	 1 ;       CG324       HGA2
   15    54	 1 ;       CG324       HGA2
   16    17	 1 ;       NG3P2       HGP2
   16    18	 1 ;       NG3P2       HGP2
   16    19	 1 ;       NG3P2      CG314
   19    20	 1 ;       CG314      CG321
   19    27	 1 ;       CG314     CG2DC1
   19    55	 1 ;       CG314       HGA1
   20    21	 1 ;       CG321     CG3C41
   20    56	 1 ;       CG321       HGA2
   20    57	 1 ;       CG321       HGA2
   21    22	 1 ;      CG3C41     OG3C61
   21    23	 1 ;      CG3C41     CG3C41
   21    24	 1 ;      CG3C41     CG3C41
   22    25	 1 ;      OG3C61      CG311
   23    32	 1 ;      CG3C41     CG3C41
   23    58	 1 ;      CG3C41       HGA2
   23    59	 1 ;      CG3C41       HGA2
   24    32	 1 ;      CG3C41     CG3C41
   24    60	 1 ;      CG3C41       HGA2
   24    61	 1 ;      CG3C41       HGA2
   25    26	 1 ;       CG311      NG311
   25    27	 1 ;       CG311     CG2DC1
   25    62	 1 ;       CG311       HGA1
   26    29	 1 ;       NG311     HGPAM1
   26    28	 1 ;       NG311     CG2D2O
   27    31	 1 ;      CG2DC1     CG2DC1
   28    30	 1 ;      CG2D2O     CG2DC2
   28    63	 1 ;      CG2D2O       HGA4
   30    31	 1 ;      CG2DC2     CG2DC1
   30    33	 1 ;      CG2DC2      CG321
   31    64	 1 ;      CG2DC1       HGA4
   32    65	 1 ;      CG3C41       HGA2
   32    66	 1 ;      CG3C41       HGA2
   33    34	 1 ;       CG321      CG301
   33    67	 1 ;       CG321       HGA2
   33    68	 1 ;       CG321       HGA2
   34    36	 1 ;       CG301      CG331
   34    37	 1 ;       CG301      CG331
   34    35	 1 ;       CG301      CG331
   35    69	 1 ;       CG331       HGA3
   35    70	 1 ;       CG331       HGA3
   35    71	 1 ;       CG331       HGA3
   36    72	 1 ;       CG331       HGA3
   36    73	 1 ;       CG331       HGA3
   36    74	 1 ;       CG331       HGA3
   37    75	 1 ;       CG331       HGA3
   37    76	 1 ;       CG331       HGA3
   37    77	 1 ;       CG331       HGA3
   38    39	 1 ;       NG2S1      CG2O1
   38    41	 1 ;       NG2S1       HGP1
   39    40	 1 ;       CG2O1      OG2D1
   39    42	 1 ;       CG2O1      CG321
   42    43	 1 ;       CG321      OG301
   42    78	 1 ;       CG321       HGA2
   42    79	 1 ;       CG321       HGA2
   43    44	 1 ;       OG301      CG331
   44    80	 1 ;       CG331       HGA3
   44    81	 1 ;       CG331       HGA3
   44    82	 1 ;       CG331       HGA3

[ pairs ]
;	ai	  aj funct			  c0			c1			  c2			c3
    1     6	 1
    1    10	 1
    1     4	 1
    1    45	 1
    2     5	 1
    2    46	 1
    2    47	 1
    2    11	 1
    2    49	 1
    2    50	 1
    3     6	 1
    3    10	 1
    3     8	 1
    4     7	 1
    4     9	 1
    4    47	 1
    5    45	 1
    5    10	 1
    5    48	 1
    6    46	 1
    6     9	 1
    6    11	 1
    6    49	 1
    6    50	 1
    7    45	 1
    7     8	 1
    7    12	 1
    7    38	 1
    7    51	 1
    8    46	 1
    8    47	 1
   10    47	 1
   10    15	 1
   10    13	 1
   10    52	 1
   10    39	 1
   10    41	 1
   11    16	 1
   11    53	 1
   11    54	 1
   11    14	 1
   11    40	 1
   11    42	 1
   12    49	 1
   12    50	 1
   12    39	 1
   12    41	 1
   12    17	 1
   12    18	 1
   12    19	 1
   13    38	 1
   13    51	 1
   13    16	 1
   13    53	 1
   13    54	 1
   14    15	 1
   14    52	 1
   15    38	 1
   15    51	 1
   15    20	 1
   15    27	 1
   15    55	 1
   16    52	 1
   16    21	 1
   16    56	 1
   16    57	 1
   16    25	 1
   16    31	 1
   17    53	 1
   17    54	 1
   17    20	 1
   17    27	 1
   17    55	 1
   18    53	 1
   18    54	 1
   18    20	 1
   18    27	 1
   18    55	 1
   19    53	 1
   19    54	 1
   19    22	 1
   19    23	 1
   19    24	 1
   19    26	 1
   19    62	 1
   19    30	 1
   19    64	 1
   20    25	 1
   20    31	 1
   20    32	 1
   20    58	 1
   20    59	 1
   20    60	 1
   20    61	 1
   21    27	 1
   21    55	 1
   21    26	 1
   21    62	 1
   21    65	 1
   21    66	 1
   22    56	 1
   22    57	 1
   22    32	 1
   22    58	 1
   22    59	 1
   22    60	 1
   22    61	 1
   22    29	 1
   22    28	 1
   22    31	 1
   23    56	 1
   23    57	 1
   23    25	 1
   23    60	 1
   23    61	 1
   24    56	 1
   24    57	 1
   24    25	 1
   24    58	 1
   24    59	 1
   25    55	 1
   25    30	 1
   25    63	 1
   25    64	 1
   26    31	 1
   26    33	 1
   27    56	 1
   27    57	 1
   27    29	 1
   27    28	 1
   27    33	 1
   28    62	 1
   28    64	 1
   28    34	 1
   28    67	 1
   28    68	 1
   29    62	 1
   29    30	 1
   29    63	 1
   30    36	 1
   30    37	 1
   30    35	 1
   31    55	 1
   31    62	 1
   31    63	 1
   31    34	 1
   31    67	 1
   31    68	 1
   33    63	 1
   33    64	 1
   33    72	 1
   33    73	 1
   33    74	 1
   33    75	 1
   33    76	 1
   33    77	 1
   33    69	 1
   33    70	 1
   33    71	 1
   35    67	 1
   35    68	 1
   35    72	 1
   35    73	 1
   35    74	 1
   35    75	 1
   35    76	 1
   35    77	 1
   36    67	 1
   36    68	 1
   36    75	 1
   36    76	 1
   36    77	 1
   36    69	 1
   36    70	 1
   36    71	 1
   37    67	 1
   37    68	 1
   37    72	 1
   37    73	 1
   37    74	 1
   37    69	 1
   37    70	 1
   37    71	 1
   38    49	 1
   38    50	 1
   38    52	 1
   38    43	 1
   38    78	 1
   38    79	 1
   39    51	 1
   39    44	 1
   40    41	 1
   40    43	 1
   40    78	 1
   40    79	 1
   41    51	 1
   41    42	 1
   42    80	 1
   42    81	 1
   42    82	 1
   44    78	 1
   44    79	 1
   45    46	 1
   49    51	 1
   50    51	 1
   51    52	 1
   52    53	 1
   52    54	 1
   55    56	 1
   55    57	 1
   58    65	 1
   58    66	 1
   59    65	 1
   59    66	 1
   60    65	 1
   60    66	 1
   61    65	 1
   61    66	 1

[ angles ]
;	ai	  aj	ak funct			c0			  c1			c2			  c3
    7     2     3	5 ;     CG2R61     CG2R66     CG2R61
    7     2     1	5 ;     CG2R61     CG2R66       FGR1
    3     2     1	5 ;     CG2R61     CG2R66       FGR1
    4     3     2	5 ;     CG2R61     CG2R61     CG2R66
    4     3    45	5 ;     CG2R61     CG2R61      HGR62
    2     3    45	5 ;     CG2R66     CG2R61      HGR62
    5     4     3	5 ;     CG2R61     CG2R61     CG2R61
    5     4    46	5 ;     CG2R61     CG2R61      HGR61
    3     4    46	5 ;     CG2R61     CG2R61      HGR61
    8     5     6	5 ;      CG1T1     CG2R61     CG2R61
    8     5     4	5 ;      CG1T1     CG2R61     CG2R61
    6     5     4	5 ;     CG2R61     CG2R61     CG2R61
    5     6     7	5 ;     CG2R61     CG2R61     CG2R61
    5     6    47	5 ;     CG2R61     CG2R61      HGR61
    7     6    47	5 ;     CG2R61     CG2R61      HGR61
    6     7    10	5 ;     CG2R61     CG2R61      CG321
    6     7     2	5 ;     CG2R61     CG2R61     CG2R66
   10     7     2	5 ;      CG321     CG2R61     CG2R66
    9     8     5	5 ;      CG1T2      CG1T1     CG2R61
    8     9    48	5 ;      CG1T1      CG1T2     HGPAM1
   11    10     7	5 ;      CG311      CG321     CG2R61
   11    10    49	5 ;      CG311      CG321       HGA2
   11    10    50	5 ;      CG311      CG321       HGA2
    7    10    49	5 ;     CG2R61      CG321       HGA2
    7    10    50	5 ;     CG2R61      CG321       HGA2
   49    10    50	5 ;       HGA2      CG321       HGA2
   12    11    38	5 ;      CG311      CG311      NG2S1
   12    11    10	5 ;      CG311      CG311      CG321
   12    11    51	5 ;      CG311      CG311       HGA1
   38    11    10	5 ;      NG2S1      CG311      CG321
   38    11    51	5 ;      NG2S1      CG311       HGA1
   10    11    51	5 ;      CG321      CG311       HGA1
   15    12    11	5 ;      CG324      CG311      CG311
   15    12    13	5 ;      CG324      CG311      OG311
   15    12    52	5 ;      CG324      CG311       HGA1
   11    12    13	5 ;      CG311      CG311      OG311
   11    12    52	5 ;      CG311      CG311       HGA1
   13    12    52	5 ;      OG311      CG311       HGA1
   12    13    14	5 ;      CG311      OG311       HGP1
   12    15    16	5 ;      CG311      CG324      NG3P2
   12    15    53	5 ;      CG311      CG324       HGA2
   12    15    54	5 ;      CG311      CG324       HGA2
   16    15    53	5 ;      NG3P2      CG324       HGA2
   16    15    54	5 ;      NG3P2      CG324       HGA2
   53    15    54	5 ;       HGA2      CG324       HGA2
   15    16    17	5 ;      CG324      NG3P2       HGP2
   15    16    18	5 ;      CG324      NG3P2       HGP2
   15    16    19	5 ;      CG324      NG3P2      CG314
   17    16    18	5 ;       HGP2      NG3P2       HGP2
   17    16    19	5 ;       HGP2      NG3P2      CG314
   18    16    19	5 ;       HGP2      NG3P2      CG314
   16    19    20	5 ;      NG3P2      CG314      CG321
   16    19    27	5 ;      NG3P2      CG314     CG2DC1
   16    19    55	5 ;      NG3P2      CG314       HGA1
   20    19    27	5 ;      CG321      CG314     CG2DC1
   20    19    55	5 ;      CG321      CG314       HGA1
   27    19    55	5 ;     CG2DC1      CG314       HGA1
   21    20    19	5 ;     CG3C41      CG321      CG314
   21    20    56	5 ;     CG3C41      CG321       HGA2
   21    20    57	5 ;     CG3C41      CG321       HGA2
   19    20    56	5 ;      CG314      CG321       HGA2
   19    20    57	5 ;      CG314      CG321       HGA2
   56    20    57	5 ;       HGA2      CG321       HGA2
   22    21    23	5 ;     OG3C61     CG3C41     CG3C41
   22    21    20	5 ;     OG3C61     CG3C41      CG321
   22    21    24	5 ;     OG3C61     CG3C41     CG3C41
   23    21    20	5 ;     CG3C41     CG3C41      CG321
   23    21    24	5 ;     CG3C41     CG3C41     CG3C41
   20    21    24	5 ;      CG321     CG3C41     CG3C41
   21    22    25	5 ;     CG3C41     OG3C61      CG311
   21    23    32	5 ;     CG3C41     CG3C41     CG3C41
   21    23    58	5 ;     CG3C41     CG3C41       HGA2
   21    23    59	5 ;     CG3C41     CG3C41       HGA2
   32    23    58	5 ;     CG3C41     CG3C41       HGA2
   32    23    59	5 ;     CG3C41     CG3C41       HGA2
   58    23    59	5 ;       HGA2     CG3C41       HGA2
   21    24    32	5 ;     CG3C41     CG3C41     CG3C41
   21    24    60	5 ;     CG3C41     CG3C41       HGA2
   21    24    61	5 ;     CG3C41     CG3C41       HGA2
   32    24    60	5 ;     CG3C41     CG3C41       HGA2
   32    24    61	5 ;     CG3C41     CG3C41       HGA2
   60    24    61	5 ;       HGA2     CG3C41       HGA2
   22    25    26	5 ;     OG3C61      CG311      NG311
   22    25    27	5 ;     OG3C61      CG311     CG2DC1
   22    25    62	5 ;     OG3C61      CG311       HGA1
   26    25    27	5 ;      NG311      CG311     CG2DC1
   26    25    62	5 ;      NG311      CG311       HGA1
   27    25    62	5 ;     CG2DC1      CG311       HGA1
   29    26    25	5 ;     HGPAM1      NG311      CG311
   29    26    28	5 ;     HGPAM1      NG311     CG2D2O
   25    26    28	5 ;      CG311      NG311     CG2D2O
   25    27    19	5 ;      CG311     CG2DC1      CG314
   25    27    31	5 ;      CG311     CG2DC1     CG2DC1
   19    27    31	5 ;      CG314     CG2DC1     CG2DC1
   26    28    30	5 ;      NG311     CG2D2O     CG2DC2
   26    28    63	5 ;      NG311     CG2D2O       HGA4
   30    28    63	5 ;     CG2DC2     CG2D2O       HGA4
   28    30    31	5 ;     CG2D2O     CG2DC2     CG2DC1
   28    30    33	5 ;     CG2D2O     CG2DC2      CG321
   31    30    33	5 ;     CG2DC1     CG2DC2      CG321
   27    31    30	5 ;     CG2DC1     CG2DC1     CG2DC2
   27    31    64	5 ;     CG2DC1     CG2DC1       HGA4
   30    31    64	5 ;     CG2DC2     CG2DC1       HGA4
   23    32    24	5 ;     CG3C41     CG3C41     CG3C41
   23    32    65	5 ;     CG3C41     CG3C41       HGA2
   23    32    66	5 ;     CG3C41     CG3C41       HGA2
   24    32    65	5 ;     CG3C41     CG3C41       HGA2
   24    32    66	5 ;     CG3C41     CG3C41       HGA2
   65    32    66	5 ;       HGA2     CG3C41       HGA2
   30    33    34	5 ;     CG2DC2      CG321      CG301
   30    33    67	5 ;     CG2DC2      CG321       HGA2
   30    33    68	5 ;     CG2DC2      CG321       HGA2
   34    33    67	5 ;      CG301      CG321       HGA2
   34    33    68	5 ;      CG301      CG321       HGA2
   67    33    68	5 ;       HGA2      CG321       HGA2
   33    34    36	5 ;      CG321      CG301      CG331
   33    34    37	5 ;      CG321      CG301      CG331
   33    34    35	5 ;      CG321      CG301      CG331
   36    34    37	5 ;      CG331      CG301      CG331
   36    34    35	5 ;      CG331      CG301      CG331
   37    34    35	5 ;      CG331      CG301      CG331
   34    35    69	5 ;      CG301      CG331       HGA3
   34    35    70	5 ;      CG301      CG331       HGA3
   34    35    71	5 ;      CG301      CG331       HGA3
   69    35    70	5 ;       HGA3      CG331       HGA3
   69    35    71	5 ;       HGA3      CG331       HGA3
   70    35    71	5 ;       HGA3      CG331       HGA3
   34    36    72	5 ;      CG301      CG331       HGA3
   34    36    73	5 ;      CG301      CG331       HGA3
   34    36    74	5 ;      CG301      CG331       HGA3
   72    36    73	5 ;       HGA3      CG331       HGA3
   72    36    74	5 ;       HGA3      CG331       HGA3
   73    36    74	5 ;       HGA3      CG331       HGA3
   34    37    75	5 ;      CG301      CG331       HGA3
   34    37    76	5 ;      CG301      CG331       HGA3
   34    37    77	5 ;      CG301      CG331       HGA3
   75    37    76	5 ;       HGA3      CG331       HGA3
   75    37    77	5 ;       HGA3      CG331       HGA3
   76    37    77	5 ;       HGA3      CG331       HGA3
   39    38    11	5 ;      CG2O1      NG2S1      CG311
   39    38    41	5 ;      CG2O1      NG2S1       HGP1
   11    38    41	5 ;      CG311      NG2S1       HGP1
   40    39    42	5 ;      OG2D1      CG2O1      CG321
   40    39    38	5 ;      OG2D1      CG2O1      NG2S1
   42    39    38	5 ;      CG321      CG2O1      NG2S1
   39    42    43	5 ;      CG2O1      CG321      OG301
   39    42    78	5 ;      CG2O1      CG321       HGA2
   39    42    79	5 ;      CG2O1      CG321       HGA2
   43    42    78	5 ;      OG301      CG321       HGA2
   43    42    79	5 ;      OG301      CG321       HGA2
   78    42    79	5 ;       HGA2      CG321       HGA2
   42    43    44	5 ;      CG321      OG301      CG331
   43    44    80	5 ;      OG301      CG331       HGA3
   43    44    81	5 ;      OG301      CG331       HGA3
   43    44    82	5 ;      OG301      CG331       HGA3
   80    44    81	5 ;       HGA3      CG331       HGA3
   80    44    82	5 ;       HGA3      CG331       HGA3
   81    44    82	5 ;       HGA3      CG331       HGA3

[ dihedrals ]
;	ai	  aj	ak	  al funct			  c0			c1			  c2			c3			  c4			c5
    3     2     7     6	 9 ;     CG2R61     CG2R66     CG2R61     CG2R61
    3     2     7    10	 9 ;     CG2R61     CG2R66     CG2R61      CG321
    1     2     7     6	 9 ;       FGR1     CG2R66     CG2R61     CG2R61
    1     2     7    10	 9 ;       FGR1     CG2R66     CG2R61      CG321
    7     2     3     4	 9 ;     CG2R61     CG2R66     CG2R61     CG2R61
    7     2     3    45	 9 ;     CG2R61     CG2R66     CG2R61      HGR62
    1     2     3     4	 9 ;       FGR1     CG2R66     CG2R61     CG2R61
    1     2     3    45	 9 ;       FGR1     CG2R66     CG2R61      HGR62
    2     3     4     5	 9 ;     CG2R66     CG2R61     CG2R61     CG2R61
    2     3     4    46	 9 ;     CG2R66     CG2R61     CG2R61      HGR61
   45     3     4     5	 9 ;      HGR62     CG2R61     CG2R61     CG2R61
   45     3     4    46	 9 ;      HGR62     CG2R61     CG2R61      HGR61
    3     4     5     8	 9 ;     CG2R61     CG2R61     CG2R61      CG1T1
    3     4     5     6	 9 ;     CG2R61     CG2R61     CG2R61     CG2R61
   46     4     5     8	 9 ;      HGR61     CG2R61     CG2R61      CG1T1
   46     4     5     6	 9 ;      HGR61     CG2R61     CG2R61     CG2R61
    8     5     6     7	 9 ;      CG1T1     CG2R61     CG2R61     CG2R61
    8     5     6    47	 9 ;      CG1T1     CG2R61     CG2R61      HGR61
    4     5     6     7	 9 ;     CG2R61     CG2R61     CG2R61     CG2R61
    4     5     6    47	 9 ;     CG2R61     CG2R61     CG2R61      HGR61
    5     6     7    10	 9 ;     CG2R61     CG2R61     CG2R61      CG321
    5     6     7     2	 9 ;     CG2R61     CG2R61     CG2R61     CG2R66
   47     6     7    10	 9 ;      HGR61     CG2R61     CG2R61      CG321
   47     6     7     2	 9 ;      HGR61     CG2R61     CG2R61     CG2R66
    6     7    10    11	 9 ;     CG2R61     CG2R61      CG321      CG311
    6     7    10    49	 9 ;     CG2R61     CG2R61      CG321       HGA2
    6     7    10    50	 9 ;     CG2R61     CG2R61      CG321       HGA2
    2     7    10    11	 9 ;     CG2R66     CG2R61      CG321      CG311
    2     7    10    49	 9 ;     CG2R66     CG2R61      CG321       HGA2
    2     7    10    50	 9 ;     CG2R66     CG2R61      CG321       HGA2
    7    10    11    12	 9 ;     CG2R61      CG321      CG311      CG311
    7    10    11    38	 9 ;     CG2R61      CG321      CG311      NG2S1
    7    10    11    51	 9 ;     CG2R61      CG321      CG311       HGA1
   49    10    11    12	 9 ;       HGA2      CG321      CG311      CG311
   49    10    11    38	 9 ;       HGA2      CG321      CG311      NG2S1
   49    10    11    51	 9 ;       HGA2      CG321      CG311       HGA1
   50    10    11    12	 9 ;       HGA2      CG321      CG311      CG311
   50    10    11    38	 9 ;       HGA2      CG321      CG311      NG2S1
   50    10    11    51	 9 ;       HGA2      CG321      CG311       HGA1
   38    11    12    15	 9 ;      NG2S1      CG311      CG311      CG324
   38    11    12    13	 9 ;      NG2S1      CG311      CG311      OG311
   38    11    12    52	 9 ;      NG2S1      CG311      CG311       HGA1
   10    11    12    15	 9 ;      CG321      CG311      CG311      CG324
   10    11    12    13	 9 ;      CG321      CG311      CG311      OG311
   10    11    12    52	 9 ;      CG321      CG311      CG311       HGA1
   51    11    12    15	 9 ;       HGA1      CG311      CG311      CG324
   51    11    12    13	 9 ;       HGA1      CG311      CG311      OG311
   51    11    12    52	 9 ;       HGA1      CG311      CG311       HGA1
   12    11    38    39	 9 ;      CG311      CG311      NG2S1      CG2O1
   12    11    38    41	 9 ;      CG311      CG311      NG2S1       HGP1
   10    11    38    39	 9 ;      CG321      CG311      NG2S1      CG2O1
   10    11    38    41	 9 ;      CG321      CG311      NG2S1       HGP1
   51    11    38    39	 9 ;       HGA1      CG311      NG2S1      CG2O1
   51    11    38    41	 9 ;       HGA1      CG311      NG2S1       HGP1
   11    12    15    16	 9 ;      CG311      CG311      CG324      NG3P2
   11    12    15    53	 9 ;      CG311      CG311      CG324       HGA2
   11    12    15    54	 9 ;      CG311      CG311      CG324       HGA2
   13    12    15    16	 9 ;      OG311      CG311      CG324      NG3P2
   13    12    15    53	 9 ;      OG311      CG311      CG324       HGA2
   13    12    15    54	 9 ;      OG311      CG311      CG324       HGA2
   52    12    15    16	 9 ;       HGA1      CG311      CG324      NG3P2
   52    12    15    53	 9 ;       HGA1      CG311      CG324       HGA2
   52    12    15    54	 9 ;       HGA1      CG311      CG324       HGA2
   15    12    13    14	 9 ;      CG324      CG311      OG311       HGP1
   11    12    13    14	 9 ;      CG311      CG311      OG311       HGP1
   52    12    13    14	 9 ;       HGA1      CG311      OG311       HGP1
   12    15    16    17	 9 ;      CG311      CG324      NG3P2       HGP2
   12    15    16    18	 9 ;      CG311      CG324      NG3P2       HGP2
   12    15    16    19	 9 ;      CG311      CG324      NG3P2      CG314
   53    15    16    17	 9 ;       HGA2      CG324      NG3P2       HGP2
   53    15    16    18	 9 ;       HGA2      CG324      NG3P2       HGP2
   53    15    16    19	 9 ;       HGA2      CG324      NG3P2      CG314
   54    15    16    17	 9 ;       HGA2      CG324      NG3P2       HGP2
   54    15    16    18	 9 ;       HGA2      CG324      NG3P2       HGP2
   54    15    16    19	 9 ;       HGA2      CG324      NG3P2      CG314
   15    16    19    20	 9 ;      CG324      NG3P2      CG314      CG321
   15    16    19    27	 9 ;      CG324      NG3P2      CG314     CG2DC1
   15    16    19    55	 9 ;      CG324      NG3P2      CG314       HGA1
   17    16    19    20	 9 ;       HGP2      NG3P2      CG314      CG321
   17    16    19    27	 9 ;       HGP2      NG3P2      CG314     CG2DC1
   17    16    19    55	 9 ;       HGP2      NG3P2      CG314       HGA1
   18    16    19    20	 9 ;       HGP2      NG3P2      CG314      CG321
   18    16    19    27	 9 ;       HGP2      NG3P2      CG314     CG2DC1
   18    16    19    55	 9 ;       HGP2      NG3P2      CG314       HGA1
   16    19    20    21	 9 ;      NG3P2      CG314      CG321     CG3C41
   16    19    20    56	 9 ;      NG3P2      CG314      CG321       HGA2
   16    19    20    57	 9 ;      NG3P2      CG314      CG321       HGA2
   27    19    20    21	 9 ;     CG2DC1      CG314      CG321     CG3C41
   27    19    20    56	 9 ;     CG2DC1      CG314      CG321       HGA2
   27    19    20    57	 9 ;     CG2DC1      CG314      CG321       HGA2
   55    19    20    21	 9 ;       HGA1      CG314      CG321     CG3C41
   55    19    20    56	 9 ;       HGA1      CG314      CG321       HGA2
   55    19    20    57	 9 ;       HGA1      CG314      CG321       HGA2
   16    19    27    25	 9 ;      NG3P2      CG314     CG2DC1      CG311
   16    19    27    31	 9 ;      NG3P2      CG314     CG2DC1     CG2DC1
   20    19    27    25	 9 ;      CG321      CG314     CG2DC1      CG311
   20    19    27    31	 9 ;      CG321      CG314     CG2DC1     CG2DC1
   55    19    27    25	 9 ;       HGA1      CG314     CG2DC1      CG311
   55    19    27    31	 9 ;       HGA1      CG314     CG2DC1     CG2DC1
   19    20    21    22	 9 ;      CG314      CG321     CG3C41     OG3C61
   19    20    21    23	 9 ;      CG314      CG321     CG3C41     CG3C41
   19    20    21    24	 9 ;      CG314      CG321     CG3C41     CG3C41
   56    20    21    22	 9 ;       HGA2      CG321     CG3C41     OG3C61
   56    20    21    23	 9 ;       HGA2      CG321     CG3C41     CG3C41
   56    20    21    24	 9 ;       HGA2      CG321     CG3C41     CG3C41
   57    20    21    22	 9 ;       HGA2      CG321     CG3C41     OG3C61
   57    20    21    23	 9 ;       HGA2      CG321     CG3C41     CG3C41
   57    20    21    24	 9 ;       HGA2      CG321     CG3C41     CG3C41
   23    21    22    25	 9 ;     CG3C41     CG3C41     OG3C61      CG311
   20    21    22    25	 9 ;      CG321     CG3C41     OG3C61      CG311
   24    21    22    25	 9 ;     CG3C41     CG3C41     OG3C61      CG311
   22    21    23    32	 9 ;     OG3C61     CG3C41     CG3C41     CG3C41
   22    21    23    58	 9 ;     OG3C61     CG3C41     CG3C41       HGA2
   22    21    23    59	 9 ;     OG3C61     CG3C41     CG3C41       HGA2
   20    21    23    32	 9 ;      CG321     CG3C41     CG3C41     CG3C41
   20    21    23    58	 9 ;      CG321     CG3C41     CG3C41       HGA2
   20    21    23    59	 9 ;      CG321     CG3C41     CG3C41       HGA2
   24    21    23    32	 9 ;     CG3C41     CG3C41     CG3C41     CG3C41
   24    21    23    58	 9 ;     CG3C41     CG3C41     CG3C41       HGA2
   24    21    23    59	 9 ;     CG3C41     CG3C41     CG3C41       HGA2
   22    21    24    32	 9 ;     OG3C61     CG3C41     CG3C41     CG3C41
   22    21    24    60	 9 ;     OG3C61     CG3C41     CG3C41       HGA2
   22    21    24    61	 9 ;     OG3C61     CG3C41     CG3C41       HGA2
   23    21    24    32	 9 ;     CG3C41     CG3C41     CG3C41     CG3C41
   23    21    24    60	 9 ;     CG3C41     CG3C41     CG3C41       HGA2
   23    21    24    61	 9 ;     CG3C41     CG3C41     CG3C41       HGA2
   20    21    24    32	 9 ;      CG321     CG3C41     CG3C41     CG3C41
   20    21    24    60	 9 ;      CG321     CG3C41     CG3C41       HGA2
   20    21    24    61	 9 ;      CG321     CG3C41     CG3C41       HGA2
   21    22    25    26	 9 ;     CG3C41     OG3C61      CG311      NG311
   21    22    25    27	 9 ;     CG3C41     OG3C61      CG311     CG2DC1
   21    22    25    62	 9 ;     CG3C41     OG3C61      CG311       HGA1
   21    23    32    24	 9 ;     CG3C41     CG3C41     CG3C41     CG3C41
   21    23    32    65	 9 ;     CG3C41     CG3C41     CG3C41       HGA2
   21    23    32    66	 9 ;     CG3C41     CG3C41     CG3C41       HGA2
   58    23    32    24	 9 ;       HGA2     CG3C41     CG3C41     CG3C41
   58    23    32    65	 9 ;       HGA2     CG3C41     CG3C41       HGA2
   58    23    32    66	 9 ;       HGA2     CG3C41     CG3C41       HGA2
   59    23    32    24	 9 ;       HGA2     CG3C41     CG3C41     CG3C41
   59    23    32    65	 9 ;       HGA2     CG3C41     CG3C41       HGA2
   59    23    32    66	 9 ;       HGA2     CG3C41     CG3C41       HGA2
   21    24    32    23	 9 ;     CG3C41     CG3C41     CG3C41     CG3C41
   21    24    32    65	 9 ;     CG3C41     CG3C41     CG3C41       HGA2
   21    24    32    66	 9 ;     CG3C41     CG3C41     CG3C41       HGA2
   60    24    32    23	 9 ;       HGA2     CG3C41     CG3C41     CG3C41
   60    24    32    65	 9 ;       HGA2     CG3C41     CG3C41       HGA2
   60    24    32    66	 9 ;       HGA2     CG3C41     CG3C41       HGA2
   61    24    32    23	 9 ;       HGA2     CG3C41     CG3C41     CG3C41
   61    24    32    65	 9 ;       HGA2     CG3C41     CG3C41       HGA2
   61    24    32    66	 9 ;       HGA2     CG3C41     CG3C41       HGA2
   22    25    26    29	 9 ;     OG3C61      CG311      NG311     HGPAM1
   22    25    26    28	 9 ;     OG3C61      CG311      NG311     CG2D2O
   27    25    26    29	 9 ;     CG2DC1      CG311      NG311     HGPAM1
   27    25    26    28	 9 ;     CG2DC1      CG311      NG311     CG2D2O
   62    25    26    29	 9 ;       HGA1      CG311      NG311     HGPAM1
   62    25    26    28	 9 ;       HGA1      CG311      NG311     CG2D2O
   22    25    27    19	 9 ;     OG3C61      CG311     CG2DC1      CG314
   22    25    27    31	 9 ;     OG3C61      CG311     CG2DC1     CG2DC1
   26    25    27    19	 9 ;      NG311      CG311     CG2DC1      CG314
   26    25    27    31	 9 ;      NG311      CG311     CG2DC1     CG2DC1
   62    25    27    19	 9 ;       HGA1      CG311     CG2DC1      CG314
   62    25    27    31	 9 ;       HGA1      CG311     CG2DC1     CG2DC1
   29    26    28    30	 9 ;     HGPAM1      NG311     CG2D2O     CG2DC2
   29    26    28    63	 9 ;     HGPAM1      NG311     CG2D2O       HGA4
   25    26    28    30	 9 ;      CG311      NG311     CG2D2O     CG2DC2
   25    26    28    63	 9 ;      CG311      NG311     CG2D2O       HGA4
   25    27    31    30	 9 ;      CG311     CG2DC1     CG2DC1     CG2DC2
   25    27    31    64	 9 ;      CG311     CG2DC1     CG2DC1       HGA4
   19    27    31    30	 9 ;      CG314     CG2DC1     CG2DC1     CG2DC2
   19    27    31    64	 9 ;      CG314     CG2DC1     CG2DC1       HGA4
   26    28    30    31	 9 ;      NG311     CG2D2O     CG2DC2     CG2DC1
   26    28    30    33	 9 ;      NG311     CG2D2O     CG2DC2      CG321
   63    28    30    31	 9 ;       HGA4     CG2D2O     CG2DC2     CG2DC1
   63    28    30    33	 9 ;       HGA4     CG2D2O     CG2DC2      CG321
   28    30    31    27	 9 ;     CG2D2O     CG2DC2     CG2DC1     CG2DC1
   28    30    31    64	 9 ;     CG2D2O     CG2DC2     CG2DC1       HGA4
   33    30    31    27	 9 ;      CG321     CG2DC2     CG2DC1     CG2DC1
   33    30    31    64	 9 ;      CG321     CG2DC2     CG2DC1       HGA4
   28    30    33    34	 9 ;     CG2D2O     CG2DC2      CG321      CG301
   28    30    33    67	 9 ;     CG2D2O     CG2DC2      CG321       HGA2
   28    30    33    68	 9 ;     CG2D2O     CG2DC2      CG321       HGA2
   31    30    33    34	 9 ;     CG2DC1     CG2DC2      CG321      CG301
   31    30    33    67	 9 ;     CG2DC1     CG2DC2      CG321       HGA2
   31    30    33    68	 9 ;     CG2DC1     CG2DC2      CG321       HGA2
   30    33    34    36	 9 ;     CG2DC2      CG321      CG301      CG331
   30    33    34    37	 9 ;     CG2DC2      CG321      CG301      CG331
   30    33    34    35	 9 ;     CG2DC2      CG321      CG301      CG331
   67    33    34    36	 9 ;       HGA2      CG321      CG301      CG331
   67    33    34    37	 9 ;       HGA2      CG321      CG301      CG331
   67    33    34    35	 9 ;       HGA2      CG321      CG301      CG331
   68    33    34    36	 9 ;       HGA2      CG321      CG301      CG331
   68    33    34    37	 9 ;       HGA2      CG321      CG301      CG331
   68    33    34    35	 9 ;       HGA2      CG321      CG301      CG331
   33    34    36    72	 9 ;      CG321      CG301      CG331       HGA3
   33    34    36    73	 9 ;      CG321      CG301      CG331       HGA3
   33    34    36    74	 9 ;      CG321      CG301      CG331       HGA3
   37    34    36    72	 9 ;      CG331      CG301      CG331       HGA3
   37    34    36    73	 9 ;      CG331      CG301      CG331       HGA3
   37    34    36    74	 9 ;      CG331      CG301      CG331       HGA3
   35    34    36    72	 9 ;      CG331      CG301      CG331       HGA3
   35    34    36    73	 9 ;      CG331      CG301      CG331       HGA3
   35    34    36    74	 9 ;      CG331      CG301      CG331       HGA3
   33    34    37    75	 9 ;      CG321      CG301      CG331       HGA3
   33    34    37    76	 9 ;      CG321      CG301      CG331       HGA3
   33    34    37    77	 9 ;      CG321      CG301      CG331       HGA3
   36    34    37    75	 9 ;      CG331      CG301      CG331       HGA3
   36    34    37    76	 9 ;      CG331      CG301      CG331       HGA3
   36    34    37    77	 9 ;      CG331      CG301      CG331       HGA3
   35    34    37    75	 9 ;      CG331      CG301      CG331       HGA3
   35    34    37    76	 9 ;      CG331      CG301      CG331       HGA3
   35    34    37    77	 9 ;      CG331      CG301      CG331       HGA3
   33    34    35    69	 9 ;      CG321      CG301      CG331       HGA3
   33    34    35    70	 9 ;      CG321      CG301      CG331       HGA3
   33    34    35    71	 9 ;      CG321      CG301      CG331       HGA3
   36    34    35    69	 9 ;      CG331      CG301      CG331       HGA3
   36    34    35    70	 9 ;      CG331      CG301      CG331       HGA3
   36    34    35    71	 9 ;      CG331      CG301      CG331       HGA3
   37    34    35    69	 9 ;      CG331      CG301      CG331       HGA3
   37    34    35    70	 9 ;      CG331      CG301      CG331       HGA3
   37    34    35    71	 9 ;      CG331      CG301      CG331       HGA3
   11    38    39    40	 9 ;      CG311      NG2S1      CG2O1      OG2D1
   11    38    39    42	 9 ;      CG311      NG2S1      CG2O1      CG321
   41    38    39    40	 9 ;       HGP1      NG2S1      CG2O1      OG2D1
   41    38    39    42	 9 ;       HGP1      NG2S1      CG2O1      CG321
   40    39    42    43	 9 ;      OG2D1      CG2O1      CG321      OG301
   40    39    42    78	 9 ;      OG2D1      CG2O1      CG321       HGA2
   40    39    42    79	 9 ;      OG2D1      CG2O1      CG321       HGA2
   38    39    42    43	 9 ;      NG2S1      CG2O1      CG321      OG301
   38    39    42    78	 9 ;      NG2S1      CG2O1      CG321       HGA2
   38    39    42    79	 9 ;      NG2S1      CG2O1      CG321       HGA2
   39    42    43    44	 9 ;      CG2O1      CG321      OG301      CG331
   78    42    43    44	 9 ;       HGA2      CG321      OG301      CG331
   79    42    43    44	 9 ;       HGA2      CG321      OG301      CG331
   42    43    44    80	 9 ;      CG321      OG301      CG331       HGA3
   42    43    44    81	 9 ;      CG321      OG301      CG331       HGA3
   42    43    44    82	 9 ;      CG321      OG301      CG331       HGA3

[ dihedrals ]
;	ai	  aj	ak	  al funct			  c0			c1			  c2			c3
   28    30    26    63	 2
   39    42    38    40	 2

