GRowing Old MAkes el Chrono Sweat
   70
    1LIG      S    1  -1.259   0.571  -1.974
    1LIG     O1    2  -1.309   0.440  -1.934
    1LIG     O2    3  -1.206   0.596  -2.107
    1LIG     C1    4  -1.384   0.692  -1.938
    1LIG     C2    5  -1.426   0.684  -1.790
    1LIG     C3    6  -1.305   0.708  -1.696
    1LIG     C4    7  -1.188   0.607  -1.716
    1LIG     C5    8  -1.133   0.613  -1.857
    1LIG     C6    9  -1.541   0.783  -1.762
    1LIG     C7   10  -1.658   0.719  -1.692
    1LIG     C8   11  -1.667   0.579  -1.687
    1LIG     C9   12  -1.767   0.518  -1.608
    1LIG    C10   13  -1.860   0.600  -1.544
    1LIG    C11   14  -1.796   0.383  -1.572
    1LIG     N1   15  -1.942   0.517  -1.470
    1LIG    C12   16  -1.859   0.739  -1.556
    1LIG    C13   17  -1.904   0.387  -1.486
    1LIG     H1   18  -2.017   0.550  -1.410
    1LIG    C14   19  -1.756   0.797  -1.630
    1LIG    C15   20  -1.719   0.261  -1.614
    1LIG    C16   21  -1.578   0.250  -1.558
    1LIG     F1   22  -1.553   0.333  -1.454
    1LIG     F2   23  -1.555   0.124  -1.513
    1LIG     F3   24  -1.486   0.275  -1.653
    1LIG     O3   25  -1.340   0.698  -1.558
    1LIG     H2   26  -1.263   0.713  -1.499
    1LIG     N2   27  -1.235   0.469  -1.677
    1LIG     H3   28  -1.323   0.478  -1.621
    1LIG     H4   29  -1.262   0.413  -1.760
    1LIG    C17   30  -1.143   0.378  -1.602
    1LIG    C18   31  -1.206   0.341  -1.472
    1LIG    C19   32  -1.221   0.205  -1.440
    1LIG    C20   33  -1.259   0.162  -1.312
    1LIG    C21   34  -1.287   0.261  -1.217
    1LIG    C22   35  -1.277   0.397  -1.248
    1LIG    C23   36  -1.235   0.437  -1.374
    1LIG    C24   37  -1.260   0.013  -1.275
    1LIG    C25   38  -1.126  -0.058  -1.304
    1LIG    C26   39  -1.287  -0.001  -1.123
    1LIG    C27   40  -1.370  -0.064  -1.352
    1LIG    HC2   41  -1.344   0.791  -1.958
    1LIG    HC3   42  -1.471   0.674  -2.001
    1LIG     HC   43  -1.464   0.583  -1.771
    1LIG    HC1   44  -1.267   0.808  -1.715
    1LIG    HC4   45  -1.108   0.635  -1.648
    1LIG    HC5   46  -1.050   0.543  -1.866
    1LIG    HC6   47  -1.097   0.714  -1.877
    1LIG    HC7   48  -1.575   0.825  -1.857
    1LIG    HC8   49  -1.503   0.864  -1.699
    1LIG    HC9   50  -1.597   0.518  -1.743
    1LIG   HC10   51  -1.936   0.799  -1.509
    1LIG   HC11   52  -1.950   0.301  -1.439
    1LIG   HC12   53  -1.752   0.904  -1.640
    1LIG   HC13   54  -1.713   0.261  -1.723
    1LIG   HC14   55  -1.776   0.173  -1.583
    1LIG   HC15   56  -1.048   0.429  -1.584
    1LIG   HC16   57  -1.125   0.288  -1.661
    1LIG   HC17   58  -1.203   0.131  -1.517
    1LIG   HC18   59  -1.318   0.231  -1.117
    1LIG   HC19   60  -1.301   0.471  -1.173
    1LIG   HC20   61  -1.225   0.542  -1.397
    1LIG   HC21   62  -1.466  -0.017  -1.334
    1LIG   HC22   63  -1.372  -0.167  -1.318
    1LIG   HC23   64  -1.347  -0.061  -1.459
    1LIG   HC24   65  -1.286  -0.106  -1.095
    1LIG   HC25   66  -1.210   0.053  -1.068
    1LIG   HC26   67  -1.385   0.042  -1.100
    1LIG   HC27   68  -1.046  -0.007  -1.251
    1LIG   HC28   69  -1.131  -0.162  -1.271
    1LIG   HC29   70  -1.106  -0.055  -1.411
   0.00000   0.00000   0.00000
