GRowing Old MAkes el Chrono Sweat
   26
    1LIG     O2    1  -1.333   0.657  -1.679
    1LIG     C1    2  -1.345   0.464  -1.819
    1LIG     C2    3  -1.365   0.605  -1.784
    1LIG     O3    4  -1.307   0.210  -1.919
    1LIG     C3    5  -1.150   0.155  -1.750
    1LIG     C4    6  -1.081   0.196  -1.635
    1LIG     C5    7  -1.138   0.022  -1.795
    1LIG     C6    8  -1.002   0.104  -1.565
    1LIG     C7    9  -1.059  -0.068  -1.726
    1LIG     C8   10  -0.991  -0.027  -1.611
    1LIG     C9   11  -1.239   0.391  -1.780
    1LIG    C10   12  -1.121   0.435  -1.698
    1LIG    C11   13  -1.238   0.248  -1.825
    1LIG    C12   14  -1.095   0.337  -1.584
    1LIG     O1   15  -0.915  -0.120  -1.546
    1LIG     H1   16  -0.823  -0.113  -1.578
    1LIG     O4   17  -1.426   0.673  -1.884
    1LIG    H10   18  -1.377   0.750  -1.918
    1LIG     H2   19  -1.416   0.418  -1.878
    1LIG     H3   20  -1.189  -0.008  -1.880
    1LIG     H4   21  -0.952   0.132  -1.479
    1LIG     H5   22  -1.049  -0.166  -1.759
    1LIG     H6   23  -1.140   0.532  -1.658
    1LIG     H7   24  -1.035   0.437  -1.762
    1LIG     H8   25  -1.177   0.341  -1.515
    1LIG     H9   26  -1.004   0.365  -1.535
   0.00000   0.00000   0.00000
