Giant Rising Ordinary Mutants for A Clerical Setup
   68
    1LIG     C1    1  -1.151   0.576  -1.516
    1LIG     C2    2  -1.197   0.431  -1.537
    1LIG     C3    3  -1.232   0.358  -1.406
    1LIG     C4    4  -1.195   0.211  -1.411
    1LIG     C5    5  -1.079   0.164  -1.347
    1LIG     C6    6  -1.035   0.033  -1.369
    1LIG     F1    7  -0.921  -0.008  -1.312
    1LIG     C7    8  -1.103  -0.051  -1.455
    1LIG     C8    9  -1.222  -0.006  -1.512
    1LIG     C9   10  -1.269   0.124  -1.491
    1LIG     F2   11  -1.287  -0.085  -1.598
    1LIG     N1   12  -1.311   0.431  -1.632
    1LIG    C10   13  -1.286   0.412  -1.767
    1LIG     O1   14  -1.174   0.396  -1.809
    1LIG    C11   15  -1.406   0.418  -1.862
    1LIG     H1   16  -1.398   0.474  -1.605
    1LIG     O2   17  -1.050   0.611  -1.614
    1LIG     H2   18  -1.039   0.534  -1.673
    1LIG    C12   19  -1.258   0.688  -1.492
    1LIG     N2   20  -1.308   0.788  -1.595
    1LIG     H3   21  -1.296   0.877  -1.542
    1LIG     H4   22  -1.229   0.800  -1.661
    1LIG    C13   23  -1.428   0.834  -1.681
    1LIG    C14   24  -1.422   0.842  -1.834
    1LIG    C15   25  -1.453   0.964  -1.754
    1LIG    C16   26  -1.559   0.771  -1.622
    1LIG     N3   27  -1.580   0.640  -1.643
    1LIG     N4   28  -1.703   0.621  -1.589
    1LIG     HN   29  -1.519   0.572  -1.689
    1LIG    C17   30  -1.747   0.727  -1.515
    1LIG    C18   31  -1.661   0.830  -1.544
    1LIG    C19   32  -1.785   0.512  -1.638
    1LIG    C20   33  -1.774   0.379  -1.561
    1LIG    C21   34  -1.833   0.392  -1.419
    1LIG    C22   35  -1.857   0.276  -1.640
    1LIG    C23   36  -1.629   0.331  -1.551
    1LIG     HC   37  -1.096   0.572  -1.422
    1LIG    HC1   38  -1.115   0.377  -1.584
    1LIG    HC2   39  -1.339   0.367  -1.388
    1LIG    HC3   40  -1.178   0.405  -1.323
    1LIG    HC4   41  -1.024   0.228  -1.280
    1LIG    HC5   42  -1.066  -0.150  -1.476
    1LIG    HC6   43  -1.362   0.156  -1.536
    1LIG    HC7   44  -1.385   0.358  -1.950
    1LIG    HC8   45  -1.423   0.522  -1.891
    1LIG    HC9   46  -1.494   0.380  -1.811
    1LIG   HC10   47  -1.219   0.749  -1.411
    1LIG   HC11   48  -1.347   0.638  -1.453
    1LIG   HC12   49  -1.326   0.833  -1.885
    1LIG   HC13   50  -1.507   0.798  -1.886
    1LIG   HC14   51  -1.380   1.045  -1.747
    1LIG   HC15   52  -1.558   0.996  -1.757
    1LIG   HC16   53  -1.831   0.729  -1.448
    1LIG   HC17   54  -1.670   0.934  -1.515
    1LIG   HC18   55  -1.888   0.544  -1.635
    1LIG   HC19   56  -1.758   0.493  -1.742
    1LIG   HC20   57  -1.775   0.465  -1.362
    1LIG   HC21   58  -1.937   0.424  -1.426
    1LIG   HC22   59  -1.828   0.295  -1.369
    1LIG   HC23   60  -1.853   0.180  -1.589
    1LIG   HC24   61  -1.815   0.266  -1.740
    1LIG   HC25   62  -1.960   0.309  -1.646
    1LIG   HC26   63  -1.587   0.322  -1.651
    1LIG   HC27   64  -1.571   0.403  -1.493
    1LIG   HC28   65  -1.626   0.234  -1.501
    1LIG    H35   66  -1.613   0.795  -1.714
    1LIG    H36   67  -1.682   0.696  -1.433
    1LIG    H37   68  -1.604   0.809  -1.454
   0.00000   0.00000   0.00000
