GROup of MAchos and Cynical Suckers
   69
    1LIG     C1    1  -1.643   0.570  -1.701
    1LIG     C2    2  -1.512   0.535  -1.668
    1LIG     C3    3  -1.480   0.402  -1.636
    1LIG     C4    4  -1.579   0.303  -1.641
    1LIG     C5    5  -1.712   0.338  -1.675
    1LIG     C6    6  -1.742   0.471  -1.707
    1LIG     C7    7  -1.823   0.235  -1.669
    1LIG     O1    8  -1.948   0.292  -1.623
    1LIG     C8    9  -1.980   0.254  -1.488
    1LIG     C9   10  -2.089   0.145  -1.493
    1LIG    C10   11  -2.164   0.131  -1.360
    1LIG    C11   12  -2.168  -0.011  -1.309
    1LIG    C12   13  -2.188  -0.119  -1.396
    1LIG    C13   14  -2.196  -0.249  -1.347
    1LIG    C14   15  -2.182  -0.273  -1.211
    1LIG    C15   16  -2.159  -0.168  -1.123
    1LIG    C16   17  -2.152  -0.037  -1.172
    1LIG     N1   18  -2.185   0.177  -1.604
    1LIG     H1   19  -2.158   0.126  -1.689
    1LIG     H2   20  -2.281   0.148  -1.580
    1LIG     H3   21  -2.188   0.277  -1.627
    1LIG    C17   22  -1.345   0.378  -1.577
    1LIG     O2   23  -1.251   0.358  -1.654
    1LIG     N2   24  -1.331   0.383  -1.440
    1LIG     H4   25  -1.414   0.377  -1.382
    1LIG    C18   26  -1.201   0.359  -1.377
    1LIG    C19   27  -1.188   0.439  -1.246
    1LIG    C20   28  -1.175   0.211  -1.358
    1LIG    C21   29  -1.048   0.159  -1.387
    1LIG    C22   30  -1.018   0.025  -1.364
    1LIG    C23   31  -1.115  -0.060  -1.313
    1LIG      F   32  -1.087  -0.188  -1.289
    1LIG    C24   33  -1.243  -0.012  -1.286
    1LIG    C25   34  -1.273   0.122  -1.310
    1LIG     N3   35  -1.681   0.706  -1.719
    1LIG    C26   36  -1.677   0.762  -1.855
    1LIG      S   37  -1.782   0.780  -1.605
    1LIG     O3   38  -1.737   0.738  -1.474
    1LIG     O4   39  -1.920   0.762  -1.645
    1LIG    C27   40  -1.740   0.952  -1.623
    1LIG     HC   41  -1.435   0.611  -1.667
    1LIG    HC1   42  -1.554   0.201  -1.620
    1LIG    HC2   43  -1.842   0.498  -1.735
    1LIG    HC3   44  -1.838   0.194  -1.768
    1LIG    HC4   45  -1.793   0.155  -1.601
    1LIG    HC5   46  -2.018   0.340  -1.434
    1LIG    HC6   47  -1.892   0.215  -1.439
    1LIG    HC7   48  -2.041   0.049  -1.516
    1LIG    HC8   49  -2.266   0.166  -1.374
    1LIG    HC9   50  -2.115   0.194  -1.286
    1LIG   HC10   51  -2.198  -0.100  -1.502
    1LIG   HC11   52  -2.212  -0.331  -1.415
    1LIG   HC12   53  -2.188  -0.374  -1.173
    1LIG   HC13   54  -2.146  -0.187  -1.018
    1LIG   HC14   55  -2.134   0.045  -1.103
    1LIG   HC15   56  -1.125   0.397  -1.445
    1LIG   HC16   57  -1.208   0.544  -1.266
    1LIG   HC17   58  -1.260   0.401  -1.173
    1LIG   HC18   59  -1.087   0.427  -1.207
    1LIG   HC19   60  -0.971   0.225  -1.427
    1LIG   HC20   61  -0.919  -0.014  -1.385
    1LIG   HC21   62  -1.319  -0.079  -1.248
    1LIG   HC22   63  -1.373   0.159  -1.290
    1LIG   HC23   64  -1.654   0.683  -1.926
    1LIG   HC24   65  -1.774   0.806  -1.879
    1LIG   HC25   66  -1.600   0.840  -1.860
    1LIG   HC26   67  -1.768   1.007  -1.533
    1LIG   HC27   68  -1.632   0.962  -1.639
    1LIG   HC28   69  -1.793   0.994  -1.709
   0.00000   0.00000   0.00000
