; Created by cgenff_charmm2gmx.py

[ moleculetype ]
; Name			   nrexcl
LIG				 3

[ atoms ]
;	 nr		  type	resnr residue  atom   cgnr	   charge		mass  typeB    chargeB		massB
; residue	 1 LIG rtp LIG q	qsum
     1      SG311      1    LIG      S      1     -0.386     32.060   ;
     2      CG321      1    LIG     C1      2     -0.092     12.011   ;
     3      CG321      1    LIG     C2      3     -0.143     12.011   ;
     4      CG301      1    LIG     C3      4      0.300     12.011   ;
     5      NG311      1    LIG     N1      5     -0.929     14.007   ;
     6     HGPAM1      1    LIG     HN      6      0.341      1.008   ;
     7      CG311      1    LIG     C4      7      0.726     12.011   ;
     8      NG321      1    LIG     N2      8     -1.078     14.007   ;
     9      CG331      1    LIG     C5      9     -0.319     12.011   ;
    10     HGPAM2      1    LIG     H1     10      0.403      1.008   ;
    11     HGPAM2      1    LIG     H2     11      0.403      1.008   ;
    12     CG2R61      1    LIG     C6     12      0.066     12.011   ;
    13     CG2R61      1    LIG     C7     13     -0.122     12.011   ;
    14     CG2R61      1    LIG     C8     14     -0.118     12.011   ;
    15     CG2R61      1    LIG     C9     15      0.211     12.011   ;
    16     CG2R61      1    LIG    C10     16     -0.118     12.011   ;
    17     CG2R61      1    LIG    C11     17     -0.122     12.011   ;
    18      OG301      1    LIG      O     18     -0.383     15.999   ;
    19      CG331      1    LIG    C12     19     -0.094     12.011   ;
    20       HGA2      1    LIG     H3     20      0.090      1.008   ;
    21       HGA2      1    LIG     H4     21      0.090      1.008   ;
    22       HGA2      1    LIG     H5     22      0.090      1.008   ;
    23       HGA2      1    LIG     H6     23      0.090      1.008   ;
    24       HGA1      1    LIG     H7     24      0.090      1.008   ;
    25       HGA3      1    LIG     H8     25      0.090      1.008   ;
    26       HGA3      1    LIG     H9     26      0.090      1.008   ;
    27       HGA3      1    LIG    H10     27      0.090      1.008   ;
    28      HGR61      1    LIG    H11     28      0.116      1.008   ;
    29      HGR61      1    LIG    H12     29      0.116      1.008   ;
    30      HGR61      1    LIG    H13     30      0.116      1.008   ;
    31      HGR61      1    LIG    H14     31      0.116      1.008   ;
    32       HGA3      1    LIG    H15     32      0.090      1.008   ;
    33       HGA3      1    LIG    H16     33      0.090      1.008   ;
    34       HGA3      1    LIG    H17     34      0.090      1.008   ;

[ bonds ]
;	ai	  aj funct			  c0			c1			  c2			c3
    1     2	 1 ;       SG311      CG321
    1     7	 1 ;       SG311      CG311
    2     3	 1 ;       CG321      CG321
    2    20	 1 ;       CG321       HGA2
    2    21	 1 ;       CG321       HGA2
    3     4	 1 ;       CG321      CG301
    3    22	 1 ;       CG321       HGA2
    3    23	 1 ;       CG321       HGA2
    4     9	 1 ;       CG301      CG331
    4    12	 1 ;       CG301     CG2R61
    4     5	 1 ;       CG301      NG311
    5     7	 1 ;       NG311      CG311
    5     6	 1 ;       NG311     HGPAM1
    7     8	 1 ;       CG311      NG321
    7    24	 1 ;       CG311       HGA1
    8    10	 1 ;       NG321     HGPAM2
    8    11	 1 ;       NG321     HGPAM2
    9    25	 1 ;       CG331       HGA3
    9    26	 1 ;       CG331       HGA3
    9    27	 1 ;       CG331       HGA3
   12    13	 1 ;      CG2R61     CG2R61
   12    17	 1 ;      CG2R61     CG2R61
   13    14	 1 ;      CG2R61     CG2R61
   13    28	 1 ;      CG2R61      HGR61
   14    15	 1 ;      CG2R61     CG2R61
   14    29	 1 ;      CG2R61      HGR61
   15    16	 1 ;      CG2R61     CG2R61
   15    18	 1 ;      CG2R61      OG301
   16    17	 1 ;      CG2R61     CG2R61
   16    30	 1 ;      CG2R61      HGR61
   17    31	 1 ;      CG2R61      HGR61
   18    19	 1 ;       OG301      CG331
   19    32	 1 ;       CG331       HGA3
   19    33	 1 ;       CG331       HGA3
   19    34	 1 ;       CG331       HGA3

[ pairs ]
;	ai	  aj funct			  c0			c1			  c2			c3
    1     4	 1
    1    22	 1
    1    23	 1
    1     6	 1
    1    10	 1
    1    11	 1
    2     5	 1
    2     8	 1
    2    24	 1
    2     9	 1
    2    12	 1
    3     7	 1
    3    25	 1
    3    26	 1
    3    27	 1
    3    13	 1
    3    17	 1
    3     6	 1
    4    20	 1
    4    21	 1
    4     8	 1
    4    24	 1
    4    14	 1
    4    28	 1
    4    16	 1
    4    31	 1
    5    22	 1
    5    23	 1
    5    25	 1
    5    26	 1
    5    27	 1
    5    13	 1
    5    17	 1
    5    10	 1
    5    11	 1
    6     9	 1
    6    12	 1
    6     8	 1
    6    24	 1
    7    20	 1
    7    21	 1
    7     9	 1
    7    12	 1
    9    22	 1
    9    23	 1
    9    13	 1
    9    17	 1
   10    24	 1
   11    24	 1
   12    22	 1
   12    23	 1
   12    25	 1
   12    26	 1
   12    27	 1
   12    15	 1
   12    29	 1
   12    30	 1
   13    16	 1
   13    31	 1
   13    18	 1
   14    17	 1
   14    30	 1
   14    19	 1
   15    28	 1
   15    31	 1
   15    32	 1
   15    33	 1
   15    34	 1
   16    29	 1
   16    19	 1
   17    28	 1
   17    18	 1
   18    29	 1
   18    30	 1
   20    22	 1
   20    23	 1
   21    22	 1
   21    23	 1
   28    29	 1
   30    31	 1

[ angles ]
;	ai	  aj	ak funct			c0			  c1			c2			  c3
    2     1     7	5 ;      CG321      SG311      CG311
    3     2     1	5 ;      CG321      CG321      SG311
    3     2    20	5 ;      CG321      CG321       HGA2
    3     2    21	5 ;      CG321      CG321       HGA2
    1     2    20	5 ;      SG311      CG321       HGA2
    1     2    21	5 ;      SG311      CG321       HGA2
   20     2    21	5 ;       HGA2      CG321       HGA2
    2     3     4	5 ;      CG321      CG321      CG301
    2     3    22	5 ;      CG321      CG321       HGA2
    2     3    23	5 ;      CG321      CG321       HGA2
    4     3    22	5 ;      CG301      CG321       HGA2
    4     3    23	5 ;      CG301      CG321       HGA2
   22     3    23	5 ;       HGA2      CG321       HGA2
    3     4     9	5 ;      CG321      CG301      CG331
    3     4    12	5 ;      CG321      CG301     CG2R61
    3     4     5	5 ;      CG321      CG301      NG311
    9     4    12	5 ;      CG331      CG301     CG2R61
    9     4     5	5 ;      CG331      CG301      NG311
   12     4     5	5 ;     CG2R61      CG301      NG311
    4     5     7	5 ;      CG301      NG311      CG311
    4     5     6	5 ;      CG301      NG311     HGPAM1
    7     5     6	5 ;      CG311      NG311     HGPAM1
    1     7     5	5 ;      SG311      CG311      NG311
    1     7     8	5 ;      SG311      CG311      NG321
    1     7    24	5 ;      SG311      CG311       HGA1
    5     7     8	5 ;      NG311      CG311      NG321
    5     7    24	5 ;      NG311      CG311       HGA1
    8     7    24	5 ;      NG321      CG311       HGA1
    7     8    10	5 ;      CG311      NG321     HGPAM2
    7     8    11	5 ;      CG311      NG321     HGPAM2
   10     8    11	5 ;     HGPAM2      NG321     HGPAM2
    4     9    25	5 ;      CG301      CG331       HGA3
    4     9    26	5 ;      CG301      CG331       HGA3
    4     9    27	5 ;      CG301      CG331       HGA3
   25     9    26	5 ;       HGA3      CG331       HGA3
   25     9    27	5 ;       HGA3      CG331       HGA3
   26     9    27	5 ;       HGA3      CG331       HGA3
    4    12    13	5 ;      CG301     CG2R61     CG2R61
    4    12    17	5 ;      CG301     CG2R61     CG2R61
   13    12    17	5 ;     CG2R61     CG2R61     CG2R61
   12    13    14	5 ;     CG2R61     CG2R61     CG2R61
   12    13    28	5 ;     CG2R61     CG2R61      HGR61
   14    13    28	5 ;     CG2R61     CG2R61      HGR61
   13    14    15	5 ;     CG2R61     CG2R61     CG2R61
   13    14    29	5 ;     CG2R61     CG2R61      HGR61
   15    14    29	5 ;     CG2R61     CG2R61      HGR61
   14    15    16	5 ;     CG2R61     CG2R61     CG2R61
   14    15    18	5 ;     CG2R61     CG2R61      OG301
   16    15    18	5 ;     CG2R61     CG2R61      OG301
   17    16    15	5 ;     CG2R61     CG2R61     CG2R61
   17    16    30	5 ;     CG2R61     CG2R61      HGR61
   15    16    30	5 ;     CG2R61     CG2R61      HGR61
   12    17    16	5 ;     CG2R61     CG2R61     CG2R61
   12    17    31	5 ;     CG2R61     CG2R61      HGR61
   16    17    31	5 ;     CG2R61     CG2R61      HGR61
   15    18    19	5 ;     CG2R61      OG301      CG331
   18    19    32	5 ;      OG301      CG331       HGA3
   18    19    33	5 ;      OG301      CG331       HGA3
   18    19    34	5 ;      OG301      CG331       HGA3
   32    19    33	5 ;       HGA3      CG331       HGA3
   32    19    34	5 ;       HGA3      CG331       HGA3
   33    19    34	5 ;       HGA3      CG331       HGA3

[ dihedrals ]
;	ai	  aj	ak	  al funct			  c0			c1			  c2			c3			  c4			c5
    7     1     2     3	 9 ;      CG311      SG311      CG321      CG321
    7     1     2    20	 9 ;      CG311      SG311      CG321       HGA2
    7     1     2    21	 9 ;      CG311      SG311      CG321       HGA2
    2     1     7     5	 9 ;      CG321      SG311      CG311      NG311
    2     1     7     8	 9 ;      CG321      SG311      CG311      NG321
    2     1     7    24	 9 ;      CG321      SG311      CG311       HGA1
    1     2     3     4	 9 ;      SG311      CG321      CG321      CG301
    1     2     3    22	 9 ;      SG311      CG321      CG321       HGA2
    1     2     3    23	 9 ;      SG311      CG321      CG321       HGA2
   20     2     3     4	 9 ;       HGA2      CG321      CG321      CG301
   20     2     3    22	 9 ;       HGA2      CG321      CG321       HGA2
   20     2     3    23	 9 ;       HGA2      CG321      CG321       HGA2
   21     2     3     4	 9 ;       HGA2      CG321      CG321      CG301
   21     2     3    22	 9 ;       HGA2      CG321      CG321       HGA2
   21     2     3    23	 9 ;       HGA2      CG321      CG321       HGA2
    2     3     4     9	 9 ;      CG321      CG321      CG301      CG331
    2     3     4    12	 9 ;      CG321      CG321      CG301     CG2R61
    2     3     4     5	 9 ;      CG321      CG321      CG301      NG311
   22     3     4     9	 9 ;       HGA2      CG321      CG301      CG331
   22     3     4    12	 9 ;       HGA2      CG321      CG301     CG2R61
   22     3     4     5	 9 ;       HGA2      CG321      CG301      NG311
   23     3     4     9	 9 ;       HGA2      CG321      CG301      CG331
   23     3     4    12	 9 ;       HGA2      CG321      CG301     CG2R61
   23     3     4     5	 9 ;       HGA2      CG321      CG301      NG311
    3     4     9    25	 9 ;      CG321      CG301      CG331       HGA3
    3     4     9    26	 9 ;      CG321      CG301      CG331       HGA3
    3     4     9    27	 9 ;      CG321      CG301      CG331       HGA3
   12     4     9    25	 9 ;     CG2R61      CG301      CG331       HGA3
   12     4     9    26	 9 ;     CG2R61      CG301      CG331       HGA3
   12     4     9    27	 9 ;     CG2R61      CG301      CG331       HGA3
    5     4     9    25	 9 ;      NG311      CG301      CG331       HGA3
    5     4     9    26	 9 ;      NG311      CG301      CG331       HGA3
    5     4     9    27	 9 ;      NG311      CG301      CG331       HGA3
    3     4    12    13	 9 ;      CG321      CG301     CG2R61     CG2R61
    3     4    12    17	 9 ;      CG321      CG301     CG2R61     CG2R61
    9     4    12    13	 9 ;      CG331      CG301     CG2R61     CG2R61
    9     4    12    17	 9 ;      CG331      CG301     CG2R61     CG2R61
    5     4    12    13	 9 ;      NG311      CG301     CG2R61     CG2R61
    5     4    12    17	 9 ;      NG311      CG301     CG2R61     CG2R61
    3     4     5     7	 9 ;      CG321      CG301      NG311      CG311
    3     4     5     6	 9 ;      CG321      CG301      NG311     HGPAM1
    9     4     5     7	 9 ;      CG331      CG301      NG311      CG311
    9     4     5     6	 9 ;      CG331      CG301      NG311     HGPAM1
   12     4     5     7	 9 ;     CG2R61      CG301      NG311      CG311
   12     4     5     6	 9 ;     CG2R61      CG301      NG311     HGPAM1
    4     5     7     1	 9 ;      CG301      NG311      CG311      SG311
    4     5     7     8	 9 ;      CG301      NG311      CG311      NG321
    4     5     7    24	 9 ;      CG301      NG311      CG311       HGA1
    6     5     7     1	 9 ;     HGPAM1      NG311      CG311      SG311
    6     5     7     8	 9 ;     HGPAM1      NG311      CG311      NG321
    6     5     7    24	 9 ;     HGPAM1      NG311      CG311       HGA1
    1     7     8    10	 9 ;      SG311      CG311      NG321     HGPAM2
    1     7     8    11	 9 ;      SG311      CG311      NG321     HGPAM2
    5     7     8    10	 9 ;      NG311      CG311      NG321     HGPAM2
    5     7     8    11	 9 ;      NG311      CG311      NG321     HGPAM2
   24     7     8    10	 9 ;       HGA1      CG311      NG321     HGPAM2
   24     7     8    11	 9 ;       HGA1      CG311      NG321     HGPAM2
    4    12    13    14	 9 ;      CG301     CG2R61     CG2R61     CG2R61
    4    12    13    28	 9 ;      CG301     CG2R61     CG2R61      HGR61
   17    12    13    14	 9 ;     CG2R61     CG2R61     CG2R61     CG2R61
   17    12    13    28	 9 ;     CG2R61     CG2R61     CG2R61      HGR61
    4    12    17    16	 9 ;      CG301     CG2R61     CG2R61     CG2R61
    4    12    17    31	 9 ;      CG301     CG2R61     CG2R61      HGR61
   13    12    17    16	 9 ;     CG2R61     CG2R61     CG2R61     CG2R61
   13    12    17    31	 9 ;     CG2R61     CG2R61     CG2R61      HGR61
   12    13    14    15	 9 ;     CG2R61     CG2R61     CG2R61     CG2R61
   12    13    14    29	 9 ;     CG2R61     CG2R61     CG2R61      HGR61
   28    13    14    15	 9 ;      HGR61     CG2R61     CG2R61     CG2R61
   28    13    14    29	 9 ;      HGR61     CG2R61     CG2R61      HGR61
   13    14    15    16	 9 ;     CG2R61     CG2R61     CG2R61     CG2R61
   13    14    15    18	 9 ;     CG2R61     CG2R61     CG2R61      OG301
   29    14    15    16	 9 ;      HGR61     CG2R61     CG2R61     CG2R61
   29    14    15    18	 9 ;      HGR61     CG2R61     CG2R61      OG301
   14    15    16    17	 9 ;     CG2R61     CG2R61     CG2R61     CG2R61
   14    15    16    30	 9 ;     CG2R61     CG2R61     CG2R61      HGR61
   18    15    16    17	 9 ;      OG301     CG2R61     CG2R61     CG2R61
   18    15    16    30	 9 ;      OG301     CG2R61     CG2R61      HGR61
   14    15    18    19	 9 ;     CG2R61     CG2R61      OG301      CG331
   16    15    18    19	 9 ;     CG2R61     CG2R61      OG301      CG331
   15    16    17    12	 9 ;     CG2R61     CG2R61     CG2R61     CG2R61
   15    16    17    31	 9 ;     CG2R61     CG2R61     CG2R61      HGR61
   30    16    17    12	 9 ;      HGR61     CG2R61     CG2R61     CG2R61
   30    16    17    31	 9 ;      HGR61     CG2R61     CG2R61      HGR61
   15    18    19    32	 9 ;     CG2R61      OG301      CG331       HGA3
   15    18    19    33	 9 ;     CG2R61      OG301      CG331       HGA3
   15    18    19    34	 9 ;     CG2R61      OG301      CG331       HGA3

