GROwing Monsters And Cloning Shrimps
   34
    1LIG      S    1  -1.051   0.086  -1.750
    1LIG     C1    2  -1.207   0.124  -1.828
    1LIG     C2    3  -1.269   0.257  -1.794
    1LIG     C3    4  -1.249   0.317  -1.652
    1LIG     N1    5  -1.154   0.249  -1.565
    1LIG     HN    6  -1.150   0.283  -1.469
    1LIG     C4    7  -1.076   0.153  -1.594
    1LIG     N2    8  -1.000   0.098  -1.496
    1LIG     C5    9  -1.193   0.460  -1.672
    1LIG     H1   10  -0.918   0.046  -1.527
    1LIG     H2   11  -0.987   0.157  -1.415
    1LIG     C6   12  -1.383   0.315  -1.574
    1LIG     C7   13  -1.476   0.213  -1.603
    1LIG     C8   14  -1.595   0.200  -1.530
    1LIG     C9   15  -1.623   0.288  -1.425
    1LIG    C10   16  -1.531   0.388  -1.395
    1LIG    C11   17  -1.412   0.402  -1.469
    1LIG      O   18  -1.734   0.285  -1.345
    1LIG    C12   19  -1.713   0.313  -1.207
    1LIG     H3   20  -1.192   0.121  -1.934
    1LIG     H4   21  -1.276   0.050  -1.792
    1LIG     H5   22  -1.375   0.248  -1.809
    1LIG     H6   23  -1.217   0.326  -1.857
    1LIG     H7   24  -1.166   0.199  -1.629
    1LIG     H8   25  -1.259   0.516  -1.735
    1LIG     H9   26  -1.096   0.455  -1.717
    1LIG    H10   27  -1.186   0.509  -1.577
    1LIG    H11   28  -1.457   0.147  -1.680
    1LIG    H12   29  -1.662   0.125  -1.554
    1LIG    H13   30  -1.550   0.454  -1.318
    1LIG    H14   31  -1.346   0.477  -1.444
    1LIG    H15   32  -1.807   0.308  -1.156
    1LIG    H16   33  -1.671   0.411  -1.196
    1LIG    H17   34  -1.646   0.240  -1.166
   0.00000   0.00000   0.00000
