GROningen Mixture of Alchemy and Childrens' Stories
   90
    1LIG     C1    1  -1.251   0.296  -1.569
    1LIG     C2    2  -1.215   0.292  -1.418
    1LIG     C3    3  -1.207   0.156  -1.354
    1LIG     C4    4  -1.102   0.122  -1.269
    1LIG     C5    5  -1.101  -0.001  -1.204
    1LIG     F1    6  -0.999  -0.030  -1.122
    1LIG     C6    7  -1.204  -0.092  -1.220
    1LIG     C7    8  -1.309  -0.058  -1.304
    1LIG     C8    9  -1.312   0.064  -1.371
    1LIG     F2   10  -1.410  -0.144  -1.322
    1LIG     N1   11  -1.400   0.310  -1.582
    1LIG     C9   12  -1.479   0.390  -1.502
    1LIG     O1   13  -1.432   0.449  -1.404
    1LIG     H1   14  -1.438   0.289  -1.673
    1LIG    C10   15  -1.627   0.396  -1.531
    1LIG    C11   16  -1.676   0.337  -1.650
    1LIG    C12   17  -1.806   0.364  -1.696
    1LIG    C13   18  -1.886   0.452  -1.620
    1LIG    C14   19  -1.839   0.510  -1.500
    1LIG    C15   20  -1.713   0.474  -1.453
    1LIG    C16   21  -1.859   0.315  -1.830
    1LIG    C17   22  -1.959   0.412  -1.890
    1LIG     N2   23  -1.752   0.289  -1.929
    1LIG     H2   24  -1.676   0.359  -1.923
    1LIG     H3   25  -1.709   0.196  -1.918
    1LIG     H4   26  -1.788   0.295  -2.025
    1LIG    C18   27  -1.931   0.610  -1.435
    1LIG     O2   28  -1.926   0.723  -1.484
    1LIG     N3   29  -2.010   0.583  -1.322
    1LIG    C19   30  -2.042   0.455  -1.259
    1LIG    C20   31  -2.115   0.353  -1.345
    1LIG    C21   32  -2.260   0.331  -1.304
    1LIG    C22   33  -2.086   0.698  -1.268
    1LIG    C23   34  -2.231   0.700  -1.319
    1LIG    C24   35  -2.331   0.691  -1.205
    1LIG    C25   36  -1.173   0.416  -1.637
    1LIG    C26   37  -1.110   0.516  -1.536
    1LIG     N4   38  -1.203   0.633  -1.514
    1LIG     H5   39  -1.289   0.595  -1.472
    1LIG     H6   40  -1.165   0.699  -1.446
    1LIG    C27   41  -1.235   0.708  -1.639
    1LIG    C28   42  -1.382   0.723  -1.673
    1LIG    C29   43  -1.433   0.649  -1.782
    1LIG    C30   44  -1.570   0.646  -1.810
    1LIG    C31   45  -1.657   0.719  -1.730
    1LIG    C32   46  -1.608   0.794  -1.622
    1LIG    C33   47  -1.472   0.795  -1.593
    1LIG     O3   48  -1.630   0.575  -1.910
    1LIG    C34   49  -1.665   0.646  -2.029
    1LIG     O4   50  -1.065   0.374  -1.721
    1LIG     H7   51  -1.094   0.297  -1.774
    1LIG     HC   52  -1.220   0.203  -1.616
    1LIG    HC2   53  -1.290   0.350  -1.365
    1LIG    HC3   54  -1.119   0.342  -1.405
    1LIG    HC1   55  -1.020   0.191  -1.254
    1LIG    HC4   56  -1.203  -0.187  -1.169
    1LIG    HC5   57  -1.395   0.088  -1.435
    1LIG    HC6   58  -1.612   0.271  -1.706
    1LIG    HC7   59  -1.985   0.476  -1.655
    1LIG    HC8   60  -1.681   0.507  -1.355
    1LIG    HC9   61  -1.911   0.221  -1.812
    1LIG   HC10   62  -2.103   0.475  -1.171
    1LIG   HC11   63  -1.948   0.410  -1.225
    1LIG   HC12   64  -2.063   0.257  -1.339
    1LIG   HC13   65  -2.114   0.387  -1.449
    1LIG   HC14   66  -2.088   0.691  -1.159
    1LIG   HC15   67  -2.037   0.790  -1.298
    1LIG   HC16   68  -2.245   0.614  -1.386
    1LIG   HC17   69  -2.248   0.792  -1.375
    1LIG   HC18   70  -1.244   0.471  -1.699
    1LIG   HC19   71  -1.092   0.465  -1.441
    1LIG   HC20   72  -1.015   0.552  -1.576
    1LIG   HC21   73  -1.194   0.808  -1.630
    1LIG   HC22   74  -1.186   0.659  -1.723
    1LIG   HC23   75  -1.365   0.594  -1.845
    1LIG   HC24   76  -1.763   0.719  -1.751
    1LIG   HC25   77  -1.677   0.851  -1.561
    1LIG   HC26   78  -1.435   0.852  -1.509
    1LIG   HC27   79  -1.712   0.577  -2.100
    1LIG   HC28   80  -1.735   0.725  -2.004
    1LIG   HC29   81  -1.576   0.689  -2.073
    1LIG   HC30   82  -1.978   0.386  -1.994
    1LIG   HC31   83  -1.919   0.514  -1.885
    1LIG   HC32   84  -2.053   0.408  -1.834
    1LIG   HC33   85  -2.432   0.692  -1.246
    1LIG   HC34   86  -2.315   0.598  -1.150
    1LIG   HC35   87  -2.317   0.776  -1.138
    1LIG   HC36   88  -2.306   0.257  -1.369
    1LIG   HC37   89  -2.314   0.425  -1.310
    1LIG   HC38   90  -2.262   0.294  -1.201
   0.00000   0.00000   0.00000
