; Created by cgenff_charmm2gmx.py

[ moleculetype ]
; Name			   nrexcl
LIG				 3

[ atoms ]
;	 nr		  type	resnr residue  atom   cgnr	   charge		mass  typeB    chargeB		massB
; residue	 1 LIG rtp LIG q	qsum
     1      CG311      1    LIG     C1      1      0.010     12.011   ;
     2      CG321      1    LIG     C2      2     -0.153     12.011   ;
     3     CG2R61      1    LIG     C3      3      0.057     12.011   ;
     4     CG2R61      1    LIG     C4      4     -0.218     12.011   ;
     5     CG2R66      1    LIG     C5      5      0.261     12.011   ;
     6       FGR1      1    LIG     F1      6     -0.210     18.998   ;
     7     CG2R61      1    LIG     C6      7     -0.240     12.011   ;
     8     CG2R66      1    LIG     C7      8      0.261     12.011   ;
     9     CG2R61      1    LIG     C8      9     -0.218     12.011   ;
    10       FGR1      1    LIG     F2     10     -0.210     18.998   ;
    11      NG2S1      1    LIG     N1     11     -0.226     14.007   ;
    12      CG2O1      1    LIG     C9     12      0.302     12.011   ;
    13      OG2D1      1    LIG     O1     13     -0.463     15.999   ;
    14       HGP1      1    LIG     H1     14      0.262      1.008   ;
    15     CG2R61      1    LIG    C10     15     -0.102     12.011   ;
    16     CG2R61      1    LIG    C11     16      0.000     12.011   ;
    17     CG2R61      1    LIG    C12     17      0.035     12.011   ;
    18     CG2R61      1    LIG    C13     18      0.001     12.011   ;
    19     CG2R61      1    LIG    C14     19     -0.161     12.011   ;
    20     CG2R61      1    LIG    C15     20     -0.003     12.011   ;
    21      CG314      1    LIG    C16     21      0.059     12.011   ;
    22      CG331      1    LIG    C17     22     -0.211     12.011   ;
    23      NG3P3      1    LIG     N2     23     -0.199     14.007   ;
    24       HGP2      1    LIG     H2     24      0.278      1.008   ;
    25       HGP2      1    LIG     H3     25      0.278      1.008   ;
    26       HGP2      1    LIG     H4     26      0.278      1.008   ;
    27      CG2O1      1    LIG    C18     27      0.400     12.011   ;
    28      OG2D1      1    LIG     O2     28     -0.476     15.999   ;
    29      NG2S0      1    LIG     N3     29     -0.418     14.007   ;
    30      CG321      1    LIG    C19     30      0.096     12.011   ;
    31      CG321      1    LIG    C20     31     -0.170     12.011   ;
    32      CG331      1    LIG    C21     32     -0.285     12.011   ;
    33      CG321      1    LIG    C22     33      0.096     12.011   ;
    34      CG321      1    LIG    C23     34     -0.170     12.011   ;
    35      CG331      1    LIG    C24     35     -0.285     12.011   ;
    36      CG311      1    LIG    C25     36      0.094     12.011   ;
    37      CG324      1    LIG    C26     37      0.178     12.011   ;
    38      NG3P2      1    LIG     N4     38     -0.444     14.007   ;
    39       HGP2      1    LIG     H5     39      0.348      1.008   ;
    40       HGP2      1    LIG     H6     40      0.348      1.008   ;
    41      CG324      1    LIG    C27     41      0.171     12.011   ;
    42     CG2R61      1    LIG    C28     42      0.036     12.011   ;
    43     CG2R61      1    LIG    C29     43     -0.124     12.011   ;
    44     CG2R61      1    LIG    C30     44      0.216     12.011   ;
    45     CG2R61      1    LIG    C31     45     -0.121     12.011   ;
    46     CG2R61      1    LIG    C32     46     -0.108     12.011   ;
    47     CG2R61      1    LIG    C33     47     -0.119     12.011   ;
    48      OG301      1    LIG     O3     48     -0.383     15.999   ;
    49      CG331      1    LIG    C34     49     -0.094     12.011   ;
    50      OG311      1    LIG     O4     50     -0.625     15.999   ;
    51       HGP1      1    LIG     H7     51      0.415      1.008   ;
    52       HGA1      1    LIG     HC     52      0.090      1.008   ;
    53       HGA2      1    LIG    HC2     53      0.090      1.008   ;
    54       HGA2      1    LIG    HC3     54      0.090      1.008   ;
    55      HGR62      1    LIG    HC1     55      0.174      1.008   ;
    56      HGR62      1    LIG    HC4     56      0.186      1.008   ;
    57      HGR62      1    LIG    HC5     57      0.174      1.008   ;
    58      HGR61      1    LIG    HC6     58      0.116      1.008   ;
    59      HGR61      1    LIG    HC7     59      0.116      1.008   ;
    60      HGR61      1    LIG    HC8     60      0.116      1.008   ;
    61       HGA1      1    LIG    HC9     61      0.090      1.008   ;
    62       HGA2      1    LIG   HC10     62      0.090      1.008   ;
    63       HGA2      1    LIG   HC11     63      0.090      1.008   ;
    64       HGA2      1    LIG   HC12     64      0.090      1.008   ;
    65       HGA2      1    LIG   HC13     65      0.090      1.008   ;
    66       HGA2      1    LIG   HC14     66      0.090      1.008   ;
    67       HGA2      1    LIG   HC15     67      0.090      1.008   ;
    68       HGA2      1    LIG   HC16     68      0.090      1.008   ;
    69       HGA2      1    LIG   HC17     69      0.090      1.008   ;
    70       HGA1      1    LIG   HC18     70      0.090      1.008   ;
    71       HGA2      1    LIG   HC19     71      0.090      1.008   ;
    72       HGA2      1    LIG   HC20     72      0.090      1.008   ;
    73       HGA2      1    LIG   HC21     73      0.090      1.008   ;
    74       HGA2      1    LIG   HC22     74      0.090      1.008   ;
    75      HGR61      1    LIG   HC23     75      0.116      1.008   ;
    76      HGR61      1    LIG   HC24     76      0.116      1.008   ;
    77      HGR61      1    LIG   HC25     77      0.116      1.008   ;
    78      HGR61      1    LIG   HC26     78      0.116      1.008   ;
    79       HGA3      1    LIG   HC27     79      0.090      1.008   ;
    80       HGA3      1    LIG   HC28     80      0.090      1.008   ;
    81       HGA3      1    LIG   HC29     81      0.090      1.008   ;
    82       HGA3      1    LIG   HC30     82      0.090      1.008   ;
    83       HGA3      1    LIG   HC31     83      0.090      1.008   ;
    84       HGA3      1    LIG   HC32     84      0.090      1.008   ;
    85       HGA3      1    LIG   HC33     85      0.090      1.008   ;
    86       HGA3      1    LIG   HC34     86      0.090      1.008   ;
    87       HGA3      1    LIG   HC35     87      0.090      1.008   ;
    88       HGA3      1    LIG   HC36     88      0.090      1.008   ;
    89       HGA3      1    LIG   HC37     89      0.090      1.008   ;
    90       HGA3      1    LIG   HC38     90      0.090      1.008   ;

[ bonds ]
;	ai	  aj funct			  c0			c1			  c2			c3
    1    36	 1 ;       CG311      CG311
    1     2	 1 ;       CG311      CG321
    1    11	 1 ;       CG311      NG2S1
    1    52	 1 ;       CG311       HGA1
    2     3	 1 ;       CG321     CG2R61
    2    53	 1 ;       CG321       HGA2
    2    54	 1 ;       CG321       HGA2
    3     4	 1 ;      CG2R61     CG2R61
    3     9	 1 ;      CG2R61     CG2R61
    4     5	 1 ;      CG2R61     CG2R66
    4    55	 1 ;      CG2R61      HGR62
    5     6	 1 ;      CG2R66       FGR1
    5     7	 1 ;      CG2R66     CG2R61
    7     8	 1 ;      CG2R61     CG2R66
    7    56	 1 ;      CG2R61      HGR62
    8     9	 1 ;      CG2R66     CG2R61
    8    10	 1 ;      CG2R66       FGR1
    9    57	 1 ;      CG2R61      HGR62
   11    14	 1 ;       NG2S1       HGP1
   11    12	 1 ;       NG2S1      CG2O1
   12    13	 1 ;       CG2O1      OG2D1
   12    15	 1 ;       CG2O1     CG2R61
   15    16	 1 ;      CG2R61     CG2R61
   15    20	 1 ;      CG2R61     CG2R61
   16    17	 1 ;      CG2R61     CG2R61
   16    58	 1 ;      CG2R61      HGR61
   17    21	 1 ;      CG2R61      CG314
   17    18	 1 ;      CG2R61     CG2R61
   18    19	 1 ;      CG2R61     CG2R61
   18    59	 1 ;      CG2R61      HGR61
   19    20	 1 ;      CG2R61     CG2R61
   19    27	 1 ;      CG2R61      CG2O1
   20    60	 1 ;      CG2R61      HGR61
   21    23	 1 ;       CG314      NG3P3
   21    22	 1 ;       CG314      CG331
   21    61	 1 ;       CG314       HGA1
   22    82	 1 ;       CG331       HGA3
   22    83	 1 ;       CG331       HGA3
   22    84	 1 ;       CG331       HGA3
   23    24	 1 ;       NG3P3       HGP2
   23    25	 1 ;       NG3P3       HGP2
   23    26	 1 ;       NG3P3       HGP2
   27    28	 1 ;       CG2O1      OG2D1
   27    29	 1 ;       CG2O1      NG2S0
   29    30	 1 ;       NG2S0      CG321
   29    33	 1 ;       NG2S0      CG321
   30    31	 1 ;       CG321      CG321
   30    62	 1 ;       CG321       HGA2
   30    63	 1 ;       CG321       HGA2
   31    32	 1 ;       CG321      CG331
   31    64	 1 ;       CG321       HGA2
   31    65	 1 ;       CG321       HGA2
   32    88	 1 ;       CG331       HGA3
   32    89	 1 ;       CG331       HGA3
   32    90	 1 ;       CG331       HGA3
   33    34	 1 ;       CG321      CG321
   33    66	 1 ;       CG321       HGA2
   33    67	 1 ;       CG321       HGA2
   34    35	 1 ;       CG321      CG331
   34    68	 1 ;       CG321       HGA2
   34    69	 1 ;       CG321       HGA2
   35    85	 1 ;       CG331       HGA3
   35    86	 1 ;       CG331       HGA3
   35    87	 1 ;       CG331       HGA3
   36    50	 1 ;       CG311      OG311
   36    37	 1 ;       CG311      CG324
   36    70	 1 ;       CG311       HGA1
   37    38	 1 ;       CG324      NG3P2
   37    71	 1 ;       CG324       HGA2
   37    72	 1 ;       CG324       HGA2
   38    41	 1 ;       NG3P2      CG324
   38    40	 1 ;       NG3P2       HGP2
   38    39	 1 ;       NG3P2       HGP2
   41    42	 1 ;       CG324     CG2R61
   41    73	 1 ;       CG324       HGA2
   41    74	 1 ;       CG324       HGA2
   42    43	 1 ;      CG2R61     CG2R61
   42    47	 1 ;      CG2R61     CG2R61
   43    44	 1 ;      CG2R61     CG2R61
   43    75	 1 ;      CG2R61      HGR61
   44    48	 1 ;      CG2R61      OG301
   44    45	 1 ;      CG2R61     CG2R61
   45    46	 1 ;      CG2R61     CG2R61
   45    76	 1 ;      CG2R61      HGR61
   46    47	 1 ;      CG2R61     CG2R61
   46    77	 1 ;      CG2R61      HGR61
   47    78	 1 ;      CG2R61      HGR61
   48    49	 1 ;       OG301      CG331
   49    79	 1 ;       CG331       HGA3
   49    80	 1 ;       CG331       HGA3
   49    81	 1 ;       CG331       HGA3
   50    51	 1 ;       OG311       HGP1

[ pairs ]
;	ai	  aj funct			  c0			c1			  c2			c3
    1     4	 1
    1     9	 1
    1    13	 1
    1    15	 1
    1    51	 1
    1    38	 1
    1    71	 1
    1    72	 1
    2    50	 1
    2    37	 1
    2    70	 1
    2    14	 1
    2    12	 1
    2     5	 1
    2    55	 1
    2     8	 1
    2    57	 1
    3    36	 1
    3    11	 1
    3    52	 1
    3     6	 1
    3     7	 1
    3    10	 1
    4    53	 1
    4    54	 1
    4     8	 1
    4    57	 1
    4    56	 1
    5     9	 1
    5    10	 1
    6    55	 1
    6     8	 1
    6    56	 1
    7    55	 1
    7    57	 1
    9    53	 1
    9    54	 1
    9    55	 1
    9    56	 1
   10    56	 1
   10    57	 1
   11    50	 1
   11    37	 1
   11    70	 1
   11    53	 1
   11    54	 1
   11    16	 1
   11    20	 1
   12    36	 1
   12    52	 1
   12    17	 1
   12    58	 1
   12    19	 1
   12    60	 1
   13    14	 1
   13    16	 1
   13    20	 1
   14    36	 1
   14    52	 1
   14    15	 1
   15    21	 1
   15    18	 1
   15    27	 1
   16    19	 1
   16    60	 1
   16    23	 1
   16    22	 1
   16    61	 1
   16    59	 1
   17    20	 1
   17    27	 1
   17    24	 1
   17    25	 1
   17    26	 1
   17    82	 1
   17    83	 1
   17    84	 1
   18    58	 1
   18    23	 1
   18    22	 1
   18    61	 1
   18    60	 1
   18    28	 1
   18    29	 1
   19    21	 1
   19    30	 1
   19    33	 1
   20    58	 1
   20    59	 1
   20    28	 1
   20    29	 1
   21    58	 1
   21    59	 1
   22    24	 1
   22    25	 1
   22    26	 1
   23    82	 1
   23    83	 1
   23    84	 1
   24    61	 1
   25    61	 1
   26    61	 1
   27    59	 1
   27    60	 1
   27    31	 1
   27    62	 1
   27    63	 1
   27    34	 1
   27    66	 1
   27    67	 1
   28    30	 1
   28    33	 1
   29    32	 1
   29    64	 1
   29    65	 1
   29    35	 1
   29    68	 1
   29    69	 1
   30    34	 1
   30    66	 1
   30    67	 1
   30    88	 1
   30    89	 1
   30    90	 1
   31    33	 1
   32    62	 1
   32    63	 1
   33    62	 1
   33    63	 1
   33    85	 1
   33    86	 1
   33    87	 1
   35    66	 1
   35    67	 1
   36    53	 1
   36    54	 1
   36    41	 1
   36    40	 1
   36    39	 1
   37    52	 1
   37    51	 1
   37    42	 1
   37    73	 1
   37    74	 1
   38    50	 1
   38    70	 1
   38    43	 1
   38    47	 1
   39    71	 1
   39    72	 1
   39    42	 1
   39    73	 1
   39    74	 1
   40    71	 1
   40    72	 1
   40    42	 1
   40    73	 1
   40    74	 1
   41    71	 1
   41    72	 1
   41    44	 1
   41    75	 1
   41    46	 1
   41    78	 1
   42    48	 1
   42    45	 1
   42    77	 1
   43    73	 1
   43    74	 1
   43    46	 1
   43    78	 1
   43    49	 1
   43    76	 1
   44    47	 1
   44    77	 1
   44    79	 1
   44    80	 1
   44    81	 1
   45    75	 1
   45    49	 1
   45    78	 1
   46    48	 1
   47    73	 1
   47    74	 1
   47    75	 1
   47    76	 1
   48    75	 1
   48    76	 1
   50    52	 1
   50    71	 1
   50    72	 1
   51    70	 1
   52    70	 1
   52    53	 1
   52    54	 1
   61    82	 1
   61    83	 1
   61    84	 1
   62    64	 1
   62    65	 1
   63    64	 1
   63    65	 1
   64    88	 1
   64    89	 1
   64    90	 1
   65    88	 1
   65    89	 1
   65    90	 1
   66    68	 1
   66    69	 1
   67    68	 1
   67    69	 1
   68    85	 1
   68    86	 1
   68    87	 1
   69    85	 1
   69    86	 1
   69    87	 1
   70    71	 1
   70    72	 1
   76    77	 1
   77    78	 1

[ angles ]
;	ai	  aj	ak funct			c0			  c1			c2			  c3
   36     1     2	5 ;      CG311      CG311      CG321
   36     1    11	5 ;      CG311      CG311      NG2S1
   36     1    52	5 ;      CG311      CG311       HGA1
    2     1    11	5 ;      CG321      CG311      NG2S1
    2     1    52	5 ;      CG321      CG311       HGA1
   11     1    52	5 ;      NG2S1      CG311       HGA1
    1     2     3	5 ;      CG311      CG321     CG2R61
    1     2    53	5 ;      CG311      CG321       HGA2
    1     2    54	5 ;      CG311      CG321       HGA2
    3     2    53	5 ;     CG2R61      CG321       HGA2
    3     2    54	5 ;     CG2R61      CG321       HGA2
   53     2    54	5 ;       HGA2      CG321       HGA2
    4     3     2	5 ;     CG2R61     CG2R61      CG321
    4     3     9	5 ;     CG2R61     CG2R61     CG2R61
    2     3     9	5 ;      CG321     CG2R61     CG2R61
    5     4     3	5 ;     CG2R66     CG2R61     CG2R61
    5     4    55	5 ;     CG2R66     CG2R61      HGR62
    3     4    55	5 ;     CG2R61     CG2R61      HGR62
    6     5     4	5 ;       FGR1     CG2R66     CG2R61
    6     5     7	5 ;       FGR1     CG2R66     CG2R61
    4     5     7	5 ;     CG2R61     CG2R66     CG2R61
    5     7     8	5 ;     CG2R66     CG2R61     CG2R66
    5     7    56	5 ;     CG2R66     CG2R61      HGR62
    8     7    56	5 ;     CG2R66     CG2R61      HGR62
    7     8     9	5 ;     CG2R61     CG2R66     CG2R61
    7     8    10	5 ;     CG2R61     CG2R66       FGR1
    9     8    10	5 ;     CG2R61     CG2R66       FGR1
    3     9     8	5 ;     CG2R61     CG2R61     CG2R66
    3     9    57	5 ;     CG2R61     CG2R61      HGR62
    8     9    57	5 ;     CG2R66     CG2R61      HGR62
    1    11    14	5 ;      CG311      NG2S1       HGP1
    1    11    12	5 ;      CG311      NG2S1      CG2O1
   14    11    12	5 ;       HGP1      NG2S1      CG2O1
   11    12    13	5 ;      NG2S1      CG2O1      OG2D1
   11    12    15	5 ;      NG2S1      CG2O1     CG2R61
   13    12    15	5 ;      OG2D1      CG2O1     CG2R61
   12    15    16	5 ;      CG2O1     CG2R61     CG2R61
   12    15    20	5 ;      CG2O1     CG2R61     CG2R61
   16    15    20	5 ;     CG2R61     CG2R61     CG2R61
   15    16    17	5 ;     CG2R61     CG2R61     CG2R61
   15    16    58	5 ;     CG2R61     CG2R61      HGR61
   17    16    58	5 ;     CG2R61     CG2R61      HGR61
   16    17    21	5 ;     CG2R61     CG2R61      CG314
   16    17    18	5 ;     CG2R61     CG2R61     CG2R61
   21    17    18	5 ;      CG314     CG2R61     CG2R61
   17    18    19	5 ;     CG2R61     CG2R61     CG2R61
   17    18    59	5 ;     CG2R61     CG2R61      HGR61
   19    18    59	5 ;     CG2R61     CG2R61      HGR61
   20    19    18	5 ;     CG2R61     CG2R61     CG2R61
   20    19    27	5 ;     CG2R61     CG2R61      CG2O1
   18    19    27	5 ;     CG2R61     CG2R61      CG2O1
   15    20    19	5 ;     CG2R61     CG2R61     CG2R61
   15    20    60	5 ;     CG2R61     CG2R61      HGR61
   19    20    60	5 ;     CG2R61     CG2R61      HGR61
   23    21    22	5 ;      NG3P3      CG314      CG331
   23    21    17	5 ;      NG3P3      CG314     CG2R61
   23    21    61	5 ;      NG3P3      CG314       HGA1
   22    21    17	5 ;      CG331      CG314     CG2R61
   22    21    61	5 ;      CG331      CG314       HGA1
   17    21    61	5 ;     CG2R61      CG314       HGA1
   21    22    82	5 ;      CG314      CG331       HGA3
   21    22    83	5 ;      CG314      CG331       HGA3
   21    22    84	5 ;      CG314      CG331       HGA3
   82    22    83	5 ;       HGA3      CG331       HGA3
   82    22    84	5 ;       HGA3      CG331       HGA3
   83    22    84	5 ;       HGA3      CG331       HGA3
   24    23    25	5 ;       HGP2      NG3P3       HGP2
   24    23    26	5 ;       HGP2      NG3P3       HGP2
   24    23    21	5 ;       HGP2      NG3P3      CG314
   25    23    26	5 ;       HGP2      NG3P3       HGP2
   25    23    21	5 ;       HGP2      NG3P3      CG314
   26    23    21	5 ;       HGP2      NG3P3      CG314
   19    27    28	5 ;     CG2R61      CG2O1      OG2D1
   19    27    29	5 ;     CG2R61      CG2O1      NG2S0
   28    27    29	5 ;      OG2D1      CG2O1      NG2S0
   27    29    30	5 ;      CG2O1      NG2S0      CG321
   27    29    33	5 ;      CG2O1      NG2S0      CG321
   30    29    33	5 ;      CG321      NG2S0      CG321
   29    30    31	5 ;      NG2S0      CG321      CG321
   29    30    62	5 ;      NG2S0      CG321       HGA2
   29    30    63	5 ;      NG2S0      CG321       HGA2
   31    30    62	5 ;      CG321      CG321       HGA2
   31    30    63	5 ;      CG321      CG321       HGA2
   62    30    63	5 ;       HGA2      CG321       HGA2
   30    31    32	5 ;      CG321      CG321      CG331
   30    31    64	5 ;      CG321      CG321       HGA2
   30    31    65	5 ;      CG321      CG321       HGA2
   32    31    64	5 ;      CG331      CG321       HGA2
   32    31    65	5 ;      CG331      CG321       HGA2
   64    31    65	5 ;       HGA2      CG321       HGA2
   31    32    88	5 ;      CG321      CG331       HGA3
   31    32    89	5 ;      CG321      CG331       HGA3
   31    32    90	5 ;      CG321      CG331       HGA3
   88    32    89	5 ;       HGA3      CG331       HGA3
   88    32    90	5 ;       HGA3      CG331       HGA3
   89    32    90	5 ;       HGA3      CG331       HGA3
   29    33    34	5 ;      NG2S0      CG321      CG321
   29    33    66	5 ;      NG2S0      CG321       HGA2
   29    33    67	5 ;      NG2S0      CG321       HGA2
   34    33    66	5 ;      CG321      CG321       HGA2
   34    33    67	5 ;      CG321      CG321       HGA2
   66    33    67	5 ;       HGA2      CG321       HGA2
   33    34    35	5 ;      CG321      CG321      CG331
   33    34    68	5 ;      CG321      CG321       HGA2
   33    34    69	5 ;      CG321      CG321       HGA2
   35    34    68	5 ;      CG331      CG321       HGA2
   35    34    69	5 ;      CG331      CG321       HGA2
   68    34    69	5 ;       HGA2      CG321       HGA2
   34    35    85	5 ;      CG321      CG331       HGA3
   34    35    86	5 ;      CG321      CG331       HGA3
   34    35    87	5 ;      CG321      CG331       HGA3
   85    35    86	5 ;       HGA3      CG331       HGA3
   85    35    87	5 ;       HGA3      CG331       HGA3
   86    35    87	5 ;       HGA3      CG331       HGA3
   50    36    37	5 ;      OG311      CG311      CG324
   50    36     1	5 ;      OG311      CG311      CG311
   50    36    70	5 ;      OG311      CG311       HGA1
   37    36     1	5 ;      CG324      CG311      CG311
   37    36    70	5 ;      CG324      CG311       HGA1
    1    36    70	5 ;      CG311      CG311       HGA1
   36    37    38	5 ;      CG311      CG324      NG3P2
   36    37    71	5 ;      CG311      CG324       HGA2
   36    37    72	5 ;      CG311      CG324       HGA2
   38    37    71	5 ;      NG3P2      CG324       HGA2
   38    37    72	5 ;      NG3P2      CG324       HGA2
   71    37    72	5 ;       HGA2      CG324       HGA2
   37    38    41	5 ;      CG324      NG3P2      CG324
   37    38    40	5 ;      CG324      NG3P2       HGP2
   37    38    39	5 ;      CG324      NG3P2       HGP2
   41    38    40	5 ;      CG324      NG3P2       HGP2
   41    38    39	5 ;      CG324      NG3P2       HGP2
   40    38    39	5 ;       HGP2      NG3P2       HGP2
   38    41    42	5 ;      NG3P2      CG324     CG2R61
   38    41    73	5 ;      NG3P2      CG324       HGA2
   38    41    74	5 ;      NG3P2      CG324       HGA2
   42    41    73	5 ;     CG2R61      CG324       HGA2
   42    41    74	5 ;     CG2R61      CG324       HGA2
   73    41    74	5 ;       HGA2      CG324       HGA2
   41    42    43	5 ;      CG324     CG2R61     CG2R61
   41    42    47	5 ;      CG324     CG2R61     CG2R61
   43    42    47	5 ;     CG2R61     CG2R61     CG2R61
   42    43    44	5 ;     CG2R61     CG2R61     CG2R61
   42    43    75	5 ;     CG2R61     CG2R61      HGR61
   44    43    75	5 ;     CG2R61     CG2R61      HGR61
   43    44    48	5 ;     CG2R61     CG2R61      OG301
   43    44    45	5 ;     CG2R61     CG2R61     CG2R61
   48    44    45	5 ;      OG301     CG2R61     CG2R61
   44    45    46	5 ;     CG2R61     CG2R61     CG2R61
   44    45    76	5 ;     CG2R61     CG2R61      HGR61
   46    45    76	5 ;     CG2R61     CG2R61      HGR61
   47    46    45	5 ;     CG2R61     CG2R61     CG2R61
   47    46    77	5 ;     CG2R61     CG2R61      HGR61
   45    46    77	5 ;     CG2R61     CG2R61      HGR61
   42    47    46	5 ;     CG2R61     CG2R61     CG2R61
   42    47    78	5 ;     CG2R61     CG2R61      HGR61
   46    47    78	5 ;     CG2R61     CG2R61      HGR61
   49    48    44	5 ;      CG331      OG301     CG2R61
   48    49    79	5 ;      OG301      CG331       HGA3
   48    49    80	5 ;      OG301      CG331       HGA3
   48    49    81	5 ;      OG301      CG331       HGA3
   79    49    80	5 ;       HGA3      CG331       HGA3
   79    49    81	5 ;       HGA3      CG331       HGA3
   80    49    81	5 ;       HGA3      CG331       HGA3
   51    50    36	5 ;       HGP1      OG311      CG311

[ dihedrals ]
;	ai	  aj	ak	  al funct			  c0			c1			  c2			c3			  c4			c5
    2     1    36    50	 9 ;      CG321      CG311      CG311      OG311
    2     1    36    37	 9 ;      CG321      CG311      CG311      CG324
    2     1    36    70	 9 ;      CG321      CG311      CG311       HGA1
   11     1    36    50	 9 ;      NG2S1      CG311      CG311      OG311
   11     1    36    37	 9 ;      NG2S1      CG311      CG311      CG324
   11     1    36    70	 9 ;      NG2S1      CG311      CG311       HGA1
   52     1    36    50	 9 ;       HGA1      CG311      CG311      OG311
   52     1    36    37	 9 ;       HGA1      CG311      CG311      CG324
   52     1    36    70	 9 ;       HGA1      CG311      CG311       HGA1
   36     1     2     3	 9 ;      CG311      CG311      CG321     CG2R61
   36     1     2    53	 9 ;      CG311      CG311      CG321       HGA2
   36     1     2    54	 9 ;      CG311      CG311      CG321       HGA2
   11     1     2     3	 9 ;      NG2S1      CG311      CG321     CG2R61
   11     1     2    53	 9 ;      NG2S1      CG311      CG321       HGA2
   11     1     2    54	 9 ;      NG2S1      CG311      CG321       HGA2
   52     1     2     3	 9 ;       HGA1      CG311      CG321     CG2R61
   52     1     2    53	 9 ;       HGA1      CG311      CG321       HGA2
   52     1     2    54	 9 ;       HGA1      CG311      CG321       HGA2
   36     1    11    14	 9 ;      CG311      CG311      NG2S1       HGP1
   36     1    11    12	 9 ;      CG311      CG311      NG2S1      CG2O1
    2     1    11    14	 9 ;      CG321      CG311      NG2S1       HGP1
    2     1    11    12	 9 ;      CG321      CG311      NG2S1      CG2O1
   52     1    11    14	 9 ;       HGA1      CG311      NG2S1       HGP1
   52     1    11    12	 9 ;       HGA1      CG311      NG2S1      CG2O1
    1     2     3     4	 9 ;      CG311      CG321     CG2R61     CG2R61
    1     2     3     9	 9 ;      CG311      CG321     CG2R61     CG2R61
   53     2     3     4	 9 ;       HGA2      CG321     CG2R61     CG2R61
   53     2     3     9	 9 ;       HGA2      CG321     CG2R61     CG2R61
   54     2     3     4	 9 ;       HGA2      CG321     CG2R61     CG2R61
   54     2     3     9	 9 ;       HGA2      CG321     CG2R61     CG2R61
    2     3     4     5	 9 ;      CG321     CG2R61     CG2R61     CG2R66
    2     3     4    55	 9 ;      CG321     CG2R61     CG2R61      HGR62
    9     3     4     5	 9 ;     CG2R61     CG2R61     CG2R61     CG2R66
    9     3     4    55	 9 ;     CG2R61     CG2R61     CG2R61      HGR62
    4     3     9     8	 9 ;     CG2R61     CG2R61     CG2R61     CG2R66
    4     3     9    57	 9 ;     CG2R61     CG2R61     CG2R61      HGR62
    2     3     9     8	 9 ;      CG321     CG2R61     CG2R61     CG2R66
    2     3     9    57	 9 ;      CG321     CG2R61     CG2R61      HGR62
    3     4     5     6	 9 ;     CG2R61     CG2R61     CG2R66       FGR1
    3     4     5     7	 9 ;     CG2R61     CG2R61     CG2R66     CG2R61
   55     4     5     6	 9 ;      HGR62     CG2R61     CG2R66       FGR1
   55     4     5     7	 9 ;      HGR62     CG2R61     CG2R66     CG2R61
    6     5     7     8	 9 ;       FGR1     CG2R66     CG2R61     CG2R66
    6     5     7    56	 9 ;       FGR1     CG2R66     CG2R61      HGR62
    4     5     7     8	 9 ;     CG2R61     CG2R66     CG2R61     CG2R66
    4     5     7    56	 9 ;     CG2R61     CG2R66     CG2R61      HGR62
    5     7     8     9	 9 ;     CG2R66     CG2R61     CG2R66     CG2R61
    5     7     8    10	 9 ;     CG2R66     CG2R61     CG2R66       FGR1
   56     7     8     9	 9 ;      HGR62     CG2R61     CG2R66     CG2R61
   56     7     8    10	 9 ;      HGR62     CG2R61     CG2R66       FGR1
    7     8     9     3	 9 ;     CG2R61     CG2R66     CG2R61     CG2R61
    7     8     9    57	 9 ;     CG2R61     CG2R66     CG2R61      HGR62
   10     8     9     3	 9 ;       FGR1     CG2R66     CG2R61     CG2R61
   10     8     9    57	 9 ;       FGR1     CG2R66     CG2R61      HGR62
    1    11    12    13	 9 ;      CG311      NG2S1      CG2O1      OG2D1
    1    11    12    15	 9 ;      CG311      NG2S1      CG2O1     CG2R61
   14    11    12    13	 9 ;       HGP1      NG2S1      CG2O1      OG2D1
   14    11    12    15	 9 ;       HGP1      NG2S1      CG2O1     CG2R61
   11    12    15    16	 9 ;      NG2S1      CG2O1     CG2R61     CG2R61
   11    12    15    20	 9 ;      NG2S1      CG2O1     CG2R61     CG2R61
   13    12    15    16	 9 ;      OG2D1      CG2O1     CG2R61     CG2R61
   13    12    15    20	 9 ;      OG2D1      CG2O1     CG2R61     CG2R61
   12    15    16    17	 9 ;      CG2O1     CG2R61     CG2R61     CG2R61
   12    15    16    58	 9 ;      CG2O1     CG2R61     CG2R61      HGR61
   20    15    16    17	 9 ;     CG2R61     CG2R61     CG2R61     CG2R61
   20    15    16    58	 9 ;     CG2R61     CG2R61     CG2R61      HGR61
   12    15    20    19	 9 ;      CG2O1     CG2R61     CG2R61     CG2R61
   12    15    20    60	 9 ;      CG2O1     CG2R61     CG2R61      HGR61
   16    15    20    19	 9 ;     CG2R61     CG2R61     CG2R61     CG2R61
   16    15    20    60	 9 ;     CG2R61     CG2R61     CG2R61      HGR61
   15    16    17    21	 9 ;     CG2R61     CG2R61     CG2R61      CG314
   15    16    17    18	 9 ;     CG2R61     CG2R61     CG2R61     CG2R61
   58    16    17    21	 9 ;      HGR61     CG2R61     CG2R61      CG314
   58    16    17    18	 9 ;      HGR61     CG2R61     CG2R61     CG2R61
   16    17    21    23	 9 ;     CG2R61     CG2R61      CG314      NG3P3
   16    17    21    22	 9 ;     CG2R61     CG2R61      CG314      CG331
   16    17    21    61	 9 ;     CG2R61     CG2R61      CG314       HGA1
   18    17    21    23	 9 ;     CG2R61     CG2R61      CG314      NG3P3
   18    17    21    22	 9 ;     CG2R61     CG2R61      CG314      CG331
   18    17    21    61	 9 ;     CG2R61     CG2R61      CG314       HGA1
   16    17    18    19	 9 ;     CG2R61     CG2R61     CG2R61     CG2R61
   16    17    18    59	 9 ;     CG2R61     CG2R61     CG2R61      HGR61
   21    17    18    19	 9 ;      CG314     CG2R61     CG2R61     CG2R61
   21    17    18    59	 9 ;      CG314     CG2R61     CG2R61      HGR61
   17    18    19    20	 9 ;     CG2R61     CG2R61     CG2R61     CG2R61
   17    18    19    27	 9 ;     CG2R61     CG2R61     CG2R61      CG2O1
   59    18    19    20	 9 ;      HGR61     CG2R61     CG2R61     CG2R61
   59    18    19    27	 9 ;      HGR61     CG2R61     CG2R61      CG2O1
   18    19    20    15	 9 ;     CG2R61     CG2R61     CG2R61     CG2R61
   18    19    20    60	 9 ;     CG2R61     CG2R61     CG2R61      HGR61
   27    19    20    15	 9 ;      CG2O1     CG2R61     CG2R61     CG2R61
   27    19    20    60	 9 ;      CG2O1     CG2R61     CG2R61      HGR61
   20    19    27    28	 9 ;     CG2R61     CG2R61      CG2O1      OG2D1
   20    19    27    29	 9 ;     CG2R61     CG2R61      CG2O1      NG2S0
   18    19    27    28	 9 ;     CG2R61     CG2R61      CG2O1      OG2D1
   18    19    27    29	 9 ;     CG2R61     CG2R61      CG2O1      NG2S0
   22    21    23    24	 9 ;      CG331      CG314      NG3P3       HGP2
   22    21    23    25	 9 ;      CG331      CG314      NG3P3       HGP2
   22    21    23    26	 9 ;      CG331      CG314      NG3P3       HGP2
   17    21    23    24	 9 ;     CG2R61      CG314      NG3P3       HGP2
   17    21    23    25	 9 ;     CG2R61      CG314      NG3P3       HGP2
   17    21    23    26	 9 ;     CG2R61      CG314      NG3P3       HGP2
   61    21    23    24	 9 ;       HGA1      CG314      NG3P3       HGP2
   61    21    23    25	 9 ;       HGA1      CG314      NG3P3       HGP2
   61    21    23    26	 9 ;       HGA1      CG314      NG3P3       HGP2
   23    21    22    82	 9 ;      NG3P3      CG314      CG331       HGA3
   23    21    22    83	 9 ;      NG3P3      CG314      CG331       HGA3
   23    21    22    84	 9 ;      NG3P3      CG314      CG331       HGA3
   17    21    22    82	 9 ;     CG2R61      CG314      CG331       HGA3
   17    21    22    83	 9 ;     CG2R61      CG314      CG331       HGA3
   17    21    22    84	 9 ;     CG2R61      CG314      CG331       HGA3
   61    21    22    82	 9 ;       HGA1      CG314      CG331       HGA3
   61    21    22    83	 9 ;       HGA1      CG314      CG331       HGA3
   61    21    22    84	 9 ;       HGA1      CG314      CG331       HGA3
   19    27    29    30	 9 ;     CG2R61      CG2O1      NG2S0      CG321
   19    27    29    33	 9 ;     CG2R61      CG2O1      NG2S0      CG321
   28    27    29    30	 9 ;      OG2D1      CG2O1      NG2S0      CG321
   28    27    29    33	 9 ;      OG2D1      CG2O1      NG2S0      CG321
   27    29    30    31	 9 ;      CG2O1      NG2S0      CG321      CG321
   27    29    30    62	 9 ;      CG2O1      NG2S0      CG321       HGA2
   27    29    30    63	 9 ;      CG2O1      NG2S0      CG321       HGA2
   33    29    30    31	 9 ;      CG321      NG2S0      CG321      CG321
   33    29    30    62	 9 ;      CG321      NG2S0      CG321       HGA2
   33    29    30    63	 9 ;      CG321      NG2S0      CG321       HGA2
   27    29    33    34	 9 ;      CG2O1      NG2S0      CG321      CG321
   27    29    33    66	 9 ;      CG2O1      NG2S0      CG321       HGA2
   27    29    33    67	 9 ;      CG2O1      NG2S0      CG321       HGA2
   30    29    33    34	 9 ;      CG321      NG2S0      CG321      CG321
   30    29    33    66	 9 ;      CG321      NG2S0      CG321       HGA2
   30    29    33    67	 9 ;      CG321      NG2S0      CG321       HGA2
   29    30    31    32	 9 ;      NG2S0      CG321      CG321      CG331
   29    30    31    64	 9 ;      NG2S0      CG321      CG321       HGA2
   29    30    31    65	 9 ;      NG2S0      CG321      CG321       HGA2
   62    30    31    32	 9 ;       HGA2      CG321      CG321      CG331
   62    30    31    64	 9 ;       HGA2      CG321      CG321       HGA2
   62    30    31    65	 9 ;       HGA2      CG321      CG321       HGA2
   63    30    31    32	 9 ;       HGA2      CG321      CG321      CG331
   63    30    31    64	 9 ;       HGA2      CG321      CG321       HGA2
   63    30    31    65	 9 ;       HGA2      CG321      CG321       HGA2
   30    31    32    88	 9 ;      CG321      CG321      CG331       HGA3
   30    31    32    89	 9 ;      CG321      CG321      CG331       HGA3
   30    31    32    90	 9 ;      CG321      CG321      CG331       HGA3
   64    31    32    88	 9 ;       HGA2      CG321      CG331       HGA3
   64    31    32    89	 9 ;       HGA2      CG321      CG331       HGA3
   64    31    32    90	 9 ;       HGA2      CG321      CG331       HGA3
   65    31    32    88	 9 ;       HGA2      CG321      CG331       HGA3
   65    31    32    89	 9 ;       HGA2      CG321      CG331       HGA3
   65    31    32    90	 9 ;       HGA2      CG321      CG331       HGA3
   29    33    34    35	 9 ;      NG2S0      CG321      CG321      CG331
   29    33    34    68	 9 ;      NG2S0      CG321      CG321       HGA2
   29    33    34    69	 9 ;      NG2S0      CG321      CG321       HGA2
   66    33    34    35	 9 ;       HGA2      CG321      CG321      CG331
   66    33    34    68	 9 ;       HGA2      CG321      CG321       HGA2
   66    33    34    69	 9 ;       HGA2      CG321      CG321       HGA2
   67    33    34    35	 9 ;       HGA2      CG321      CG321      CG331
   67    33    34    68	 9 ;       HGA2      CG321      CG321       HGA2
   67    33    34    69	 9 ;       HGA2      CG321      CG321       HGA2
   33    34    35    85	 9 ;      CG321      CG321      CG331       HGA3
   33    34    35    86	 9 ;      CG321      CG321      CG331       HGA3
   33    34    35    87	 9 ;      CG321      CG321      CG331       HGA3
   68    34    35    85	 9 ;       HGA2      CG321      CG331       HGA3
   68    34    35    86	 9 ;       HGA2      CG321      CG331       HGA3
   68    34    35    87	 9 ;       HGA2      CG321      CG331       HGA3
   69    34    35    85	 9 ;       HGA2      CG321      CG331       HGA3
   69    34    35    86	 9 ;       HGA2      CG321      CG331       HGA3
   69    34    35    87	 9 ;       HGA2      CG321      CG331       HGA3
   37    36    50    51	 9 ;      CG324      CG311      OG311       HGP1
    1    36    50    51	 9 ;      CG311      CG311      OG311       HGP1
   70    36    50    51	 9 ;       HGA1      CG311      OG311       HGP1
   50    36    37    38	 9 ;      OG311      CG311      CG324      NG3P2
   50    36    37    71	 9 ;      OG311      CG311      CG324       HGA2
   50    36    37    72	 9 ;      OG311      CG311      CG324       HGA2
    1    36    37    38	 9 ;      CG311      CG311      CG324      NG3P2
    1    36    37    71	 9 ;      CG311      CG311      CG324       HGA2
    1    36    37    72	 9 ;      CG311      CG311      CG324       HGA2
   70    36    37    38	 9 ;       HGA1      CG311      CG324      NG3P2
   70    36    37    71	 9 ;       HGA1      CG311      CG324       HGA2
   70    36    37    72	 9 ;       HGA1      CG311      CG324       HGA2
   36    37    38    41	 9 ;      CG311      CG324      NG3P2      CG324
   36    37    38    40	 9 ;      CG311      CG324      NG3P2       HGP2
   36    37    38    39	 9 ;      CG311      CG324      NG3P2       HGP2
   71    37    38    41	 9 ;       HGA2      CG324      NG3P2      CG324
   71    37    38    40	 9 ;       HGA2      CG324      NG3P2       HGP2
   71    37    38    39	 9 ;       HGA2      CG324      NG3P2       HGP2
   72    37    38    41	 9 ;       HGA2      CG324      NG3P2      CG324
   72    37    38    40	 9 ;       HGA2      CG324      NG3P2       HGP2
   72    37    38    39	 9 ;       HGA2      CG324      NG3P2       HGP2
   37    38    41    42	 9 ;      CG324      NG3P2      CG324     CG2R61
   37    38    41    73	 9 ;      CG324      NG3P2      CG324       HGA2
   37    38    41    74	 9 ;      CG324      NG3P2      CG324       HGA2
   40    38    41    42	 9 ;       HGP2      NG3P2      CG324     CG2R61
   40    38    41    73	 9 ;       HGP2      NG3P2      CG324       HGA2
   40    38    41    74	 9 ;       HGP2      NG3P2      CG324       HGA2
   39    38    41    42	 9 ;       HGP2      NG3P2      CG324     CG2R61
   39    38    41    73	 9 ;       HGP2      NG3P2      CG324       HGA2
   39    38    41    74	 9 ;       HGP2      NG3P2      CG324       HGA2
   38    41    42    43	 9 ;      NG3P2      CG324     CG2R61     CG2R61
   38    41    42    47	 9 ;      NG3P2      CG324     CG2R61     CG2R61
   73    41    42    43	 9 ;       HGA2      CG324     CG2R61     CG2R61
   73    41    42    47	 9 ;       HGA2      CG324     CG2R61     CG2R61
   74    41    42    43	 9 ;       HGA2      CG324     CG2R61     CG2R61
   74    41    42    47	 9 ;       HGA2      CG324     CG2R61     CG2R61
   41    42    43    44	 9 ;      CG324     CG2R61     CG2R61     CG2R61
   41    42    43    75	 9 ;      CG324     CG2R61     CG2R61      HGR61
   47    42    43    44	 9 ;     CG2R61     CG2R61     CG2R61     CG2R61
   47    42    43    75	 9 ;     CG2R61     CG2R61     CG2R61      HGR61
   41    42    47    46	 9 ;      CG324     CG2R61     CG2R61     CG2R61
   41    42    47    78	 9 ;      CG324     CG2R61     CG2R61      HGR61
   43    42    47    46	 9 ;     CG2R61     CG2R61     CG2R61     CG2R61
   43    42    47    78	 9 ;     CG2R61     CG2R61     CG2R61      HGR61
   42    43    44    48	 9 ;     CG2R61     CG2R61     CG2R61      OG301
   42    43    44    45	 9 ;     CG2R61     CG2R61     CG2R61     CG2R61
   75    43    44    48	 9 ;      HGR61     CG2R61     CG2R61      OG301
   75    43    44    45	 9 ;      HGR61     CG2R61     CG2R61     CG2R61
   43    44    48    49	 9 ;     CG2R61     CG2R61      OG301      CG331
   45    44    48    49	 9 ;     CG2R61     CG2R61      OG301      CG331
   43    44    45    46	 9 ;     CG2R61     CG2R61     CG2R61     CG2R61
   43    44    45    76	 9 ;     CG2R61     CG2R61     CG2R61      HGR61
   48    44    45    46	 9 ;      OG301     CG2R61     CG2R61     CG2R61
   48    44    45    76	 9 ;      OG301     CG2R61     CG2R61      HGR61
   44    45    46    47	 9 ;     CG2R61     CG2R61     CG2R61     CG2R61
   44    45    46    77	 9 ;     CG2R61     CG2R61     CG2R61      HGR61
   76    45    46    47	 9 ;      HGR61     CG2R61     CG2R61     CG2R61
   76    45    46    77	 9 ;      HGR61     CG2R61     CG2R61      HGR61
   45    46    47    42	 9 ;     CG2R61     CG2R61     CG2R61     CG2R61
   45    46    47    78	 9 ;     CG2R61     CG2R61     CG2R61      HGR61
   77    46    47    42	 9 ;      HGR61     CG2R61     CG2R61     CG2R61
   77    46    47    78	 9 ;      HGR61     CG2R61     CG2R61      HGR61
   44    48    49    79	 9 ;     CG2R61      OG301      CG331       HGA3
   44    48    49    80	 9 ;     CG2R61      OG301      CG331       HGA3
   44    48    49    81	 9 ;     CG2R61      OG301      CG331       HGA3

[ dihedrals ]
;	ai	  aj	ak	  al funct			  c0			c1			  c2			c3
   12    15    11    13	 2
   27    19    29    28	 2

