Giant Rising Ordinary Mutants for A Clerical Setup
   93
    1LIG     C1    1  -1.750   0.296  -1.590
    1LIG     O1    2  -1.731   0.180  -1.557
    1LIG     N1    3  -1.873   0.353  -1.554
    1LIG     H1    4  -1.924   0.278  -1.508
    1LIG     C2    5  -1.910   0.486  -1.490
    1LIG     C3    6  -1.987   0.485  -1.357
    1LIG     O2    7  -1.921   0.392  -1.267
    1LIG     C4    8  -1.995   0.287  -1.222
    1LIG     C5    9  -2.116   0.301  -1.155
    1LIG     C6   10  -2.184   0.188  -1.109
    1LIG     F1   11  -2.300   0.204  -1.043
    1LIG     C7   12  -2.133   0.061  -1.129
    1LIG     C8   13  -2.015   0.048  -1.200
    1LIG     F2   14  -1.966  -0.075  -1.222
    1LIG     C9   15  -1.947   0.159  -1.249
    1LIG    C10   16  -1.781   0.573  -1.467
    1LIG    C11   17  -1.750   0.696  -1.558
    1LIG    C12   18  -1.724   0.848  -1.522
    1LIG     O3   19  -1.799   0.901  -1.411
    1LIG    C13   20  -1.800   1.045  -1.403
    1LIG    C14   21  -1.571   0.861  -1.490
    1LIG     N2   22  -1.496   0.777  -1.584
    1LIG     H2   23  -1.539   0.688  -1.605
    1LIG    C15   24  -1.358   0.780  -1.598
    1LIG    C16   25  -1.294   0.802  -1.720
    1LIG    C17   26  -1.155   0.800  -1.729
    1LIG    C18   27  -1.079   0.770  -1.617
    1LIG     F3   28  -0.945   0.768  -1.626
    1LIG    C19   29  -1.140   0.742  -1.496
    1LIG    C20   30  -1.279   0.747  -1.487
    1LIG     O4   31  -1.794   0.631  -1.334
    1LIG     H3   32  -1.885   0.620  -1.302
    1LIG    C21   33  -1.643   0.366  -1.669
    1LIG    C22   34  -1.516   0.375  -1.617
    1LIG    C23   35  -1.409   0.416  -1.696
    1LIG    C24   36  -1.431   0.465  -1.825
    1LIG    C25   37  -1.562   0.487  -1.869
    1LIG    C26   38  -1.668   0.430  -1.794
    1LIG    C27   39  -1.275   0.407  -1.633
    1LIG     O5   40  -1.178   0.448  -1.696
    1LIG     N3   41  -1.266   0.356  -1.506
    1LIG     H4   42  -1.348   0.340  -1.450
    1LIG    C28   43  -1.138   0.359  -1.437
    1LIG    C29   44  -1.155   0.414  -1.296
    1LIG    C30   45  -1.071   0.223  -1.445
    1LIG    C31   46  -0.935   0.212  -1.410
    1LIG    C32   47  -0.870   0.089  -1.411
    1LIG    C33   48  -0.939  -0.026  -1.448
    1LIG    C34   49  -1.073  -0.017  -1.486
    1LIG    C35   50  -1.138   0.107  -1.485
    1LIG     N4   51  -1.584   0.563  -1.992
    1LIG    C36   52  -1.627   0.485  -2.113
    1LIG      S   53  -1.667   0.712  -1.974
    1LIG     O6   54  -1.611   0.782  -1.860
    1LIG     O7   55  -1.809   0.683  -1.979
    1LIG    C37   56  -1.622   0.803  -2.121
    1LIG     HC   57  -1.973   0.539  -1.562
    1LIG    HC2   58  -2.090   0.453  -1.373
    1LIG    HC3   59  -1.986   0.585  -1.313
    1LIG    HC1   60  -2.158   0.399  -1.138
    1LIG    HC4   61  -2.184  -0.026  -1.089
    1LIG    HC5   62  -1.856   0.147  -1.307
    1LIG    HC6   63  -1.694   0.507  -1.468
    1LIG    HC7   64  -1.834   0.700  -1.627
    1LIG    HC8   65  -1.664   0.666  -1.618
    1LIG    HC9   66  -1.746   0.909  -1.610
    1LIG   HC10   67  -1.859   1.077  -1.317
    1LIG   HC11   68  -1.845   1.086  -1.494
    1LIG   HC12   69  -1.698   1.082  -1.393
    1LIG   HC13   70  -1.539   0.965  -1.501
    1LIG   HC14   71  -1.551   0.827  -1.388
    1LIG   HC15   72  -1.353   0.822  -1.809
    1LIG   HC16   73  -1.106   0.820  -1.824
    1LIG   HC17   74  -1.081   0.717  -1.409
    1LIG   HC18   75  -1.327   0.724  -1.393
    1LIG   HC19   76  -1.500   0.350  -1.513
    1LIG   HC20   77  -1.347   0.485  -1.890
    1LIG   HC21   78  -1.769   0.436  -1.832
    1LIG   HC22   79  -1.074   0.428  -1.491
    1LIG   HC23   80  -1.059   0.416  -1.245
    1LIG   HC24   81  -1.224   0.351  -1.240
    1LIG   HC25   82  -1.195   0.516  -1.301
    1LIG   HC26   83  -0.880   0.301  -1.382
    1LIG   HC27   84  -0.766   0.083  -1.383
    1LIG   HC28   85  -0.890  -0.122  -1.447
    1LIG   HC29   86  -1.127  -0.105  -1.516
    1LIG   HC30   87  -1.242   0.113  -1.516
    1LIG   HC31   88  -1.622   0.378  -2.091
    1LIG   HC32   89  -1.561   0.508  -2.197
    1LIG   HC33   90  -1.729   0.512  -2.139
    1LIG   HC34   91  -1.627   0.910  -2.101
    1LIG   HC35   92  -1.691   0.778  -2.202
    1LIG   HC36   93  -1.520   0.776  -2.150
   0.00000   0.00000   0.00000
