; Created by cgenff_charmm2gmx.py

[ moleculetype ]
; Name			   nrexcl
LIG				 3

[ atoms ]
;	 nr		  type	resnr residue  atom   cgnr	   charge		mass  typeB    chargeB		massB
; residue	 1 LIG rtp LIG q	qsum
     1      CG2O1      1    LIG     C1      1      0.302     12.011   ;
     2      OG2D1      1    LIG     O1      2     -0.463     15.999   ;
     3      NG2S1      1    LIG     N1      3     -0.238     14.007   ;
     4       HGP1      1    LIG     H1      4      0.262      1.008   ;
     5      CG311      1    LIG     C2      5      0.001     12.011   ;
     6      CG321      1    LIG     C3      6      0.009     12.011   ;
     7      OG301      1    LIG     O2      7     -0.177     15.999   ;
     8     CG2R61      1    LIG     C4      8      0.384     12.011   ;
     9     CG2R61      1    LIG     C5      9     -0.410     12.011   ;
    10     CG2R66      1    LIG     C6     10      0.283     12.011   ;
    11       FGR1      1    LIG     F1     11     -0.210     18.998   ;
    12     CG2R61      1    LIG     C7     12     -0.240     12.011   ;
    13     CG2R66      1    LIG     C8     13      0.283     12.011   ;
    14       FGR1      1    LIG     F2     14     -0.210     18.998   ;
    15     CG2R61      1    LIG     C9     15     -0.410     12.011   ;
    16      CG311      1    LIG    C10     16      0.124     12.011   ;
    17      CG321      1    LIG    C11     17     -0.117     12.011   ;
    18      CG311      1    LIG    C12     18      0.086     12.011   ;
    19      OG301      1    LIG     O3     19     -0.379     15.999   ;
    20      CG331      1    LIG    C13     20     -0.091     12.011   ;
    21      CG321      1    LIG    C14     21     -0.032     12.011   ;
    22      NG311      1    LIG     N2     22     -0.573     14.007   ;
    23     HGPAM1      1    LIG     H2     23      0.363      1.008   ;
    24     CG2R61      1    LIG    C15     24      0.095     12.011   ;
    25     CG2R61      1    LIG    C16     25     -0.163     12.011   ;
    26     CG2R61      1    LIG    C17     26     -0.104     12.011   ;
    27     CG2R66      1    LIG    C18     27      0.107     12.011   ;
    28       FGR1      1    LIG     F3     28     -0.211     18.998   ;
    29     CG2R61      1    LIG    C19     29     -0.104     12.011   ;
    30     CG2R61      1    LIG    C20     30     -0.163     12.011   ;
    31      OG311      1    LIG     O4     31     -0.648     15.999   ;
    32       HGP1      1    LIG     H3     32      0.421      1.008   ;
    33     CG2R61      1    LIG    C21     33     -0.101     12.011   ;
    34     CG2R61      1    LIG    C22     34     -0.004     12.011   ;
    35     CG2R61      1    LIG    C23     35     -0.101     12.011   ;
    36     CG2R61      1    LIG    C24     36     -0.064     12.011   ;
    37     CG2R61      1    LIG    C25     37      0.138     12.011   ;
    38     CG2R61      1    LIG    C26     38     -0.064     12.011   ;
    39      CG2O1      1    LIG    C27     39      0.320     12.011   ;
    40      OG2D1      1    LIG     O5     40     -0.463     15.999   ;
    41      NG2S1      1    LIG     N3     41     -0.366     14.007   ;
    42       HGP1      1    LIG     H4     42      0.314      1.008   ;
    43      CG311      1    LIG    C28     43      0.138     12.011   ;
    44      CG331      1    LIG    C29     44     -0.265     12.011   ;
    45     CG2R61      1    LIG    C30     45     -0.111     12.011   ;
    46     CG2R61      1    LIG    C31     46     -0.086     12.011   ;
    47     CG2R61      1    LIG    C32     47     -0.114     12.011   ;
    48     CG2R61      1    LIG    C33     48     -0.116     12.011   ;
    49     CG2R61      1    LIG    C34     49     -0.114     12.011   ;
    50     CG2R61      1    LIG    C35     50     -0.086     12.011   ;
    51      NG301      1    LIG     N4     51     -0.228     14.007   ;
    52      CG331      1    LIG    C36     52     -0.103     12.011   ;
    53      SG3O2      1    LIG      S     53      0.397     32.060   ;
    54      OG2P1      1    LIG     O6     54     -0.388     15.999   ;
    55      OG2P1      1    LIG     O7     55     -0.388     15.999   ;
    56      CG331      1    LIG    C37     56      0.036     12.011   ;
    57       HGA1      1    LIG     HC     57      0.090      1.008   ;
    58       HGA2      1    LIG    HC2     58      0.090      1.008   ;
    59       HGA2      1    LIG    HC3     59      0.090      1.008   ;
    60      HGR62      1    LIG    HC1     60      0.179      1.008   ;
    61      HGR62      1    LIG    HC4     61      0.186      1.008   ;
    62      HGR62      1    LIG    HC5     62      0.179      1.008   ;
    63       HGA1      1    LIG    HC6     63      0.090      1.008   ;
    64       HGA2      1    LIG    HC7     64      0.090      1.008   ;
    65       HGA2      1    LIG    HC8     65      0.090      1.008   ;
    66       HGA1      1    LIG    HC9     66      0.090      1.008   ;
    67       HGA3      1    LIG   HC10     67      0.090      1.008   ;
    68       HGA3      1    LIG   HC11     68      0.090      1.008   ;
    69       HGA3      1    LIG   HC12     69      0.090      1.008   ;
    70       HGA2      1    LIG   HC13     70      0.090      1.008   ;
    71       HGA2      1    LIG   HC14     71      0.090      1.008   ;
    72      HGR61      1    LIG   HC15     72      0.116      1.008   ;
    73      HGR62      1    LIG   HC16     73      0.179      1.008   ;
    74      HGR62      1    LIG   HC17     74      0.179      1.008   ;
    75      HGR61      1    LIG   HC18     75      0.116      1.008   ;
    76      HGR61      1    LIG   HC19     76      0.116      1.008   ;
    77      HGR61      1    LIG   HC20     77      0.116      1.008   ;
    78      HGR61      1    LIG   HC21     78      0.116      1.008   ;
    79       HGA1      1    LIG   HC22     79      0.090      1.008   ;
    80       HGA3      1    LIG   HC23     80      0.090      1.008   ;
    81       HGA3      1    LIG   HC24     81      0.090      1.008   ;
    82       HGA3      1    LIG   HC25     82      0.090      1.008   ;
    83      HGR61      1    LIG   HC26     83      0.116      1.008   ;
    84      HGR61      1    LIG   HC27     84      0.116      1.008   ;
    85      HGR61      1    LIG   HC28     85      0.116      1.008   ;
    86      HGR61      1    LIG   HC29     86      0.116      1.008   ;
    87      HGR61      1    LIG   HC30     87      0.116      1.008   ;
    88       HGA3      1    LIG   HC31     88      0.090      1.008   ;
    89       HGA3      1    LIG   HC32     89      0.090      1.008   ;
    90       HGA3      1    LIG   HC33     90      0.090      1.008   ;
    91       HGA3      1    LIG   HC34     91      0.090      1.008   ;
    92       HGA3      1    LIG   HC35     92      0.090      1.008   ;
    93       HGA3      1    LIG   HC36     93      0.090      1.008   ;

[ bonds ]
;	ai	  aj funct			  c0			c1			  c2			c3
    1    33	 1 ;       CG2O1     CG2R61
    1     2	 1 ;       CG2O1      OG2D1
    1     3	 1 ;       CG2O1      NG2S1
    3     5	 1 ;       NG2S1      CG311
    3     4	 1 ;       NG2S1       HGP1
    5    16	 1 ;       CG311      CG311
    5     6	 1 ;       CG311      CG321
    5    57	 1 ;       CG311       HGA1
    6     7	 1 ;       CG321      OG301
    6    58	 1 ;       CG321       HGA2
    6    59	 1 ;       CG321       HGA2
    7     8	 1 ;       OG301     CG2R61
    8    15	 1 ;      CG2R61     CG2R61
    8     9	 1 ;      CG2R61     CG2R61
    9    10	 1 ;      CG2R61     CG2R66
    9    60	 1 ;      CG2R61      HGR62
   10    12	 1 ;      CG2R66     CG2R61
   10    11	 1 ;      CG2R66       FGR1
   12    13	 1 ;      CG2R61     CG2R66
   12    61	 1 ;      CG2R61      HGR62
   13    15	 1 ;      CG2R66     CG2R61
   13    14	 1 ;      CG2R66       FGR1
   15    62	 1 ;      CG2R61      HGR62
   16    17	 1 ;       CG311      CG321
   16    31	 1 ;       CG311      OG311
   16    63	 1 ;       CG311       HGA1
   17    18	 1 ;       CG321      CG311
   17    64	 1 ;       CG321       HGA2
   17    65	 1 ;       CG321       HGA2
   18    21	 1 ;       CG311      CG321
   18    19	 1 ;       CG311      OG301
   18    66	 1 ;       CG311       HGA1
   19    20	 1 ;       OG301      CG331
   20    67	 1 ;       CG331       HGA3
   20    68	 1 ;       CG331       HGA3
   20    69	 1 ;       CG331       HGA3
   21    22	 1 ;       CG321      NG311
   21    70	 1 ;       CG321       HGA2
   21    71	 1 ;       CG321       HGA2
   22    24	 1 ;       NG311     CG2R61
   22    23	 1 ;       NG311     HGPAM1
   24    25	 1 ;      CG2R61     CG2R61
   24    30	 1 ;      CG2R61     CG2R61
   25    26	 1 ;      CG2R61     CG2R61
   25    72	 1 ;      CG2R61      HGR61
   26    27	 1 ;      CG2R61     CG2R66
   26    73	 1 ;      CG2R61      HGR62
   27    28	 1 ;      CG2R66       FGR1
   27    29	 1 ;      CG2R66     CG2R61
   29    30	 1 ;      CG2R61     CG2R61
   29    74	 1 ;      CG2R61      HGR62
   30    75	 1 ;      CG2R61      HGR61
   31    32	 1 ;       OG311       HGP1
   33    38	 1 ;      CG2R61     CG2R61
   33    34	 1 ;      CG2R61     CG2R61
   34    35	 1 ;      CG2R61     CG2R61
   34    76	 1 ;      CG2R61      HGR61
   35    36	 1 ;      CG2R61     CG2R61
   35    39	 1 ;      CG2R61      CG2O1
   36    37	 1 ;      CG2R61     CG2R61
   36    77	 1 ;      CG2R61      HGR61
   37    51	 1 ;      CG2R61      NG301
   37    38	 1 ;      CG2R61     CG2R61
   38    78	 1 ;      CG2R61      HGR61
   39    40	 1 ;       CG2O1      OG2D1
   39    41	 1 ;       CG2O1      NG2S1
   41    43	 1 ;       NG2S1      CG311
   41    42	 1 ;       NG2S1       HGP1
   43    45	 1 ;       CG311     CG2R61
   43    44	 1 ;       CG311      CG331
   43    79	 1 ;       CG311       HGA1
   44    80	 1 ;       CG331       HGA3
   44    81	 1 ;       CG331       HGA3
   44    82	 1 ;       CG331       HGA3
   45    46	 1 ;      CG2R61     CG2R61
   45    50	 1 ;      CG2R61     CG2R61
   46    47	 1 ;      CG2R61     CG2R61
   46    83	 1 ;      CG2R61      HGR61
   47    48	 1 ;      CG2R61     CG2R61
   47    84	 1 ;      CG2R61      HGR61
   48    49	 1 ;      CG2R61     CG2R61
   48    85	 1 ;      CG2R61      HGR61
   49    50	 1 ;      CG2R61     CG2R61
   49    86	 1 ;      CG2R61      HGR61
   50    87	 1 ;      CG2R61      HGR61
   51    52	 1 ;       NG301      CG331
   51    53	 1 ;       NG301      SG3O2
   52    88	 1 ;       CG331       HGA3
   52    89	 1 ;       CG331       HGA3
   52    90	 1 ;       CG331       HGA3
   53    56	 1 ;       SG3O2      CG331
   53    54	 1 ;       SG3O2      OG2P1
   53    55	 1 ;       SG3O2      OG2P1
   56    91	 1 ;       CG331       HGA3
   56    92	 1 ;       CG331       HGA3
   56    93	 1 ;       CG331       HGA3

[ pairs ]
;	ai	  aj funct			  c0			c1			  c2			c3
    1    16	 1
    1     6	 1
    1    57	 1
    1    37	 1
    1    78	 1
    1    35	 1
    1    76	 1
    2    38	 1
    2    34	 1
    2     5	 1
    2     4	 1
    3    38	 1
    3    34	 1
    3    17	 1
    3    31	 1
    3    63	 1
    3     7	 1
    3    58	 1
    3    59	 1
    4    33	 1
    4    16	 1
    4     6	 1
    4    57	 1
    5    33	 1
    5     8	 1
    5    18	 1
    5    64	 1
    5    65	 1
    5    32	 1
    6    17	 1
    6    31	 1
    6    63	 1
    6    15	 1
    6     9	 1
    7    16	 1
    7    57	 1
    7    13	 1
    7    62	 1
    7    10	 1
    7    60	 1
    8    58	 1
    8    59	 1
    8    12	 1
    8    11	 1
    8    14	 1
    9    13	 1
    9    62	 1
    9    61	 1
   10    15	 1
   10    14	 1
   11    60	 1
   11    13	 1
   11    61	 1
   12    60	 1
   12    62	 1
   14    61	 1
   14    62	 1
   15    60	 1
   15    61	 1
   16    58	 1
   16    59	 1
   16    21	 1
   16    19	 1
   16    66	 1
   17    57	 1
   17    32	 1
   17    22	 1
   17    70	 1
   17    71	 1
   17    20	 1
   18    31	 1
   18    63	 1
   18    67	 1
   18    68	 1
   18    69	 1
   18    24	 1
   18    23	 1
   19    64	 1
   19    65	 1
   19    22	 1
   19    70	 1
   19    71	 1
   20    21	 1
   20    66	 1
   21    64	 1
   21    65	 1
   21    25	 1
   21    30	 1
   22    66	 1
   22    26	 1
   22    72	 1
   22    29	 1
   22    75	 1
   23    70	 1
   23    71	 1
   23    25	 1
   23    30	 1
   24    70	 1
   24    71	 1
   24    27	 1
   24    73	 1
   24    74	 1
   25    29	 1
   25    75	 1
   25    28	 1
   26    30	 1
   26    74	 1
   27    72	 1
   27    75	 1
   28    73	 1
   28    30	 1
   28    74	 1
   29    73	 1
   30    72	 1
   31    57	 1
   31    64	 1
   31    65	 1
   32    63	 1
   33    36	 1
   33    39	 1
   33    51	 1
   34    37	 1
   34    78	 1
   34    77	 1
   34    40	 1
   34    41	 1
   35    38	 1
   35    51	 1
   35    43	 1
   35    42	 1
   36    76	 1
   36    40	 1
   36    41	 1
   36    52	 1
   36    53	 1
   36    78	 1
   37    39	 1
   37    88	 1
   37    89	 1
   37    90	 1
   37    56	 1
   37    54	 1
   37    55	 1
   38    76	 1
   38    77	 1
   38    52	 1
   38    53	 1
   39    76	 1
   39    77	 1
   39    45	 1
   39    44	 1
   39    79	 1
   40    43	 1
   40    42	 1
   41    46	 1
   41    50	 1
   41    80	 1
   41    81	 1
   41    82	 1
   42    45	 1
   42    44	 1
   42    79	 1
   43    47	 1
   43    83	 1
   43    49	 1
   43    87	 1
   44    46	 1
   44    50	 1
   45    80	 1
   45    81	 1
   45    82	 1
   45    48	 1
   45    84	 1
   45    86	 1
   46    79	 1
   46    49	 1
   46    87	 1
   46    85	 1
   47    50	 1
   47    86	 1
   48    83	 1
   48    87	 1
   49    84	 1
   50    79	 1
   50    83	 1
   50    85	 1
   51    77	 1
   51    78	 1
   51    91	 1
   51    92	 1
   51    93	 1
   52    56	 1
   52    54	 1
   52    55	 1
   53    88	 1
   53    89	 1
   53    90	 1
   54    91	 1
   54    92	 1
   54    93	 1
   55    91	 1
   55    92	 1
   55    93	 1
   57    63	 1
   57    58	 1
   57    59	 1
   63    64	 1
   63    65	 1
   64    66	 1
   65    66	 1
   66    70	 1
   66    71	 1
   72    73	 1
   74    75	 1
   79    80	 1
   79    81	 1
   79    82	 1
   83    84	 1
   84    85	 1
   85    86	 1
   86    87	 1

[ angles ]
;	ai	  aj	ak funct			c0			  c1			c2			  c3
   33     1     2	5 ;     CG2R61      CG2O1      OG2D1
   33     1     3	5 ;     CG2R61      CG2O1      NG2S1
    2     1     3	5 ;      OG2D1      CG2O1      NG2S1
    1     3     5	5 ;      CG2O1      NG2S1      CG311
    1     3     4	5 ;      CG2O1      NG2S1       HGP1
    5     3     4	5 ;      CG311      NG2S1       HGP1
   16     5     3	5 ;      CG311      CG311      NG2S1
   16     5     6	5 ;      CG311      CG311      CG321
   16     5    57	5 ;      CG311      CG311       HGA1
    3     5     6	5 ;      NG2S1      CG311      CG321
    3     5    57	5 ;      NG2S1      CG311       HGA1
    6     5    57	5 ;      CG321      CG311       HGA1
    5     6     7	5 ;      CG311      CG321      OG301
    5     6    58	5 ;      CG311      CG321       HGA2
    5     6    59	5 ;      CG311      CG321       HGA2
    7     6    58	5 ;      OG301      CG321       HGA2
    7     6    59	5 ;      OG301      CG321       HGA2
   58     6    59	5 ;       HGA2      CG321       HGA2
    6     7     8	5 ;      CG321      OG301     CG2R61
    7     8    15	5 ;      OG301     CG2R61     CG2R61
    7     8     9	5 ;      OG301     CG2R61     CG2R61
   15     8     9	5 ;     CG2R61     CG2R61     CG2R61
    8     9    10	5 ;     CG2R61     CG2R61     CG2R66
    8     9    60	5 ;     CG2R61     CG2R61      HGR62
   10     9    60	5 ;     CG2R66     CG2R61      HGR62
    9    10    12	5 ;     CG2R61     CG2R66     CG2R61
    9    10    11	5 ;     CG2R61     CG2R66       FGR1
   12    10    11	5 ;     CG2R61     CG2R66       FGR1
   13    12    10	5 ;     CG2R66     CG2R61     CG2R66
   13    12    61	5 ;     CG2R66     CG2R61      HGR62
   10    12    61	5 ;     CG2R66     CG2R61      HGR62
   15    13    14	5 ;     CG2R61     CG2R66       FGR1
   15    13    12	5 ;     CG2R61     CG2R66     CG2R61
   14    13    12	5 ;       FGR1     CG2R66     CG2R61
    8    15    13	5 ;     CG2R61     CG2R61     CG2R66
    8    15    62	5 ;     CG2R61     CG2R61      HGR62
   13    15    62	5 ;     CG2R66     CG2R61      HGR62
   17    16    31	5 ;      CG321      CG311      OG311
   17    16     5	5 ;      CG321      CG311      CG311
   17    16    63	5 ;      CG321      CG311       HGA1
   31    16     5	5 ;      OG311      CG311      CG311
   31    16    63	5 ;      OG311      CG311       HGA1
    5    16    63	5 ;      CG311      CG311       HGA1
   18    17    16	5 ;      CG311      CG321      CG311
   18    17    64	5 ;      CG311      CG321       HGA2
   18    17    65	5 ;      CG311      CG321       HGA2
   16    17    64	5 ;      CG311      CG321       HGA2
   16    17    65	5 ;      CG311      CG321       HGA2
   64    17    65	5 ;       HGA2      CG321       HGA2
   21    18    17	5 ;      CG321      CG311      CG321
   21    18    19	5 ;      CG321      CG311      OG301
   21    18    66	5 ;      CG321      CG311       HGA1
   17    18    19	5 ;      CG321      CG311      OG301
   17    18    66	5 ;      CG321      CG311       HGA1
   19    18    66	5 ;      OG301      CG311       HGA1
   18    19    20	5 ;      CG311      OG301      CG331
   19    20    67	5 ;      OG301      CG331       HGA3
   19    20    68	5 ;      OG301      CG331       HGA3
   19    20    69	5 ;      OG301      CG331       HGA3
   67    20    68	5 ;       HGA3      CG331       HGA3
   67    20    69	5 ;       HGA3      CG331       HGA3
   68    20    69	5 ;       HGA3      CG331       HGA3
   22    21    18	5 ;      NG311      CG321      CG311
   22    21    70	5 ;      NG311      CG321       HGA2
   22    21    71	5 ;      NG311      CG321       HGA2
   18    21    70	5 ;      CG311      CG321       HGA2
   18    21    71	5 ;      CG311      CG321       HGA2
   70    21    71	5 ;       HGA2      CG321       HGA2
   24    22    23	5 ;     CG2R61      NG311     HGPAM1
   24    22    21	5 ;     CG2R61      NG311      CG321
   23    22    21	5 ;     HGPAM1      NG311      CG321
   25    24    30	5 ;     CG2R61     CG2R61     CG2R61
   25    24    22	5 ;     CG2R61     CG2R61      NG311
   30    24    22	5 ;     CG2R61     CG2R61      NG311
   26    25    24	5 ;     CG2R61     CG2R61     CG2R61
   26    25    72	5 ;     CG2R61     CG2R61      HGR61
   24    25    72	5 ;     CG2R61     CG2R61      HGR61
   27    26    25	5 ;     CG2R66     CG2R61     CG2R61
   27    26    73	5 ;     CG2R66     CG2R61      HGR62
   25    26    73	5 ;     CG2R61     CG2R61      HGR62
   28    27    26	5 ;       FGR1     CG2R66     CG2R61
   28    27    29	5 ;       FGR1     CG2R66     CG2R61
   26    27    29	5 ;     CG2R61     CG2R66     CG2R61
   27    29    30	5 ;     CG2R66     CG2R61     CG2R61
   27    29    74	5 ;     CG2R66     CG2R61      HGR62
   30    29    74	5 ;     CG2R61     CG2R61      HGR62
   29    30    24	5 ;     CG2R61     CG2R61     CG2R61
   29    30    75	5 ;     CG2R61     CG2R61      HGR61
   24    30    75	5 ;     CG2R61     CG2R61      HGR61
   16    31    32	5 ;      CG311      OG311       HGP1
   38    33    34	5 ;     CG2R61     CG2R61     CG2R61
   38    33     1	5 ;     CG2R61     CG2R61      CG2O1
   34    33     1	5 ;     CG2R61     CG2R61      CG2O1
   35    34    33	5 ;     CG2R61     CG2R61     CG2R61
   35    34    76	5 ;     CG2R61     CG2R61      HGR61
   33    34    76	5 ;     CG2R61     CG2R61      HGR61
   36    35    39	5 ;     CG2R61     CG2R61      CG2O1
   36    35    34	5 ;     CG2R61     CG2R61     CG2R61
   39    35    34	5 ;      CG2O1     CG2R61     CG2R61
   37    36    35	5 ;     CG2R61     CG2R61     CG2R61
   37    36    77	5 ;     CG2R61     CG2R61      HGR61
   35    36    77	5 ;     CG2R61     CG2R61      HGR61
   51    37    36	5 ;      NG301     CG2R61     CG2R61
   51    37    38	5 ;      NG301     CG2R61     CG2R61
   36    37    38	5 ;     CG2R61     CG2R61     CG2R61
   37    38    33	5 ;     CG2R61     CG2R61     CG2R61
   37    38    78	5 ;     CG2R61     CG2R61      HGR61
   33    38    78	5 ;     CG2R61     CG2R61      HGR61
   40    39    35	5 ;      OG2D1      CG2O1     CG2R61
   40    39    41	5 ;      OG2D1      CG2O1      NG2S1
   35    39    41	5 ;     CG2R61      CG2O1      NG2S1
   39    41    43	5 ;      CG2O1      NG2S1      CG311
   39    41    42	5 ;      CG2O1      NG2S1       HGP1
   43    41    42	5 ;      CG311      NG2S1       HGP1
   45    43    41	5 ;     CG2R61      CG311      NG2S1
   45    43    44	5 ;     CG2R61      CG311      CG331
   45    43    79	5 ;     CG2R61      CG311       HGA1
   41    43    44	5 ;      NG2S1      CG311      CG331
   41    43    79	5 ;      NG2S1      CG311       HGA1
   44    43    79	5 ;      CG331      CG311       HGA1
   43    44    80	5 ;      CG311      CG331       HGA3
   43    44    81	5 ;      CG311      CG331       HGA3
   43    44    82	5 ;      CG311      CG331       HGA3
   80    44    81	5 ;       HGA3      CG331       HGA3
   80    44    82	5 ;       HGA3      CG331       HGA3
   81    44    82	5 ;       HGA3      CG331       HGA3
   46    45    43	5 ;     CG2R61     CG2R61      CG311
   46    45    50	5 ;     CG2R61     CG2R61     CG2R61
   43    45    50	5 ;      CG311     CG2R61     CG2R61
   47    46    45	5 ;     CG2R61     CG2R61     CG2R61
   47    46    83	5 ;     CG2R61     CG2R61      HGR61
   45    46    83	5 ;     CG2R61     CG2R61      HGR61
   46    47    48	5 ;     CG2R61     CG2R61     CG2R61
   46    47    84	5 ;     CG2R61     CG2R61      HGR61
   48    47    84	5 ;     CG2R61     CG2R61      HGR61
   47    48    49	5 ;     CG2R61     CG2R61     CG2R61
   47    48    85	5 ;     CG2R61     CG2R61      HGR61
   49    48    85	5 ;     CG2R61     CG2R61      HGR61
   48    49    50	5 ;     CG2R61     CG2R61     CG2R61
   48    49    86	5 ;     CG2R61     CG2R61      HGR61
   50    49    86	5 ;     CG2R61     CG2R61      HGR61
   45    50    49	5 ;     CG2R61     CG2R61     CG2R61
   45    50    87	5 ;     CG2R61     CG2R61      HGR61
   49    50    87	5 ;     CG2R61     CG2R61      HGR61
   52    51    53	5 ;      CG331      NG301      SG3O2
   52    51    37	5 ;      CG331      NG301     CG2R61
   53    51    37	5 ;      SG3O2      NG301     CG2R61
   51    52    88	5 ;      NG301      CG331       HGA3
   51    52    89	5 ;      NG301      CG331       HGA3
   51    52    90	5 ;      NG301      CG331       HGA3
   88    52    89	5 ;       HGA3      CG331       HGA3
   88    52    90	5 ;       HGA3      CG331       HGA3
   89    52    90	5 ;       HGA3      CG331       HGA3
   56    53    51	5 ;      CG331      SG3O2      NG301
   56    53    54	5 ;      CG331      SG3O2      OG2P1
   56    53    55	5 ;      CG331      SG3O2      OG2P1
   51    53    54	5 ;      NG301      SG3O2      OG2P1
   51    53    55	5 ;      NG301      SG3O2      OG2P1
   54    53    55	5 ;      OG2P1      SG3O2      OG2P1
   53    56    91	5 ;      SG3O2      CG331       HGA3
   53    56    92	5 ;      SG3O2      CG331       HGA3
   53    56    93	5 ;      SG3O2      CG331       HGA3
   91    56    92	5 ;       HGA3      CG331       HGA3
   91    56    93	5 ;       HGA3      CG331       HGA3
   92    56    93	5 ;       HGA3      CG331       HGA3

[ dihedrals ]
;	ai	  aj	ak	  al funct			  c0			c1			  c2			c3			  c4			c5
    2     1    33    38	 9 ;      OG2D1      CG2O1     CG2R61     CG2R61
    2     1    33    34	 9 ;      OG2D1      CG2O1     CG2R61     CG2R61
    3     1    33    38	 9 ;      NG2S1      CG2O1     CG2R61     CG2R61
    3     1    33    34	 9 ;      NG2S1      CG2O1     CG2R61     CG2R61
   33     1     3     5	 9 ;     CG2R61      CG2O1      NG2S1      CG311
   33     1     3     4	 9 ;     CG2R61      CG2O1      NG2S1       HGP1
    2     1     3     5	 9 ;      OG2D1      CG2O1      NG2S1      CG311
    2     1     3     4	 9 ;      OG2D1      CG2O1      NG2S1       HGP1
    1     3     5    16	 9 ;      CG2O1      NG2S1      CG311      CG311
    1     3     5     6	 9 ;      CG2O1      NG2S1      CG311      CG321
    1     3     5    57	 9 ;      CG2O1      NG2S1      CG311       HGA1
    4     3     5    16	 9 ;       HGP1      NG2S1      CG311      CG311
    4     3     5     6	 9 ;       HGP1      NG2S1      CG311      CG321
    4     3     5    57	 9 ;       HGP1      NG2S1      CG311       HGA1
    3     5    16    17	 9 ;      NG2S1      CG311      CG311      CG321
    3     5    16    31	 9 ;      NG2S1      CG311      CG311      OG311
    3     5    16    63	 9 ;      NG2S1      CG311      CG311       HGA1
    6     5    16    17	 9 ;      CG321      CG311      CG311      CG321
    6     5    16    31	 9 ;      CG321      CG311      CG311      OG311
    6     5    16    63	 9 ;      CG321      CG311      CG311       HGA1
   57     5    16    17	 9 ;       HGA1      CG311      CG311      CG321
   57     5    16    31	 9 ;       HGA1      CG311      CG311      OG311
   57     5    16    63	 9 ;       HGA1      CG311      CG311       HGA1
   16     5     6     7	 9 ;      CG311      CG311      CG321      OG301
   16     5     6    58	 9 ;      CG311      CG311      CG321       HGA2
   16     5     6    59	 9 ;      CG311      CG311      CG321       HGA2
    3     5     6     7	 9 ;      NG2S1      CG311      CG321      OG301
    3     5     6    58	 9 ;      NG2S1      CG311      CG321       HGA2
    3     5     6    59	 9 ;      NG2S1      CG311      CG321       HGA2
   57     5     6     7	 9 ;       HGA1      CG311      CG321      OG301
   57     5     6    58	 9 ;       HGA1      CG311      CG321       HGA2
   57     5     6    59	 9 ;       HGA1      CG311      CG321       HGA2
    5     6     7     8	 9 ;      CG311      CG321      OG301     CG2R61
   58     6     7     8	 9 ;       HGA2      CG321      OG301     CG2R61
   59     6     7     8	 9 ;       HGA2      CG321      OG301     CG2R61
    6     7     8    15	 9 ;      CG321      OG301     CG2R61     CG2R61
    6     7     8     9	 9 ;      CG321      OG301     CG2R61     CG2R61
    7     8    15    13	 9 ;      OG301     CG2R61     CG2R61     CG2R66
    7     8    15    62	 9 ;      OG301     CG2R61     CG2R61      HGR62
    9     8    15    13	 9 ;     CG2R61     CG2R61     CG2R61     CG2R66
    9     8    15    62	 9 ;     CG2R61     CG2R61     CG2R61      HGR62
    7     8     9    10	 9 ;      OG301     CG2R61     CG2R61     CG2R66
    7     8     9    60	 9 ;      OG301     CG2R61     CG2R61      HGR62
   15     8     9    10	 9 ;     CG2R61     CG2R61     CG2R61     CG2R66
   15     8     9    60	 9 ;     CG2R61     CG2R61     CG2R61      HGR62
    8     9    10    12	 9 ;     CG2R61     CG2R61     CG2R66     CG2R61
    8     9    10    11	 9 ;     CG2R61     CG2R61     CG2R66       FGR1
   60     9    10    12	 9 ;      HGR62     CG2R61     CG2R66     CG2R61
   60     9    10    11	 9 ;      HGR62     CG2R61     CG2R66       FGR1
    9    10    12    13	 9 ;     CG2R61     CG2R66     CG2R61     CG2R66
    9    10    12    61	 9 ;     CG2R61     CG2R66     CG2R61      HGR62
   11    10    12    13	 9 ;       FGR1     CG2R66     CG2R61     CG2R66
   11    10    12    61	 9 ;       FGR1     CG2R66     CG2R61      HGR62
   10    12    13    15	 9 ;     CG2R66     CG2R61     CG2R66     CG2R61
   10    12    13    14	 9 ;     CG2R66     CG2R61     CG2R66       FGR1
   61    12    13    15	 9 ;      HGR62     CG2R61     CG2R66     CG2R61
   61    12    13    14	 9 ;      HGR62     CG2R61     CG2R66       FGR1
   14    13    15     8	 9 ;       FGR1     CG2R66     CG2R61     CG2R61
   14    13    15    62	 9 ;       FGR1     CG2R66     CG2R61      HGR62
   12    13    15     8	 9 ;     CG2R61     CG2R66     CG2R61     CG2R61
   12    13    15    62	 9 ;     CG2R61     CG2R66     CG2R61      HGR62
   31    16    17    18	 9 ;      OG311      CG311      CG321      CG311
   31    16    17    64	 9 ;      OG311      CG311      CG321       HGA2
   31    16    17    65	 9 ;      OG311      CG311      CG321       HGA2
    5    16    17    18	 9 ;      CG311      CG311      CG321      CG311
    5    16    17    64	 9 ;      CG311      CG311      CG321       HGA2
    5    16    17    65	 9 ;      CG311      CG311      CG321       HGA2
   63    16    17    18	 9 ;       HGA1      CG311      CG321      CG311
   63    16    17    64	 9 ;       HGA1      CG311      CG321       HGA2
   63    16    17    65	 9 ;       HGA1      CG311      CG321       HGA2
   17    16    31    32	 9 ;      CG321      CG311      OG311       HGP1
    5    16    31    32	 9 ;      CG311      CG311      OG311       HGP1
   63    16    31    32	 9 ;       HGA1      CG311      OG311       HGP1
   16    17    18    21	 9 ;      CG311      CG321      CG311      CG321
   16    17    18    19	 9 ;      CG311      CG321      CG311      OG301
   16    17    18    66	 9 ;      CG311      CG321      CG311       HGA1
   64    17    18    21	 9 ;       HGA2      CG321      CG311      CG321
   64    17    18    19	 9 ;       HGA2      CG321      CG311      OG301
   64    17    18    66	 9 ;       HGA2      CG321      CG311       HGA1
   65    17    18    21	 9 ;       HGA2      CG321      CG311      CG321
   65    17    18    19	 9 ;       HGA2      CG321      CG311      OG301
   65    17    18    66	 9 ;       HGA2      CG321      CG311       HGA1
   17    18    21    22	 9 ;      CG321      CG311      CG321      NG311
   17    18    21    70	 9 ;      CG321      CG311      CG321       HGA2
   17    18    21    71	 9 ;      CG321      CG311      CG321       HGA2
   19    18    21    22	 9 ;      OG301      CG311      CG321      NG311
   19    18    21    70	 9 ;      OG301      CG311      CG321       HGA2
   19    18    21    71	 9 ;      OG301      CG311      CG321       HGA2
   66    18    21    22	 9 ;       HGA1      CG311      CG321      NG311
   66    18    21    70	 9 ;       HGA1      CG311      CG321       HGA2
   66    18    21    71	 9 ;       HGA1      CG311      CG321       HGA2
   21    18    19    20	 9 ;      CG321      CG311      OG301      CG331
   17    18    19    20	 9 ;      CG321      CG311      OG301      CG331
   66    18    19    20	 9 ;       HGA1      CG311      OG301      CG331
   18    19    20    67	 9 ;      CG311      OG301      CG331       HGA3
   18    19    20    68	 9 ;      CG311      OG301      CG331       HGA3
   18    19    20    69	 9 ;      CG311      OG301      CG331       HGA3
   18    21    22    24	 9 ;      CG311      CG321      NG311     CG2R61
   18    21    22    23	 9 ;      CG311      CG321      NG311     HGPAM1
   70    21    22    24	 9 ;       HGA2      CG321      NG311     CG2R61
   70    21    22    23	 9 ;       HGA2      CG321      NG311     HGPAM1
   71    21    22    24	 9 ;       HGA2      CG321      NG311     CG2R61
   71    21    22    23	 9 ;       HGA2      CG321      NG311     HGPAM1
   23    22    24    25	 9 ;     HGPAM1      NG311     CG2R61     CG2R61
   23    22    24    30	 9 ;     HGPAM1      NG311     CG2R61     CG2R61
   21    22    24    25	 9 ;      CG321      NG311     CG2R61     CG2R61
   21    22    24    30	 9 ;      CG321      NG311     CG2R61     CG2R61
   30    24    25    26	 9 ;     CG2R61     CG2R61     CG2R61     CG2R61
   30    24    25    72	 9 ;     CG2R61     CG2R61     CG2R61      HGR61
   22    24    25    26	 9 ;      NG311     CG2R61     CG2R61     CG2R61
   22    24    25    72	 9 ;      NG311     CG2R61     CG2R61      HGR61
   25    24    30    29	 9 ;     CG2R61     CG2R61     CG2R61     CG2R61
   25    24    30    75	 9 ;     CG2R61     CG2R61     CG2R61      HGR61
   22    24    30    29	 9 ;      NG311     CG2R61     CG2R61     CG2R61
   22    24    30    75	 9 ;      NG311     CG2R61     CG2R61      HGR61
   24    25    26    27	 9 ;     CG2R61     CG2R61     CG2R61     CG2R66
   24    25    26    73	 9 ;     CG2R61     CG2R61     CG2R61      HGR62
   72    25    26    27	 9 ;      HGR61     CG2R61     CG2R61     CG2R66
   72    25    26    73	 9 ;      HGR61     CG2R61     CG2R61      HGR62
   25    26    27    28	 9 ;     CG2R61     CG2R61     CG2R66       FGR1
   25    26    27    29	 9 ;     CG2R61     CG2R61     CG2R66     CG2R61
   73    26    27    28	 9 ;      HGR62     CG2R61     CG2R66       FGR1
   73    26    27    29	 9 ;      HGR62     CG2R61     CG2R66     CG2R61
   28    27    29    30	 9 ;       FGR1     CG2R66     CG2R61     CG2R61
   28    27    29    74	 9 ;       FGR1     CG2R66     CG2R61      HGR62
   26    27    29    30	 9 ;     CG2R61     CG2R66     CG2R61     CG2R61
   26    27    29    74	 9 ;     CG2R61     CG2R66     CG2R61      HGR62
   27    29    30    24	 9 ;     CG2R66     CG2R61     CG2R61     CG2R61
   27    29    30    75	 9 ;     CG2R66     CG2R61     CG2R61      HGR61
   74    29    30    24	 9 ;      HGR62     CG2R61     CG2R61     CG2R61
   74    29    30    75	 9 ;      HGR62     CG2R61     CG2R61      HGR61
   34    33    38    37	 9 ;     CG2R61     CG2R61     CG2R61     CG2R61
   34    33    38    78	 9 ;     CG2R61     CG2R61     CG2R61      HGR61
    1    33    38    37	 9 ;      CG2O1     CG2R61     CG2R61     CG2R61
    1    33    38    78	 9 ;      CG2O1     CG2R61     CG2R61      HGR61
   38    33    34    35	 9 ;     CG2R61     CG2R61     CG2R61     CG2R61
   38    33    34    76	 9 ;     CG2R61     CG2R61     CG2R61      HGR61
    1    33    34    35	 9 ;      CG2O1     CG2R61     CG2R61     CG2R61
    1    33    34    76	 9 ;      CG2O1     CG2R61     CG2R61      HGR61
   33    34    35    36	 9 ;     CG2R61     CG2R61     CG2R61     CG2R61
   33    34    35    39	 9 ;     CG2R61     CG2R61     CG2R61      CG2O1
   76    34    35    36	 9 ;      HGR61     CG2R61     CG2R61     CG2R61
   76    34    35    39	 9 ;      HGR61     CG2R61     CG2R61      CG2O1
   39    35    36    37	 9 ;      CG2O1     CG2R61     CG2R61     CG2R61
   39    35    36    77	 9 ;      CG2O1     CG2R61     CG2R61      HGR61
   34    35    36    37	 9 ;     CG2R61     CG2R61     CG2R61     CG2R61
   34    35    36    77	 9 ;     CG2R61     CG2R61     CG2R61      HGR61
   36    35    39    40	 9 ;     CG2R61     CG2R61      CG2O1      OG2D1
   36    35    39    41	 9 ;     CG2R61     CG2R61      CG2O1      NG2S1
   34    35    39    40	 9 ;     CG2R61     CG2R61      CG2O1      OG2D1
   34    35    39    41	 9 ;     CG2R61     CG2R61      CG2O1      NG2S1
   35    36    37    51	 9 ;     CG2R61     CG2R61     CG2R61      NG301
   35    36    37    38	 9 ;     CG2R61     CG2R61     CG2R61     CG2R61
   77    36    37    51	 9 ;      HGR61     CG2R61     CG2R61      NG301
   77    36    37    38	 9 ;      HGR61     CG2R61     CG2R61     CG2R61
   36    37    51    52	 9 ;     CG2R61     CG2R61      NG301      CG331
   36    37    51    53	 9 ;     CG2R61     CG2R61      NG301      SG3O2
   38    37    51    52	 9 ;     CG2R61     CG2R61      NG301      CG331
   38    37    51    53	 9 ;     CG2R61     CG2R61      NG301      SG3O2
   51    37    38    33	 9 ;      NG301     CG2R61     CG2R61     CG2R61
   51    37    38    78	 9 ;      NG301     CG2R61     CG2R61      HGR61
   36    37    38    33	 9 ;     CG2R61     CG2R61     CG2R61     CG2R61
   36    37    38    78	 9 ;     CG2R61     CG2R61     CG2R61      HGR61
   40    39    41    43	 9 ;      OG2D1      CG2O1      NG2S1      CG311
   40    39    41    42	 9 ;      OG2D1      CG2O1      NG2S1       HGP1
   35    39    41    43	 9 ;     CG2R61      CG2O1      NG2S1      CG311
   35    39    41    42	 9 ;     CG2R61      CG2O1      NG2S1       HGP1
   39    41    43    45	 9 ;      CG2O1      NG2S1      CG311     CG2R61
   39    41    43    44	 9 ;      CG2O1      NG2S1      CG311      CG331
   39    41    43    79	 9 ;      CG2O1      NG2S1      CG311       HGA1
   42    41    43    45	 9 ;       HGP1      NG2S1      CG311     CG2R61
   42    41    43    44	 9 ;       HGP1      NG2S1      CG311      CG331
   42    41    43    79	 9 ;       HGP1      NG2S1      CG311       HGA1
   41    43    45    46	 9 ;      NG2S1      CG311     CG2R61     CG2R61
   41    43    45    50	 9 ;      NG2S1      CG311     CG2R61     CG2R61
   44    43    45    46	 9 ;      CG331      CG311     CG2R61     CG2R61
   44    43    45    50	 9 ;      CG331      CG311     CG2R61     CG2R61
   79    43    45    46	 9 ;       HGA1      CG311     CG2R61     CG2R61
   79    43    45    50	 9 ;       HGA1      CG311     CG2R61     CG2R61
   45    43    44    80	 9 ;     CG2R61      CG311      CG331       HGA3
   45    43    44    81	 9 ;     CG2R61      CG311      CG331       HGA3
   45    43    44    82	 9 ;     CG2R61      CG311      CG331       HGA3
   41    43    44    80	 9 ;      NG2S1      CG311      CG331       HGA3
   41    43    44    81	 9 ;      NG2S1      CG311      CG331       HGA3
   41    43    44    82	 9 ;      NG2S1      CG311      CG331       HGA3
   79    43    44    80	 9 ;       HGA1      CG311      CG331       HGA3
   79    43    44    81	 9 ;       HGA1      CG311      CG331       HGA3
   79    43    44    82	 9 ;       HGA1      CG311      CG331       HGA3
   43    45    46    47	 9 ;      CG311     CG2R61     CG2R61     CG2R61
   43    45    46    83	 9 ;      CG311     CG2R61     CG2R61      HGR61
   50    45    46    47	 9 ;     CG2R61     CG2R61     CG2R61     CG2R61
   50    45    46    83	 9 ;     CG2R61     CG2R61     CG2R61      HGR61
   46    45    50    49	 9 ;     CG2R61     CG2R61     CG2R61     CG2R61
   46    45    50    87	 9 ;     CG2R61     CG2R61     CG2R61      HGR61
   43    45    50    49	 9 ;      CG311     CG2R61     CG2R61     CG2R61
   43    45    50    87	 9 ;      CG311     CG2R61     CG2R61      HGR61
   45    46    47    48	 9 ;     CG2R61     CG2R61     CG2R61     CG2R61
   45    46    47    84	 9 ;     CG2R61     CG2R61     CG2R61      HGR61
   83    46    47    48	 9 ;      HGR61     CG2R61     CG2R61     CG2R61
   83    46    47    84	 9 ;      HGR61     CG2R61     CG2R61      HGR61
   46    47    48    49	 9 ;     CG2R61     CG2R61     CG2R61     CG2R61
   46    47    48    85	 9 ;     CG2R61     CG2R61     CG2R61      HGR61
   84    47    48    49	 9 ;      HGR61     CG2R61     CG2R61     CG2R61
   84    47    48    85	 9 ;      HGR61     CG2R61     CG2R61      HGR61
   47    48    49    50	 9 ;     CG2R61     CG2R61     CG2R61     CG2R61
   47    48    49    86	 9 ;     CG2R61     CG2R61     CG2R61      HGR61
   85    48    49    50	 9 ;      HGR61     CG2R61     CG2R61     CG2R61
   85    48    49    86	 9 ;      HGR61     CG2R61     CG2R61      HGR61
   48    49    50    45	 9 ;     CG2R61     CG2R61     CG2R61     CG2R61
   48    49    50    87	 9 ;     CG2R61     CG2R61     CG2R61      HGR61
   86    49    50    45	 9 ;      HGR61     CG2R61     CG2R61     CG2R61
   86    49    50    87	 9 ;      HGR61     CG2R61     CG2R61      HGR61
   53    51    52    88	 9 ;      SG3O2      NG301      CG331       HGA3
   53    51    52    89	 9 ;      SG3O2      NG301      CG331       HGA3
   53    51    52    90	 9 ;      SG3O2      NG301      CG331       HGA3
   37    51    52    88	 9 ;     CG2R61      NG301      CG331       HGA3
   37    51    52    89	 9 ;     CG2R61      NG301      CG331       HGA3
   37    51    52    90	 9 ;     CG2R61      NG301      CG331       HGA3
   52    51    53    56	 9 ;      CG331      NG301      SG3O2      CG331
   52    51    53    54	 9 ;      CG331      NG301      SG3O2      OG2P1
   52    51    53    55	 9 ;      CG331      NG301      SG3O2      OG2P1
   37    51    53    56	 9 ;     CG2R61      NG301      SG3O2      CG331
   37    51    53    54	 9 ;     CG2R61      NG301      SG3O2      OG2P1
   37    51    53    55	 9 ;     CG2R61      NG301      SG3O2      OG2P1
   51    53    56    91	 9 ;      NG301      SG3O2      CG331       HGA3
   51    53    56    92	 9 ;      NG301      SG3O2      CG331       HGA3
   51    53    56    93	 9 ;      NG301      SG3O2      CG331       HGA3
   54    53    56    91	 9 ;      OG2P1      SG3O2      CG331       HGA3
   54    53    56    92	 9 ;      OG2P1      SG3O2      CG331       HGA3
   54    53    56    93	 9 ;      OG2P1      SG3O2      CG331       HGA3
   55    53    56    91	 9 ;      OG2P1      SG3O2      CG331       HGA3
   55    53    56    92	 9 ;      OG2P1      SG3O2      CG331       HGA3
   55    53    56    93	 9 ;      OG2P1      SG3O2      CG331       HGA3

[ dihedrals ]
;	ai	  aj	ak	  al funct			  c0			c1			  c2			c3
    1    33     3     2	 2
   39    35    41    40	 2

