GROningen Mixture of Alchemy and Childrens' Stories
   67
    1LIG     C1    1  -1.244   0.664  -1.491
    1LIG     C2    2  -1.148   0.541  -1.489
    1LIG     N1    3  -1.213   0.442  -1.585
    1LIG     H1    4  -1.287   0.496  -1.632
    1LIG     H2    5  -1.145   0.422  -1.659
    1LIG     C3    6  -1.270   0.308  -1.539
    1LIG     C4    7  -1.247   0.306  -1.385
    1LIG     C5    8  -1.277   0.169  -1.322
    1LIG     C6    9  -1.190   0.060  -1.383
    1LIG     C7   10  -1.198   0.058  -1.536
    1LIG     C8   11  -1.179   0.197  -1.599
    1LIG     C9   12  -1.420   0.301  -1.573
    1LIG    C10   13  -1.518   0.359  -1.489
    1LIG    C11   14  -1.655   0.358  -1.523
    1LIG    C12   15  -1.696   0.292  -1.639
    1LIG    C13   16  -1.602   0.231  -1.721
    1LIG    C14   17  -1.467   0.237  -1.690
    1LIG    C15   18  -1.758   0.429  -1.438
    1LIG    C16   19  -1.898   0.376  -1.465
    1LIG     O1   20  -1.160   0.774  -1.452
    1LIG     H3   21  -1.066   0.745  -1.457
    1LIG    C17   22  -1.330   0.694  -1.618
    1LIG    C18   23  -1.464   0.760  -1.578
    1LIG    C19   24  -1.587   0.709  -1.649
    1LIG    C20   25  -1.716   0.740  -1.603
    1LIG    C21   26  -1.829   0.693  -1.671
    1LIG     F1   27  -1.950   0.724  -1.625
    1LIG    C22   28  -1.816   0.613  -1.784
    1LIG    C23   29  -1.690   0.584  -1.831
    1LIG    C24   30  -1.575   0.631  -1.765
    1LIG     F2   31  -1.675   0.510  -1.941
    1LIG     N2   32  -1.255   0.783  -1.709
    1LIG    C25   33  -1.183   0.738  -1.818
    1LIG     O2   34  -1.176   0.618  -1.839
    1LIG    C26   35  -1.116   0.847  -1.900
    1LIG     H4   36  -1.243   0.882  -1.684
    1LIG     HC   37  -1.314   0.649  -1.409
    1LIG    HC2   38  -1.141   0.499  -1.388
    1LIG    HC3   39  -1.049   0.570  -1.525
    1LIG    HC4   40  -1.312   0.380  -1.338
    1LIG    HC5   41  -1.143   0.332  -1.364
    1LIG    HC6   42  -1.259   0.174  -1.215
    1LIG    HC7   43  -1.382   0.145  -1.339
    1LIG    HC8   44  -1.224  -0.036  -1.346
    1LIG    HC9   45  -1.087   0.076  -1.353
    1LIG   HC10   46  -1.120  -0.008  -1.573
    1LIG   HC11   47  -1.295   0.019  -1.566
    1LIG   HC12   48  -1.201   0.189  -1.706
    1LIG   HC13   49  -1.075   0.227  -1.587
    1LIG    HC1   50  -1.487   0.406  -1.397
    1LIG   HC14   51  -1.801   0.290  -1.665
    1LIG   HC15   52  -1.635   0.178  -1.809
    1LIG   HC16   53  -1.395   0.192  -1.757
    1LIG   HC17   54  -1.734   0.415  -1.333
    1LIG   HC18   55  -1.755   0.536  -1.462
    1LIG   HC19   56  -1.967   0.416  -1.390
    1LIG   HC20   57  -1.931   0.407  -1.564
    1LIG   HC21   58  -1.897   0.267  -1.459
    1LIG   HC22   59  -1.351   0.600  -1.669
    1LIG   HC23   60  -1.456   0.867  -1.599
    1LIG   HC24   61  -1.479   0.748  -1.471
    1LIG   HC25   62  -1.729   0.803  -1.516
    1LIG   HC26   63  -1.904   0.576  -1.835
    1LIG   HC27   64  -1.477   0.607  -1.804
    1LIG   HC28   65  -1.062   0.801  -1.983
    1LIG   HC29   66  -1.192   0.915  -1.938
    1LIG   HC30   67  -1.046   0.902  -1.837
   0.00000   0.00000   0.00000
