; Created by cgenff_charmm2gmx.py

[ moleculetype ]
; Name			   nrexcl
LIG				 3

[ atoms ]
;	 nr		  type	resnr residue  atom   cgnr	   charge		mass  typeB    chargeB		massB
; residue	 1 LIG rtp LIG q	qsum
     1      CG311      1    LIG     C1      1      0.089     12.011   ;
     2      CG324      1    LIG     C2      2      0.208     12.011   ;
     3      NG3P2      1    LIG     N1      3     -0.450     14.007   ;
     4       HGP2      1    LIG     H1      4      0.341      1.008   ;
     5       HGP2      1    LIG     H2      5      0.341      1.008   ;
     6      CG301      1    LIG     C3      6      0.295     12.011   ;
     7      CG321      1    LIG     C4      7     -0.147     12.011   ;
     8      CG321      1    LIG     C5      8     -0.202     12.011   ;
     9      CG321      1    LIG     C6      9     -0.176     12.011   ;
    10      CG321      1    LIG     C7     10     -0.202     12.011   ;
    11      CG321      1    LIG     C8     11     -0.147     12.011   ;
    12     CG2R61      1    LIG     C9     12      0.086     12.011   ;
    13     CG2R61      1    LIG    C10     13     -0.137     12.011   ;
    14     CG2R61      1    LIG    C11     14      0.007     12.011   ;
    15     CG2R61      1    LIG    C12     15     -0.124     12.011   ;
    16     CG2R61      1    LIG    C13     16     -0.109     12.011   ;
    17     CG2R61      1    LIG    C14     17     -0.129     12.011   ;
    18      CG321      1    LIG    C15     18     -0.175     12.011   ;
    19      CG331      1    LIG    C16     19     -0.271     12.011   ;
    20      OG311      1    LIG     O1     20     -0.625     15.999   ;
    21       HGP1      1    LIG     H3     21      0.415      1.008   ;
    22      CG311      1    LIG    C17     22     -0.007     12.011   ;
    23      CG321      1    LIG    C18     23     -0.153     12.011   ;
    24     CG2R61      1    LIG    C19     24      0.057     12.011   ;
    25     CG2R61      1    LIG    C20     25     -0.218     12.011   ;
    26     CG2R66      1    LIG    C21     26      0.261     12.011   ;
    27       FGR1      1    LIG     F1     27     -0.210     18.998   ;
    28     CG2R61      1    LIG    C22     28     -0.240     12.011   ;
    29     CG2R66      1    LIG    C23     29      0.261     12.011   ;
    30     CG2R61      1    LIG    C24     30     -0.218     12.011   ;
    31       FGR1      1    LIG     F2     31     -0.210     18.998   ;
    32      NG2S1      1    LIG     N2     32     -0.339     14.007   ;
    33      CG2O1      1    LIG    C25     33      0.488     12.011   ;
    34      OG2D1      1    LIG     O2     34     -0.509     15.999   ;
    35      CG331      1    LIG    C26     35     -0.270     12.011   ;
    36       HGP1      1    LIG     H4     36      0.261      1.008   ;
    37       HGA1      1    LIG     HC     37      0.090      1.008   ;
    38       HGA2      1    LIG    HC2     38      0.090      1.008   ;
    39       HGA2      1    LIG    HC3     39      0.090      1.008   ;
    40       HGA2      1    LIG    HC4     40      0.090      1.008   ;
    41       HGA2      1    LIG    HC5     41      0.090      1.008   ;
    42       HGA2      1    LIG    HC6     42      0.090      1.008   ;
    43       HGA2      1    LIG    HC7     43      0.090      1.008   ;
    44       HGA2      1    LIG    HC8     44      0.090      1.008   ;
    45       HGA2      1    LIG    HC9     45      0.090      1.008   ;
    46       HGA2      1    LIG   HC10     46      0.090      1.008   ;
    47       HGA2      1    LIG   HC11     47      0.090      1.008   ;
    48       HGA2      1    LIG   HC12     48      0.090      1.008   ;
    49       HGA2      1    LIG   HC13     49      0.090      1.008   ;
    50      HGR61      1    LIG    HC1     50      0.116      1.008   ;
    51      HGR61      1    LIG   HC14     51      0.116      1.008   ;
    52      HGR61      1    LIG   HC15     52      0.116      1.008   ;
    53      HGR61      1    LIG   HC16     53      0.116      1.008   ;
    54       HGA2      1    LIG   HC17     54      0.090      1.008   ;
    55       HGA2      1    LIG   HC18     55      0.090      1.008   ;
    56       HGA3      1    LIG   HC19     56      0.090      1.008   ;
    57       HGA3      1    LIG   HC20     57      0.090      1.008   ;
    58       HGA3      1    LIG   HC21     58      0.090      1.008   ;
    59       HGA1      1    LIG   HC22     59      0.090      1.008   ;
    60       HGA2      1    LIG   HC23     60      0.090      1.008   ;
    61       HGA2      1    LIG   HC24     61      0.090      1.008   ;
    62      HGR62      1    LIG   HC25     62      0.174      1.008   ;
    63      HGR62      1    LIG   HC26     63      0.186      1.008   ;
    64      HGR62      1    LIG   HC27     64      0.174      1.008   ;
    65       HGA3      1    LIG   HC28     65      0.090      1.008   ;
    66       HGA3      1    LIG   HC29     66      0.090      1.008   ;
    67       HGA3      1    LIG   HC30     67      0.090      1.008   ;

[ bonds ]
;	ai	  aj funct			  c0			c1			  c2			c3
    1    20	 1 ;       CG311      OG311
    1     2	 1 ;       CG311      CG324
    1    22	 1 ;       CG311      CG311
    1    37	 1 ;       CG311       HGA1
    2     3	 1 ;       CG324      NG3P2
    2    38	 1 ;       CG324       HGA2
    2    39	 1 ;       CG324       HGA2
    3     5	 1 ;       NG3P2       HGP2
    3     4	 1 ;       NG3P2       HGP2
    3     6	 1 ;       NG3P2      CG301
    6    11	 1 ;       CG301      CG321
    6     7	 1 ;       CG301      CG321
    6    12	 1 ;       CG301     CG2R61
    7     8	 1 ;       CG321      CG321
    7    40	 1 ;       CG321       HGA2
    7    41	 1 ;       CG321       HGA2
    8     9	 1 ;       CG321      CG321
    8    42	 1 ;       CG321       HGA2
    8    43	 1 ;       CG321       HGA2
    9    10	 1 ;       CG321      CG321
    9    44	 1 ;       CG321       HGA2
    9    45	 1 ;       CG321       HGA2
   10    11	 1 ;       CG321      CG321
   10    46	 1 ;       CG321       HGA2
   10    47	 1 ;       CG321       HGA2
   11    48	 1 ;       CG321       HGA2
   11    49	 1 ;       CG321       HGA2
   12    17	 1 ;      CG2R61     CG2R61
   12    13	 1 ;      CG2R61     CG2R61
   13    14	 1 ;      CG2R61     CG2R61
   13    50	 1 ;      CG2R61      HGR61
   14    15	 1 ;      CG2R61     CG2R61
   14    18	 1 ;      CG2R61      CG321
   15    16	 1 ;      CG2R61     CG2R61
   15    51	 1 ;      CG2R61      HGR61
   16    17	 1 ;      CG2R61     CG2R61
   16    52	 1 ;      CG2R61      HGR61
   17    53	 1 ;      CG2R61      HGR61
   18    19	 1 ;       CG321      CG331
   18    54	 1 ;       CG321       HGA2
   18    55	 1 ;       CG321       HGA2
   19    56	 1 ;       CG331       HGA3
   19    57	 1 ;       CG331       HGA3
   19    58	 1 ;       CG331       HGA3
   20    21	 1 ;       OG311       HGP1
   22    32	 1 ;       CG311      NG2S1
   22    23	 1 ;       CG311      CG321
   22    59	 1 ;       CG311       HGA1
   23    24	 1 ;       CG321     CG2R61
   23    60	 1 ;       CG321       HGA2
   23    61	 1 ;       CG321       HGA2
   24    30	 1 ;      CG2R61     CG2R61
   24    25	 1 ;      CG2R61     CG2R61
   25    26	 1 ;      CG2R61     CG2R66
   25    62	 1 ;      CG2R61      HGR62
   26    28	 1 ;      CG2R66     CG2R61
   26    27	 1 ;      CG2R66       FGR1
   28    29	 1 ;      CG2R61     CG2R66
   28    63	 1 ;      CG2R61      HGR62
   29    30	 1 ;      CG2R66     CG2R61
   29    31	 1 ;      CG2R66       FGR1
   30    64	 1 ;      CG2R61      HGR62
   32    33	 1 ;       NG2S1      CG2O1
   32    36	 1 ;       NG2S1       HGP1
   33    35	 1 ;       CG2O1      CG331
   33    34	 1 ;       CG2O1      OG2D1
   35    65	 1 ;       CG331       HGA3
   35    66	 1 ;       CG331       HGA3
   35    67	 1 ;       CG331       HGA3

[ pairs ]
;	ai	  aj funct			  c0			c1			  c2			c3
    1     5	 1
    1     4	 1
    1     6	 1
    1    33	 1
    1    36	 1
    1    24	 1
    1    60	 1
    1    61	 1
    2    21	 1
    2    32	 1
    2    23	 1
    2    59	 1
    2    11	 1
    2     7	 1
    2    12	 1
    3    20	 1
    3    22	 1
    3    37	 1
    3    10	 1
    3    48	 1
    3    49	 1
    3     8	 1
    3    40	 1
    3    41	 1
    3    17	 1
    3    13	 1
    4    38	 1
    4    39	 1
    4    11	 1
    4     7	 1
    4    12	 1
    5    38	 1
    5    39	 1
    5    11	 1
    5     7	 1
    5    12	 1
    6    38	 1
    6    39	 1
    6     9	 1
    6    42	 1
    6    43	 1
    6    46	 1
    6    47	 1
    6    16	 1
    6    53	 1
    6    14	 1
    6    50	 1
    7    10	 1
    7    48	 1
    7    49	 1
    7    17	 1
    7    13	 1
    7    44	 1
    7    45	 1
    8    11	 1
    8    12	 1
    8    46	 1
    8    47	 1
    9    40	 1
    9    41	 1
    9    48	 1
    9    49	 1
   10    12	 1
   10    42	 1
   10    43	 1
   11    40	 1
   11    41	 1
   11    17	 1
   11    13	 1
   11    44	 1
   11    45	 1
   12    48	 1
   12    49	 1
   12    40	 1
   12    41	 1
   12    15	 1
   12    18	 1
   12    52	 1
   13    16	 1
   13    53	 1
   13    51	 1
   13    19	 1
   13    54	 1
   13    55	 1
   14    17	 1
   14    52	 1
   14    56	 1
   14    57	 1
   14    58	 1
   15    50	 1
   15    19	 1
   15    54	 1
   15    55	 1
   15    53	 1
   16    18	 1
   17    50	 1
   17    51	 1
   18    50	 1
   18    51	 1
   20    38	 1
   20    39	 1
   20    32	 1
   20    23	 1
   20    59	 1
   21    22	 1
   21    37	 1
   22    38	 1
   22    39	 1
   22    30	 1
   22    25	 1
   22    35	 1
   22    34	 1
   23    37	 1
   23    33	 1
   23    36	 1
   23    29	 1
   23    64	 1
   23    26	 1
   23    62	 1
   24    32	 1
   24    59	 1
   24    28	 1
   24    27	 1
   24    31	 1
   25    60	 1
   25    61	 1
   25    29	 1
   25    64	 1
   25    63	 1
   26    30	 1
   26    31	 1
   27    62	 1
   27    29	 1
   27    63	 1
   28    62	 1
   28    64	 1
   30    60	 1
   30    61	 1
   30    62	 1
   30    63	 1
   31    63	 1
   31    64	 1
   32    37	 1
   32    60	 1
   32    61	 1
   32    65	 1
   32    66	 1
   32    67	 1
   33    59	 1
   34    36	 1
   34    65	 1
   34    66	 1
   34    67	 1
   35    36	 1
   36    59	 1
   37    38	 1
   37    39	 1
   37    59	 1
   40    42	 1
   40    43	 1
   41    42	 1
   41    43	 1
   42    44	 1
   42    45	 1
   43    44	 1
   43    45	 1
   44    46	 1
   44    47	 1
   45    46	 1
   45    47	 1
   46    48	 1
   46    49	 1
   47    48	 1
   47    49	 1
   51    52	 1
   52    53	 1
   54    56	 1
   54    57	 1
   54    58	 1
   55    56	 1
   55    57	 1
   55    58	 1
   59    60	 1
   59    61	 1

[ angles ]
;	ai	  aj	ak funct			c0			  c1			c2			  c3
   20     1     2	5 ;      OG311      CG311      CG324
   20     1    22	5 ;      OG311      CG311      CG311
   20     1    37	5 ;      OG311      CG311       HGA1
    2     1    22	5 ;      CG324      CG311      CG311
    2     1    37	5 ;      CG324      CG311       HGA1
   22     1    37	5 ;      CG311      CG311       HGA1
    3     2     1	5 ;      NG3P2      CG324      CG311
    3     2    38	5 ;      NG3P2      CG324       HGA2
    3     2    39	5 ;      NG3P2      CG324       HGA2
    1     2    38	5 ;      CG311      CG324       HGA2
    1     2    39	5 ;      CG311      CG324       HGA2
   38     2    39	5 ;       HGA2      CG324       HGA2
    5     3     2	5 ;       HGP2      NG3P2      CG324
    5     3     4	5 ;       HGP2      NG3P2       HGP2
    5     3     6	5 ;       HGP2      NG3P2      CG301
    2     3     4	5 ;      CG324      NG3P2       HGP2
    2     3     6	5 ;      CG324      NG3P2      CG301
    4     3     6	5 ;       HGP2      NG3P2      CG301
    3     6    11	5 ;      NG3P2      CG301      CG321
    3     6     7	5 ;      NG3P2      CG301      CG321
    3     6    12	5 ;      NG3P2      CG301     CG2R61
   11     6     7	5 ;      CG321      CG301      CG321
   11     6    12	5 ;      CG321      CG301     CG2R61
    7     6    12	5 ;      CG321      CG301     CG2R61
    6     7     8	5 ;      CG301      CG321      CG321
    6     7    40	5 ;      CG301      CG321       HGA2
    6     7    41	5 ;      CG301      CG321       HGA2
    8     7    40	5 ;      CG321      CG321       HGA2
    8     7    41	5 ;      CG321      CG321       HGA2
   40     7    41	5 ;       HGA2      CG321       HGA2
    7     8     9	5 ;      CG321      CG321      CG321
    7     8    42	5 ;      CG321      CG321       HGA2
    7     8    43	5 ;      CG321      CG321       HGA2
    9     8    42	5 ;      CG321      CG321       HGA2
    9     8    43	5 ;      CG321      CG321       HGA2
   42     8    43	5 ;       HGA2      CG321       HGA2
   10     9     8	5 ;      CG321      CG321      CG321
   10     9    44	5 ;      CG321      CG321       HGA2
   10     9    45	5 ;      CG321      CG321       HGA2
    8     9    44	5 ;      CG321      CG321       HGA2
    8     9    45	5 ;      CG321      CG321       HGA2
   44     9    45	5 ;       HGA2      CG321       HGA2
   11    10     9	5 ;      CG321      CG321      CG321
   11    10    46	5 ;      CG321      CG321       HGA2
   11    10    47	5 ;      CG321      CG321       HGA2
    9    10    46	5 ;      CG321      CG321       HGA2
    9    10    47	5 ;      CG321      CG321       HGA2
   46    10    47	5 ;       HGA2      CG321       HGA2
   10    11     6	5 ;      CG321      CG321      CG301
   10    11    48	5 ;      CG321      CG321       HGA2
   10    11    49	5 ;      CG321      CG321       HGA2
    6    11    48	5 ;      CG301      CG321       HGA2
    6    11    49	5 ;      CG301      CG321       HGA2
   48    11    49	5 ;       HGA2      CG321       HGA2
    6    12    17	5 ;      CG301     CG2R61     CG2R61
    6    12    13	5 ;      CG301     CG2R61     CG2R61
   17    12    13	5 ;     CG2R61     CG2R61     CG2R61
   12    13    14	5 ;     CG2R61     CG2R61     CG2R61
   12    13    50	5 ;     CG2R61     CG2R61      HGR61
   14    13    50	5 ;     CG2R61     CG2R61      HGR61
   13    14    15	5 ;     CG2R61     CG2R61     CG2R61
   13    14    18	5 ;     CG2R61     CG2R61      CG321
   15    14    18	5 ;     CG2R61     CG2R61      CG321
   16    15    14	5 ;     CG2R61     CG2R61     CG2R61
   16    15    51	5 ;     CG2R61     CG2R61      HGR61
   14    15    51	5 ;     CG2R61     CG2R61      HGR61
   17    16    15	5 ;     CG2R61     CG2R61     CG2R61
   17    16    52	5 ;     CG2R61     CG2R61      HGR61
   15    16    52	5 ;     CG2R61     CG2R61      HGR61
   12    17    16	5 ;     CG2R61     CG2R61     CG2R61
   12    17    53	5 ;     CG2R61     CG2R61      HGR61
   16    17    53	5 ;     CG2R61     CG2R61      HGR61
   14    18    19	5 ;     CG2R61      CG321      CG331
   14    18    54	5 ;     CG2R61      CG321       HGA2
   14    18    55	5 ;     CG2R61      CG321       HGA2
   19    18    54	5 ;      CG331      CG321       HGA2
   19    18    55	5 ;      CG331      CG321       HGA2
   54    18    55	5 ;       HGA2      CG321       HGA2
   18    19    56	5 ;      CG321      CG331       HGA3
   18    19    57	5 ;      CG321      CG331       HGA3
   18    19    58	5 ;      CG321      CG331       HGA3
   56    19    57	5 ;       HGA3      CG331       HGA3
   56    19    58	5 ;       HGA3      CG331       HGA3
   57    19    58	5 ;       HGA3      CG331       HGA3
   21    20     1	5 ;       HGP1      OG311      CG311
   32    22     1	5 ;      NG2S1      CG311      CG311
   32    22    23	5 ;      NG2S1      CG311      CG321
   32    22    59	5 ;      NG2S1      CG311       HGA1
    1    22    23	5 ;      CG311      CG311      CG321
    1    22    59	5 ;      CG311      CG311       HGA1
   23    22    59	5 ;      CG321      CG311       HGA1
   22    23    24	5 ;      CG311      CG321     CG2R61
   22    23    60	5 ;      CG311      CG321       HGA2
   22    23    61	5 ;      CG311      CG321       HGA2
   24    23    60	5 ;     CG2R61      CG321       HGA2
   24    23    61	5 ;     CG2R61      CG321       HGA2
   60    23    61	5 ;       HGA2      CG321       HGA2
   23    24    30	5 ;      CG321     CG2R61     CG2R61
   23    24    25	5 ;      CG321     CG2R61     CG2R61
   30    24    25	5 ;     CG2R61     CG2R61     CG2R61
   24    25    26	5 ;     CG2R61     CG2R61     CG2R66
   24    25    62	5 ;     CG2R61     CG2R61      HGR62
   26    25    62	5 ;     CG2R66     CG2R61      HGR62
   25    26    28	5 ;     CG2R61     CG2R66     CG2R61
   25    26    27	5 ;     CG2R61     CG2R66       FGR1
   28    26    27	5 ;     CG2R61     CG2R66       FGR1
   29    28    26	5 ;     CG2R66     CG2R61     CG2R66
   29    28    63	5 ;     CG2R66     CG2R61      HGR62
   26    28    63	5 ;     CG2R66     CG2R61      HGR62
   30    29    31	5 ;     CG2R61     CG2R66       FGR1
   30    29    28	5 ;     CG2R61     CG2R66     CG2R61
   31    29    28	5 ;       FGR1     CG2R66     CG2R61
   24    30    29	5 ;     CG2R61     CG2R61     CG2R66
   24    30    64	5 ;     CG2R61     CG2R61      HGR62
   29    30    64	5 ;     CG2R66     CG2R61      HGR62
   33    32    36	5 ;      CG2O1      NG2S1       HGP1
   33    32    22	5 ;      CG2O1      NG2S1      CG311
   36    32    22	5 ;       HGP1      NG2S1      CG311
   35    33    34	5 ;      CG331      CG2O1      OG2D1
   35    33    32	5 ;      CG331      CG2O1      NG2S1
   34    33    32	5 ;      OG2D1      CG2O1      NG2S1
   33    35    65	5 ;      CG2O1      CG331       HGA3
   33    35    66	5 ;      CG2O1      CG331       HGA3
   33    35    67	5 ;      CG2O1      CG331       HGA3
   65    35    66	5 ;       HGA3      CG331       HGA3
   65    35    67	5 ;       HGA3      CG331       HGA3
   66    35    67	5 ;       HGA3      CG331       HGA3

[ dihedrals ]
;	ai	  aj	ak	  al funct			  c0			c1			  c2			c3			  c4			c5
    2     1    20    21	 9 ;      CG324      CG311      OG311       HGP1
   22     1    20    21	 9 ;      CG311      CG311      OG311       HGP1
   37     1    20    21	 9 ;       HGA1      CG311      OG311       HGP1
   20     1     2     3	 9 ;      OG311      CG311      CG324      NG3P2
   20     1     2    38	 9 ;      OG311      CG311      CG324       HGA2
   20     1     2    39	 9 ;      OG311      CG311      CG324       HGA2
   22     1     2     3	 9 ;      CG311      CG311      CG324      NG3P2
   22     1     2    38	 9 ;      CG311      CG311      CG324       HGA2
   22     1     2    39	 9 ;      CG311      CG311      CG324       HGA2
   37     1     2     3	 9 ;       HGA1      CG311      CG324      NG3P2
   37     1     2    38	 9 ;       HGA1      CG311      CG324       HGA2
   37     1     2    39	 9 ;       HGA1      CG311      CG324       HGA2
   20     1    22    32	 9 ;      OG311      CG311      CG311      NG2S1
   20     1    22    23	 9 ;      OG311      CG311      CG311      CG321
   20     1    22    59	 9 ;      OG311      CG311      CG311       HGA1
    2     1    22    32	 9 ;      CG324      CG311      CG311      NG2S1
    2     1    22    23	 9 ;      CG324      CG311      CG311      CG321
    2     1    22    59	 9 ;      CG324      CG311      CG311       HGA1
   37     1    22    32	 9 ;       HGA1      CG311      CG311      NG2S1
   37     1    22    23	 9 ;       HGA1      CG311      CG311      CG321
   37     1    22    59	 9 ;       HGA1      CG311      CG311       HGA1
    1     2     3     5	 9 ;      CG311      CG324      NG3P2       HGP2
    1     2     3     4	 9 ;      CG311      CG324      NG3P2       HGP2
    1     2     3     6	 9 ;      CG311      CG324      NG3P2      CG301
   38     2     3     5	 9 ;       HGA2      CG324      NG3P2       HGP2
   38     2     3     4	 9 ;       HGA2      CG324      NG3P2       HGP2
   38     2     3     6	 9 ;       HGA2      CG324      NG3P2      CG301
   39     2     3     5	 9 ;       HGA2      CG324      NG3P2       HGP2
   39     2     3     4	 9 ;       HGA2      CG324      NG3P2       HGP2
   39     2     3     6	 9 ;       HGA2      CG324      NG3P2      CG301
    5     3     6    11	 9 ;       HGP2      NG3P2      CG301      CG321
    5     3     6     7	 9 ;       HGP2      NG3P2      CG301      CG321
    5     3     6    12	 9 ;       HGP2      NG3P2      CG301     CG2R61
    2     3     6    11	 9 ;      CG324      NG3P2      CG301      CG321
    2     3     6     7	 9 ;      CG324      NG3P2      CG301      CG321
    2     3     6    12	 9 ;      CG324      NG3P2      CG301     CG2R61
    4     3     6    11	 9 ;       HGP2      NG3P2      CG301      CG321
    4     3     6     7	 9 ;       HGP2      NG3P2      CG301      CG321
    4     3     6    12	 9 ;       HGP2      NG3P2      CG301     CG2R61
    3     6    11    10	 9 ;      NG3P2      CG301      CG321      CG321
    3     6    11    48	 9 ;      NG3P2      CG301      CG321       HGA2
    3     6    11    49	 9 ;      NG3P2      CG301      CG321       HGA2
    7     6    11    10	 9 ;      CG321      CG301      CG321      CG321
    7     6    11    48	 9 ;      CG321      CG301      CG321       HGA2
    7     6    11    49	 9 ;      CG321      CG301      CG321       HGA2
   12     6    11    10	 9 ;     CG2R61      CG301      CG321      CG321
   12     6    11    48	 9 ;     CG2R61      CG301      CG321       HGA2
   12     6    11    49	 9 ;     CG2R61      CG301      CG321       HGA2
    3     6     7     8	 9 ;      NG3P2      CG301      CG321      CG321
    3     6     7    40	 9 ;      NG3P2      CG301      CG321       HGA2
    3     6     7    41	 9 ;      NG3P2      CG301      CG321       HGA2
   11     6     7     8	 9 ;      CG321      CG301      CG321      CG321
   11     6     7    40	 9 ;      CG321      CG301      CG321       HGA2
   11     6     7    41	 9 ;      CG321      CG301      CG321       HGA2
   12     6     7     8	 9 ;     CG2R61      CG301      CG321      CG321
   12     6     7    40	 9 ;     CG2R61      CG301      CG321       HGA2
   12     6     7    41	 9 ;     CG2R61      CG301      CG321       HGA2
    3     6    12    17	 9 ;      NG3P2      CG301     CG2R61     CG2R61
    3     6    12    13	 9 ;      NG3P2      CG301     CG2R61     CG2R61
   11     6    12    17	 9 ;      CG321      CG301     CG2R61     CG2R61
   11     6    12    13	 9 ;      CG321      CG301     CG2R61     CG2R61
    7     6    12    17	 9 ;      CG321      CG301     CG2R61     CG2R61
    7     6    12    13	 9 ;      CG321      CG301     CG2R61     CG2R61
    6     7     8     9	 9 ;      CG301      CG321      CG321      CG321
    6     7     8    42	 9 ;      CG301      CG321      CG321       HGA2
    6     7     8    43	 9 ;      CG301      CG321      CG321       HGA2
   40     7     8     9	 9 ;       HGA2      CG321      CG321      CG321
   40     7     8    42	 9 ;       HGA2      CG321      CG321       HGA2
   40     7     8    43	 9 ;       HGA2      CG321      CG321       HGA2
   41     7     8     9	 9 ;       HGA2      CG321      CG321      CG321
   41     7     8    42	 9 ;       HGA2      CG321      CG321       HGA2
   41     7     8    43	 9 ;       HGA2      CG321      CG321       HGA2
    7     8     9    10	 9 ;      CG321      CG321      CG321      CG321
    7     8     9    44	 9 ;      CG321      CG321      CG321       HGA2
    7     8     9    45	 9 ;      CG321      CG321      CG321       HGA2
   42     8     9    10	 9 ;       HGA2      CG321      CG321      CG321
   42     8     9    44	 9 ;       HGA2      CG321      CG321       HGA2
   42     8     9    45	 9 ;       HGA2      CG321      CG321       HGA2
   43     8     9    10	 9 ;       HGA2      CG321      CG321      CG321
   43     8     9    44	 9 ;       HGA2      CG321      CG321       HGA2
   43     8     9    45	 9 ;       HGA2      CG321      CG321       HGA2
    8     9    10    11	 9 ;      CG321      CG321      CG321      CG321
    8     9    10    46	 9 ;      CG321      CG321      CG321       HGA2
    8     9    10    47	 9 ;      CG321      CG321      CG321       HGA2
   44     9    10    11	 9 ;       HGA2      CG321      CG321      CG321
   44     9    10    46	 9 ;       HGA2      CG321      CG321       HGA2
   44     9    10    47	 9 ;       HGA2      CG321      CG321       HGA2
   45     9    10    11	 9 ;       HGA2      CG321      CG321      CG321
   45     9    10    46	 9 ;       HGA2      CG321      CG321       HGA2
   45     9    10    47	 9 ;       HGA2      CG321      CG321       HGA2
    9    10    11     6	 9 ;      CG321      CG321      CG321      CG301
    9    10    11    48	 9 ;      CG321      CG321      CG321       HGA2
    9    10    11    49	 9 ;      CG321      CG321      CG321       HGA2
   46    10    11     6	 9 ;       HGA2      CG321      CG321      CG301
   46    10    11    48	 9 ;       HGA2      CG321      CG321       HGA2
   46    10    11    49	 9 ;       HGA2      CG321      CG321       HGA2
   47    10    11     6	 9 ;       HGA2      CG321      CG321      CG301
   47    10    11    48	 9 ;       HGA2      CG321      CG321       HGA2
   47    10    11    49	 9 ;       HGA2      CG321      CG321       HGA2
    6    12    17    16	 9 ;      CG301     CG2R61     CG2R61     CG2R61
    6    12    17    53	 9 ;      CG301     CG2R61     CG2R61      HGR61
   13    12    17    16	 9 ;     CG2R61     CG2R61     CG2R61     CG2R61
   13    12    17    53	 9 ;     CG2R61     CG2R61     CG2R61      HGR61
    6    12    13    14	 9 ;      CG301     CG2R61     CG2R61     CG2R61
    6    12    13    50	 9 ;      CG301     CG2R61     CG2R61      HGR61
   17    12    13    14	 9 ;     CG2R61     CG2R61     CG2R61     CG2R61
   17    12    13    50	 9 ;     CG2R61     CG2R61     CG2R61      HGR61
   12    13    14    15	 9 ;     CG2R61     CG2R61     CG2R61     CG2R61
   12    13    14    18	 9 ;     CG2R61     CG2R61     CG2R61      CG321
   50    13    14    15	 9 ;      HGR61     CG2R61     CG2R61     CG2R61
   50    13    14    18	 9 ;      HGR61     CG2R61     CG2R61      CG321
   13    14    15    16	 9 ;     CG2R61     CG2R61     CG2R61     CG2R61
   13    14    15    51	 9 ;     CG2R61     CG2R61     CG2R61      HGR61
   18    14    15    16	 9 ;      CG321     CG2R61     CG2R61     CG2R61
   18    14    15    51	 9 ;      CG321     CG2R61     CG2R61      HGR61
   13    14    18    19	 9 ;     CG2R61     CG2R61      CG321      CG331
   13    14    18    54	 9 ;     CG2R61     CG2R61      CG321       HGA2
   13    14    18    55	 9 ;     CG2R61     CG2R61      CG321       HGA2
   15    14    18    19	 9 ;     CG2R61     CG2R61      CG321      CG331
   15    14    18    54	 9 ;     CG2R61     CG2R61      CG321       HGA2
   15    14    18    55	 9 ;     CG2R61     CG2R61      CG321       HGA2
   14    15    16    17	 9 ;     CG2R61     CG2R61     CG2R61     CG2R61
   14    15    16    52	 9 ;     CG2R61     CG2R61     CG2R61      HGR61
   51    15    16    17	 9 ;      HGR61     CG2R61     CG2R61     CG2R61
   51    15    16    52	 9 ;      HGR61     CG2R61     CG2R61      HGR61
   15    16    17    12	 9 ;     CG2R61     CG2R61     CG2R61     CG2R61
   15    16    17    53	 9 ;     CG2R61     CG2R61     CG2R61      HGR61
   52    16    17    12	 9 ;      HGR61     CG2R61     CG2R61     CG2R61
   52    16    17    53	 9 ;      HGR61     CG2R61     CG2R61      HGR61
   14    18    19    56	 9 ;     CG2R61      CG321      CG331       HGA3
   14    18    19    57	 9 ;     CG2R61      CG321      CG331       HGA3
   14    18    19    58	 9 ;     CG2R61      CG321      CG331       HGA3
   54    18    19    56	 9 ;       HGA2      CG321      CG331       HGA3
   54    18    19    57	 9 ;       HGA2      CG321      CG331       HGA3
   54    18    19    58	 9 ;       HGA2      CG321      CG331       HGA3
   55    18    19    56	 9 ;       HGA2      CG321      CG331       HGA3
   55    18    19    57	 9 ;       HGA2      CG321      CG331       HGA3
   55    18    19    58	 9 ;       HGA2      CG321      CG331       HGA3
    1    22    32    33	 9 ;      CG311      CG311      NG2S1      CG2O1
    1    22    32    36	 9 ;      CG311      CG311      NG2S1       HGP1
   23    22    32    33	 9 ;      CG321      CG311      NG2S1      CG2O1
   23    22    32    36	 9 ;      CG321      CG311      NG2S1       HGP1
   59    22    32    33	 9 ;       HGA1      CG311      NG2S1      CG2O1
   59    22    32    36	 9 ;       HGA1      CG311      NG2S1       HGP1
   32    22    23    24	 9 ;      NG2S1      CG311      CG321     CG2R61
   32    22    23    60	 9 ;      NG2S1      CG311      CG321       HGA2
   32    22    23    61	 9 ;      NG2S1      CG311      CG321       HGA2
    1    22    23    24	 9 ;      CG311      CG311      CG321     CG2R61
    1    22    23    60	 9 ;      CG311      CG311      CG321       HGA2
    1    22    23    61	 9 ;      CG311      CG311      CG321       HGA2
   59    22    23    24	 9 ;       HGA1      CG311      CG321     CG2R61
   59    22    23    60	 9 ;       HGA1      CG311      CG321       HGA2
   59    22    23    61	 9 ;       HGA1      CG311      CG321       HGA2
   22    23    24    30	 9 ;      CG311      CG321     CG2R61     CG2R61
   22    23    24    25	 9 ;      CG311      CG321     CG2R61     CG2R61
   60    23    24    30	 9 ;       HGA2      CG321     CG2R61     CG2R61
   60    23    24    25	 9 ;       HGA2      CG321     CG2R61     CG2R61
   61    23    24    30	 9 ;       HGA2      CG321     CG2R61     CG2R61
   61    23    24    25	 9 ;       HGA2      CG321     CG2R61     CG2R61
   23    24    30    29	 9 ;      CG321     CG2R61     CG2R61     CG2R66
   23    24    30    64	 9 ;      CG321     CG2R61     CG2R61      HGR62
   25    24    30    29	 9 ;     CG2R61     CG2R61     CG2R61     CG2R66
   25    24    30    64	 9 ;     CG2R61     CG2R61     CG2R61      HGR62
   23    24    25    26	 9 ;      CG321     CG2R61     CG2R61     CG2R66
   23    24    25    62	 9 ;      CG321     CG2R61     CG2R61      HGR62
   30    24    25    26	 9 ;     CG2R61     CG2R61     CG2R61     CG2R66
   30    24    25    62	 9 ;     CG2R61     CG2R61     CG2R61      HGR62
   24    25    26    28	 9 ;     CG2R61     CG2R61     CG2R66     CG2R61
   24    25    26    27	 9 ;     CG2R61     CG2R61     CG2R66       FGR1
   62    25    26    28	 9 ;      HGR62     CG2R61     CG2R66     CG2R61
   62    25    26    27	 9 ;      HGR62     CG2R61     CG2R66       FGR1
   25    26    28    29	 9 ;     CG2R61     CG2R66     CG2R61     CG2R66
   25    26    28    63	 9 ;     CG2R61     CG2R66     CG2R61      HGR62
   27    26    28    29	 9 ;       FGR1     CG2R66     CG2R61     CG2R66
   27    26    28    63	 9 ;       FGR1     CG2R66     CG2R61      HGR62
   26    28    29    30	 9 ;     CG2R66     CG2R61     CG2R66     CG2R61
   26    28    29    31	 9 ;     CG2R66     CG2R61     CG2R66       FGR1
   63    28    29    30	 9 ;      HGR62     CG2R61     CG2R66     CG2R61
   63    28    29    31	 9 ;      HGR62     CG2R61     CG2R66       FGR1
   31    29    30    24	 9 ;       FGR1     CG2R66     CG2R61     CG2R61
   31    29    30    64	 9 ;       FGR1     CG2R66     CG2R61      HGR62
   28    29    30    24	 9 ;     CG2R61     CG2R66     CG2R61     CG2R61
   28    29    30    64	 9 ;     CG2R61     CG2R66     CG2R61      HGR62
   36    32    33    35	 9 ;       HGP1      NG2S1      CG2O1      CG331
   36    32    33    34	 9 ;       HGP1      NG2S1      CG2O1      OG2D1
   22    32    33    35	 9 ;      CG311      NG2S1      CG2O1      CG331
   22    32    33    34	 9 ;      CG311      NG2S1      CG2O1      OG2D1
   34    33    35    65	 9 ;      OG2D1      CG2O1      CG331       HGA3
   34    33    35    66	 9 ;      OG2D1      CG2O1      CG331       HGA3
   34    33    35    67	 9 ;      OG2D1      CG2O1      CG331       HGA3
   32    33    35    65	 9 ;      NG2S1      CG2O1      CG331       HGA3
   32    33    35    66	 9 ;      NG2S1      CG2O1      CG331       HGA3
   32    33    35    67	 9 ;      NG2S1      CG2O1      CG331       HGA3

[ dihedrals ]
;	ai	  aj	ak	  al funct			  c0			c1			  c2			c3
   33    35    32    34	 2

