; Created by cgenff_charmm2gmx.py

[ moleculetype ]
; Name			   nrexcl
LIG				 3

[ atoms ]
;	 nr		  type	resnr residue  atom   cgnr	   charge		mass  typeB    chargeB		massB
; residue	 1 LIG rtp LIG q	qsum
     1     CG2R61      1    LIG     C1      1      0.108     12.011   ;
     2     CG2R61      1    LIG     C2      2     -0.113     12.011   ;
     3     CG2R61      1    LIG     C3      3     -0.119     12.011   ;
     4     CG2R61      1    LIG     C4      4     -0.200     12.011   ;
     5     CG2R61      1    LIG     C5      5     -0.119     12.011   ;
     6     CG2R61      1    LIG     C6      6     -0.113     12.011   ;
     7      CG321      1    LIG     C7      7      0.075     12.011   ;
     8      CG314      1    LIG     C8      8      0.197     12.011   ;
     9      CG331      1    LIG     C9      9     -0.198     12.011   ;
    10      NG3P3      1    LIG      N     10     -0.273     14.007   ;
    11       HGP2      1    LIG     H1     11      0.283      1.008   ;
    12       HGP2      1    LIG     H2     12      0.283      1.008   ;
    13       HGP2      1    LIG     H3     13      0.283      1.008   ;
    14      OG311      1    LIG      O     14     -0.531     15.999   ;
    15       HGP1      1    LIG     H4     15      0.421      1.008   ;
    16      HGR61      1    LIG     H5     16      0.116      1.008   ;
    17      HGR61      1    LIG     H6     17      0.116      1.008   ;
    18      HGR61      1    LIG     H7     18      0.116      1.008   ;
    19      HGR61      1    LIG     H8     19      0.116      1.008   ;
    20       HGA2      1    LIG     H9     20      0.090      1.008   ;
    21       HGA2      1    LIG    H10     21      0.090      1.008   ;
    22       HGA1      1    LIG    H11     22      0.102      1.008   ;
    23       HGA3      1    LIG    H12     23      0.090      1.008   ;
    24       HGA3      1    LIG    H13     24      0.090      1.008   ;
    25       HGA3      1    LIG    H14     25      0.090      1.008   ;

[ bonds ]
;	ai	  aj funct			  c0			c1			  c2			c3
    1     2	 1 ;      CG2R61     CG2R61
    1    14	 1 ;      CG2R61      OG311
    1     6	 1 ;      CG2R61     CG2R61
    2     3	 1 ;      CG2R61     CG2R61
    2    16	 1 ;      CG2R61      HGR61
    3     4	 1 ;      CG2R61     CG2R61
    3    17	 1 ;      CG2R61      HGR61
    4     7	 1 ;      CG2R61      CG321
    4     5	 1 ;      CG2R61     CG2R61
    5     6	 1 ;      CG2R61     CG2R61
    5    18	 1 ;      CG2R61      HGR61
    6    19	 1 ;      CG2R61      HGR61
    7     8	 1 ;       CG321      CG314
    7    20	 1 ;       CG321       HGA2
    7    21	 1 ;       CG321       HGA2
    8    10	 1 ;       CG314      NG3P3
    8     9	 1 ;       CG314      CG331
    8    22	 1 ;       CG314       HGA1
    9    23	 1 ;       CG331       HGA3
    9    24	 1 ;       CG331       HGA3
    9    25	 1 ;       CG331       HGA3
   10    12	 1 ;       NG3P3       HGP2
   10    13	 1 ;       NG3P3       HGP2
   10    11	 1 ;       NG3P3       HGP2
   14    15	 1 ;       OG311       HGP1

[ pairs ]
;	ai	  aj funct			  c0			c1			  c2			c3
    1     4	 1
    1    17	 1
    1    18	 1
    2    15	 1
    2     5	 1
    2    19	 1
    2     7	 1
    3    14	 1
    3     6	 1
    3     8	 1
    3    20	 1
    3    21	 1
    3    18	 1
    4    16	 1
    4    19	 1
    4    10	 1
    4     9	 1
    4    22	 1
    5    14	 1
    5    17	 1
    5     8	 1
    5    20	 1
    5    21	 1
    6    16	 1
    6    15	 1
    6     7	 1
    7    17	 1
    7    18	 1
    7    12	 1
    7    13	 1
    7    11	 1
    7    23	 1
    7    24	 1
    7    25	 1
    9    20	 1
    9    21	 1
    9    12	 1
    9    13	 1
    9    11	 1
   10    20	 1
   10    21	 1
   10    23	 1
   10    24	 1
   10    25	 1
   11    22	 1
   12    22	 1
   13    22	 1
   14    16	 1
   14    19	 1
   16    17	 1
   18    19	 1
   20    22	 1
   21    22	 1
   22    23	 1
   22    24	 1
   22    25	 1

[ angles ]
;	ai	  aj	ak funct			c0			  c1			c2			  c3
    2     1    14	5 ;     CG2R61     CG2R61      OG311
    2     1     6	5 ;     CG2R61     CG2R61     CG2R61
   14     1     6	5 ;      OG311     CG2R61     CG2R61
    3     2     1	5 ;     CG2R61     CG2R61     CG2R61
    3     2    16	5 ;     CG2R61     CG2R61      HGR61
    1     2    16	5 ;     CG2R61     CG2R61      HGR61
    2     3     4	5 ;     CG2R61     CG2R61     CG2R61
    2     3    17	5 ;     CG2R61     CG2R61      HGR61
    4     3    17	5 ;     CG2R61     CG2R61      HGR61
    3     4     7	5 ;     CG2R61     CG2R61      CG321
    3     4     5	5 ;     CG2R61     CG2R61     CG2R61
    7     4     5	5 ;      CG321     CG2R61     CG2R61
    4     5     6	5 ;     CG2R61     CG2R61     CG2R61
    4     5    18	5 ;     CG2R61     CG2R61      HGR61
    6     5    18	5 ;     CG2R61     CG2R61      HGR61
    1     6     5	5 ;     CG2R61     CG2R61     CG2R61
    1     6    19	5 ;     CG2R61     CG2R61      HGR61
    5     6    19	5 ;     CG2R61     CG2R61      HGR61
    4     7     8	5 ;     CG2R61      CG321      CG314
    4     7    20	5 ;     CG2R61      CG321       HGA2
    4     7    21	5 ;     CG2R61      CG321       HGA2
    8     7    20	5 ;      CG314      CG321       HGA2
    8     7    21	5 ;      CG314      CG321       HGA2
   20     7    21	5 ;       HGA2      CG321       HGA2
   10     8     7	5 ;      NG3P3      CG314      CG321
   10     8     9	5 ;      NG3P3      CG314      CG331
   10     8    22	5 ;      NG3P3      CG314       HGA1
    7     8     9	5 ;      CG321      CG314      CG331
    7     8    22	5 ;      CG321      CG314       HGA1
    9     8    22	5 ;      CG331      CG314       HGA1
    8     9    23	5 ;      CG314      CG331       HGA3
    8     9    24	5 ;      CG314      CG331       HGA3
    8     9    25	5 ;      CG314      CG331       HGA3
   23     9    24	5 ;       HGA3      CG331       HGA3
   23     9    25	5 ;       HGA3      CG331       HGA3
   24     9    25	5 ;       HGA3      CG331       HGA3
   12    10    13	5 ;       HGP2      NG3P3       HGP2
   12    10    11	5 ;       HGP2      NG3P3       HGP2
   12    10     8	5 ;       HGP2      NG3P3      CG314
   13    10    11	5 ;       HGP2      NG3P3       HGP2
   13    10     8	5 ;       HGP2      NG3P3      CG314
   11    10     8	5 ;       HGP2      NG3P3      CG314
   15    14     1	5 ;       HGP1      OG311     CG2R61

[ dihedrals ]
;	ai	  aj	ak	  al funct			  c0			c1			  c2			c3			  c4			c5
   14     1     2     3	 9 ;      OG311     CG2R61     CG2R61     CG2R61
   14     1     2    16	 9 ;      OG311     CG2R61     CG2R61      HGR61
    6     1     2     3	 9 ;     CG2R61     CG2R61     CG2R61     CG2R61
    6     1     2    16	 9 ;     CG2R61     CG2R61     CG2R61      HGR61
    2     1    14    15	 9 ;     CG2R61     CG2R61      OG311       HGP1
    6     1    14    15	 9 ;     CG2R61     CG2R61      OG311       HGP1
    2     1     6     5	 9 ;     CG2R61     CG2R61     CG2R61     CG2R61
    2     1     6    19	 9 ;     CG2R61     CG2R61     CG2R61      HGR61
   14     1     6     5	 9 ;      OG311     CG2R61     CG2R61     CG2R61
   14     1     6    19	 9 ;      OG311     CG2R61     CG2R61      HGR61
    1     2     3     4	 9 ;     CG2R61     CG2R61     CG2R61     CG2R61
    1     2     3    17	 9 ;     CG2R61     CG2R61     CG2R61      HGR61
   16     2     3     4	 9 ;      HGR61     CG2R61     CG2R61     CG2R61
   16     2     3    17	 9 ;      HGR61     CG2R61     CG2R61      HGR61
    2     3     4     7	 9 ;     CG2R61     CG2R61     CG2R61      CG321
    2     3     4     5	 9 ;     CG2R61     CG2R61     CG2R61     CG2R61
   17     3     4     7	 9 ;      HGR61     CG2R61     CG2R61      CG321
   17     3     4     5	 9 ;      HGR61     CG2R61     CG2R61     CG2R61
    3     4     7     8	 9 ;     CG2R61     CG2R61      CG321      CG314
    3     4     7    20	 9 ;     CG2R61     CG2R61      CG321       HGA2
    3     4     7    21	 9 ;     CG2R61     CG2R61      CG321       HGA2
    5     4     7     8	 9 ;     CG2R61     CG2R61      CG321      CG314
    5     4     7    20	 9 ;     CG2R61     CG2R61      CG321       HGA2
    5     4     7    21	 9 ;     CG2R61     CG2R61      CG321       HGA2
    3     4     5     6	 9 ;     CG2R61     CG2R61     CG2R61     CG2R61
    3     4     5    18	 9 ;     CG2R61     CG2R61     CG2R61      HGR61
    7     4     5     6	 9 ;      CG321     CG2R61     CG2R61     CG2R61
    7     4     5    18	 9 ;      CG321     CG2R61     CG2R61      HGR61
    4     5     6     1	 9 ;     CG2R61     CG2R61     CG2R61     CG2R61
    4     5     6    19	 9 ;     CG2R61     CG2R61     CG2R61      HGR61
   18     5     6     1	 9 ;      HGR61     CG2R61     CG2R61     CG2R61
   18     5     6    19	 9 ;      HGR61     CG2R61     CG2R61      HGR61
    4     7     8    10	 9 ;     CG2R61      CG321      CG314      NG3P3
    4     7     8     9	 9 ;     CG2R61      CG321      CG314      CG331
    4     7     8    22	 9 ;     CG2R61      CG321      CG314       HGA1
   20     7     8    10	 9 ;       HGA2      CG321      CG314      NG3P3
   20     7     8     9	 9 ;       HGA2      CG321      CG314      CG331
   20     7     8    22	 9 ;       HGA2      CG321      CG314       HGA1
   21     7     8    10	 9 ;       HGA2      CG321      CG314      NG3P3
   21     7     8     9	 9 ;       HGA2      CG321      CG314      CG331
   21     7     8    22	 9 ;       HGA2      CG321      CG314       HGA1
    7     8    10    12	 9 ;      CG321      CG314      NG3P3       HGP2
    7     8    10    13	 9 ;      CG321      CG314      NG3P3       HGP2
    7     8    10    11	 9 ;      CG321      CG314      NG3P3       HGP2
    9     8    10    12	 9 ;      CG331      CG314      NG3P3       HGP2
    9     8    10    13	 9 ;      CG331      CG314      NG3P3       HGP2
    9     8    10    11	 9 ;      CG331      CG314      NG3P3       HGP2
   22     8    10    12	 9 ;       HGA1      CG314      NG3P3       HGP2
   22     8    10    13	 9 ;       HGA1      CG314      NG3P3       HGP2
   22     8    10    11	 9 ;       HGA1      CG314      NG3P3       HGP2
   10     8     9    23	 9 ;      NG3P3      CG314      CG331       HGA3
   10     8     9    24	 9 ;      NG3P3      CG314      CG331       HGA3
   10     8     9    25	 9 ;      NG3P3      CG314      CG331       HGA3
    7     8     9    23	 9 ;      CG321      CG314      CG331       HGA3
    7     8     9    24	 9 ;      CG321      CG314      CG331       HGA3
    7     8     9    25	 9 ;      CG321      CG314      CG331       HGA3
   22     8     9    23	 9 ;       HGA1      CG314      CG331       HGA3
   22     8     9    24	 9 ;       HGA1      CG314      CG331       HGA3
   22     8     9    25	 9 ;       HGA1      CG314      CG331       HGA3

