Guyana Rwanda Oman Macau Angola Cameroon Senegal
   25
    1LIG     C1    1  -1.017  -0.009  -1.597
    1LIG     C2    2  -1.131  -0.061  -1.659
    1LIG     C3    3  -1.243   0.021  -1.676
    1LIG     C4    4  -1.242   0.154  -1.630
    1LIG     C5    5  -1.126   0.205  -1.571
    1LIG     C6    6  -1.014   0.123  -1.554
    1LIG     C7    7  -1.364   0.242  -1.647
    1LIG     C8    8  -1.351   0.379  -1.578
    1LIG     C9    9  -1.443   0.390  -1.457
    1LIG      N   10  -1.388   0.488  -1.674
    1LIG     H1   11  -1.359   0.581  -1.639
    1LIG     H2   12  -1.345   0.474  -1.766
    1LIG     H3   13  -1.490   0.492  -1.687
    1LIG      O   14  -0.906  -0.085  -1.577
    1LIG     H4   15  -0.859  -0.097  -1.662
    1LIG     H5   16  -1.132  -0.158  -1.692
    1LIG     H6   17  -1.327  -0.017  -1.722
    1LIG     H7   18  -1.122   0.303  -1.541
    1LIG     H8   19  -0.929   0.160  -1.509
    1LIG     H9   20  -1.449   0.191  -1.605
    1LIG    H10   21  -1.375   0.260  -1.751
    1LIG    H11   22  -1.250   0.389  -1.546
    1LIG    H12   23  -1.545   0.381  -1.488
    1LIG    H13   24  -1.428   0.485  -1.410
    1LIG    H14   25  -1.419   0.312  -1.387
   0.00000   0.00000   0.00000
