; Created by cgenff_charmm2gmx.py

[ moleculetype ]
; Name			   nrexcl
LIG				 3

[ atoms ]
;	 nr		  type	resnr residue  atom   cgnr	   charge		mass  typeB    chargeB		massB
; residue	 1 LIG rtp LIG q	qsum
     1     CG2R61      1    LIG     C1      1      0.138     12.011   ;
     2     CG2R61      1    LIG     C2      2     -0.064     12.011   ;
     3     CG2R61      1    LIG     C3      3     -0.101     12.011   ;
     4     CG2R61      1    LIG     C4      4     -0.004     12.011   ;
     5     CG2R61      1    LIG     C5      5     -0.101     12.011   ;
     6     CG2R61      1    LIG     C6      6     -0.064     12.011   ;
     7      CG2O1      1    LIG     C7      7      0.302     12.011   ;
     8      OG2D1      1    LIG     O1      8     -0.463     15.999   ;
     9      NG2S1      1    LIG     N1      9     -0.238     14.007   ;
    10      CG311      1    LIG     C8     10     -0.001     12.011   ;
    11      CG321      1    LIG     C9     11      0.017     12.011   ;
    12      OG301      1    LIG     O2     12     -0.334     15.999   ;
    13      CG321      1    LIG    C10     13     -0.033     12.011   ;
    14      CG311      1    LIG    C11     14     -0.081     12.011   ;
    15      CG321      1    LIG    C12     15     -0.152     12.011   ;
    16      CG311      1    LIG    C13     16     -0.069     12.011   ;
    17      CG321      1    LIG    C14     17     -0.176     12.011   ;
    18      CG321      1    LIG    C15     18     -0.202     12.011   ;
    19      CG321      1    LIG    C16     19     -0.167     12.011   ;
    20      CG311      1    LIG    C17     20      0.137     12.011   ;
    21      NG2S1      1    LIG     N2     21     -0.304     14.007   ;
    22      CG2O1      1    LIG    C18     22      0.301     12.011   ;
    23      OG2D1      1    LIG     O3     23     -0.463     15.999   ;
    24       HGP1      1    LIG     H1     24      0.262      1.008   ;
    25       HGP1      1    LIG     H2     25      0.267      1.008   ;
    26      CG311      1    LIG    C19     26      0.110     12.011   ;
    27      CG321      1    LIG    C20     27     -0.155     12.011   ;
    28      CG311      1    LIG    C21     28     -0.022     12.011   ;
    29      CG311      1    LIG    C22     29     -0.108     12.011   ;
    30      CG331      1    LIG    C23     30     -0.270     12.011   ;
    31      CG331      1    LIG    C24     31     -0.270     12.011   ;
    32      CG2O1      1    LIG    C25     32      0.500     12.011   ;
    33      OG2D1      1    LIG     O4     33     -0.514     15.999   ;
    34      NG2S1      1    LIG     N3     34     -0.497     14.007   ;
    35      CG331      1    LIG    C26     35     -0.109     12.011   ;
    36       HGP1      1    LIG     H3     36      0.313      1.008   ;
    37      OG311      1    LIG     O5     37     -0.648     15.999   ;
    38       HGP1      1    LIG     H4     38      0.421      1.008   ;
    39      NG301      1    LIG     N4     39     -0.228     14.007   ;
    40      CG331      1    LIG    C27     40     -0.103     12.011   ;
    41      SG3O2      1    LIG      S     41      0.397     32.060   ;
    42      OG2P1      1    LIG     O6     42     -0.388     15.999   ;
    43      OG2P1      1    LIG     O7     43     -0.388     15.999   ;
    44      CG331      1    LIG    C28     44      0.036     12.011   ;
    45     CG2R61      1    LIG    C29     45     -0.138     12.011   ;
    46     CG2R61      1    LIG    C30     46     -0.085     12.011   ;
    47     CG2R61      1    LIG    C31     47     -0.114     12.011   ;
    48     CG2R61      1    LIG    C32     48     -0.116     12.011   ;
    49     CG2R61      1    LIG    C33     49     -0.114     12.011   ;
    50     CG2R61      1    LIG    C34     50     -0.085     12.011   ;
    51      HGR61      1    LIG     HC     51      0.116      1.008   ;
    52      HGR61      1    LIG    HC1     52      0.116      1.008   ;
    53      HGR61      1    LIG    HC2     53      0.116      1.008   ;
    54       HGA1      1    LIG    HC3     54      0.090      1.008   ;
    55       HGA2      1    LIG    HC4     55      0.090      1.008   ;
    56       HGA2      1    LIG    HC5     56      0.090      1.008   ;
    57       HGA2      1    LIG    HC6     57      0.090      1.008   ;
    58       HGA2      1    LIG    HC7     58      0.090      1.008   ;
    59       HGA2      1    LIG    HC8     59      0.090      1.008   ;
    60       HGA2      1    LIG    HC9     60      0.090      1.008   ;
    61       HGA2      1    LIG   HC10     61      0.090      1.008   ;
    62       HGA2      1    LIG   HC11     62      0.090      1.008   ;
    63       HGA1      1    LIG   HC12     63      0.090      1.008   ;
    64       HGA1      1    LIG   HC13     64      0.090      1.008   ;
    65       HGA2      1    LIG   HC14     65      0.090      1.008   ;
    66       HGA2      1    LIG   HC15     66      0.090      1.008   ;
    67       HGA1      1    LIG   HC16     67      0.090      1.008   ;
    68       HGA1      1    LIG   HC17     68      0.090      1.008   ;
    69       HGA3      1    LIG   HC18     69      0.090      1.008   ;
    70       HGA3      1    LIG   HC19     70      0.090      1.008   ;
    71       HGA3      1    LIG   HC20     71      0.090      1.008   ;
    72       HGA3      1    LIG   HC21     72      0.090      1.008   ;
    73       HGA3      1    LIG   HC22     73      0.090      1.008   ;
    74       HGA3      1    LIG   HC23     74      0.090      1.008   ;
    75       HGA3      1    LIG   HC24     75      0.090      1.008   ;
    76       HGA3      1    LIG   HC25     76      0.090      1.008   ;
    77       HGA3      1    LIG   HC26     77      0.090      1.008   ;
    78       HGA3      1    LIG   HC27     78      0.090      1.008   ;
    79       HGA3      1    LIG   HC28     79      0.090      1.008   ;
    80       HGA3      1    LIG   HC29     80      0.090      1.008   ;
    81       HGA3      1    LIG   HC30     81      0.090      1.008   ;
    82       HGA3      1    LIG   HC31     82      0.090      1.008   ;
    83       HGA3      1    LIG   HC32     83      0.090      1.008   ;
    84      HGR61      1    LIG   HC33     84      0.116      1.008   ;
    85      HGR61      1    LIG   HC34     85      0.116      1.008   ;
    86      HGR61      1    LIG   HC35     86      0.116      1.008   ;
    87      HGR61      1    LIG   HC36     87      0.116      1.008   ;
    88      HGR61      1    LIG   HC37     88      0.116      1.008   ;
    89       HGA1      1    LIG    H43     89      0.090      1.008   ;
    90       HGA2      1    LIG    H44     90      0.090      1.008   ;
    91       HGA1      1    LIG    H45     91      0.090      1.008   ;
    92       HGA2      1    LIG    H46     92      0.090      1.008   ;
    93       HGA2      1    LIG    H47     93      0.090      1.008   ;
    94       HGA2      1    LIG    H48     94      0.090      1.008   ;

[ bonds ]
;	ai	  aj funct			  c0			c1			  c2			c3
    1    39	 1 ;      CG2R61      NG301
    1     2	 1 ;      CG2R61     CG2R61
    1     6	 1 ;      CG2R61     CG2R61
    2     3	 1 ;      CG2R61     CG2R61
    2    51	 1 ;      CG2R61      HGR61
    3     4	 1 ;      CG2R61     CG2R61
    3    22	 1 ;      CG2R61      CG2O1
    4     5	 1 ;      CG2R61     CG2R61
    4    52	 1 ;      CG2R61      HGR61
    5     6	 1 ;      CG2R61     CG2R61
    5     7	 1 ;      CG2R61      CG2O1
    6    53	 1 ;      CG2R61      HGR61
    7     8	 1 ;       CG2O1      OG2D1
    7     9	 1 ;       CG2O1      NG2S1
    9    10	 1 ;       NG2S1      CG311
    9    24	 1 ;       NG2S1       HGP1
   10    26	 1 ;       CG311      CG311
   10    11	 1 ;       CG311      CG321
   10    54	 1 ;       CG311       HGA1
   11    12	 1 ;       CG321      OG301
   11    55	 1 ;       CG321       HGA2
   11    56	 1 ;       CG321       HGA2
   12    13	 1 ;       OG301      CG321
   13    14	 1 ;       CG321      CG311
   13    57	 1 ;       CG321       HGA2
   13    58	 1 ;       CG321       HGA2
   14    19	 1 ;       CG311      CG321
   14    15	 1 ;       CG311      CG321
   14    89	 1 ;       CG311       HGA1
   15    16	 1 ;       CG321      CG311
   15    59	 1 ;       CG321       HGA2
   15    90	 1 ;       CG321       HGA2
   16    20	 1 ;       CG311      CG311
   16    17	 1 ;       CG311      CG321
   16    91	 1 ;       CG311       HGA1
   17    18	 1 ;       CG321      CG321
   17    60	 1 ;       CG321       HGA2
   17    92	 1 ;       CG321       HGA2
   18    19	 1 ;       CG321      CG321
   18    61	 1 ;       CG321       HGA2
   18    93	 1 ;       CG321       HGA2
   19    62	 1 ;       CG321       HGA2
   19    94	 1 ;       CG321       HGA2
   20    21	 1 ;       CG311      NG2S1
   20    45	 1 ;       CG311     CG2R61
   20    63	 1 ;       CG311       HGA1
   21    22	 1 ;       NG2S1      CG2O1
   21    25	 1 ;       NG2S1       HGP1
   22    23	 1 ;       CG2O1      OG2D1
   26    27	 1 ;       CG311      CG321
   26    37	 1 ;       CG311      OG311
   26    64	 1 ;       CG311       HGA1
   27    28	 1 ;       CG321      CG311
   27    65	 1 ;       CG321       HGA2
   27    66	 1 ;       CG321       HGA2
   28    32	 1 ;       CG311      CG2O1
   28    29	 1 ;       CG311      CG311
   28    67	 1 ;       CG311       HGA1
   29    30	 1 ;       CG311      CG331
   29    31	 1 ;       CG311      CG331
   29    68	 1 ;       CG311       HGA1
   30    69	 1 ;       CG331       HGA3
   30    70	 1 ;       CG331       HGA3
   30    71	 1 ;       CG331       HGA3
   31    72	 1 ;       CG331       HGA3
   31    73	 1 ;       CG331       HGA3
   31    74	 1 ;       CG331       HGA3
   32    34	 1 ;       CG2O1      NG2S1
   32    33	 1 ;       CG2O1      OG2D1
   34    35	 1 ;       NG2S1      CG331
   34    36	 1 ;       NG2S1       HGP1
   35    75	 1 ;       CG331       HGA3
   35    76	 1 ;       CG331       HGA3
   35    77	 1 ;       CG331       HGA3
   37    38	 1 ;       OG311       HGP1
   39    41	 1 ;       NG301      SG3O2
   39    40	 1 ;       NG301      CG331
   40    78	 1 ;       CG331       HGA3
   40    79	 1 ;       CG331       HGA3
   40    80	 1 ;       CG331       HGA3
   41    44	 1 ;       SG3O2      CG331
   41    42	 1 ;       SG3O2      OG2P1
   41    43	 1 ;       SG3O2      OG2P1
   44    81	 1 ;       CG331       HGA3
   44    82	 1 ;       CG331       HGA3
   44    83	 1 ;       CG331       HGA3
   45    46	 1 ;      CG2R61     CG2R61
   45    50	 1 ;      CG2R61     CG2R61
   46    47	 1 ;      CG2R61     CG2R61
   46    84	 1 ;      CG2R61      HGR61
   47    48	 1 ;      CG2R61     CG2R61
   47    85	 1 ;      CG2R61      HGR61
   48    49	 1 ;      CG2R61     CG2R61
   48    86	 1 ;      CG2R61      HGR61
   49    50	 1 ;      CG2R61     CG2R61
   49    87	 1 ;      CG2R61      HGR61
   50    88	 1 ;      CG2R61      HGR61

[ pairs ]
;	ai	  aj funct			  c0			c1			  c2			c3
    1     4	 1
    1    22	 1
    1     7	 1
    1    44	 1
    1    42	 1
    1    43	 1
    1    78	 1
    1    79	 1
    1    80	 1
    2    41	 1
    2    40	 1
    2     5	 1
    2    53	 1
    2    52	 1
    2    23	 1
    2    21	 1
    3    39	 1
    3     6	 1
    3     7	 1
    3    25	 1
    3    20	 1
    4    51	 1
    4    23	 1
    4    21	 1
    4    53	 1
    4     8	 1
    4     9	 1
    5    39	 1
    5    22	 1
    5    10	 1
    5    24	 1
    6    41	 1
    6    40	 1
    6    51	 1
    6    52	 1
    6     8	 1
    6     9	 1
    7    52	 1
    7    53	 1
    7    26	 1
    7    11	 1
    7    54	 1
    8    10	 1
    8    24	 1
    9    27	 1
    9    37	 1
    9    64	 1
    9    12	 1
    9    55	 1
    9    56	 1
   10    13	 1
   10    28	 1
   10    65	 1
   10    66	 1
   10    38	 1
   11    24	 1
   11    27	 1
   11    37	 1
   11    64	 1
   11    14	 1
   11    57	 1
   11    58	 1
   12    26	 1
   12    54	 1
   12    19	 1
   12    15	 1
   12    89	 1
   13    55	 1
   13    56	 1
   13    18	 1
   13    62	 1
   13    94	 1
   13    16	 1
   13    59	 1
   13    90	 1
   14    20	 1
   14    17	 1
   14    91	 1
   14    61	 1
   14    93	 1
   15    57	 1
   15    58	 1
   15    18	 1
   15    62	 1
   15    94	 1
   15    21	 1
   15    45	 1
   15    63	 1
   15    60	 1
   15    92	 1
   16    19	 1
   16    89	 1
   16    61	 1
   16    93	 1
   16    22	 1
   16    25	 1
   16    46	 1
   16    50	 1
   17    59	 1
   17    90	 1
   17    21	 1
   17    45	 1
   17    63	 1
   17    62	 1
   17    94	 1
   18    89	 1
   18    20	 1
   18    91	 1
   19    57	 1
   19    58	 1
   19    59	 1
   19    90	 1
   19    60	 1
   19    92	 1
   20    59	 1
   20    90	 1
   20    60	 1
   20    92	 1
   20    23	 1
   20    47	 1
   20    84	 1
   20    49	 1
   20    88	 1
   21    91	 1
   21    46	 1
   21    50	 1
   22    51	 1
   22    52	 1
   22    45	 1
   22    63	 1
   23    25	 1
   24    26	 1
   24    54	 1
   25    45	 1
   25    63	 1
   26    55	 1
   26    56	 1
   26    32	 1
   26    29	 1
   26    67	 1
   27    54	 1
   27    38	 1
   27    34	 1
   27    33	 1
   27    30	 1
   27    31	 1
   27    68	 1
   28    37	 1
   28    64	 1
   28    69	 1
   28    70	 1
   28    71	 1
   28    72	 1
   28    73	 1
   28    74	 1
   28    35	 1
   28    36	 1
   29    65	 1
   29    66	 1
   29    34	 1
   29    33	 1
   30    32	 1
   30    67	 1
   30    72	 1
   30    73	 1
   30    74	 1
   31    32	 1
   31    67	 1
   31    69	 1
   31    70	 1
   31    71	 1
   32    65	 1
   32    66	 1
   32    68	 1
   32    75	 1
   32    76	 1
   32    77	 1
   33    67	 1
   33    35	 1
   33    36	 1
   34    67	 1
   36    75	 1
   36    76	 1
   36    77	 1
   37    54	 1
   37    65	 1
   37    66	 1
   38    64	 1
   39    51	 1
   39    53	 1
   39    81	 1
   39    82	 1
   39    83	 1
   40    44	 1
   40    42	 1
   40    43	 1
   41    78	 1
   41    79	 1
   41    80	 1
   42    81	 1
   42    82	 1
   42    83	 1
   43    81	 1
   43    82	 1
   43    83	 1
   45    91	 1
   45    48	 1
   45    85	 1
   45    87	 1
   46    63	 1
   46    49	 1
   46    88	 1
   46    86	 1
   47    50	 1
   47    87	 1
   48    84	 1
   48    88	 1
   49    85	 1
   50    63	 1
   50    84	 1
   50    86	 1
   54    64	 1
   54    55	 1
   54    56	 1
   57    89	 1
   58    89	 1
   59    89	 1
   59    91	 1
   60    91	 1
   60    61	 1
   60    93	 1
   61    92	 1
   61    62	 1
   61    94	 1
   62    89	 1
   62    93	 1
   63    91	 1
   64    65	 1
   64    66	 1
   65    67	 1
   66    67	 1
   67    68	 1
   68    69	 1
   68    70	 1
   68    71	 1
   68    72	 1
   68    73	 1
   68    74	 1
   84    85	 1
   85    86	 1
   86    87	 1
   87    88	 1
   89    94	 1
   89    90	 1
   90    91	 1
   91    92	 1
   92    93	 1
   93    94	 1

[ angles ]
;	ai	  aj	ak funct			c0			  c1			c2			  c3
   39     1     2	5 ;      NG301     CG2R61     CG2R61
   39     1     6	5 ;      NG301     CG2R61     CG2R61
    2     1     6	5 ;     CG2R61     CG2R61     CG2R61
    1     2     3	5 ;     CG2R61     CG2R61     CG2R61
    1     2    51	5 ;     CG2R61     CG2R61      HGR61
    3     2    51	5 ;     CG2R61     CG2R61      HGR61
    2     3     4	5 ;     CG2R61     CG2R61     CG2R61
    2     3    22	5 ;     CG2R61     CG2R61      CG2O1
    4     3    22	5 ;     CG2R61     CG2R61      CG2O1
    3     4     5	5 ;     CG2R61     CG2R61     CG2R61
    3     4    52	5 ;     CG2R61     CG2R61      HGR61
    5     4    52	5 ;     CG2R61     CG2R61      HGR61
    6     5     4	5 ;     CG2R61     CG2R61     CG2R61
    6     5     7	5 ;     CG2R61     CG2R61      CG2O1
    4     5     7	5 ;     CG2R61     CG2R61      CG2O1
    1     6     5	5 ;     CG2R61     CG2R61     CG2R61
    1     6    53	5 ;     CG2R61     CG2R61      HGR61
    5     6    53	5 ;     CG2R61     CG2R61      HGR61
    5     7     8	5 ;     CG2R61      CG2O1      OG2D1
    5     7     9	5 ;     CG2R61      CG2O1      NG2S1
    8     7     9	5 ;      OG2D1      CG2O1      NG2S1
    7     9    10	5 ;      CG2O1      NG2S1      CG311
    7     9    24	5 ;      CG2O1      NG2S1       HGP1
   10     9    24	5 ;      CG311      NG2S1       HGP1
   26    10     9	5 ;      CG311      CG311      NG2S1
   26    10    11	5 ;      CG311      CG311      CG321
   26    10    54	5 ;      CG311      CG311       HGA1
    9    10    11	5 ;      NG2S1      CG311      CG321
    9    10    54	5 ;      NG2S1      CG311       HGA1
   11    10    54	5 ;      CG321      CG311       HGA1
   10    11    12	5 ;      CG311      CG321      OG301
   10    11    55	5 ;      CG311      CG321       HGA2
   10    11    56	5 ;      CG311      CG321       HGA2
   12    11    55	5 ;      OG301      CG321       HGA2
   12    11    56	5 ;      OG301      CG321       HGA2
   55    11    56	5 ;       HGA2      CG321       HGA2
   11    12    13	5 ;      CG321      OG301      CG321
   14    13    12	5 ;      CG311      CG321      OG301
   14    13    57	5 ;      CG311      CG321       HGA2
   14    13    58	5 ;      CG311      CG321       HGA2
   12    13    57	5 ;      OG301      CG321       HGA2
   12    13    58	5 ;      OG301      CG321       HGA2
   57    13    58	5 ;       HGA2      CG321       HGA2
   19    14    15	5 ;      CG321      CG311      CG321
   19    14    13	5 ;      CG321      CG311      CG321
   19    14    89	5 ;      CG321      CG311       HGA1
   15    14    13	5 ;      CG321      CG311      CG321
   15    14    89	5 ;      CG321      CG311       HGA1
   13    14    89	5 ;      CG321      CG311       HGA1
   16    15    14	5 ;      CG311      CG321      CG311
   16    15    59	5 ;      CG311      CG321       HGA2
   16    15    90	5 ;      CG311      CG321       HGA2
   14    15    59	5 ;      CG311      CG321       HGA2
   14    15    90	5 ;      CG311      CG321       HGA2
   59    15    90	5 ;       HGA2      CG321       HGA2
   20    16    17	5 ;      CG311      CG311      CG321
   20    16    15	5 ;      CG311      CG311      CG321
   20    16    91	5 ;      CG311      CG311       HGA1
   17    16    15	5 ;      CG321      CG311      CG321
   17    16    91	5 ;      CG321      CG311       HGA1
   15    16    91	5 ;      CG321      CG311       HGA1
   18    17    16	5 ;      CG321      CG321      CG311
   18    17    60	5 ;      CG321      CG321       HGA2
   18    17    92	5 ;      CG321      CG321       HGA2
   16    17    60	5 ;      CG311      CG321       HGA2
   16    17    92	5 ;      CG311      CG321       HGA2
   60    17    92	5 ;       HGA2      CG321       HGA2
   19    18    17	5 ;      CG321      CG321      CG321
   19    18    61	5 ;      CG321      CG321       HGA2
   19    18    93	5 ;      CG321      CG321       HGA2
   17    18    61	5 ;      CG321      CG321       HGA2
   17    18    93	5 ;      CG321      CG321       HGA2
   61    18    93	5 ;       HGA2      CG321       HGA2
   18    19    14	5 ;      CG321      CG321      CG311
   18    19    62	5 ;      CG321      CG321       HGA2
   18    19    94	5 ;      CG321      CG321       HGA2
   14    19    62	5 ;      CG311      CG321       HGA2
   14    19    94	5 ;      CG311      CG321       HGA2
   62    19    94	5 ;       HGA2      CG321       HGA2
   21    20    45	5 ;      NG2S1      CG311     CG2R61
   21    20    16	5 ;      NG2S1      CG311      CG311
   21    20    63	5 ;      NG2S1      CG311       HGA1
   45    20    16	5 ;     CG2R61      CG311      CG311
   45    20    63	5 ;     CG2R61      CG311       HGA1
   16    20    63	5 ;      CG311      CG311       HGA1
   22    21    25	5 ;      CG2O1      NG2S1       HGP1
   22    21    20	5 ;      CG2O1      NG2S1      CG311
   25    21    20	5 ;       HGP1      NG2S1      CG311
   23    22     3	5 ;      OG2D1      CG2O1     CG2R61
   23    22    21	5 ;      OG2D1      CG2O1      NG2S1
    3    22    21	5 ;     CG2R61      CG2O1      NG2S1
   27    26    37	5 ;      CG321      CG311      OG311
   27    26    10	5 ;      CG321      CG311      CG311
   27    26    64	5 ;      CG321      CG311       HGA1
   37    26    10	5 ;      OG311      CG311      CG311
   37    26    64	5 ;      OG311      CG311       HGA1
   10    26    64	5 ;      CG311      CG311       HGA1
   28    27    26	5 ;      CG311      CG321      CG311
   28    27    65	5 ;      CG311      CG321       HGA2
   28    27    66	5 ;      CG311      CG321       HGA2
   26    27    65	5 ;      CG311      CG321       HGA2
   26    27    66	5 ;      CG311      CG321       HGA2
   65    27    66	5 ;       HGA2      CG321       HGA2
   32    28    29	5 ;      CG2O1      CG311      CG311
   32    28    27	5 ;      CG2O1      CG311      CG321
   32    28    67	5 ;      CG2O1      CG311       HGA1
   29    28    27	5 ;      CG311      CG311      CG321
   29    28    67	5 ;      CG311      CG311       HGA1
   27    28    67	5 ;      CG321      CG311       HGA1
   30    29    28	5 ;      CG331      CG311      CG311
   30    29    31	5 ;      CG331      CG311      CG331
   30    29    68	5 ;      CG331      CG311       HGA1
   28    29    31	5 ;      CG311      CG311      CG331
   28    29    68	5 ;      CG311      CG311       HGA1
   31    29    68	5 ;      CG331      CG311       HGA1
   29    30    69	5 ;      CG311      CG331       HGA3
   29    30    70	5 ;      CG311      CG331       HGA3
   29    30    71	5 ;      CG311      CG331       HGA3
   69    30    70	5 ;       HGA3      CG331       HGA3
   69    30    71	5 ;       HGA3      CG331       HGA3
   70    30    71	5 ;       HGA3      CG331       HGA3
   29    31    72	5 ;      CG311      CG331       HGA3
   29    31    73	5 ;      CG311      CG331       HGA3
   29    31    74	5 ;      CG311      CG331       HGA3
   72    31    73	5 ;       HGA3      CG331       HGA3
   72    31    74	5 ;       HGA3      CG331       HGA3
   73    31    74	5 ;       HGA3      CG331       HGA3
   34    32    33	5 ;      NG2S1      CG2O1      OG2D1
   34    32    28	5 ;      NG2S1      CG2O1      CG311
   33    32    28	5 ;      OG2D1      CG2O1      CG311
   35    34    36	5 ;      CG331      NG2S1       HGP1
   35    34    32	5 ;      CG331      NG2S1      CG2O1
   36    34    32	5 ;       HGP1      NG2S1      CG2O1
   34    35    75	5 ;      NG2S1      CG331       HGA3
   34    35    76	5 ;      NG2S1      CG331       HGA3
   34    35    77	5 ;      NG2S1      CG331       HGA3
   75    35    76	5 ;       HGA3      CG331       HGA3
   75    35    77	5 ;       HGA3      CG331       HGA3
   76    35    77	5 ;       HGA3      CG331       HGA3
   26    37    38	5 ;      CG311      OG311       HGP1
   41    39    40	5 ;      SG3O2      NG301      CG331
   41    39     1	5 ;      SG3O2      NG301     CG2R61
   40    39     1	5 ;      CG331      NG301     CG2R61
   39    40    78	5 ;      NG301      CG331       HGA3
   39    40    79	5 ;      NG301      CG331       HGA3
   39    40    80	5 ;      NG301      CG331       HGA3
   78    40    79	5 ;       HGA3      CG331       HGA3
   78    40    80	5 ;       HGA3      CG331       HGA3
   79    40    80	5 ;       HGA3      CG331       HGA3
   44    41    42	5 ;      CG331      SG3O2      OG2P1
   44    41    43	5 ;      CG331      SG3O2      OG2P1
   44    41    39	5 ;      CG331      SG3O2      NG301
   42    41    43	5 ;      OG2P1      SG3O2      OG2P1
   42    41    39	5 ;      OG2P1      SG3O2      NG301
   43    41    39	5 ;      OG2P1      SG3O2      NG301
   41    44    81	5 ;      SG3O2      CG331       HGA3
   41    44    82	5 ;      SG3O2      CG331       HGA3
   41    44    83	5 ;      SG3O2      CG331       HGA3
   81    44    82	5 ;       HGA3      CG331       HGA3
   81    44    83	5 ;       HGA3      CG331       HGA3
   82    44    83	5 ;       HGA3      CG331       HGA3
   46    45    20	5 ;     CG2R61     CG2R61      CG311
   46    45    50	5 ;     CG2R61     CG2R61     CG2R61
   20    45    50	5 ;      CG311     CG2R61     CG2R61
   47    46    45	5 ;     CG2R61     CG2R61     CG2R61
   47    46    84	5 ;     CG2R61     CG2R61      HGR61
   45    46    84	5 ;     CG2R61     CG2R61      HGR61
   46    47    48	5 ;     CG2R61     CG2R61     CG2R61
   46    47    85	5 ;     CG2R61     CG2R61      HGR61
   48    47    85	5 ;     CG2R61     CG2R61      HGR61
   47    48    49	5 ;     CG2R61     CG2R61     CG2R61
   47    48    86	5 ;     CG2R61     CG2R61      HGR61
   49    48    86	5 ;     CG2R61     CG2R61      HGR61
   48    49    50	5 ;     CG2R61     CG2R61     CG2R61
   48    49    87	5 ;     CG2R61     CG2R61      HGR61
   50    49    87	5 ;     CG2R61     CG2R61      HGR61
   45    50    49	5 ;     CG2R61     CG2R61     CG2R61
   45    50    88	5 ;     CG2R61     CG2R61      HGR61
   49    50    88	5 ;     CG2R61     CG2R61      HGR61

[ dihedrals ]
;	ai	  aj	ak	  al funct			  c0			c1			  c2			c3			  c4			c5
    2     1    39    41	 9 ;     CG2R61     CG2R61      NG301      SG3O2
    2     1    39    40	 9 ;     CG2R61     CG2R61      NG301      CG331
    6     1    39    41	 9 ;     CG2R61     CG2R61      NG301      SG3O2
    6     1    39    40	 9 ;     CG2R61     CG2R61      NG301      CG331
   39     1     2     3	 9 ;      NG301     CG2R61     CG2R61     CG2R61
   39     1     2    51	 9 ;      NG301     CG2R61     CG2R61      HGR61
    6     1     2     3	 9 ;     CG2R61     CG2R61     CG2R61     CG2R61
    6     1     2    51	 9 ;     CG2R61     CG2R61     CG2R61      HGR61
   39     1     6     5	 9 ;      NG301     CG2R61     CG2R61     CG2R61
   39     1     6    53	 9 ;      NG301     CG2R61     CG2R61      HGR61
    2     1     6     5	 9 ;     CG2R61     CG2R61     CG2R61     CG2R61
    2     1     6    53	 9 ;     CG2R61     CG2R61     CG2R61      HGR61
    1     2     3     4	 9 ;     CG2R61     CG2R61     CG2R61     CG2R61
    1     2     3    22	 9 ;     CG2R61     CG2R61     CG2R61      CG2O1
   51     2     3     4	 9 ;      HGR61     CG2R61     CG2R61     CG2R61
   51     2     3    22	 9 ;      HGR61     CG2R61     CG2R61      CG2O1
    2     3     4     5	 9 ;     CG2R61     CG2R61     CG2R61     CG2R61
    2     3     4    52	 9 ;     CG2R61     CG2R61     CG2R61      HGR61
   22     3     4     5	 9 ;      CG2O1     CG2R61     CG2R61     CG2R61
   22     3     4    52	 9 ;      CG2O1     CG2R61     CG2R61      HGR61
    2     3    22    23	 9 ;     CG2R61     CG2R61      CG2O1      OG2D1
    2     3    22    21	 9 ;     CG2R61     CG2R61      CG2O1      NG2S1
    4     3    22    23	 9 ;     CG2R61     CG2R61      CG2O1      OG2D1
    4     3    22    21	 9 ;     CG2R61     CG2R61      CG2O1      NG2S1
    3     4     5     6	 9 ;     CG2R61     CG2R61     CG2R61     CG2R61
    3     4     5     7	 9 ;     CG2R61     CG2R61     CG2R61      CG2O1
   52     4     5     6	 9 ;      HGR61     CG2R61     CG2R61     CG2R61
   52     4     5     7	 9 ;      HGR61     CG2R61     CG2R61      CG2O1
    4     5     6     1	 9 ;     CG2R61     CG2R61     CG2R61     CG2R61
    4     5     6    53	 9 ;     CG2R61     CG2R61     CG2R61      HGR61
    7     5     6     1	 9 ;      CG2O1     CG2R61     CG2R61     CG2R61
    7     5     6    53	 9 ;      CG2O1     CG2R61     CG2R61      HGR61
    6     5     7     8	 9 ;     CG2R61     CG2R61      CG2O1      OG2D1
    6     5     7     9	 9 ;     CG2R61     CG2R61      CG2O1      NG2S1
    4     5     7     8	 9 ;     CG2R61     CG2R61      CG2O1      OG2D1
    4     5     7     9	 9 ;     CG2R61     CG2R61      CG2O1      NG2S1
    5     7     9    10	 9 ;     CG2R61      CG2O1      NG2S1      CG311
    5     7     9    24	 9 ;     CG2R61      CG2O1      NG2S1       HGP1
    8     7     9    10	 9 ;      OG2D1      CG2O1      NG2S1      CG311
    8     7     9    24	 9 ;      OG2D1      CG2O1      NG2S1       HGP1
    7     9    10    26	 9 ;      CG2O1      NG2S1      CG311      CG311
    7     9    10    11	 9 ;      CG2O1      NG2S1      CG311      CG321
    7     9    10    54	 9 ;      CG2O1      NG2S1      CG311       HGA1
   24     9    10    26	 9 ;       HGP1      NG2S1      CG311      CG311
   24     9    10    11	 9 ;       HGP1      NG2S1      CG311      CG321
   24     9    10    54	 9 ;       HGP1      NG2S1      CG311       HGA1
    9    10    26    27	 9 ;      NG2S1      CG311      CG311      CG321
    9    10    26    37	 9 ;      NG2S1      CG311      CG311      OG311
    9    10    26    64	 9 ;      NG2S1      CG311      CG311       HGA1
   11    10    26    27	 9 ;      CG321      CG311      CG311      CG321
   11    10    26    37	 9 ;      CG321      CG311      CG311      OG311
   11    10    26    64	 9 ;      CG321      CG311      CG311       HGA1
   54    10    26    27	 9 ;       HGA1      CG311      CG311      CG321
   54    10    26    37	 9 ;       HGA1      CG311      CG311      OG311
   54    10    26    64	 9 ;       HGA1      CG311      CG311       HGA1
   26    10    11    12	 9 ;      CG311      CG311      CG321      OG301
   26    10    11    55	 9 ;      CG311      CG311      CG321       HGA2
   26    10    11    56	 9 ;      CG311      CG311      CG321       HGA2
    9    10    11    12	 9 ;      NG2S1      CG311      CG321      OG301
    9    10    11    55	 9 ;      NG2S1      CG311      CG321       HGA2
    9    10    11    56	 9 ;      NG2S1      CG311      CG321       HGA2
   54    10    11    12	 9 ;       HGA1      CG311      CG321      OG301
   54    10    11    55	 9 ;       HGA1      CG311      CG321       HGA2
   54    10    11    56	 9 ;       HGA1      CG311      CG321       HGA2
   10    11    12    13	 9 ;      CG311      CG321      OG301      CG321
   55    11    12    13	 9 ;       HGA2      CG321      OG301      CG321
   56    11    12    13	 9 ;       HGA2      CG321      OG301      CG321
   11    12    13    14	 9 ;      CG321      OG301      CG321      CG311
   11    12    13    57	 9 ;      CG321      OG301      CG321       HGA2
   11    12    13    58	 9 ;      CG321      OG301      CG321       HGA2
   12    13    14    19	 9 ;      OG301      CG321      CG311      CG321
   12    13    14    15	 9 ;      OG301      CG321      CG311      CG321
   12    13    14    89	 9 ;      OG301      CG321      CG311       HGA1
   57    13    14    19	 9 ;       HGA2      CG321      CG311      CG321
   57    13    14    15	 9 ;       HGA2      CG321      CG311      CG321
   57    13    14    89	 9 ;       HGA2      CG321      CG311       HGA1
   58    13    14    19	 9 ;       HGA2      CG321      CG311      CG321
   58    13    14    15	 9 ;       HGA2      CG321      CG311      CG321
   58    13    14    89	 9 ;       HGA2      CG321      CG311       HGA1
   15    14    19    18	 9 ;      CG321      CG311      CG321      CG321
   15    14    19    62	 9 ;      CG321      CG311      CG321       HGA2
   15    14    19    94	 9 ;      CG321      CG311      CG321       HGA2
   13    14    19    18	 9 ;      CG321      CG311      CG321      CG321
   13    14    19    62	 9 ;      CG321      CG311      CG321       HGA2
   13    14    19    94	 9 ;      CG321      CG311      CG321       HGA2
   89    14    19    18	 9 ;       HGA1      CG311      CG321      CG321
   89    14    19    62	 9 ;       HGA1      CG311      CG321       HGA2
   89    14    19    94	 9 ;       HGA1      CG311      CG321       HGA2
   19    14    15    16	 9 ;      CG321      CG311      CG321      CG311
   19    14    15    59	 9 ;      CG321      CG311      CG321       HGA2
   19    14    15    90	 9 ;      CG321      CG311      CG321       HGA2
   13    14    15    16	 9 ;      CG321      CG311      CG321      CG311
   13    14    15    59	 9 ;      CG321      CG311      CG321       HGA2
   13    14    15    90	 9 ;      CG321      CG311      CG321       HGA2
   89    14    15    16	 9 ;       HGA1      CG311      CG321      CG311
   89    14    15    59	 9 ;       HGA1      CG311      CG321       HGA2
   89    14    15    90	 9 ;       HGA1      CG311      CG321       HGA2
   14    15    16    20	 9 ;      CG311      CG321      CG311      CG311
   14    15    16    17	 9 ;      CG311      CG321      CG311      CG321
   14    15    16    91	 9 ;      CG311      CG321      CG311       HGA1
   59    15    16    20	 9 ;       HGA2      CG321      CG311      CG311
   59    15    16    17	 9 ;       HGA2      CG321      CG311      CG321
   59    15    16    91	 9 ;       HGA2      CG321      CG311       HGA1
   90    15    16    20	 9 ;       HGA2      CG321      CG311      CG311
   90    15    16    17	 9 ;       HGA2      CG321      CG311      CG321
   90    15    16    91	 9 ;       HGA2      CG321      CG311       HGA1
   17    16    20    21	 9 ;      CG321      CG311      CG311      NG2S1
   17    16    20    45	 9 ;      CG321      CG311      CG311     CG2R61
   17    16    20    63	 9 ;      CG321      CG311      CG311       HGA1
   15    16    20    21	 9 ;      CG321      CG311      CG311      NG2S1
   15    16    20    45	 9 ;      CG321      CG311      CG311     CG2R61
   15    16    20    63	 9 ;      CG321      CG311      CG311       HGA1
   91    16    20    21	 9 ;       HGA1      CG311      CG311      NG2S1
   91    16    20    45	 9 ;       HGA1      CG311      CG311     CG2R61
   91    16    20    63	 9 ;       HGA1      CG311      CG311       HGA1
   20    16    17    18	 9 ;      CG311      CG311      CG321      CG321
   20    16    17    60	 9 ;      CG311      CG311      CG321       HGA2
   20    16    17    92	 9 ;      CG311      CG311      CG321       HGA2
   15    16    17    18	 9 ;      CG321      CG311      CG321      CG321
   15    16    17    60	 9 ;      CG321      CG311      CG321       HGA2
   15    16    17    92	 9 ;      CG321      CG311      CG321       HGA2
   91    16    17    18	 9 ;       HGA1      CG311      CG321      CG321
   91    16    17    60	 9 ;       HGA1      CG311      CG321       HGA2
   91    16    17    92	 9 ;       HGA1      CG311      CG321       HGA2
   16    17    18    19	 9 ;      CG311      CG321      CG321      CG321
   16    17    18    61	 9 ;      CG311      CG321      CG321       HGA2
   16    17    18    93	 9 ;      CG311      CG321      CG321       HGA2
   60    17    18    19	 9 ;       HGA2      CG321      CG321      CG321
   60    17    18    61	 9 ;       HGA2      CG321      CG321       HGA2
   60    17    18    93	 9 ;       HGA2      CG321      CG321       HGA2
   92    17    18    19	 9 ;       HGA2      CG321      CG321      CG321
   92    17    18    61	 9 ;       HGA2      CG321      CG321       HGA2
   92    17    18    93	 9 ;       HGA2      CG321      CG321       HGA2
   17    18    19    14	 9 ;      CG321      CG321      CG321      CG311
   17    18    19    62	 9 ;      CG321      CG321      CG321       HGA2
   17    18    19    94	 9 ;      CG321      CG321      CG321       HGA2
   61    18    19    14	 9 ;       HGA2      CG321      CG321      CG311
   61    18    19    62	 9 ;       HGA2      CG321      CG321       HGA2
   61    18    19    94	 9 ;       HGA2      CG321      CG321       HGA2
   93    18    19    14	 9 ;       HGA2      CG321      CG321      CG311
   93    18    19    62	 9 ;       HGA2      CG321      CG321       HGA2
   93    18    19    94	 9 ;       HGA2      CG321      CG321       HGA2
   45    20    21    22	 9 ;     CG2R61      CG311      NG2S1      CG2O1
   45    20    21    25	 9 ;     CG2R61      CG311      NG2S1       HGP1
   16    20    21    22	 9 ;      CG311      CG311      NG2S1      CG2O1
   16    20    21    25	 9 ;      CG311      CG311      NG2S1       HGP1
   63    20    21    22	 9 ;       HGA1      CG311      NG2S1      CG2O1
   63    20    21    25	 9 ;       HGA1      CG311      NG2S1       HGP1
   21    20    45    46	 9 ;      NG2S1      CG311     CG2R61     CG2R61
   21    20    45    50	 9 ;      NG2S1      CG311     CG2R61     CG2R61
   16    20    45    46	 9 ;      CG311      CG311     CG2R61     CG2R61
   16    20    45    50	 9 ;      CG311      CG311     CG2R61     CG2R61
   63    20    45    46	 9 ;       HGA1      CG311     CG2R61     CG2R61
   63    20    45    50	 9 ;       HGA1      CG311     CG2R61     CG2R61
   25    21    22    23	 9 ;       HGP1      NG2S1      CG2O1      OG2D1
   25    21    22     3	 9 ;       HGP1      NG2S1      CG2O1     CG2R61
   20    21    22    23	 9 ;      CG311      NG2S1      CG2O1      OG2D1
   20    21    22     3	 9 ;      CG311      NG2S1      CG2O1     CG2R61
   37    26    27    28	 9 ;      OG311      CG311      CG321      CG311
   37    26    27    65	 9 ;      OG311      CG311      CG321       HGA2
   37    26    27    66	 9 ;      OG311      CG311      CG321       HGA2
   10    26    27    28	 9 ;      CG311      CG311      CG321      CG311
   10    26    27    65	 9 ;      CG311      CG311      CG321       HGA2
   10    26    27    66	 9 ;      CG311      CG311      CG321       HGA2
   64    26    27    28	 9 ;       HGA1      CG311      CG321      CG311
   64    26    27    65	 9 ;       HGA1      CG311      CG321       HGA2
   64    26    27    66	 9 ;       HGA1      CG311      CG321       HGA2
   27    26    37    38	 9 ;      CG321      CG311      OG311       HGP1
   10    26    37    38	 9 ;      CG311      CG311      OG311       HGP1
   64    26    37    38	 9 ;       HGA1      CG311      OG311       HGP1
   26    27    28    32	 9 ;      CG311      CG321      CG311      CG2O1
   26    27    28    29	 9 ;      CG311      CG321      CG311      CG311
   26    27    28    67	 9 ;      CG311      CG321      CG311       HGA1
   65    27    28    32	 9 ;       HGA2      CG321      CG311      CG2O1
   65    27    28    29	 9 ;       HGA2      CG321      CG311      CG311
   65    27    28    67	 9 ;       HGA2      CG321      CG311       HGA1
   66    27    28    32	 9 ;       HGA2      CG321      CG311      CG2O1
   66    27    28    29	 9 ;       HGA2      CG321      CG311      CG311
   66    27    28    67	 9 ;       HGA2      CG321      CG311       HGA1
   29    28    32    34	 9 ;      CG311      CG311      CG2O1      NG2S1
   29    28    32    33	 9 ;      CG311      CG311      CG2O1      OG2D1
   27    28    32    34	 9 ;      CG321      CG311      CG2O1      NG2S1
   27    28    32    33	 9 ;      CG321      CG311      CG2O1      OG2D1
   67    28    32    34	 9 ;       HGA1      CG311      CG2O1      NG2S1
   67    28    32    33	 9 ;       HGA1      CG311      CG2O1      OG2D1
   32    28    29    30	 9 ;      CG2O1      CG311      CG311      CG331
   32    28    29    31	 9 ;      CG2O1      CG311      CG311      CG331
   32    28    29    68	 9 ;      CG2O1      CG311      CG311       HGA1
   27    28    29    30	 9 ;      CG321      CG311      CG311      CG331
   27    28    29    31	 9 ;      CG321      CG311      CG311      CG331
   27    28    29    68	 9 ;      CG321      CG311      CG311       HGA1
   67    28    29    30	 9 ;       HGA1      CG311      CG311      CG331
   67    28    29    31	 9 ;       HGA1      CG311      CG311      CG331
   67    28    29    68	 9 ;       HGA1      CG311      CG311       HGA1
   28    29    30    69	 9 ;      CG311      CG311      CG331       HGA3
   28    29    30    70	 9 ;      CG311      CG311      CG331       HGA3
   28    29    30    71	 9 ;      CG311      CG311      CG331       HGA3
   31    29    30    69	 9 ;      CG331      CG311      CG331       HGA3
   31    29    30    70	 9 ;      CG331      CG311      CG331       HGA3
   31    29    30    71	 9 ;      CG331      CG311      CG331       HGA3
   68    29    30    69	 9 ;       HGA1      CG311      CG331       HGA3
   68    29    30    70	 9 ;       HGA1      CG311      CG331       HGA3
   68    29    30    71	 9 ;       HGA1      CG311      CG331       HGA3
   30    29    31    72	 9 ;      CG331      CG311      CG331       HGA3
   30    29    31    73	 9 ;      CG331      CG311      CG331       HGA3
   30    29    31    74	 9 ;      CG331      CG311      CG331       HGA3
   28    29    31    72	 9 ;      CG311      CG311      CG331       HGA3
   28    29    31    73	 9 ;      CG311      CG311      CG331       HGA3
   28    29    31    74	 9 ;      CG311      CG311      CG331       HGA3
   68    29    31    72	 9 ;       HGA1      CG311      CG331       HGA3
   68    29    31    73	 9 ;       HGA1      CG311      CG331       HGA3
   68    29    31    74	 9 ;       HGA1      CG311      CG331       HGA3
   33    32    34    35	 9 ;      OG2D1      CG2O1      NG2S1      CG331
   33    32    34    36	 9 ;      OG2D1      CG2O1      NG2S1       HGP1
   28    32    34    35	 9 ;      CG311      CG2O1      NG2S1      CG331
   28    32    34    36	 9 ;      CG311      CG2O1      NG2S1       HGP1
   36    34    35    75	 9 ;       HGP1      NG2S1      CG331       HGA3
   36    34    35    76	 9 ;       HGP1      NG2S1      CG331       HGA3
   36    34    35    77	 9 ;       HGP1      NG2S1      CG331       HGA3
   32    34    35    75	 9 ;      CG2O1      NG2S1      CG331       HGA3
   32    34    35    76	 9 ;      CG2O1      NG2S1      CG331       HGA3
   32    34    35    77	 9 ;      CG2O1      NG2S1      CG331       HGA3
   40    39    41    44	 9 ;      CG331      NG301      SG3O2      CG331
   40    39    41    42	 9 ;      CG331      NG301      SG3O2      OG2P1
   40    39    41    43	 9 ;      CG331      NG301      SG3O2      OG2P1
    1    39    41    44	 9 ;     CG2R61      NG301      SG3O2      CG331
    1    39    41    42	 9 ;     CG2R61      NG301      SG3O2      OG2P1
    1    39    41    43	 9 ;     CG2R61      NG301      SG3O2      OG2P1
   41    39    40    78	 9 ;      SG3O2      NG301      CG331       HGA3
   41    39    40    79	 9 ;      SG3O2      NG301      CG331       HGA3
   41    39    40    80	 9 ;      SG3O2      NG301      CG331       HGA3
    1    39    40    78	 9 ;     CG2R61      NG301      CG331       HGA3
    1    39    40    79	 9 ;     CG2R61      NG301      CG331       HGA3
    1    39    40    80	 9 ;     CG2R61      NG301      CG331       HGA3
   42    41    44    81	 9 ;      OG2P1      SG3O2      CG331       HGA3
   42    41    44    82	 9 ;      OG2P1      SG3O2      CG331       HGA3
   42    41    44    83	 9 ;      OG2P1      SG3O2      CG331       HGA3
   43    41    44    81	 9 ;      OG2P1      SG3O2      CG331       HGA3
   43    41    44    82	 9 ;      OG2P1      SG3O2      CG331       HGA3
   43    41    44    83	 9 ;      OG2P1      SG3O2      CG331       HGA3
   39    41    44    81	 9 ;      NG301      SG3O2      CG331       HGA3
   39    41    44    82	 9 ;      NG301      SG3O2      CG331       HGA3
   39    41    44    83	 9 ;      NG301      SG3O2      CG331       HGA3
   20    45    46    47	 9 ;      CG311     CG2R61     CG2R61     CG2R61
   20    45    46    84	 9 ;      CG311     CG2R61     CG2R61      HGR61
   50    45    46    47	 9 ;     CG2R61     CG2R61     CG2R61     CG2R61
   50    45    46    84	 9 ;     CG2R61     CG2R61     CG2R61      HGR61
   46    45    50    49	 9 ;     CG2R61     CG2R61     CG2R61     CG2R61
   46    45    50    88	 9 ;     CG2R61     CG2R61     CG2R61      HGR61
   20    45    50    49	 9 ;      CG311     CG2R61     CG2R61     CG2R61
   20    45    50    88	 9 ;      CG311     CG2R61     CG2R61      HGR61
   45    46    47    48	 9 ;     CG2R61     CG2R61     CG2R61     CG2R61
   45    46    47    85	 9 ;     CG2R61     CG2R61     CG2R61      HGR61
   84    46    47    48	 9 ;      HGR61     CG2R61     CG2R61     CG2R61
   84    46    47    85	 9 ;      HGR61     CG2R61     CG2R61      HGR61
   46    47    48    49	 9 ;     CG2R61     CG2R61     CG2R61     CG2R61
   46    47    48    86	 9 ;     CG2R61     CG2R61     CG2R61      HGR61
   85    47    48    49	 9 ;      HGR61     CG2R61     CG2R61     CG2R61
   85    47    48    86	 9 ;      HGR61     CG2R61     CG2R61      HGR61
   47    48    49    50	 9 ;     CG2R61     CG2R61     CG2R61     CG2R61
   47    48    49    87	 9 ;     CG2R61     CG2R61     CG2R61      HGR61
   86    48    49    50	 9 ;      HGR61     CG2R61     CG2R61     CG2R61
   86    48    49    87	 9 ;      HGR61     CG2R61     CG2R61      HGR61
   48    49    50    45	 9 ;     CG2R61     CG2R61     CG2R61     CG2R61
   48    49    50    88	 9 ;     CG2R61     CG2R61     CG2R61      HGR61
   87    49    50    45	 9 ;      HGR61     CG2R61     CG2R61     CG2R61
   87    49    50    88	 9 ;      HGR61     CG2R61     CG2R61      HGR61

[ dihedrals ]
;	ai	  aj	ak	  al funct			  c0			c1			  c2			c3
    7     5     9     8	 2
   22     3    21    23	 2
   32    28    34    33	 2

