Grunge ROck MAChoS
   94
    1LIG     C1    1  -0.882   0.652  -1.711
    1LIG     C2    2  -0.927   0.534  -1.773
    1LIG     C3    3  -1.062   0.501  -1.761
    1LIG     C4    4  -1.142   0.617  -1.764
    1LIG     C5    5  -1.111   0.725  -1.679
    1LIG     C6    6  -0.975   0.733  -1.645
    1LIG     C7    7  -1.214   0.777  -1.578
    1LIG     O1    8  -1.172   0.793  -1.463
    1LIG     N1    9  -1.353   0.781  -1.591
    1LIG     C8   10  -1.458   0.820  -1.692
    1LIG     C9   11  -1.534   0.707  -1.773
    1LIG     O2   12  -1.630   0.621  -1.711
    1LIG    C10   13  -1.601   0.544  -1.595
    1LIG    C11   14  -1.482   0.454  -1.597
    1LIG    C12   15  -1.469   0.328  -1.546
    1LIG    C13   16  -1.340   0.295  -1.507
    1LIG    C14   17  -1.265   0.390  -1.444
    1LIG    C15   18  -1.259   0.494  -1.527
    1LIG    C16   19  -1.361   0.512  -1.620
    1LIG    C17   20  -1.249   0.195  -1.581
    1LIG     N2   21  -1.176   0.256  -1.715
    1LIG    C18   22  -1.117   0.360  -1.793
    1LIG     O3   23  -1.106   0.334  -1.914
    1LIG     H1   24  -1.390   0.785  -1.496
    1LIG     H2   25  -1.200   0.189  -1.787
    1LIG    C19   26  -1.402   0.930  -1.786
    1LIG    C20   27  -1.372   0.888  -1.932
    1LIG    C21   28  -1.225   0.893  -1.991
    1LIG    C22   29  -1.195   0.781  -2.094
    1LIG    C23   30  -1.048   0.737  -2.089
    1LIG    C24   31  -1.293   0.664  -2.091
    1LIG    C25   32  -1.203   1.036  -2.051
    1LIG     O4   33  -1.293   1.091  -2.114
    1LIG     N3   34  -1.093   1.114  -2.031
    1LIG    C26   35  -0.959   1.098  -1.978
    1LIG     H3   36  -1.108   1.202  -2.077
    1LIG     O5   37  -1.491   1.041  -1.785
    1LIG     H4   38  -1.445   1.117  -1.746
    1LIG     N4   39  -0.745   0.695  -1.710
    1LIG    C27   40  -0.713   0.821  -1.634
    1LIG      S   41  -0.636   0.645  -1.826
    1LIG     O6   42  -0.688   0.680  -1.956
    1LIG     O7   43  -0.601   0.510  -1.796
    1LIG    C28   44  -0.494   0.745  -1.794
    1LIG    C29   45  -1.182   0.117  -1.462
    1LIG    C30   46  -1.064   0.044  -1.500
    1LIG    C31   47  -1.024  -0.073  -1.436
    1LIG    C32   48  -1.091  -0.113  -1.322
    1LIG    C33   49  -1.194  -0.032  -1.272
    1LIG    C34   50  -1.242   0.082  -1.342
    1LIG     HC   51  -0.859   0.471  -1.828
    1LIG    HC1   52  -1.226   0.624  -1.831
    1LIG    HC2   53  -0.942   0.802  -1.568
    1LIG    HC3   54  -1.535   0.869  -1.635
    1LIG    HC4   55  -1.586   0.758  -1.854
    1LIG    HC5   56  -1.458   0.644  -1.819
    1LIG    HC6   57  -1.689   0.482  -1.575
    1LIG    HC7   58  -1.589   0.613  -1.512
    1LIG    HC8   59  -1.553   0.260  -1.537
    1LIG    HC9   60  -1.220   0.383  -1.346
    1LIG   HC10   61  -1.176   0.563  -1.523
    1LIG   HC11   62  -1.345   0.571  -1.709
    1LIG   HC12   63  -1.320   0.123  -1.621
    1LIG   HC13   64  -1.308   0.964  -1.742
    1LIG   HC14   65  -1.432   0.953  -1.995
    1LIG   HC15   66  -1.409   0.787  -1.945
    1LIG   HC16   67  -1.156   0.881  -1.908
    1LIG   HC17   68  -1.208   0.828  -2.192
    1LIG   HC18   69  -1.031   0.659  -2.163
    1LIG   HC19   70  -1.025   0.698  -1.990
    1LIG   HC20   71  -0.984   0.822  -2.111
    1LIG   HC21   72  -1.257   0.586  -2.158
    1LIG   HC22   73  -1.391   0.698  -2.124
    1LIG   HC23   74  -1.299   0.625  -1.990
    1LIG   HC24   75  -0.907   1.193  -1.984
    1LIG   HC25   76  -0.905   1.024  -2.037
    1LIG   HC26   77  -0.964   1.065  -1.875
    1LIG   HC27   78  -0.799   0.849  -1.572
    1LIG   HC28   79  -0.691   0.901  -1.704
    1LIG   HC29   80  -0.627   0.804  -1.570
    1LIG   HC30   81  -0.412   0.712  -1.858
    1LIG   HC31   82  -0.465   0.734  -1.690
    1LIG   HC32   83  -0.517   0.849  -1.816
    1LIG   HC33   84  -1.003   0.082  -1.581
    1LIG   HC34   85  -0.942  -0.133  -1.475
    1LIG   HC35   86  -1.065  -0.205  -1.271
    1LIG   HC36   87  -1.239  -0.057  -1.177
    1LIG   HC37   88  -1.324   0.140  -1.302
    1LIG    H43   89  -1.497   0.422  -1.700
    1LIG    H44   90  -1.490   0.367  -1.446
    1LIG    H45   91  -1.364   0.234  -1.421
    1LIG    H46   92  -1.175   0.349  -1.488
    1LIG    H47   93  -1.204   0.433  -1.599
    1LIG    H48   94  -1.394   0.601  -1.566
   0.00000   0.00000   0.00000
