Green Red Orange Magenta Azure Cyan Skyblue
   60
    1LIG     C1    1  -1.538   0.444  -1.631
    1LIG     C2    2  -1.646   0.554  -1.636
    1LIG      S    3  -1.572   0.715  -1.655
    1LIG     O1    4  -1.476   0.732  -1.549
    1LIG     O2    5  -1.676   0.811  -1.683
    1LIG     C3    6  -1.476   0.692  -1.803
    1LIG     C4    7  -1.375   0.580  -1.781
    1LIG     C5    8  -1.445   0.444  -1.755
    1LIG      N    9  -1.278   0.618  -1.672
    1LIG     H1   10  -1.250   0.717  -1.683
    1LIG     H2   11  -1.324   0.620  -1.579
    1LIG     C6   12  -1.151   0.541  -1.658
    1LIG     C7   13  -1.162   0.455  -1.536
    1LIG     C8   14  -1.144   0.317  -1.549
    1LIG     C9   15  -1.138   0.235  -1.437
    1LIG    C10   16  -1.148   0.292  -1.310
    1LIG    C11   17  -1.168   0.429  -1.296
    1LIG    C12   18  -1.175   0.511  -1.408
    1LIG     O3   19  -1.115   0.100  -1.442
    1LIG    C13   20  -1.010   0.049  -1.359
    1LIG    C14   21  -1.026  -0.103  -1.341
    1LIG    C15   22  -0.878   0.080  -1.428
    1LIG     O4   23  -1.510   0.402  -1.874
    1LIG     H3   24  -1.475   0.319  -1.911
    1LIG    C16   25  -1.603   0.306  -1.608
    1LIG    C17   26  -1.693   0.306  -1.487
    1LIG    C18   27  -1.820   0.247  -1.493
    1LIG    C19   28  -1.900   0.238  -1.378
    1LIG     BR   29  -2.066   0.148  -1.393
    1LIG    C20   30  -1.855   0.291  -1.258
    1LIG    C21   31  -1.730   0.353  -1.251
    1LIG    C22   32  -1.649   0.360  -1.365
    1LIG     O5   33  -1.933   0.281  -1.146
    1LIG     H4   34  -1.970   0.192  -1.140
    1LIG     HC   35  -1.476   0.465  -1.544
    1LIG    HC2   36  -1.713   0.535  -1.720
    1LIG    HC3   37  -1.703   0.552  -1.543
    1LIG    HC4   38  -1.423   0.785  -1.826
    1LIG    HC5   39  -1.542   0.667  -1.886
    1LIG    HC1   40  -1.317   0.570  -1.874
    1LIG    HC6   41  -1.366   0.372  -1.735
    1LIG    HC7   42  -1.067   0.609  -1.648
    1LIG    HC8   43  -1.136   0.478  -1.746
    1LIG    HC9   44  -1.135   0.274  -1.648
    1LIG   HC10   45  -1.140   0.229  -1.222
    1LIG   HC11   46  -1.179   0.472  -1.197
    1LIG   HC12   47  -1.190   0.617  -1.397
    1LIG   HC13   48  -1.013   0.097  -1.262
    1LIG   HC14   49  -1.120  -0.124  -1.292
    1LIG   HC15   50  -1.024  -0.151  -1.439
    1LIG   HC16   51  -0.944  -0.141  -1.281
    1LIG   HC17   52  -0.868   0.188  -1.440
    1LIG   HC18   53  -0.876   0.032  -1.526
    1LIG   HC19   54  -0.796   0.043  -1.368
    1LIG   HC20   55  -1.524   0.232  -1.594
    1LIG   HC21   56  -1.662   0.278  -1.696
    1LIG   HC22   57  -1.857   0.209  -1.587
    1LIG   HC23   58  -1.696   0.396  -1.158
    1LIG   HC24   59  -1.553   0.408  -1.359
    1LIG    LP1   60  -2.233   0.059  -1.408
   0.00000   0.00000   0.00000
