; Created by cgenff_charmm2gmx.py

[ moleculetype ]
; Name			   nrexcl
LIG				 3

[ atoms ]
;	 nr		  type	resnr residue  atom   cgnr	   charge		mass  typeB    chargeB		massB
; residue	 1 LIG rtp LIG q	qsum
     1      CG311      1    LIG     C1      1     -0.145     12.011   ;
     2      CG321      1    LIG     C2      2      0.180     12.011   ;
     3      SG3O2      1    LIG      S      3      0.113     32.060   ;
     4      OG2P1      1    LIG     O1      4     -0.300     15.999   ;
     5      OG2P1      1    LIG     O2      5     -0.300     15.999   ;
     6      CG321      1    LIG     C3      6      0.224     12.011   ;
     7      CG314      1    LIG     C4      7     -0.043     12.011   ;
     8      CG311      1    LIG     C5      8      0.100     12.011   ;
     9      NG3P2      1    LIG      N      9     -0.444     14.007   ;
    10       HGP2      1    LIG     H1     10      0.346      1.008   ;
    11       HGP2      1    LIG     H2     11      0.346      1.008   ;
    12      CG324      1    LIG     C6     12      0.178     12.011   ;
    13     CG2R61      1    LIG     C7     13      0.036     12.011   ;
    14     CG2R61      1    LIG     C8     14     -0.122     12.011   ;
    15     CG2R61      1    LIG     C9     15      0.159     12.011   ;
    16     CG2R61      1    LIG    C10     16     -0.119     12.011   ;
    17     CG2R61      1    LIG    C11     17     -0.108     12.011   ;
    18     CG2R61      1    LIG    C12     18     -0.119     12.011   ;
    19      OG301      1    LIG     O3     19     -0.341     15.999   ;
    20      CG311      1    LIG    C13     20      0.059     12.011   ;
    21      CG331      1    LIG    C14     21     -0.251     12.011   ;
    22      CG331      1    LIG    C15     22     -0.251     12.011   ;
    23      OG311      1    LIG     O4     23     -0.595     15.999   ;
    24       HGP1      1    LIG     H3     24      0.422      1.008   ;
    25      CG321      1    LIG    C16     25     -0.091     12.011   ;
    26     CG2R61      1    LIG    C17     26     -0.011     12.011   ;
    27     CG2R61      1    LIG    C18     27     -0.097     12.011   ;
    28     CG2R61      1    LIG    C19     28     -0.052     12.011   ;
    29      BRGR1      1    LIG     BR     29     -0.146     79.904   ;
    30     CG2R61      1    LIG    C20     30      0.180     12.011   ;
    31     CG2R61      1    LIG    C21     31     -0.110     12.011   ;
    32     CG2R61      1    LIG    C22     32     -0.117     12.011   ;
    33      OG311      1    LIG     O5     33     -0.530     15.999   ;
    34       HGP1      1    LIG     H4     34      0.421      1.008   ;
    35       HGA1      1    LIG     HC     35      0.090      1.008   ;
    36       HGA2      1    LIG    HC2     36      0.090      1.008   ;
    37       HGA2      1    LIG    HC3     37      0.090      1.008   ;
    38       HGA2      1    LIG    HC4     38      0.090      1.008   ;
    39       HGA2      1    LIG    HC5     39      0.090      1.008   ;
    40       HGA1      1    LIG    HC1     40      0.109      1.008   ;
    41       HGA1      1    LIG    HC6     41      0.090      1.008   ;
    42       HGA2      1    LIG    HC7     42      0.090      1.008   ;
    43       HGA2      1    LIG    HC8     43      0.090      1.008   ;
    44      HGR61      1    LIG    HC9     44      0.116      1.008   ;
    45      HGR61      1    LIG   HC10     45      0.116      1.008   ;
    46      HGR61      1    LIG   HC11     46      0.116      1.008   ;
    47      HGR61      1    LIG   HC12     47      0.116      1.008   ;
    48       HGA1      1    LIG   HC13     48      0.090      1.008   ;
    49       HGA3      1    LIG   HC14     49      0.090      1.008   ;
    50       HGA3      1    LIG   HC15     50      0.090      1.008   ;
    51       HGA3      1    LIG   HC16     51      0.090      1.008   ;
    52       HGA3      1    LIG   HC17     52      0.090      1.008   ;
    53       HGA3      1    LIG   HC18     53      0.090      1.008   ;
    54       HGA3      1    LIG   HC19     54      0.090      1.008   ;
    55       HGA2      1    LIG   HC20     55      0.090      1.008   ;
    56       HGA2      1    LIG   HC21     56      0.090      1.008   ;
    57      HGR62      1    LIG   HC22     57      0.143      1.008   ;
    58      HGR61      1    LIG   HC23     58      0.116      1.008   ;
    59      HGR61      1    LIG   HC24     59      0.116      1.008   ;
    60        LPH      1    LIG    LP1     60      0.050      0.000   ;

[ bonds ]
;	ai	  aj funct			  c0			c1			  c2			c3
    1     8	 1 ;       CG311      CG311
    1     2	 1 ;       CG311      CG321
    1    25	 1 ;       CG311      CG321
    1    35	 1 ;       CG311       HGA1
    2     3	 1 ;       CG321      SG3O2
    2    36	 1 ;       CG321       HGA2
    2    37	 1 ;       CG321       HGA2
    3     6	 1 ;       SG3O2      CG321
    3     5	 1 ;       SG3O2      OG2P1
    3     4	 1 ;       SG3O2      OG2P1
    6     7	 1 ;       CG321      CG314
    6    38	 1 ;       CG321       HGA2
    6    39	 1 ;       CG321       HGA2
    7     9	 1 ;       CG314      NG3P2
    7     8	 1 ;       CG314      CG311
    7    40	 1 ;       CG314       HGA1
    8    23	 1 ;       CG311      OG311
    8    41	 1 ;       CG311       HGA1
    9    10	 1 ;       NG3P2       HGP2
    9    12	 1 ;       NG3P2      CG324
    9    11	 1 ;       NG3P2       HGP2
   12    13	 1 ;       CG324     CG2R61
   12    42	 1 ;       CG324       HGA2
   12    43	 1 ;       CG324       HGA2
   13    14	 1 ;      CG2R61     CG2R61
   13    18	 1 ;      CG2R61     CG2R61
   14    15	 1 ;      CG2R61     CG2R61
   14    44	 1 ;      CG2R61      HGR61
   15    19	 1 ;      CG2R61      OG301
   15    16	 1 ;      CG2R61     CG2R61
   16    17	 1 ;      CG2R61     CG2R61
   16    45	 1 ;      CG2R61      HGR61
   17    18	 1 ;      CG2R61     CG2R61
   17    46	 1 ;      CG2R61      HGR61
   18    47	 1 ;      CG2R61      HGR61
   19    20	 1 ;       OG301      CG311
   20    22	 1 ;       CG311      CG331
   20    21	 1 ;       CG311      CG331
   20    48	 1 ;       CG311       HGA1
   21    49	 1 ;       CG331       HGA3
   21    50	 1 ;       CG331       HGA3
   21    51	 1 ;       CG331       HGA3
   22    52	 1 ;       CG331       HGA3
   22    53	 1 ;       CG331       HGA3
   22    54	 1 ;       CG331       HGA3
   23    24	 1 ;       OG311       HGP1
   25    26	 1 ;       CG321     CG2R61
   25    55	 1 ;       CG321       HGA2
   25    56	 1 ;       CG321       HGA2
   26    32	 1 ;      CG2R61     CG2R61
   26    27	 1 ;      CG2R61     CG2R61
   27    28	 1 ;      CG2R61     CG2R61
   27    57	 1 ;      CG2R61      HGR62
   28    30	 1 ;      CG2R61     CG2R61
   28    29	 1 ;      CG2R61      BRGR1
   30    31	 1 ;      CG2R61     CG2R61
   30    33	 1 ;      CG2R61      OG311
   31    32	 1 ;      CG2R61     CG2R61
   31    58	 1 ;      CG2R61      HGR61
   32    59	 1 ;      CG2R61      HGR61
   33    34	 1 ;       OG311       HGP1

[ pairs ]
;	ai	  aj funct			  c0			c1			  c2			c3
    1     6	 1
    1     5	 1
    1     4	 1
    1     9	 1
    1    40	 1
    1    24	 1
    1    32	 1
    1    27	 1
    2     7	 1
    2    23	 1
    2    41	 1
    2    26	 1
    2    55	 1
    2    56	 1
    2    38	 1
    2    39	 1
    3     8	 1
    3    25	 1
    3    35	 1
    3     9	 1
    3    40	 1
    4    36	 1
    4    37	 1
    4     7	 1
    4    38	 1
    4    39	 1
    5    36	 1
    5    37	 1
    5     7	 1
    5    38	 1
    5    39	 1
    6    36	 1
    6    37	 1
    6    10	 1
    6    12	 1
    6    11	 1
    6    23	 1
    6    41	 1
    7    25	 1
    7    35	 1
    7    24	 1
    7    13	 1
    7    42	 1
    7    43	 1
    8    36	 1
    8    37	 1
    8    26	 1
    8    55	 1
    8    56	 1
    8    38	 1
    8    39	 1
    8    10	 1
    8    12	 1
    8    11	 1
    9    38	 1
    9    39	 1
    9    23	 1
    9    41	 1
    9    14	 1
    9    18	 1
   10    40	 1
   10    13	 1
   10    42	 1
   10    43	 1
   11    40	 1
   11    13	 1
   11    42	 1
   11    43	 1
   12    40	 1
   12    15	 1
   12    44	 1
   12    17	 1
   12    47	 1
   13    19	 1
   13    16	 1
   13    46	 1
   14    42	 1
   14    43	 1
   14    17	 1
   14    47	 1
   14    20	 1
   14    45	 1
   15    18	 1
   15    46	 1
   15    22	 1
   15    21	 1
   15    48	 1
   16    44	 1
   16    20	 1
   16    47	 1
   17    19	 1
   18    42	 1
   18    43	 1
   18    44	 1
   18    45	 1
   19    44	 1
   19    45	 1
   19    52	 1
   19    53	 1
   19    54	 1
   19    49	 1
   19    50	 1
   19    51	 1
   21    52	 1
   21    53	 1
   21    54	 1
   22    49	 1
   22    50	 1
   22    51	 1
   23    25	 1
   23    35	 1
   23    40	 1
   24    41	 1
   25    41	 1
   25    36	 1
   25    37	 1
   25    31	 1
   25    59	 1
   25    28	 1
   25    57	 1
   26    35	 1
   26    30	 1
   26    29	 1
   60    26	 1
   26    58	 1
   27    55	 1
   27    56	 1
   27    31	 1
   27    59	 1
   27    33	 1
   28    32	 1
   28    58	 1
   28    34	 1
   29    57	 1
   60    57	 1
   29    31	 1
   60    31	 1
   29    33	 1
   60    33	 1
   30    57	 1
   30    59	 1
   31    34	 1
   32    55	 1
   32    56	 1
   32    57	 1
   32    33	 1
   33    58	 1
   35    41	 1
   35    36	 1
   35    37	 1
   35    55	 1
   35    56	 1
   38    40	 1
   39    40	 1
   40    41	 1
   45    46	 1
   46    47	 1
   48    52	 1
   48    53	 1
   48    54	 1
   48    49	 1
   48    50	 1
   48    51	 1
   58    59	 1

[ angles ]
;	ai	  aj	ak funct			c0			  c1			c2			  c3
    8     1     2	5 ;      CG311      CG311      CG321
    8     1    25	5 ;      CG311      CG311      CG321
    8     1    35	5 ;      CG311      CG311       HGA1
    2     1    25	5 ;      CG321      CG311      CG321
    2     1    35	5 ;      CG321      CG311       HGA1
   25     1    35	5 ;      CG321      CG311       HGA1
    3     2     1	5 ;      SG3O2      CG321      CG311
    3     2    36	5 ;      SG3O2      CG321       HGA2
    3     2    37	5 ;      SG3O2      CG321       HGA2
    1     2    36	5 ;      CG311      CG321       HGA2
    1     2    37	5 ;      CG311      CG321       HGA2
   36     2    37	5 ;       HGA2      CG321       HGA2
    6     3     5	5 ;      CG321      SG3O2      OG2P1
    6     3     4	5 ;      CG321      SG3O2      OG2P1
    6     3     2	5 ;      CG321      SG3O2      CG321
    5     3     4	5 ;      OG2P1      SG3O2      OG2P1
    5     3     2	5 ;      OG2P1      SG3O2      CG321
    4     3     2	5 ;      OG2P1      SG3O2      CG321
    7     6     3	5 ;      CG314      CG321      SG3O2
    7     6    38	5 ;      CG314      CG321       HGA2
    7     6    39	5 ;      CG314      CG321       HGA2
    3     6    38	5 ;      SG3O2      CG321       HGA2
    3     6    39	5 ;      SG3O2      CG321       HGA2
   38     6    39	5 ;       HGA2      CG321       HGA2
    9     7     6	5 ;      NG3P2      CG314      CG321
    9     7     8	5 ;      NG3P2      CG314      CG311
    9     7    40	5 ;      NG3P2      CG314       HGA1
    6     7     8	5 ;      CG321      CG314      CG311
    6     7    40	5 ;      CG321      CG314       HGA1
    8     7    40	5 ;      CG311      CG314       HGA1
    7     8    23	5 ;      CG314      CG311      OG311
    7     8     1	5 ;      CG314      CG311      CG311
    7     8    41	5 ;      CG314      CG311       HGA1
   23     8     1	5 ;      OG311      CG311      CG311
   23     8    41	5 ;      OG311      CG311       HGA1
    1     8    41	5 ;      CG311      CG311       HGA1
   10     9    12	5 ;       HGP2      NG3P2      CG324
   10     9     7	5 ;       HGP2      NG3P2      CG314
   10     9    11	5 ;       HGP2      NG3P2       HGP2
   12     9     7	5 ;      CG324      NG3P2      CG314
   12     9    11	5 ;      CG324      NG3P2       HGP2
    7     9    11	5 ;      CG314      NG3P2       HGP2
    9    12    13	5 ;      NG3P2      CG324     CG2R61
    9    12    42	5 ;      NG3P2      CG324       HGA2
    9    12    43	5 ;      NG3P2      CG324       HGA2
   13    12    42	5 ;     CG2R61      CG324       HGA2
   13    12    43	5 ;     CG2R61      CG324       HGA2
   42    12    43	5 ;       HGA2      CG324       HGA2
   12    13    14	5 ;      CG324     CG2R61     CG2R61
   12    13    18	5 ;      CG324     CG2R61     CG2R61
   14    13    18	5 ;     CG2R61     CG2R61     CG2R61
   13    14    15	5 ;     CG2R61     CG2R61     CG2R61
   13    14    44	5 ;     CG2R61     CG2R61      HGR61
   15    14    44	5 ;     CG2R61     CG2R61      HGR61
   14    15    19	5 ;     CG2R61     CG2R61      OG301
   14    15    16	5 ;     CG2R61     CG2R61     CG2R61
   19    15    16	5 ;      OG301     CG2R61     CG2R61
   15    16    17	5 ;     CG2R61     CG2R61     CG2R61
   15    16    45	5 ;     CG2R61     CG2R61      HGR61
   17    16    45	5 ;     CG2R61     CG2R61      HGR61
   18    17    16	5 ;     CG2R61     CG2R61     CG2R61
   18    17    46	5 ;     CG2R61     CG2R61      HGR61
   16    17    46	5 ;     CG2R61     CG2R61      HGR61
   13    18    17	5 ;     CG2R61     CG2R61     CG2R61
   13    18    47	5 ;     CG2R61     CG2R61      HGR61
   17    18    47	5 ;     CG2R61     CG2R61      HGR61
   15    19    20	5 ;     CG2R61      OG301      CG311
   22    20    19	5 ;      CG331      CG311      OG301
   22    20    21	5 ;      CG331      CG311      CG331
   22    20    48	5 ;      CG331      CG311       HGA1
   19    20    21	5 ;      OG301      CG311      CG331
   19    20    48	5 ;      OG301      CG311       HGA1
   21    20    48	5 ;      CG331      CG311       HGA1
   20    21    49	5 ;      CG311      CG331       HGA3
   20    21    50	5 ;      CG311      CG331       HGA3
   20    21    51	5 ;      CG311      CG331       HGA3
   49    21    50	5 ;       HGA3      CG331       HGA3
   49    21    51	5 ;       HGA3      CG331       HGA3
   50    21    51	5 ;       HGA3      CG331       HGA3
   20    22    52	5 ;      CG311      CG331       HGA3
   20    22    53	5 ;      CG311      CG331       HGA3
   20    22    54	5 ;      CG311      CG331       HGA3
   52    22    53	5 ;       HGA3      CG331       HGA3
   52    22    54	5 ;       HGA3      CG331       HGA3
   53    22    54	5 ;       HGA3      CG331       HGA3
   24    23     8	5 ;       HGP1      OG311      CG311
    1    25    26	5 ;      CG311      CG321     CG2R61
    1    25    55	5 ;      CG311      CG321       HGA2
    1    25    56	5 ;      CG311      CG321       HGA2
   26    25    55	5 ;     CG2R61      CG321       HGA2
   26    25    56	5 ;     CG2R61      CG321       HGA2
   55    25    56	5 ;       HGA2      CG321       HGA2
   25    26    32	5 ;      CG321     CG2R61     CG2R61
   25    26    27	5 ;      CG321     CG2R61     CG2R61
   32    26    27	5 ;     CG2R61     CG2R61     CG2R61
   26    27    28	5 ;     CG2R61     CG2R61     CG2R61
   26    27    57	5 ;     CG2R61     CG2R61      HGR62
   28    27    57	5 ;     CG2R61     CG2R61      HGR62
   27    28    30	5 ;     CG2R61     CG2R61     CG2R61
   27    28    29	5 ;     CG2R61     CG2R61      BRGR1
   30    28    29	5 ;     CG2R61     CG2R61      BRGR1
   31    30    28	5 ;     CG2R61     CG2R61     CG2R61
   31    30    33	5 ;     CG2R61     CG2R61      OG311
   28    30    33	5 ;     CG2R61     CG2R61      OG311
   32    31    30	5 ;     CG2R61     CG2R61     CG2R61
   32    31    58	5 ;     CG2R61     CG2R61      HGR61
   30    31    58	5 ;     CG2R61     CG2R61      HGR61
   26    32    31	5 ;     CG2R61     CG2R61     CG2R61
   26    32    59	5 ;     CG2R61     CG2R61      HGR61
   31    32    59	5 ;     CG2R61     CG2R61      HGR61
   30    33    34	5 ;     CG2R61      OG311       HGP1

[ dihedrals ]
;	ai	  aj	ak	  al funct			  c0			c1			  c2			c3			  c4			c5
    2     1     8     7	 9 ;      CG321      CG311      CG311      CG314
    2     1     8    23	 9 ;      CG321      CG311      CG311      OG311
    2     1     8    41	 9 ;      CG321      CG311      CG311       HGA1
   25     1     8     7	 9 ;      CG321      CG311      CG311      CG314
   25     1     8    23	 9 ;      CG321      CG311      CG311      OG311
   25     1     8    41	 9 ;      CG321      CG311      CG311       HGA1
   35     1     8     7	 9 ;       HGA1      CG311      CG311      CG314
   35     1     8    23	 9 ;       HGA1      CG311      CG311      OG311
   35     1     8    41	 9 ;       HGA1      CG311      CG311       HGA1
    8     1     2     3	 9 ;      CG311      CG311      CG321      SG3O2
    8     1     2    36	 9 ;      CG311      CG311      CG321       HGA2
    8     1     2    37	 9 ;      CG311      CG311      CG321       HGA2
   25     1     2     3	 9 ;      CG321      CG311      CG321      SG3O2
   25     1     2    36	 9 ;      CG321      CG311      CG321       HGA2
   25     1     2    37	 9 ;      CG321      CG311      CG321       HGA2
   35     1     2     3	 9 ;       HGA1      CG311      CG321      SG3O2
   35     1     2    36	 9 ;       HGA1      CG311      CG321       HGA2
   35     1     2    37	 9 ;       HGA1      CG311      CG321       HGA2
    8     1    25    26	 9 ;      CG311      CG311      CG321     CG2R61
    8     1    25    55	 9 ;      CG311      CG311      CG321       HGA2
    8     1    25    56	 9 ;      CG311      CG311      CG321       HGA2
    2     1    25    26	 9 ;      CG321      CG311      CG321     CG2R61
    2     1    25    55	 9 ;      CG321      CG311      CG321       HGA2
    2     1    25    56	 9 ;      CG321      CG311      CG321       HGA2
   35     1    25    26	 9 ;       HGA1      CG311      CG321     CG2R61
   35     1    25    55	 9 ;       HGA1      CG311      CG321       HGA2
   35     1    25    56	 9 ;       HGA1      CG311      CG321       HGA2
    1     2     3     6	 9 ;      CG311      CG321      SG3O2      CG321
    1     2     3     5	 9 ;      CG311      CG321      SG3O2      OG2P1
    1     2     3     4	 9 ;      CG311      CG321      SG3O2      OG2P1
   36     2     3     6	 9 ;       HGA2      CG321      SG3O2      CG321
   36     2     3     5	 9 ;       HGA2      CG321      SG3O2      OG2P1
   36     2     3     4	 9 ;       HGA2      CG321      SG3O2      OG2P1
   37     2     3     6	 9 ;       HGA2      CG321      SG3O2      CG321
   37     2     3     5	 9 ;       HGA2      CG321      SG3O2      OG2P1
   37     2     3     4	 9 ;       HGA2      CG321      SG3O2      OG2P1
    5     3     6     7	 9 ;      OG2P1      SG3O2      CG321      CG314
    5     3     6    38	 9 ;      OG2P1      SG3O2      CG321       HGA2
    5     3     6    39	 9 ;      OG2P1      SG3O2      CG321       HGA2
    4     3     6     7	 9 ;      OG2P1      SG3O2      CG321      CG314
    4     3     6    38	 9 ;      OG2P1      SG3O2      CG321       HGA2
    4     3     6    39	 9 ;      OG2P1      SG3O2      CG321       HGA2
    2     3     6     7	 9 ;      CG321      SG3O2      CG321      CG314
    2     3     6    38	 9 ;      CG321      SG3O2      CG321       HGA2
    2     3     6    39	 9 ;      CG321      SG3O2      CG321       HGA2
    3     6     7     9	 9 ;      SG3O2      CG321      CG314      NG3P2
    3     6     7     8	 9 ;      SG3O2      CG321      CG314      CG311
    3     6     7    40	 9 ;      SG3O2      CG321      CG314       HGA1
   38     6     7     9	 9 ;       HGA2      CG321      CG314      NG3P2
   38     6     7     8	 9 ;       HGA2      CG321      CG314      CG311
   38     6     7    40	 9 ;       HGA2      CG321      CG314       HGA1
   39     6     7     9	 9 ;       HGA2      CG321      CG314      NG3P2
   39     6     7     8	 9 ;       HGA2      CG321      CG314      CG311
   39     6     7    40	 9 ;       HGA2      CG321      CG314       HGA1
    6     7     9    10	 9 ;      CG321      CG314      NG3P2       HGP2
    6     7     9    12	 9 ;      CG321      CG314      NG3P2      CG324
    6     7     9    11	 9 ;      CG321      CG314      NG3P2       HGP2
    8     7     9    10	 9 ;      CG311      CG314      NG3P2       HGP2
    8     7     9    12	 9 ;      CG311      CG314      NG3P2      CG324
    8     7     9    11	 9 ;      CG311      CG314      NG3P2       HGP2
   40     7     9    10	 9 ;       HGA1      CG314      NG3P2       HGP2
   40     7     9    12	 9 ;       HGA1      CG314      NG3P2      CG324
   40     7     9    11	 9 ;       HGA1      CG314      NG3P2       HGP2
    9     7     8    23	 9 ;      NG3P2      CG314      CG311      OG311
    9     7     8     1	 9 ;      NG3P2      CG314      CG311      CG311
    9     7     8    41	 9 ;      NG3P2      CG314      CG311       HGA1
    6     7     8    23	 9 ;      CG321      CG314      CG311      OG311
    6     7     8     1	 9 ;      CG321      CG314      CG311      CG311
    6     7     8    41	 9 ;      CG321      CG314      CG311       HGA1
   40     7     8    23	 9 ;       HGA1      CG314      CG311      OG311
   40     7     8     1	 9 ;       HGA1      CG314      CG311      CG311
   40     7     8    41	 9 ;       HGA1      CG314      CG311       HGA1
    7     8    23    24	 9 ;      CG314      CG311      OG311       HGP1
    1     8    23    24	 9 ;      CG311      CG311      OG311       HGP1
   41     8    23    24	 9 ;       HGA1      CG311      OG311       HGP1
   10     9    12    13	 9 ;       HGP2      NG3P2      CG324     CG2R61
   10     9    12    42	 9 ;       HGP2      NG3P2      CG324       HGA2
   10     9    12    43	 9 ;       HGP2      NG3P2      CG324       HGA2
    7     9    12    13	 9 ;      CG314      NG3P2      CG324     CG2R61
    7     9    12    42	 9 ;      CG314      NG3P2      CG324       HGA2
    7     9    12    43	 9 ;      CG314      NG3P2      CG324       HGA2
   11     9    12    13	 9 ;       HGP2      NG3P2      CG324     CG2R61
   11     9    12    42	 9 ;       HGP2      NG3P2      CG324       HGA2
   11     9    12    43	 9 ;       HGP2      NG3P2      CG324       HGA2
    9    12    13    14	 9 ;      NG3P2      CG324     CG2R61     CG2R61
    9    12    13    18	 9 ;      NG3P2      CG324     CG2R61     CG2R61
   42    12    13    14	 9 ;       HGA2      CG324     CG2R61     CG2R61
   42    12    13    18	 9 ;       HGA2      CG324     CG2R61     CG2R61
   43    12    13    14	 9 ;       HGA2      CG324     CG2R61     CG2R61
   43    12    13    18	 9 ;       HGA2      CG324     CG2R61     CG2R61
   12    13    14    15	 9 ;      CG324     CG2R61     CG2R61     CG2R61
   12    13    14    44	 9 ;      CG324     CG2R61     CG2R61      HGR61
   18    13    14    15	 9 ;     CG2R61     CG2R61     CG2R61     CG2R61
   18    13    14    44	 9 ;     CG2R61     CG2R61     CG2R61      HGR61
   12    13    18    17	 9 ;      CG324     CG2R61     CG2R61     CG2R61
   12    13    18    47	 9 ;      CG324     CG2R61     CG2R61      HGR61
   14    13    18    17	 9 ;     CG2R61     CG2R61     CG2R61     CG2R61
   14    13    18    47	 9 ;     CG2R61     CG2R61     CG2R61      HGR61
   13    14    15    19	 9 ;     CG2R61     CG2R61     CG2R61      OG301
   13    14    15    16	 9 ;     CG2R61     CG2R61     CG2R61     CG2R61
   44    14    15    19	 9 ;      HGR61     CG2R61     CG2R61      OG301
   44    14    15    16	 9 ;      HGR61     CG2R61     CG2R61     CG2R61
   14    15    19    20	 9 ;     CG2R61     CG2R61      OG301      CG311
   16    15    19    20	 9 ;     CG2R61     CG2R61      OG301      CG311
   14    15    16    17	 9 ;     CG2R61     CG2R61     CG2R61     CG2R61
   14    15    16    45	 9 ;     CG2R61     CG2R61     CG2R61      HGR61
   19    15    16    17	 9 ;      OG301     CG2R61     CG2R61     CG2R61
   19    15    16    45	 9 ;      OG301     CG2R61     CG2R61      HGR61
   15    16    17    18	 9 ;     CG2R61     CG2R61     CG2R61     CG2R61
   15    16    17    46	 9 ;     CG2R61     CG2R61     CG2R61      HGR61
   45    16    17    18	 9 ;      HGR61     CG2R61     CG2R61     CG2R61
   45    16    17    46	 9 ;      HGR61     CG2R61     CG2R61      HGR61
   16    17    18    13	 9 ;     CG2R61     CG2R61     CG2R61     CG2R61
   16    17    18    47	 9 ;     CG2R61     CG2R61     CG2R61      HGR61
   46    17    18    13	 9 ;      HGR61     CG2R61     CG2R61     CG2R61
   46    17    18    47	 9 ;      HGR61     CG2R61     CG2R61      HGR61
   15    19    20    22	 9 ;     CG2R61      OG301      CG311      CG331
   15    19    20    21	 9 ;     CG2R61      OG301      CG311      CG331
   15    19    20    48	 9 ;     CG2R61      OG301      CG311       HGA1
   19    20    22    52	 9 ;      OG301      CG311      CG331       HGA3
   19    20    22    53	 9 ;      OG301      CG311      CG331       HGA3
   19    20    22    54	 9 ;      OG301      CG311      CG331       HGA3
   21    20    22    52	 9 ;      CG331      CG311      CG331       HGA3
   21    20    22    53	 9 ;      CG331      CG311      CG331       HGA3
   21    20    22    54	 9 ;      CG331      CG311      CG331       HGA3
   48    20    22    52	 9 ;       HGA1      CG311      CG331       HGA3
   48    20    22    53	 9 ;       HGA1      CG311      CG331       HGA3
   48    20    22    54	 9 ;       HGA1      CG311      CG331       HGA3
   22    20    21    49	 9 ;      CG331      CG311      CG331       HGA3
   22    20    21    50	 9 ;      CG331      CG311      CG331       HGA3
   22    20    21    51	 9 ;      CG331      CG311      CG331       HGA3
   19    20    21    49	 9 ;      OG301      CG311      CG331       HGA3
   19    20    21    50	 9 ;      OG301      CG311      CG331       HGA3
   19    20    21    51	 9 ;      OG301      CG311      CG331       HGA3
   48    20    21    49	 9 ;       HGA1      CG311      CG331       HGA3
   48    20    21    50	 9 ;       HGA1      CG311      CG331       HGA3
   48    20    21    51	 9 ;       HGA1      CG311      CG331       HGA3
    1    25    26    32	 9 ;      CG311      CG321     CG2R61     CG2R61
    1    25    26    27	 9 ;      CG311      CG321     CG2R61     CG2R61
   55    25    26    32	 9 ;       HGA2      CG321     CG2R61     CG2R61
   55    25    26    27	 9 ;       HGA2      CG321     CG2R61     CG2R61
   56    25    26    32	 9 ;       HGA2      CG321     CG2R61     CG2R61
   56    25    26    27	 9 ;       HGA2      CG321     CG2R61     CG2R61
   25    26    32    31	 9 ;      CG321     CG2R61     CG2R61     CG2R61
   25    26    32    59	 9 ;      CG321     CG2R61     CG2R61      HGR61
   27    26    32    31	 9 ;     CG2R61     CG2R61     CG2R61     CG2R61
   27    26    32    59	 9 ;     CG2R61     CG2R61     CG2R61      HGR61
   25    26    27    28	 9 ;      CG321     CG2R61     CG2R61     CG2R61
   25    26    27    57	 9 ;      CG321     CG2R61     CG2R61      HGR62
   32    26    27    28	 9 ;     CG2R61     CG2R61     CG2R61     CG2R61
   32    26    27    57	 9 ;     CG2R61     CG2R61     CG2R61      HGR62
   26    27    28    30	 9 ;     CG2R61     CG2R61     CG2R61     CG2R61
   26    27    28    29	 9 ;     CG2R61     CG2R61     CG2R61      BRGR1
   57    27    28    30	 9 ;      HGR62     CG2R61     CG2R61     CG2R61
   57    27    28    29	 9 ;      HGR62     CG2R61     CG2R61      BRGR1
   27    28    30    31	 9 ;     CG2R61     CG2R61     CG2R61     CG2R61
   27    28    30    33	 9 ;     CG2R61     CG2R61     CG2R61      OG311
   29    28    30    31	 9 ;      BRGR1     CG2R61     CG2R61     CG2R61
   29    28    30    33	 9 ;      BRGR1     CG2R61     CG2R61      OG311
   28    30    31    32	 9 ;     CG2R61     CG2R61     CG2R61     CG2R61
   28    30    31    58	 9 ;     CG2R61     CG2R61     CG2R61      HGR61
   33    30    31    32	 9 ;      OG311     CG2R61     CG2R61     CG2R61
   33    30    31    58	 9 ;      OG311     CG2R61     CG2R61      HGR61
   31    30    33    34	 9 ;     CG2R61     CG2R61      OG311       HGP1
   28    30    33    34	 9 ;     CG2R61     CG2R61      OG311       HGP1
   30    31    32    26	 9 ;     CG2R61     CG2R61     CG2R61     CG2R61
   30    31    32    59	 9 ;     CG2R61     CG2R61     CG2R61      HGR61
   58    31    32    26	 9 ;      HGR61     CG2R61     CG2R61     CG2R61
   58    31    32    59	 9 ;      HGR61     CG2R61     CG2R61      HGR61

[ virtual_sites2 ]
; Site   from				funct a
   60    29    28     2   -0.189

[ exclusions ]
;	ai	  aj
   29    60
   60    28
   60    27
   60    30
   60    26
   60    57
   60    31
   60    33

