; Created by cgenff_charmm2gmx.py

[ moleculetype ]
; Name			   nrexcl
LIG				 3

[ atoms ]
;	 nr		  type	resnr residue  atom   cgnr	   charge		mass  typeB    chargeB		massB
; residue	 1 LIG rtp LIG q	qsum
     1     CG2R61      1    LIG     C1      1     -0.018     12.011   ;
     2     CG2R61      1    LIG     C2      2     -0.118     12.011   ;
     3     CG2R61      1    LIG     C3      3     -0.113     12.011   ;
     4     CG2R61      1    LIG     C4      4     -0.114     12.011   ;
     5     CG2R61      1    LIG     C5      5     -0.115     12.011   ;
     6     CG2R61      1    LIG     C6      6      0.098     12.011   ;
     7      CG1N1      1    LIG     C7      7      0.361     12.011   ;
     8      NG1T1      1    LIG     N1      8     -0.463     14.007   ;
     9     CG2DC1      1    LIG     C8      9     -0.023     12.011   ;
    10     CG2DC1      1    LIG     C9     10     -0.260     12.011   ;
    11      CG311      1    LIG    C10     11      0.019     12.011   ;
    12      CG321      1    LIG    C11     12      0.044     12.011   ;
    13      CG321      1    LIG    C12     13     -0.251     12.011   ;
    14      OG302      1    LIG     O1     14     -0.506     15.999   ;
    15      CG2O2      1    LIG    C13     15      0.761     12.011   ;
    16      CG301      1    LIG    C14     16      0.533     12.011   ;
    17      OG2D1      1    LIG     O2     17     -0.563     15.999   ;
    18      CG321      1    LIG    C15     18     -0.205     12.011   ;
    19      CG331      1    LIG    C16     19     -0.190     12.011   ;
    20     CG2R61      1    LIG    C17     20     -0.020     12.011   ;
    21     CG2R61      1    LIG    C18     21     -0.130     12.011   ;
    22     CG2R61      1    LIG    C19     22     -0.123     12.011   ;
    23     CG2R61      1    LIG    C20     23      0.011     12.011   ;
    24      CG321      1    LIG    C21     24     -0.165     12.011   ;
    25     CG2R61      1    LIG    C22     25     -0.123     12.011   ;
    26      CG321      1    LIG    C23     26     -0.094     12.011   ;
    27      CG311      1    LIG    C24     27     -0.053     12.011   ;
    28      NG2S1      1    LIG     N2     28     -0.475     14.007   ;
    29      CG2O1      1    LIG    C25     29      0.484     12.011   ;
    30       HGP1      1    LIG     H1     30      0.321      1.008   ;
    31      CG311      1    LIG    C26     31      0.024     12.011   ;
    32      OG2D1      1    LIG     O3     32     -0.508     15.999   ;
    33      CG321      1    LIG    C27     33     -0.071     12.011   ;
    34     CG2R61      1    LIG    C28     34     -0.108     12.011   ;
    35      NG3P3      1    LIG     N3     35     -0.554     14.007   ;
    36       HGP2      1    LIG     H2     36      0.348      1.008   ;
    37       HGP2      1    LIG     H3     37      0.348      1.008   ;
    38       HGP2      1    LIG     H4     38      0.348      1.008   ;
    39     CG2R61      1    LIG    C29     39     -0.083     12.011   ;
    40     CG2R61      1    LIG    C30     40     -0.085     12.011   ;
    41     CG2R61      1    LIG    C31     41     -0.114     12.011   ;
    42     CG2R61      1    LIG    C32     42     -0.116     12.011   ;
    43     CG2R61      1    LIG    C33     43     -0.114     12.011   ;
    44     CG2R61      1    LIG    C34     44     -0.085     12.011   ;
    45      HGR61      1    LIG     H5     45      0.116      1.008   ;
    46      HGR61      1    LIG     H6     46      0.116      1.008   ;
    47      HGR61      1    LIG     H7     47      0.116      1.008   ;
    48      HGR61      1    LIG     H8     48      0.116      1.008   ;
    49       HGA4      1    LIG     H9     49      0.132      1.008   ;
    50       HGA1      1    LIG    H10     50      0.090      1.008   ;
    51       HGA2      1    LIG    H11     51      0.090      1.008   ;
    52       HGA2      1    LIG    H12     52      0.090      1.008   ;
    53       HGA2      1    LIG    H13     53      0.090      1.008   ;
    54       HGA2      1    LIG    H14     54      0.090      1.008   ;
    55       HGA2      1    LIG    H15     55      0.090      1.008   ;
    56       HGA2      1    LIG    H16     56      0.090      1.008   ;
    57       HGA3      1    LIG    H17     57      0.090      1.008   ;
    58       HGA3      1    LIG    H18     58      0.090      1.008   ;
    59       HGA3      1    LIG    H19     59      0.090      1.008   ;
    60      HGR61      1    LIG    H20     60      0.116      1.008   ;
    61      HGR61      1    LIG    H21     61      0.116      1.008   ;
    62       HGA2      1    LIG    H22     62      0.090      1.008   ;
    63       HGA2      1    LIG    H23     63      0.090      1.008   ;
    64      HGR61      1    LIG    H24     64      0.116      1.008   ;
    65       HGA2      1    LIG    H25     65      0.090      1.008   ;
    66       HGA2      1    LIG    H26     66      0.090      1.008   ;
    67       HGA1      1    LIG    H27     67      0.090      1.008   ;
    68       HGA1      1    LIG    H28     68      0.090      1.008   ;
    69       HGA2      1    LIG    H29     69      0.090      1.008   ;
    70       HGA2      1    LIG    H30     70      0.090      1.008   ;
    71      HGR61      1    LIG    H31     71      0.116      1.008   ;
    72      HGR61      1    LIG    H32     72      0.116      1.008   ;
    73      HGR61      1    LIG    H33     73      0.116      1.008   ;
    74      HGR61      1    LIG    H34     74      0.116      1.008   ;
    75      HGR61      1    LIG    H35     75      0.116      1.008   ;
    76      HGR61      1    LIG    H36     76      0.116      1.008   ;

[ bonds ]
;	ai	  aj funct			  c0			c1			  c2			c3
    1     9	 1 ;      CG2R61     CG2DC1
    1     2	 1 ;      CG2R61     CG2R61
    1     6	 1 ;      CG2R61     CG2R61
    2     3	 1 ;      CG2R61     CG2R61
    2    45	 1 ;      CG2R61      HGR61
    3     4	 1 ;      CG2R61     CG2R61
    3    46	 1 ;      CG2R61      HGR61
    4     5	 1 ;      CG2R61     CG2R61
    4    47	 1 ;      CG2R61      HGR61
    5     6	 1 ;      CG2R61     CG2R61
    5    48	 1 ;      CG2R61      HGR61
    6     7	 1 ;      CG2R61      CG1N1
    7     8	 1 ;       CG1N1      NG1T1
    9    10	 1 ;      CG2DC1     CG2DC1
    9    33	 1 ;      CG2DC1      CG321
   10    11	 1 ;      CG2DC1      CG311
   10    49	 1 ;      CG2DC1       HGA4
   11    12	 1 ;       CG311      CG321
   11    13	 1 ;       CG311      CG321
   11    50	 1 ;       CG311       HGA1
   12    14	 1 ;       CG321      OG302
   12    51	 1 ;       CG321       HGA2
   12    52	 1 ;       CG321       HGA2
   13    31	 1 ;       CG321      CG311
   13    53	 1 ;       CG321       HGA2
   13    54	 1 ;       CG321       HGA2
   14    15	 1 ;       OG302      CG2O2
   15    16	 1 ;       CG2O2      CG301
   15    17	 1 ;       CG2O2      OG2D1
   16    35	 1 ;       CG301      NG3P3
   16    19	 1 ;       CG301      CG331
   16    18	 1 ;       CG301      CG321
   18    20	 1 ;       CG321     CG2R61
   18    55	 1 ;       CG321       HGA2
   18    56	 1 ;       CG321       HGA2
   19    57	 1 ;       CG331       HGA3
   19    58	 1 ;       CG331       HGA3
   19    59	 1 ;       CG331       HGA3
   20    22	 1 ;      CG2R61     CG2R61
   20    21	 1 ;      CG2R61     CG2R61
   21    23	 1 ;      CG2R61     CG2R61
   21    60	 1 ;      CG2R61      HGR61
   22    34	 1 ;      CG2R61     CG2R61
   22    61	 1 ;      CG2R61      HGR61
   23    25	 1 ;      CG2R61     CG2R61
   23    24	 1 ;      CG2R61      CG321
   24    26	 1 ;       CG321      CG321
   24    62	 1 ;       CG321       HGA2
   24    63	 1 ;       CG321       HGA2
   25    34	 1 ;      CG2R61     CG2R61
   25    64	 1 ;      CG2R61      HGR61
   26    27	 1 ;       CG321      CG311
   26    65	 1 ;       CG321       HGA2
   26    66	 1 ;       CG321       HGA2
   27    39	 1 ;       CG311     CG2R61
   27    28	 1 ;       CG311      NG2S1
   27    67	 1 ;       CG311       HGA1
   28    30	 1 ;       NG2S1       HGP1
   28    29	 1 ;       NG2S1      CG2O1
   29    31	 1 ;       CG2O1      CG311
   29    32	 1 ;       CG2O1      OG2D1
   31    33	 1 ;       CG311      CG321
   31    68	 1 ;       CG311       HGA1
   33    69	 1 ;       CG321       HGA2
   33    70	 1 ;       CG321       HGA2
   34    71	 1 ;      CG2R61      HGR61
   35    38	 1 ;       NG3P3       HGP2
   35    37	 1 ;       NG3P3       HGP2
   35    36	 1 ;       NG3P3       HGP2
   39    40	 1 ;      CG2R61     CG2R61
   39    44	 1 ;      CG2R61     CG2R61
   40    41	 1 ;      CG2R61     CG2R61
   40    72	 1 ;      CG2R61      HGR61
   41    42	 1 ;      CG2R61     CG2R61
   41    73	 1 ;      CG2R61      HGR61
   42    43	 1 ;      CG2R61     CG2R61
   42    74	 1 ;      CG2R61      HGR61
   43    44	 1 ;      CG2R61     CG2R61
   43    75	 1 ;      CG2R61      HGR61
   44    76	 1 ;      CG2R61      HGR61

[ pairs ]
;	ai	  aj funct			  c0			c1			  c2			c3
    1     4	 1
    1    46	 1
    1    48	 1
    1     8	 1
    1    11	 1
    1    49	 1
    1    31	 1
    1    69	 1
    1    70	 1
    2    10	 1
    2    33	 1
    2     7	 1
    2     5	 1
    2    47	 1
    3     9	 1
    3     6	 1
    3    48	 1
    4    45	 1
    4     7	 1
    5     9	 1
    5    46	 1
    5     8	 1
    6    10	 1
    6    33	 1
    6    45	 1
    6    47	 1
    7     9	 1
    7    48	 1
    9    45	 1
    9    12	 1
    9    13	 1
    9    50	 1
    9    29	 1
    9    68	 1
   10    31	 1
   10    69	 1
   10    70	 1
   10    14	 1
   10    51	 1
   10    52	 1
   10    53	 1
   10    54	 1
   11    33	 1
   11    15	 1
   11    29	 1
   11    68	 1
   12    49	 1
   12    31	 1
   12    53	 1
   12    54	 1
   12    16	 1
   12    17	 1
   13    49	 1
   13    14	 1
   13    51	 1
   13    52	 1
   13    28	 1
   13    32	 1
   13    69	 1
   13    70	 1
   14    50	 1
   14    35	 1
   14    19	 1
   14    18	 1
   15    51	 1
   15    52	 1
   15    38	 1
   15    37	 1
   15    36	 1
   15    57	 1
   15    58	 1
   15    59	 1
   15    20	 1
   15    55	 1
   15    56	 1
   16    22	 1
   16    21	 1
   17    35	 1
   17    19	 1
   17    18	 1
   18    38	 1
   18    37	 1
   18    36	 1
   18    57	 1
   18    58	 1
   18    59	 1
   18    34	 1
   18    61	 1
   18    23	 1
   18    60	 1
   19    38	 1
   19    37	 1
   19    36	 1
   19    20	 1
   19    55	 1
   19    56	 1
   20    35	 1
   20    25	 1
   20    24	 1
   20    71	 1
   21    55	 1
   21    56	 1
   21    34	 1
   21    61	 1
   21    64	 1
   21    26	 1
   21    62	 1
   21    63	 1
   22    55	 1
   22    56	 1
   22    23	 1
   22    60	 1
   22    64	 1
   23    27	 1
   23    65	 1
   23    66	 1
   23    71	 1
   24    60	 1
   24    34	 1
   24    64	 1
   24    39	 1
   24    28	 1
   24    67	 1
   25    60	 1
   25    61	 1
   25    26	 1
   25    62	 1
   25    63	 1
   26    40	 1
   26    44	 1
   26    30	 1
   26    29	 1
   27    62	 1
   27    63	 1
   27    31	 1
   27    32	 1
   27    41	 1
   27    72	 1
   27    43	 1
   27    76	 1
   28    65	 1
   28    66	 1
   28    40	 1
   28    44	 1
   28    33	 1
   28    68	 1
   29    53	 1
   29    54	 1
   29    39	 1
   29    67	 1
   29    69	 1
   29    70	 1
   30    39	 1
   30    67	 1
   30    31	 1
   30    32	 1
   31    50	 1
   32    33	 1
   32    68	 1
   33    49	 1
   33    53	 1
   33    54	 1
   35    57	 1
   35    58	 1
   35    59	 1
   35    55	 1
   35    56	 1
   39    65	 1
   39    66	 1
   39    42	 1
   39    73	 1
   39    75	 1
   40    67	 1
   40    43	 1
   40    76	 1
   40    74	 1
   41    44	 1
   41    75	 1
   42    72	 1
   42    76	 1
   43    73	 1
   44    67	 1
   44    72	 1
   44    74	 1
   45    46	 1
   46    47	 1
   47    48	 1
   49    50	 1
   50    51	 1
   50    52	 1
   50    53	 1
   50    54	 1
   53    68	 1
   54    68	 1
   61    71	 1
   62    65	 1
   62    66	 1
   63    65	 1
   63    66	 1
   64    71	 1
   65    67	 1
   66    67	 1
   68    69	 1
   68    70	 1
   72    73	 1
   73    74	 1
   74    75	 1
   75    76	 1

[ angles ]
;	ai	  aj	ak funct			c0			  c1			c2			  c3
    9     1     2	5 ;     CG2DC1     CG2R61     CG2R61
    9     1     6	5 ;     CG2DC1     CG2R61     CG2R61
    2     1     6	5 ;     CG2R61     CG2R61     CG2R61
    1     2     3	5 ;     CG2R61     CG2R61     CG2R61
    1     2    45	5 ;     CG2R61     CG2R61      HGR61
    3     2    45	5 ;     CG2R61     CG2R61      HGR61
    2     3     4	5 ;     CG2R61     CG2R61     CG2R61
    2     3    46	5 ;     CG2R61     CG2R61      HGR61
    4     3    46	5 ;     CG2R61     CG2R61      HGR61
    3     4     5	5 ;     CG2R61     CG2R61     CG2R61
    3     4    47	5 ;     CG2R61     CG2R61      HGR61
    5     4    47	5 ;     CG2R61     CG2R61      HGR61
    6     5     4	5 ;     CG2R61     CG2R61     CG2R61
    6     5    48	5 ;     CG2R61     CG2R61      HGR61
    4     5    48	5 ;     CG2R61     CG2R61      HGR61
    1     6     7	5 ;     CG2R61     CG2R61      CG1N1
    1     6     5	5 ;     CG2R61     CG2R61     CG2R61
    7     6     5	5 ;      CG1N1     CG2R61     CG2R61
    6     7     8	5 ;     CG2R61      CG1N1      NG1T1
   10     9     1	5 ;     CG2DC1     CG2DC1     CG2R61
   10     9    33	5 ;     CG2DC1     CG2DC1      CG321
    1     9    33	5 ;     CG2R61     CG2DC1      CG321
   11    10     9	5 ;      CG311     CG2DC1     CG2DC1
   11    10    49	5 ;      CG311     CG2DC1       HGA4
    9    10    49	5 ;     CG2DC1     CG2DC1       HGA4
   12    11    10	5 ;      CG321      CG311     CG2DC1
   12    11    13	5 ;      CG321      CG311      CG321
   12    11    50	5 ;      CG321      CG311       HGA1
   10    11    13	5 ;     CG2DC1      CG311      CG321
   10    11    50	5 ;     CG2DC1      CG311       HGA1
   13    11    50	5 ;      CG321      CG311       HGA1
   14    12    11	5 ;      OG302      CG321      CG311
   14    12    51	5 ;      OG302      CG321       HGA2
   14    12    52	5 ;      OG302      CG321       HGA2
   11    12    51	5 ;      CG311      CG321       HGA2
   11    12    52	5 ;      CG311      CG321       HGA2
   51    12    52	5 ;       HGA2      CG321       HGA2
   11    13    31	5 ;      CG311      CG321      CG311
   11    13    53	5 ;      CG311      CG321       HGA2
   11    13    54	5 ;      CG311      CG321       HGA2
   31    13    53	5 ;      CG311      CG321       HGA2
   31    13    54	5 ;      CG311      CG321       HGA2
   53    13    54	5 ;       HGA2      CG321       HGA2
   15    14    12	5 ;      CG2O2      OG302      CG321
   16    15    17	5 ;      CG301      CG2O2      OG2D1
   16    15    14	5 ;      CG301      CG2O2      OG302
   17    15    14	5 ;      OG2D1      CG2O2      OG302
   35    16    19	5 ;      NG3P3      CG301      CG331
   35    16    18	5 ;      NG3P3      CG301      CG321
   35    16    15	5 ;      NG3P3      CG301      CG2O2
   19    16    18	5 ;      CG331      CG301      CG321
   19    16    15	5 ;      CG331      CG301      CG2O2
   18    16    15	5 ;      CG321      CG301      CG2O2
   16    18    20	5 ;      CG301      CG321     CG2R61
   16    18    55	5 ;      CG301      CG321       HGA2
   16    18    56	5 ;      CG301      CG321       HGA2
   20    18    55	5 ;     CG2R61      CG321       HGA2
   20    18    56	5 ;     CG2R61      CG321       HGA2
   55    18    56	5 ;       HGA2      CG321       HGA2
   16    19    57	5 ;      CG301      CG331       HGA3
   16    19    58	5 ;      CG301      CG331       HGA3
   16    19    59	5 ;      CG301      CG331       HGA3
   57    19    58	5 ;       HGA3      CG331       HGA3
   57    19    59	5 ;       HGA3      CG331       HGA3
   58    19    59	5 ;       HGA3      CG331       HGA3
   18    20    22	5 ;      CG321     CG2R61     CG2R61
   18    20    21	5 ;      CG321     CG2R61     CG2R61
   22    20    21	5 ;     CG2R61     CG2R61     CG2R61
   20    21    23	5 ;     CG2R61     CG2R61     CG2R61
   20    21    60	5 ;     CG2R61     CG2R61      HGR61
   23    21    60	5 ;     CG2R61     CG2R61      HGR61
   20    22    34	5 ;     CG2R61     CG2R61     CG2R61
   20    22    61	5 ;     CG2R61     CG2R61      HGR61
   34    22    61	5 ;     CG2R61     CG2R61      HGR61
   21    23    25	5 ;     CG2R61     CG2R61     CG2R61
   21    23    24	5 ;     CG2R61     CG2R61      CG321
   25    23    24	5 ;     CG2R61     CG2R61      CG321
   23    24    26	5 ;     CG2R61      CG321      CG321
   23    24    62	5 ;     CG2R61      CG321       HGA2
   23    24    63	5 ;     CG2R61      CG321       HGA2
   26    24    62	5 ;      CG321      CG321       HGA2
   26    24    63	5 ;      CG321      CG321       HGA2
   62    24    63	5 ;       HGA2      CG321       HGA2
   34    25    23	5 ;     CG2R61     CG2R61     CG2R61
   34    25    64	5 ;     CG2R61     CG2R61      HGR61
   23    25    64	5 ;     CG2R61     CG2R61      HGR61
   24    26    27	5 ;      CG321      CG321      CG311
   24    26    65	5 ;      CG321      CG321       HGA2
   24    26    66	5 ;      CG321      CG321       HGA2
   27    26    65	5 ;      CG311      CG321       HGA2
   27    26    66	5 ;      CG311      CG321       HGA2
   65    26    66	5 ;       HGA2      CG321       HGA2
   26    27    39	5 ;      CG321      CG311     CG2R61
   26    27    28	5 ;      CG321      CG311      NG2S1
   26    27    67	5 ;      CG321      CG311       HGA1
   39    27    28	5 ;     CG2R61      CG311      NG2S1
   39    27    67	5 ;     CG2R61      CG311       HGA1
   28    27    67	5 ;      NG2S1      CG311       HGA1
   27    28    30	5 ;      CG311      NG2S1       HGP1
   27    28    29	5 ;      CG311      NG2S1      CG2O1
   30    28    29	5 ;       HGP1      NG2S1      CG2O1
   28    29    31	5 ;      NG2S1      CG2O1      CG311
   28    29    32	5 ;      NG2S1      CG2O1      OG2D1
   31    29    32	5 ;      CG311      CG2O1      OG2D1
   13    31    33	5 ;      CG321      CG311      CG321
   13    31    29	5 ;      CG321      CG311      CG2O1
   13    31    68	5 ;      CG321      CG311       HGA1
   33    31    29	5 ;      CG321      CG311      CG2O1
   33    31    68	5 ;      CG321      CG311       HGA1
   29    31    68	5 ;      CG2O1      CG311       HGA1
    9    33    31	5 ;     CG2DC1      CG321      CG311
    9    33    69	5 ;     CG2DC1      CG321       HGA2
    9    33    70	5 ;     CG2DC1      CG321       HGA2
   31    33    69	5 ;      CG311      CG321       HGA2
   31    33    70	5 ;      CG311      CG321       HGA2
   69    33    70	5 ;       HGA2      CG321       HGA2
   22    34    25	5 ;     CG2R61     CG2R61     CG2R61
   22    34    71	5 ;     CG2R61     CG2R61      HGR61
   25    34    71	5 ;     CG2R61     CG2R61      HGR61
   38    35    37	5 ;       HGP2      NG3P3       HGP2
   38    35    36	5 ;       HGP2      NG3P3       HGP2
   38    35    16	5 ;       HGP2      NG3P3      CG301
   37    35    36	5 ;       HGP2      NG3P3       HGP2
   37    35    16	5 ;       HGP2      NG3P3      CG301
   36    35    16	5 ;       HGP2      NG3P3      CG301
   27    39    40	5 ;      CG311     CG2R61     CG2R61
   27    39    44	5 ;      CG311     CG2R61     CG2R61
   40    39    44	5 ;     CG2R61     CG2R61     CG2R61
   41    40    39	5 ;     CG2R61     CG2R61     CG2R61
   41    40    72	5 ;     CG2R61     CG2R61      HGR61
   39    40    72	5 ;     CG2R61     CG2R61      HGR61
   40    41    42	5 ;     CG2R61     CG2R61     CG2R61
   40    41    73	5 ;     CG2R61     CG2R61      HGR61
   42    41    73	5 ;     CG2R61     CG2R61      HGR61
   41    42    43	5 ;     CG2R61     CG2R61     CG2R61
   41    42    74	5 ;     CG2R61     CG2R61      HGR61
   43    42    74	5 ;     CG2R61     CG2R61      HGR61
   42    43    44	5 ;     CG2R61     CG2R61     CG2R61
   42    43    75	5 ;     CG2R61     CG2R61      HGR61
   44    43    75	5 ;     CG2R61     CG2R61      HGR61
   39    44    43	5 ;     CG2R61     CG2R61     CG2R61
   39    44    76	5 ;     CG2R61     CG2R61      HGR61
   43    44    76	5 ;     CG2R61     CG2R61      HGR61

[ dihedrals ]
;	ai	  aj	ak	  al funct			  c0			c1			  c2			c3			  c4			c5
    2     1     9    10	 9 ;     CG2R61     CG2R61     CG2DC1     CG2DC1
    2     1     9    33	 9 ;     CG2R61     CG2R61     CG2DC1      CG321
    6     1     9    10	 9 ;     CG2R61     CG2R61     CG2DC1     CG2DC1
    6     1     9    33	 9 ;     CG2R61     CG2R61     CG2DC1      CG321
    9     1     2     3	 9 ;     CG2DC1     CG2R61     CG2R61     CG2R61
    9     1     2    45	 9 ;     CG2DC1     CG2R61     CG2R61      HGR61
    6     1     2     3	 9 ;     CG2R61     CG2R61     CG2R61     CG2R61
    6     1     2    45	 9 ;     CG2R61     CG2R61     CG2R61      HGR61
    9     1     6     7	 9 ;     CG2DC1     CG2R61     CG2R61      CG1N1
    9     1     6     5	 9 ;     CG2DC1     CG2R61     CG2R61     CG2R61
    2     1     6     7	 9 ;     CG2R61     CG2R61     CG2R61      CG1N1
    2     1     6     5	 9 ;     CG2R61     CG2R61     CG2R61     CG2R61
    1     2     3     4	 9 ;     CG2R61     CG2R61     CG2R61     CG2R61
    1     2     3    46	 9 ;     CG2R61     CG2R61     CG2R61      HGR61
   45     2     3     4	 9 ;      HGR61     CG2R61     CG2R61     CG2R61
   45     2     3    46	 9 ;      HGR61     CG2R61     CG2R61      HGR61
    2     3     4     5	 9 ;     CG2R61     CG2R61     CG2R61     CG2R61
    2     3     4    47	 9 ;     CG2R61     CG2R61     CG2R61      HGR61
   46     3     4     5	 9 ;      HGR61     CG2R61     CG2R61     CG2R61
   46     3     4    47	 9 ;      HGR61     CG2R61     CG2R61      HGR61
    3     4     5     6	 9 ;     CG2R61     CG2R61     CG2R61     CG2R61
    3     4     5    48	 9 ;     CG2R61     CG2R61     CG2R61      HGR61
   47     4     5     6	 9 ;      HGR61     CG2R61     CG2R61     CG2R61
   47     4     5    48	 9 ;      HGR61     CG2R61     CG2R61      HGR61
    4     5     6     1	 9 ;     CG2R61     CG2R61     CG2R61     CG2R61
    4     5     6     7	 9 ;     CG2R61     CG2R61     CG2R61      CG1N1
   48     5     6     1	 9 ;      HGR61     CG2R61     CG2R61     CG2R61
   48     5     6     7	 9 ;      HGR61     CG2R61     CG2R61      CG1N1
    1     9    10    11	 9 ;     CG2R61     CG2DC1     CG2DC1      CG311
    1     9    10    49	 9 ;     CG2R61     CG2DC1     CG2DC1       HGA4
   33     9    10    11	 9 ;      CG321     CG2DC1     CG2DC1      CG311
   33     9    10    49	 9 ;      CG321     CG2DC1     CG2DC1       HGA4
   10     9    33    31	 9 ;     CG2DC1     CG2DC1      CG321      CG311
   10     9    33    69	 9 ;     CG2DC1     CG2DC1      CG321       HGA2
   10     9    33    70	 9 ;     CG2DC1     CG2DC1      CG321       HGA2
    1     9    33    31	 9 ;     CG2R61     CG2DC1      CG321      CG311
    1     9    33    69	 9 ;     CG2R61     CG2DC1      CG321       HGA2
    1     9    33    70	 9 ;     CG2R61     CG2DC1      CG321       HGA2
    9    10    11    12	 9 ;     CG2DC1     CG2DC1      CG311      CG321
    9    10    11    13	 9 ;     CG2DC1     CG2DC1      CG311      CG321
    9    10    11    50	 9 ;     CG2DC1     CG2DC1      CG311       HGA1
   49    10    11    12	 9 ;       HGA4     CG2DC1      CG311      CG321
   49    10    11    13	 9 ;       HGA4     CG2DC1      CG311      CG321
   49    10    11    50	 9 ;       HGA4     CG2DC1      CG311       HGA1
   10    11    12    14	 9 ;     CG2DC1      CG311      CG321      OG302
   10    11    12    51	 9 ;     CG2DC1      CG311      CG321       HGA2
   10    11    12    52	 9 ;     CG2DC1      CG311      CG321       HGA2
   13    11    12    14	 9 ;      CG321      CG311      CG321      OG302
   13    11    12    51	 9 ;      CG321      CG311      CG321       HGA2
   13    11    12    52	 9 ;      CG321      CG311      CG321       HGA2
   50    11    12    14	 9 ;       HGA1      CG311      CG321      OG302
   50    11    12    51	 9 ;       HGA1      CG311      CG321       HGA2
   50    11    12    52	 9 ;       HGA1      CG311      CG321       HGA2
   12    11    13    31	 9 ;      CG321      CG311      CG321      CG311
   12    11    13    53	 9 ;      CG321      CG311      CG321       HGA2
   12    11    13    54	 9 ;      CG321      CG311      CG321       HGA2
   10    11    13    31	 9 ;     CG2DC1      CG311      CG321      CG311
   10    11    13    53	 9 ;     CG2DC1      CG311      CG321       HGA2
   10    11    13    54	 9 ;     CG2DC1      CG311      CG321       HGA2
   50    11    13    31	 9 ;       HGA1      CG311      CG321      CG311
   50    11    13    53	 9 ;       HGA1      CG311      CG321       HGA2
   50    11    13    54	 9 ;       HGA1      CG311      CG321       HGA2
   11    12    14    15	 9 ;      CG311      CG321      OG302      CG2O2
   51    12    14    15	 9 ;       HGA2      CG321      OG302      CG2O2
   52    12    14    15	 9 ;       HGA2      CG321      OG302      CG2O2
   11    13    31    33	 9 ;      CG311      CG321      CG311      CG321
   11    13    31    29	 9 ;      CG311      CG321      CG311      CG2O1
   11    13    31    68	 9 ;      CG311      CG321      CG311       HGA1
   53    13    31    33	 9 ;       HGA2      CG321      CG311      CG321
   53    13    31    29	 9 ;       HGA2      CG321      CG311      CG2O1
   53    13    31    68	 9 ;       HGA2      CG321      CG311       HGA1
   54    13    31    33	 9 ;       HGA2      CG321      CG311      CG321
   54    13    31    29	 9 ;       HGA2      CG321      CG311      CG2O1
   54    13    31    68	 9 ;       HGA2      CG321      CG311       HGA1
   12    14    15    16	 9 ;      CG321      OG302      CG2O2      CG301
   12    14    15    17	 9 ;      CG321      OG302      CG2O2      OG2D1
   17    15    16    35	 9 ;      OG2D1      CG2O2      CG301      NG3P3
   17    15    16    19	 9 ;      OG2D1      CG2O2      CG301      CG331
   17    15    16    18	 9 ;      OG2D1      CG2O2      CG301      CG321
   14    15    16    35	 9 ;      OG302      CG2O2      CG301      NG3P3
   14    15    16    19	 9 ;      OG302      CG2O2      CG301      CG331
   14    15    16    18	 9 ;      OG302      CG2O2      CG301      CG321
   19    16    35    38	 9 ;      CG331      CG301      NG3P3       HGP2
   19    16    35    37	 9 ;      CG331      CG301      NG3P3       HGP2
   19    16    35    36	 9 ;      CG331      CG301      NG3P3       HGP2
   18    16    35    38	 9 ;      CG321      CG301      NG3P3       HGP2
   18    16    35    37	 9 ;      CG321      CG301      NG3P3       HGP2
   18    16    35    36	 9 ;      CG321      CG301      NG3P3       HGP2
   15    16    35    38	 9 ;      CG2O2      CG301      NG3P3       HGP2
   15    16    35    37	 9 ;      CG2O2      CG301      NG3P3       HGP2
   15    16    35    36	 9 ;      CG2O2      CG301      NG3P3       HGP2
   35    16    19    57	 9 ;      NG3P3      CG301      CG331       HGA3
   35    16    19    58	 9 ;      NG3P3      CG301      CG331       HGA3
   35    16    19    59	 9 ;      NG3P3      CG301      CG331       HGA3
   18    16    19    57	 9 ;      CG321      CG301      CG331       HGA3
   18    16    19    58	 9 ;      CG321      CG301      CG331       HGA3
   18    16    19    59	 9 ;      CG321      CG301      CG331       HGA3
   15    16    19    57	 9 ;      CG2O2      CG301      CG331       HGA3
   15    16    19    58	 9 ;      CG2O2      CG301      CG331       HGA3
   15    16    19    59	 9 ;      CG2O2      CG301      CG331       HGA3
   35    16    18    20	 9 ;      NG3P3      CG301      CG321     CG2R61
   35    16    18    55	 9 ;      NG3P3      CG301      CG321       HGA2
   35    16    18    56	 9 ;      NG3P3      CG301      CG321       HGA2
   19    16    18    20	 9 ;      CG331      CG301      CG321     CG2R61
   19    16    18    55	 9 ;      CG331      CG301      CG321       HGA2
   19    16    18    56	 9 ;      CG331      CG301      CG321       HGA2
   15    16    18    20	 9 ;      CG2O2      CG301      CG321     CG2R61
   15    16    18    55	 9 ;      CG2O2      CG301      CG321       HGA2
   15    16    18    56	 9 ;      CG2O2      CG301      CG321       HGA2
   16    18    20    22	 9 ;      CG301      CG321     CG2R61     CG2R61
   16    18    20    21	 9 ;      CG301      CG321     CG2R61     CG2R61
   55    18    20    22	 9 ;       HGA2      CG321     CG2R61     CG2R61
   55    18    20    21	 9 ;       HGA2      CG321     CG2R61     CG2R61
   56    18    20    22	 9 ;       HGA2      CG321     CG2R61     CG2R61
   56    18    20    21	 9 ;       HGA2      CG321     CG2R61     CG2R61
   18    20    22    34	 9 ;      CG321     CG2R61     CG2R61     CG2R61
   18    20    22    61	 9 ;      CG321     CG2R61     CG2R61      HGR61
   21    20    22    34	 9 ;     CG2R61     CG2R61     CG2R61     CG2R61
   21    20    22    61	 9 ;     CG2R61     CG2R61     CG2R61      HGR61
   18    20    21    23	 9 ;      CG321     CG2R61     CG2R61     CG2R61
   18    20    21    60	 9 ;      CG321     CG2R61     CG2R61      HGR61
   22    20    21    23	 9 ;     CG2R61     CG2R61     CG2R61     CG2R61
   22    20    21    60	 9 ;     CG2R61     CG2R61     CG2R61      HGR61
   20    21    23    25	 9 ;     CG2R61     CG2R61     CG2R61     CG2R61
   20    21    23    24	 9 ;     CG2R61     CG2R61     CG2R61      CG321
   60    21    23    25	 9 ;      HGR61     CG2R61     CG2R61     CG2R61
   60    21    23    24	 9 ;      HGR61     CG2R61     CG2R61      CG321
   20    22    34    25	 9 ;     CG2R61     CG2R61     CG2R61     CG2R61
   20    22    34    71	 9 ;     CG2R61     CG2R61     CG2R61      HGR61
   61    22    34    25	 9 ;      HGR61     CG2R61     CG2R61     CG2R61
   61    22    34    71	 9 ;      HGR61     CG2R61     CG2R61      HGR61
   21    23    25    34	 9 ;     CG2R61     CG2R61     CG2R61     CG2R61
   21    23    25    64	 9 ;     CG2R61     CG2R61     CG2R61      HGR61
   24    23    25    34	 9 ;      CG321     CG2R61     CG2R61     CG2R61
   24    23    25    64	 9 ;      CG321     CG2R61     CG2R61      HGR61
   21    23    24    26	 9 ;     CG2R61     CG2R61      CG321      CG321
   21    23    24    62	 9 ;     CG2R61     CG2R61      CG321       HGA2
   21    23    24    63	 9 ;     CG2R61     CG2R61      CG321       HGA2
   25    23    24    26	 9 ;     CG2R61     CG2R61      CG321      CG321
   25    23    24    62	 9 ;     CG2R61     CG2R61      CG321       HGA2
   25    23    24    63	 9 ;     CG2R61     CG2R61      CG321       HGA2
   23    24    26    27	 9 ;     CG2R61      CG321      CG321      CG311
   23    24    26    65	 9 ;     CG2R61      CG321      CG321       HGA2
   23    24    26    66	 9 ;     CG2R61      CG321      CG321       HGA2
   62    24    26    27	 9 ;       HGA2      CG321      CG321      CG311
   62    24    26    65	 9 ;       HGA2      CG321      CG321       HGA2
   62    24    26    66	 9 ;       HGA2      CG321      CG321       HGA2
   63    24    26    27	 9 ;       HGA2      CG321      CG321      CG311
   63    24    26    65	 9 ;       HGA2      CG321      CG321       HGA2
   63    24    26    66	 9 ;       HGA2      CG321      CG321       HGA2
   23    25    34    22	 9 ;     CG2R61     CG2R61     CG2R61     CG2R61
   23    25    34    71	 9 ;     CG2R61     CG2R61     CG2R61      HGR61
   64    25    34    22	 9 ;      HGR61     CG2R61     CG2R61     CG2R61
   64    25    34    71	 9 ;      HGR61     CG2R61     CG2R61      HGR61
   24    26    27    39	 9 ;      CG321      CG321      CG311     CG2R61
   24    26    27    28	 9 ;      CG321      CG321      CG311      NG2S1
   24    26    27    67	 9 ;      CG321      CG321      CG311       HGA1
   65    26    27    39	 9 ;       HGA2      CG321      CG311     CG2R61
   65    26    27    28	 9 ;       HGA2      CG321      CG311      NG2S1
   65    26    27    67	 9 ;       HGA2      CG321      CG311       HGA1
   66    26    27    39	 9 ;       HGA2      CG321      CG311     CG2R61
   66    26    27    28	 9 ;       HGA2      CG321      CG311      NG2S1
   66    26    27    67	 9 ;       HGA2      CG321      CG311       HGA1
   26    27    39    40	 9 ;      CG321      CG311     CG2R61     CG2R61
   26    27    39    44	 9 ;      CG321      CG311     CG2R61     CG2R61
   28    27    39    40	 9 ;      NG2S1      CG311     CG2R61     CG2R61
   28    27    39    44	 9 ;      NG2S1      CG311     CG2R61     CG2R61
   67    27    39    40	 9 ;       HGA1      CG311     CG2R61     CG2R61
   67    27    39    44	 9 ;       HGA1      CG311     CG2R61     CG2R61
   26    27    28    30	 9 ;      CG321      CG311      NG2S1       HGP1
   26    27    28    29	 9 ;      CG321      CG311      NG2S1      CG2O1
   39    27    28    30	 9 ;     CG2R61      CG311      NG2S1       HGP1
   39    27    28    29	 9 ;     CG2R61      CG311      NG2S1      CG2O1
   67    27    28    30	 9 ;       HGA1      CG311      NG2S1       HGP1
   67    27    28    29	 9 ;       HGA1      CG311      NG2S1      CG2O1
   27    28    29    31	 9 ;      CG311      NG2S1      CG2O1      CG311
   27    28    29    32	 9 ;      CG311      NG2S1      CG2O1      OG2D1
   30    28    29    31	 9 ;       HGP1      NG2S1      CG2O1      CG311
   30    28    29    32	 9 ;       HGP1      NG2S1      CG2O1      OG2D1
   28    29    31    13	 9 ;      NG2S1      CG2O1      CG311      CG321
   28    29    31    33	 9 ;      NG2S1      CG2O1      CG311      CG321
   28    29    31    68	 9 ;      NG2S1      CG2O1      CG311       HGA1
   32    29    31    13	 9 ;      OG2D1      CG2O1      CG311      CG321
   32    29    31    33	 9 ;      OG2D1      CG2O1      CG311      CG321
   32    29    31    68	 9 ;      OG2D1      CG2O1      CG311       HGA1
   13    31    33     9	 9 ;      CG321      CG311      CG321     CG2DC1
   13    31    33    69	 9 ;      CG321      CG311      CG321       HGA2
   13    31    33    70	 9 ;      CG321      CG311      CG321       HGA2
   29    31    33     9	 9 ;      CG2O1      CG311      CG321     CG2DC1
   29    31    33    69	 9 ;      CG2O1      CG311      CG321       HGA2
   29    31    33    70	 9 ;      CG2O1      CG311      CG321       HGA2
   68    31    33     9	 9 ;       HGA1      CG311      CG321     CG2DC1
   68    31    33    69	 9 ;       HGA1      CG311      CG321       HGA2
   68    31    33    70	 9 ;       HGA1      CG311      CG321       HGA2
   27    39    40    41	 9 ;      CG311     CG2R61     CG2R61     CG2R61
   27    39    40    72	 9 ;      CG311     CG2R61     CG2R61      HGR61
   44    39    40    41	 9 ;     CG2R61     CG2R61     CG2R61     CG2R61
   44    39    40    72	 9 ;     CG2R61     CG2R61     CG2R61      HGR61
   27    39    44    43	 9 ;      CG311     CG2R61     CG2R61     CG2R61
   27    39    44    76	 9 ;      CG311     CG2R61     CG2R61      HGR61
   40    39    44    43	 9 ;     CG2R61     CG2R61     CG2R61     CG2R61
   40    39    44    76	 9 ;     CG2R61     CG2R61     CG2R61      HGR61
   39    40    41    42	 9 ;     CG2R61     CG2R61     CG2R61     CG2R61
   39    40    41    73	 9 ;     CG2R61     CG2R61     CG2R61      HGR61
   72    40    41    42	 9 ;      HGR61     CG2R61     CG2R61     CG2R61
   72    40    41    73	 9 ;      HGR61     CG2R61     CG2R61      HGR61
   40    41    42    43	 9 ;     CG2R61     CG2R61     CG2R61     CG2R61
   40    41    42    74	 9 ;     CG2R61     CG2R61     CG2R61      HGR61
   73    41    42    43	 9 ;      HGR61     CG2R61     CG2R61     CG2R61
   73    41    42    74	 9 ;      HGR61     CG2R61     CG2R61      HGR61
   41    42    43    44	 9 ;     CG2R61     CG2R61     CG2R61     CG2R61
   41    42    43    75	 9 ;     CG2R61     CG2R61     CG2R61      HGR61
   74    42    43    44	 9 ;      HGR61     CG2R61     CG2R61     CG2R61
   74    42    43    75	 9 ;      HGR61     CG2R61     CG2R61      HGR61
   42    43    44    39	 9 ;     CG2R61     CG2R61     CG2R61     CG2R61
   42    43    44    76	 9 ;     CG2R61     CG2R61     CG2R61      HGR61
   75    43    44    39	 9 ;      HGR61     CG2R61     CG2R61     CG2R61
   75    43    44    76	 9 ;      HGR61     CG2R61     CG2R61      HGR61

[ dihedrals ]
;	ai	  aj	ak	  al funct			  c0			c1			  c2			c3
   15    16    17    14	 2
   29    31    28    32	 2

