Giant Rising Ordinary Mutants for A Clerical Setup
   76
    1LIG     C1    1  -1.222   0.130  -1.658
    1LIG     C2    2  -1.237  -0.013  -1.659
    1LIG     C3    3  -1.138  -0.106  -1.623
    1LIG     C4    4  -1.013  -0.062  -1.585
    1LIG     C5    5  -0.992   0.075  -1.579
    1LIG     C6    6  -1.095   0.168  -1.613
    1LIG     C7    7  -1.064   0.306  -1.593
    1LIG     N1    8  -1.042   0.416  -1.572
    1LIG     C8    9  -1.340   0.225  -1.700
    1LIG     C9   10  -1.413   0.249  -1.829
    1LIG    C10   11  -1.521   0.348  -1.847
    1LIG    C11   12  -1.589   0.433  -1.978
    1LIG    C12   13  -1.583   0.375  -1.725
    1LIG     O1   14  -1.528   0.557  -2.072
    1LIG    C13   15  -1.590   0.669  -2.137
    1LIG    C14   16  -1.508   0.764  -2.266
    1LIG     O2   17  -1.710   0.691  -2.119
    1LIG    C15   18  -1.354   0.791  -2.272
    1LIG    C16   19  -1.562   0.911  -2.288
    1LIG    C17   20  -1.280   0.683  -2.205
    1LIG    C18   21  -1.232   0.718  -2.080
    1LIG    C19   22  -1.299   0.550  -2.245
    1LIG    C20   23  -1.239   0.627  -1.978
    1LIG    C21   24  -1.226   0.679  -1.837
    1LIG    C22   25  -1.265   0.493  -2.013
    1LIG    C23   26  -1.342   0.772  -1.782
    1LIG    C24   27  -1.471   0.699  -1.740
    1LIG     N2   28  -1.422   0.587  -1.661
    1LIG    C25   29  -1.492   0.520  -1.563
    1LIG     H1   30  -1.379   0.522  -1.727
    1LIG    C26   31  -1.503   0.379  -1.610
    1LIG     O3   32  -1.536   0.555  -1.455
    1LIG    C27   33  -1.382   0.309  -1.599
    1LIG    C28   34  -1.292   0.454  -2.146
    1LIG     N3   35  -1.543   0.701  -2.405
    1LIG     H2   36  -1.562   0.600  -2.397
    1LIG     H3   37  -1.629   0.742  -2.446
    1LIG     H4   38  -1.467   0.713  -2.472
    1LIG    C29   39  -1.584   0.767  -1.664
    1LIG    C30   40  -1.717   0.749  -1.704
    1LIG    C31   41  -1.815   0.843  -1.670
    1LIG    C32   42  -1.783   0.955  -1.594
    1LIG    C33   43  -1.653   0.971  -1.546
    1LIG    C34   44  -1.555   0.876  -1.579
    1LIG     H5   45  -1.329  -0.050  -1.689
    1LIG     H6   46  -1.158  -0.207  -1.626
    1LIG     H7   47  -0.937  -0.129  -1.562
    1LIG     H8   48  -0.900   0.110  -1.548
    1LIG     H9   49  -1.385   0.192  -1.911
    1LIG    H10   50  -1.471   0.340  -1.941
    1LIG    H11   51  -1.613   0.356  -2.049
    1LIG    H12   52  -1.658   0.492  -1.922
    1LIG    H13   53  -1.658   0.300  -1.710
    1LIG    H14   54  -1.620   0.475  -1.736
    1LIG    H15   55  -1.332   0.884  -2.223
    1LIG    H16   56  -1.323   0.796  -2.375
    1LIG    H17   57  -1.506   0.958  -2.366
    1LIG    H18   58  -1.551   0.967  -2.197
    1LIG    H19   59  -1.665   0.907  -2.315
    1LIG    H20   60  -1.191   0.812  -2.064
    1LIG    H21   61  -1.318   0.525  -2.343
    1LIG    H22   62  -1.135   0.736  -1.833
    1LIG    H23   63  -1.229   0.592  -1.776
    1LIG    H24   64  -1.264   0.421  -1.939
    1LIG    H25   65  -1.368   0.842  -1.858
    1LIG    H26   66  -1.304   0.817  -1.693
    1LIG    H27   67  -1.524   0.680  -1.831
    1LIG    H28   68  -1.559   0.314  -1.546
    1LIG    H29   69  -1.306   0.383  -1.586
    1LIG    H30   70  -1.401   0.243  -1.517
    1LIG    H31   71  -1.306   0.354  -2.169
    1LIG    H32   72  -1.743   0.666  -1.760
    1LIG    H33   73  -1.912   0.829  -1.702
    1LIG    H34   74  -1.855   1.025  -1.572
    1LIG    H35   75  -1.629   1.052  -1.486
    1LIG    H36   76  -1.460   0.886  -1.540
   0.00000   0.00000   0.00000
