Gnomes, ROck Monsters And Chili Sauce
   45
    1LIG     C1    1   2.031   3.852  -1.663
    1LIG     O5    2   1.893   3.783  -1.892
    1LIG     C3    3   1.987   3.566  -1.897
    1LIG     C4    4   2.072   3.472  -1.834
    1LIG     C5    5   1.908   3.529  -2.007
    1LIG     C6    6   2.071   3.341  -1.883
    1LIG     C7    7   1.912   3.399  -2.056
    1LIG     C8    8   1.993   3.304  -1.993
    1LIG     C9    9   2.068   3.745  -1.735
    1LIG    C10   10   2.192   3.662  -1.723
    1LIG    C11   11   1.975   3.705  -1.846
    1LIG    C12   12   2.157   3.514  -1.717
    1LIG     N1   13   2.025   3.923  -1.436
    1LIG     O4   14   2.224   3.933  -1.549
    1LIG     C2   15   2.105   3.907  -1.547
    1LIG     H2   16   1.924   3.923  -1.450
    1LIG    C13   17   2.074   3.994  -1.317
    1LIG    C15   18   2.019   3.929  -1.188
    1LIG    C16   19   2.008   4.033  -1.076
    1LIG    C17   20   1.882   3.865  -1.211
    1LIG     O2   21   1.914   4.171  -1.369
    1LIG    C14   22   2.026   4.139  -1.331
    1LIG     O3   23   2.124   4.226  -1.293
    1LIG    C18   24   2.254   4.190  -1.338
    1LIG     O1   25   2.145   3.240  -1.827
    1LIG     H1   26   2.204   3.202  -1.894
    1LIG     H3   27   1.943   3.900  -1.690
    1LIG     H4   28   1.846   3.599  -2.051
    1LIG     H5   29   1.855   3.372  -2.137
    1LIG     H6   30   1.997   3.207  -2.029
    1LIG     H7   31   2.244   3.689  -1.634
    1LIG     H8   32   2.254   3.679  -1.809
    1LIG     H9   33   2.247   3.456  -1.718
    1LIG    H10   34   2.101   3.496  -1.628
    1LIG    H11   35   2.181   3.989  -1.311
    1LIG    H12   36   2.089   3.853  -1.160
    1LIG    H13   37   1.938   4.109  -1.104
    1LIG    H14   38   2.104   4.077  -1.058
    1LIG    H15   39   1.974   3.985  -0.986
    1LIG    H16   40   1.811   3.940  -1.239
    1LIG    H17   41   1.850   3.818  -1.120
    1LIG    H18   42   1.889   3.792  -1.288
    1LIG    H19   43   2.325   4.263  -1.304
    1LIG    H20   44   2.256   4.187  -1.445
    1LIG    H21   45   2.281   4.094  -1.299
   0.00000   0.00000   0.00000
