Gallium Rubidium Oxygen Manganese Argon Carbon Silicon
   48
    1LIG     C2    1   2.171   3.989  -1.588
    1LIG     O5    2   2.400   4.131  -1.635
    1LIG     C4    3   2.533   3.939  -1.669
    1LIG     C5    4   2.533   3.803  -1.703
    1LIG     C6    5   2.652   4.012  -1.671
    1LIG     C7    6   2.655   3.742  -1.739
    1LIG     C8    7   2.773   3.951  -1.706
    1LIG     C9    8   2.773   3.816  -1.739
    1LIG    C10    9   2.287   3.923  -1.606
    1LIG    C11   10   2.307   3.774  -1.600
    1LIG    C12   11   2.406   4.008  -1.635
    1LIG    C13   12   2.405   3.725  -1.707
    1LIG     N1   13   2.013   3.904  -1.425
    1LIG     O4   14   1.967   3.882  -1.645
    1LIG     C3   15   2.043   3.922  -1.557
    1LIG     H1   16   1.920   3.867  -1.413
    1LIG    C14   17   2.069   3.976  -1.309
    1LIG    C16   18   2.012   3.918  -1.177
    1LIG    C17   19   2.004   4.026  -1.069
    1LIG    C18   20   1.872   3.858  -1.197
    1LIG     O1   21   1.908   4.152  -1.353
    1LIG    C15   22   2.025   4.123  -1.327
    1LIG     O2   23   2.117   4.220  -1.308
    1LIG    C19   24   2.258   4.196  -1.313
    1LIG     C1   25   2.883   4.136  -1.604
    1LIG     O3   26   2.882   4.034  -1.703
    1LIG     H2   27   2.171   4.091  -1.597
    1LIG     H3   28   2.651   4.113  -1.647
    1LIG     H4   29   2.656   3.642  -1.765
    1LIG     H5   30   2.862   3.770  -1.765
    1LIG     H6   31   2.346   3.748  -1.504
    1LIG     H7   32   2.213   3.727  -1.617
    1LIG     H8   33   2.426   3.622  -1.691
    1LIG     H9   34   2.360   3.740  -1.803
    1LIG    H10   35   2.175   3.967  -1.304
    1LIG    H11   36   2.079   3.841  -1.147
    1LIG    H12   37   1.937   4.104  -1.100
    1LIG    H13   38   2.102   4.068  -1.053
    1LIG    H14   39   1.969   3.983  -0.978
    1LIG    H15   40   1.804   3.935  -1.228
    1LIG    H16   41   1.839   3.815  -1.105
    1LIG    H17   42   1.877   3.782  -1.272
    1LIG    H18   43   2.311   4.287  -1.295
    1LIG    H19   44   2.284   4.158  -1.410
    1LIG    H20   45   2.284   4.124  -1.239
    1LIG    H21   46   2.973   4.193  -1.613
    1LIG    H22   47   2.879   4.091  -1.507
    1LIG    H23   48   2.799   4.200  -1.617
   0.00000   0.00000   0.00000
