S  C  A  M  O  R  G
   82
    1LIG     N1    1  -1.451   0.503  -1.745
    1LIG     C1    2  -1.498   0.372  -1.747
    1LIG     O1    3  -1.481   0.299  -1.844
    1LIG     H1    4  -1.444   0.550  -1.656
    1LIG     C2    5  -1.378   0.571  -1.858
    1LIG     C3    6  -1.454   0.704  -1.895
    1LIG     C4    7  -1.565   0.756  -1.798
    1LIG     C5    8  -1.525   0.885  -1.726
    1LIG     C6    9  -1.698   0.782  -1.871
    1LIG     C7   10  -1.229   0.596  -1.821
    1LIG     C8   11  -1.182   0.548  -1.683
    1LIG     C9   12  -1.075   0.437  -1.682
    1LIG    C10   13  -0.967   0.455  -1.575
    1LIG    C11   14  -1.143   0.301  -1.662
    1LIG     O2   15  -1.170   0.257  -1.552
    1LIG     N2   16  -1.173   0.235  -1.779
    1LIG     H2   17  -1.126   0.268  -1.864
    1LIG    C12   18  -1.217   0.098  -1.772
    1LIG    C13   19  -1.103  -0.003  -1.767
    1LIG    C14   20  -1.096  -0.082  -1.636
    1LIG    C15   21  -0.952  -0.086  -1.588
    1LIG     O3   22  -1.203   0.738  -1.831
    1LIG     H3   23  -1.217   0.776  -1.742
    1LIG    C16   24  -1.566   0.317  -1.615
    1LIG    C17   25  -1.511   0.182  -1.569
    1LIG     N3   26  -1.558   0.413  -1.502
    1LIG    C18   27  -1.672   0.464  -1.442
    1LIG     O4   28  -1.781   0.455  -1.497
    1LIG     H4   29  -1.469   0.419  -1.453
    1LIG    C19   30  -1.653   0.544  -1.308
    1LIG    C20   31  -1.541   0.477  -1.223
    1LIG    C21   32  -1.581   0.418  -1.085
    1LIG    C22   33  -1.620   0.525  -0.983
    1LIG    C23   34  -1.701   0.322  -1.102
    1LIG     N4   35  -1.619   0.685  -1.334
    1LIG    C24   36  -1.698   0.790  -1.369
    1LIG     O5   37  -1.643   0.895  -1.402
    1LIG    C25   38  -1.847   0.776  -1.370
    1LIG     H5   39  -1.521   0.707  -1.340
    1LIG     H6   40  -1.378   0.507  -1.944
    1LIG     H7   41  -1.501   0.688  -1.990
    1LIG     H8   42  -1.379   0.779  -1.891
    1LIG     H9   43  -1.577   0.678  -1.726
    1LIG    H10   44  -1.512   0.963  -1.797
    1LIG    H11   45  -1.433   0.869  -1.673
    1LIG    H12   46  -1.601   0.911  -1.656
    1LIG    H13   47  -1.684   0.860  -1.943
    1LIG    H14   48  -1.772   0.811  -1.800
    1LIG    H15   49  -1.729   0.693  -1.921
    1LIG    H16   50  -1.173   0.538  -1.891
    1LIG    H17   51  -1.268   0.511  -1.630
    1LIG    H18   52  -1.135   0.633  -1.637
    1LIG    H19   53  -1.026   0.443  -1.777
    1LIG    H20   54  -1.013   0.449  -1.478
    1LIG    H21   55  -0.920   0.550  -1.587
    1LIG    H22   56  -0.895   0.377  -1.584
    1LIG    H23   57  -1.276   0.076  -1.858
    1LIG    H24   58  -1.271   0.087  -1.681
    1LIG    H25   59  -1.011   0.050  -1.779
    1LIG    H26   60  -1.120  -0.074  -1.845
    1LIG    H27   61  -1.131  -0.182  -1.653
    1LIG    H28   62  -1.157  -0.034  -1.562
    1LIG    H29   63  -0.891  -0.134  -1.661
    1LIG    H30   64  -0.947  -0.142  -1.496
    1LIG    H31   65  -0.917   0.013  -1.571
    1LIG    H32   66  -1.669   0.304  -1.644
    1LIG    H33   67  -1.409   0.193  -1.541
    1LIG    H34   68  -1.518   0.111  -1.649
    1LIG    H35   69  -1.568   0.147  -1.485
    1LIG    H36   70  -1.746   0.542  -1.253
    1LIG    H37   71  -1.466   0.552  -1.205
    1LIG    H38   72  -1.509   0.393  -1.280
    1LIG    H39   73  -1.495   0.366  -1.048
    1LIG    H40   74  -1.706   0.579  -1.018
    1LIG    H41   75  -1.538   0.594  -0.971
    1LIG    H42   76  -1.642   0.479  -0.889
    1LIG    H43   77  -1.785   0.377  -1.139
    1LIG    H44   78  -1.725   0.279  -1.007
    1LIG    H45   79  -1.675   0.245  -1.171
    1LIG    H46   80  -1.891   0.869  -1.400
    1LIG    H47   81  -1.881   0.750  -1.273
    1LIG    H48   82  -1.875   0.699  -1.440
   0.00000   0.00000   0.00000
