; Created by cgenff_charmm2gmx.py

[ moleculetype ]
; Name			   nrexcl
LIG				 3

[ atoms ]
;	 nr		  type	resnr residue  atom   cgnr	   charge		mass  typeB    chargeB		massB
; residue	 1 LIG rtp LIG q	qsum
     1     CG3C31      1    LIG     C1      1     -0.027     12.011   ;
     2     CG3C31      1    LIG     C2      2     -0.180     12.011   ;
     3     CG3C31      1    LIG     C3      3     -0.058     12.011   ;
     4      CG301      1    LIG     C4      4      0.511     12.011   ;
     5      NG3P2      1    LIG     N1      5     -0.591     14.007   ;
     6      CG314      1    LIG     C5      6      0.982     12.011   ;
     7       HGP2      1    LIG    HN3      7      0.345      1.008   ;
     8      NG2S0      1    LIG     N2      8     -0.207     14.007   ;
     9      CG2O1      1    LIG     C6      9      0.530     12.011   ;
    10      CG331      1    LIG     C7     10     -0.218     12.011   ;
    11      OG2D1      1    LIG      O     11     -0.542     15.999   ;
    12      CG321      1    LIG     C8     12     -0.311     12.011   ;
    13      CG331      1    LIG     C9     13     -0.293     12.011   ;
    14      NG3P3      1    LIG     N3     14     -0.360     14.007   ;
    15       HGP2      1    LIG     H1     15      0.313      1.008   ;
    16       HGP2      1    LIG     H2     16      0.313      1.008   ;
    17     CG2R61      1    LIG    C10     17     -0.038     12.011   ;
    18     CG2R61      1    LIG    C11     18     -0.114     12.011   ;
    19     CG2R61      1    LIG    C12     19     -0.150     12.011   ;
    20     CG2R61      1    LIG    C13     20     -0.117     12.011   ;
    21     CG2R61      1    LIG    C14     21     -0.113     12.011   ;
    22     CG2R61      1    LIG    C15     22     -0.113     12.011   ;
    23     CG2DC1      1    LIG    C16     23      0.175     12.011   ;
    24     CG2DC2      1    LIG    C17     24     -0.254     12.011   ;
    25     CG2DC2      1    LIG    C18     25     -0.181     12.011   ;
    26      CG321      1    LIG    C19     26     -0.038     12.011   ;
    27      NG311      1    LIG     N4     27     -0.536     14.007   ;
    28     CG2D1O      1    LIG    C20     28     -0.044     12.011   ;
    29     HGPAM1      1    LIG    HN4     29      0.389      1.008   ;
    30       HGA1      1    LIG     HC     30      0.090      1.008   ;
    31       HGA2      1    LIG    HC2     31      0.090      1.008   ;
    32       HGA2      1    LIG    HC3     32      0.090      1.008   ;
    33       HGA1      1    LIG    HC1     33      0.090      1.008   ;
    34       HGP2      1    LIG    HN2     34      0.345      1.008   ;
    35       HGA1      1    LIG    HC4     35      0.090      1.008   ;
    36       HGA3      1    LIG    HC5     36      0.090      1.008   ;
    37       HGA3      1    LIG    HC6     37      0.090      1.008   ;
    38       HGA3      1    LIG    HC7     38      0.090      1.008   ;
    39       HGA2      1    LIG    HC8     39      0.090      1.008   ;
    40       HGA2      1    LIG    HC9     40      0.090      1.008   ;
    41       HGA3      1    LIG   HC10     41      0.090      1.008   ;
    42       HGA3      1    LIG   HC11     42      0.090      1.008   ;
    43       HGA3      1    LIG   HC12     43      0.090      1.008   ;
    44       HGP2      1    LIG    HN1     44      0.313      1.008   ;
    45      HGR61      1    LIG   HC13     45      0.116      1.008   ;
    46      HGR61      1    LIG   HC14     46      0.116      1.008   ;
    47      HGR61      1    LIG   HC15     47      0.116      1.008   ;
    48      HGR61      1    LIG   HC16     48      0.116      1.008   ;
    49       HGA4      1    LIG   HC17     49      0.153      1.008   ;
    50       HGA4      1    LIG   HC18     50      0.150      1.008   ;
    51       HGA2      1    LIG   HC19     51      0.090      1.008   ;
    52       HGA4      1    LIG   HC20     52      0.152      1.008   ;
    53       HGA2      1    LIG    H28     53      0.090      1.008   ;

[ bonds ]
;	ai	  aj funct			  c0			c1			  c2			c3
    1     3	 1 ;      CG3C31     CG3C31
    1     2	 1 ;      CG3C31     CG3C31
    1     4	 1 ;      CG3C31      CG301
    1    30	 1 ;      CG3C31       HGA1
    2     3	 1 ;      CG3C31     CG3C31
    2    31	 1 ;      CG3C31       HGA2
    2    32	 1 ;      CG3C31       HGA2
    3    17	 1 ;      CG3C31     CG2R61
    3    33	 1 ;      CG3C31       HGA1
    4    13	 1 ;       CG301      CG331
    4     5	 1 ;       CG301      NG3P2
    4    12	 1 ;       CG301      CG321
    5     7	 1 ;       NG3P2       HGP2
    5     6	 1 ;       NG3P2      CG314
    5    34	 1 ;       NG3P2       HGP2
    6    14	 1 ;       CG314      NG3P3
    6     8	 1 ;       CG314      NG2S0
    6    35	 1 ;       CG314       HGA1
    8     9	 1 ;       NG2S0      CG2O1
    8    10	 1 ;       NG2S0      CG331
    9    12	 1 ;       CG2O1      CG321
    9    11	 1 ;       CG2O1      OG2D1
   10    36	 1 ;       CG331       HGA3
   10    37	 1 ;       CG331       HGA3
   10    38	 1 ;       CG331       HGA3
   12    39	 1 ;       CG321       HGA2
   12    40	 1 ;       CG321       HGA2
   13    41	 1 ;       CG331       HGA3
   13    42	 1 ;       CG331       HGA3
   13    43	 1 ;       CG331       HGA3
   14    16	 1 ;       NG3P3       HGP2
   14    15	 1 ;       NG3P3       HGP2
   14    44	 1 ;       NG3P3       HGP2
   17    22	 1 ;      CG2R61     CG2R61
   17    18	 1 ;      CG2R61     CG2R61
   18    19	 1 ;      CG2R61     CG2R61
   18    45	 1 ;      CG2R61      HGR61
   19    20	 1 ;      CG2R61     CG2R61
   19    23	 1 ;      CG2R61     CG2DC1
   20    21	 1 ;      CG2R61     CG2R61
   20    46	 1 ;      CG2R61      HGR61
   21    22	 1 ;      CG2R61     CG2R61
   21    47	 1 ;      CG2R61      HGR61
   22    48	 1 ;      CG2R61      HGR61
   23    28	 1 ;      CG2DC1     CG2D1O
   23    24	 1 ;      CG2DC1     CG2DC2
   24    25	 1 ;      CG2DC2     CG2DC2
   24    49	 1 ;      CG2DC2       HGA4
   25    26	 1 ;      CG2DC2      CG321
   25    50	 1 ;      CG2DC2       HGA4
   26    27	 1 ;       CG321      NG311
   26    51	 1 ;       CG321       HGA2
   26    53	 1 ;       CG321       HGA2
   27    29	 1 ;       NG311     HGPAM1
   27    28	 1 ;       NG311     CG2D1O
   28    52	 1 ;      CG2D1O       HGA4

[ pairs ]
;	ai	  aj funct			  c0			c1			  c2			c3
    1    22	 1
    1    18	 1
    1    41	 1
    1    42	 1
    1    43	 1
    1     7	 1
    1     6	 1
    1    34	 1
    1     9	 1
    1    39	 1
    1    40	 1
    2    13	 1
    2     5	 1
    2    12	 1
    2    22	 1
    2    18	 1
    3    13	 1
    3     5	 1
    3    12	 1
    3    21	 1
    3    48	 1
    3    19	 1
    3    45	 1
    4    17	 1
    4    33	 1
    4    31	 1
    4    32	 1
    4    14	 1
    4     8	 1
    4    35	 1
    4    11	 1
    5    30	 1
    5    41	 1
    5    42	 1
    5    43	 1
    5     9	 1
    5    39	 1
    5    40	 1
    5    16	 1
    5    15	 1
    5    44	 1
    5    10	 1
    6    13	 1
    6    12	 1
    6    11	 1
    6    36	 1
    6    37	 1
    6    38	 1
    7    13	 1
    7    12	 1
    7    14	 1
    7     8	 1
    7    35	 1
    8    34	 1
    8    16	 1
    8    15	 1
    8    44	 1
    8    39	 1
    8    40	 1
    9    13	 1
    9    14	 1
    9    35	 1
    9    36	 1
    9    37	 1
    9    38	 1
   10    14	 1
   10    35	 1
   10    12	 1
   10    11	 1
   11    39	 1
   11    40	 1
   12    30	 1
   12    41	 1
   12    42	 1
   12    43	 1
   12    34	 1
   13    30	 1
   13    34	 1
   13    39	 1
   13    40	 1
   14    34	 1
   15    35	 1
   16    35	 1
   17    30	 1
   17    31	 1
   17    32	 1
   17    20	 1
   17    23	 1
   17    47	 1
   18    33	 1
   18    21	 1
   18    48	 1
   18    46	 1
   18    28	 1
   18    24	 1
   19    22	 1
   19    47	 1
   19    27	 1
   19    52	 1
   19    25	 1
   19    49	 1
   20    45	 1
   20    28	 1
   20    24	 1
   20    48	 1
   21    23	 1
   22    33	 1
   22    45	 1
   22    46	 1
   23    45	 1
   23    46	 1
   23    26	 1
   23    50	 1
   23    29	 1
   24    27	 1
   24    52	 1
   24    51	 1
   24    53	 1
   25    28	 1
   25    29	 1
   26    49	 1
   26    52	 1
   27    50	 1
   28    49	 1
   28    51	 1
   28    53	 1
   29    51	 1
   29    53	 1
   29    52	 1
   30    33	 1
   30    31	 1
   30    32	 1
   31    33	 1
   32    33	 1
   34    35	 1
   35    44	 1
   46    47	 1
   47    48	 1
   49    50	 1
   50    51	 1
   50    53	 1

[ angles ]
;	ai	  aj	ak funct			c0			  c1			c2			  c3
    3     1     2	5 ;     CG3C31     CG3C31     CG3C31
    3     1     4	5 ;     CG3C31     CG3C31      CG301
    3     1    30	5 ;     CG3C31     CG3C31       HGA1
    2     1     4	5 ;     CG3C31     CG3C31      CG301
    2     1    30	5 ;     CG3C31     CG3C31       HGA1
    4     1    30	5 ;      CG301     CG3C31       HGA1
    3     2     1	5 ;     CG3C31     CG3C31     CG3C31
    3     2    31	5 ;     CG3C31     CG3C31       HGA2
    3     2    32	5 ;     CG3C31     CG3C31       HGA2
    1     2    31	5 ;     CG3C31     CG3C31       HGA2
    1     2    32	5 ;     CG3C31     CG3C31       HGA2
   31     2    32	5 ;       HGA2     CG3C31       HGA2
   17     3     2	5 ;     CG2R61     CG3C31     CG3C31
   17     3     1	5 ;     CG2R61     CG3C31     CG3C31
   17     3    33	5 ;     CG2R61     CG3C31       HGA1
    2     3     1	5 ;     CG3C31     CG3C31     CG3C31
    2     3    33	5 ;     CG3C31     CG3C31       HGA1
    1     3    33	5 ;     CG3C31     CG3C31       HGA1
    1     4    13	5 ;     CG3C31      CG301      CG331
    1     4     5	5 ;     CG3C31      CG301      NG3P2
    1     4    12	5 ;     CG3C31      CG301      CG321
   13     4     5	5 ;      CG331      CG301      NG3P2
   13     4    12	5 ;      CG331      CG301      CG321
    5     4    12	5 ;      NG3P2      CG301      CG321
    7     5     4	5 ;       HGP2      NG3P2      CG301
    7     5     6	5 ;       HGP2      NG3P2      CG314
    7     5    34	5 ;       HGP2      NG3P2       HGP2
    4     5     6	5 ;      CG301      NG3P2      CG314
    4     5    34	5 ;      CG301      NG3P2       HGP2
    6     5    34	5 ;      CG314      NG3P2       HGP2
    5     6    14	5 ;      NG3P2      CG314      NG3P3
    5     6     8	5 ;      NG3P2      CG314      NG2S0
    5     6    35	5 ;      NG3P2      CG314       HGA1
   14     6     8	5 ;      NG3P3      CG314      NG2S0
   14     6    35	5 ;      NG3P3      CG314       HGA1
    8     6    35	5 ;      NG2S0      CG314       HGA1
    6     8     9	5 ;      CG314      NG2S0      CG2O1
    6     8    10	5 ;      CG314      NG2S0      CG331
    9     8    10	5 ;      CG2O1      NG2S0      CG331
   12     9     8	5 ;      CG321      CG2O1      NG2S0
   12     9    11	5 ;      CG321      CG2O1      OG2D1
    8     9    11	5 ;      NG2S0      CG2O1      OG2D1
    8    10    36	5 ;      NG2S0      CG331       HGA3
    8    10    37	5 ;      NG2S0      CG331       HGA3
    8    10    38	5 ;      NG2S0      CG331       HGA3
   36    10    37	5 ;       HGA3      CG331       HGA3
   36    10    38	5 ;       HGA3      CG331       HGA3
   37    10    38	5 ;       HGA3      CG331       HGA3
    4    12     9	5 ;      CG301      CG321      CG2O1
    4    12    39	5 ;      CG301      CG321       HGA2
    4    12    40	5 ;      CG301      CG321       HGA2
    9    12    39	5 ;      CG2O1      CG321       HGA2
    9    12    40	5 ;      CG2O1      CG321       HGA2
   39    12    40	5 ;       HGA2      CG321       HGA2
    4    13    41	5 ;      CG301      CG331       HGA3
    4    13    42	5 ;      CG301      CG331       HGA3
    4    13    43	5 ;      CG301      CG331       HGA3
   41    13    42	5 ;       HGA3      CG331       HGA3
   41    13    43	5 ;       HGA3      CG331       HGA3
   42    13    43	5 ;       HGA3      CG331       HGA3
   16    14    15	5 ;       HGP2      NG3P3       HGP2
   16    14     6	5 ;       HGP2      NG3P3      CG314
   16    14    44	5 ;       HGP2      NG3P3       HGP2
   15    14     6	5 ;       HGP2      NG3P3      CG314
   15    14    44	5 ;       HGP2      NG3P3       HGP2
    6    14    44	5 ;      CG314      NG3P3       HGP2
   22    17    18	5 ;     CG2R61     CG2R61     CG2R61
   22    17     3	5 ;     CG2R61     CG2R61     CG3C31
   18    17     3	5 ;     CG2R61     CG2R61     CG3C31
   19    18    17	5 ;     CG2R61     CG2R61     CG2R61
   19    18    45	5 ;     CG2R61     CG2R61      HGR61
   17    18    45	5 ;     CG2R61     CG2R61      HGR61
   20    19    23	5 ;     CG2R61     CG2R61     CG2DC1
   20    19    18	5 ;     CG2R61     CG2R61     CG2R61
   23    19    18	5 ;     CG2DC1     CG2R61     CG2R61
   21    20    19	5 ;     CG2R61     CG2R61     CG2R61
   21    20    46	5 ;     CG2R61     CG2R61      HGR61
   19    20    46	5 ;     CG2R61     CG2R61      HGR61
   20    21    22	5 ;     CG2R61     CG2R61     CG2R61
   20    21    47	5 ;     CG2R61     CG2R61      HGR61
   22    21    47	5 ;     CG2R61     CG2R61      HGR61
   21    22    17	5 ;     CG2R61     CG2R61     CG2R61
   21    22    48	5 ;     CG2R61     CG2R61      HGR61
   17    22    48	5 ;     CG2R61     CG2R61      HGR61
   28    23    19	5 ;     CG2D1O     CG2DC1     CG2R61
   28    23    24	5 ;     CG2D1O     CG2DC1     CG2DC2
   19    23    24	5 ;     CG2R61     CG2DC1     CG2DC2
   23    24    25	5 ;     CG2DC1     CG2DC2     CG2DC2
   23    24    49	5 ;     CG2DC1     CG2DC2       HGA4
   25    24    49	5 ;     CG2DC2     CG2DC2       HGA4
   26    25    24	5 ;      CG321     CG2DC2     CG2DC2
   26    25    50	5 ;      CG321     CG2DC2       HGA4
   24    25    50	5 ;     CG2DC2     CG2DC2       HGA4
   27    26    25	5 ;      NG311      CG321     CG2DC2
   27    26    51	5 ;      NG311      CG321       HGA2
   27    26    53	5 ;      NG311      CG321       HGA2
   25    26    51	5 ;     CG2DC2      CG321       HGA2
   25    26    53	5 ;     CG2DC2      CG321       HGA2
   51    26    53	5 ;       HGA2      CG321       HGA2
   29    27    28	5 ;     HGPAM1      NG311     CG2D1O
   29    27    26	5 ;     HGPAM1      NG311      CG321
   28    27    26	5 ;     CG2D1O      NG311      CG321
   27    28    23	5 ;      NG311     CG2D1O     CG2DC1
   27    28    52	5 ;      NG311     CG2D1O       HGA4
   23    28    52	5 ;     CG2DC1     CG2D1O       HGA4

[ dihedrals ]
;	ai	  aj	ak	  al funct			  c0			c1			  c2			c3			  c4			c5
    2     1     3    17	 9 ;     CG3C31     CG3C31     CG3C31     CG2R61
    2     1     3    33	 9 ;     CG3C31     CG3C31     CG3C31       HGA1
    4     1     3    17	 9 ;      CG301     CG3C31     CG3C31     CG2R61
    4     1     3     2	 9 ;      CG301     CG3C31     CG3C31     CG3C31
    4     1     3    33	 9 ;      CG301     CG3C31     CG3C31       HGA1
   30     1     3    17	 9 ;       HGA1     CG3C31     CG3C31     CG2R61
   30     1     3     2	 9 ;       HGA1     CG3C31     CG3C31     CG3C31
   30     1     3    33	 9 ;       HGA1     CG3C31     CG3C31       HGA1
    3     1     2    31	 9 ;     CG3C31     CG3C31     CG3C31       HGA2
    3     1     2    32	 9 ;     CG3C31     CG3C31     CG3C31       HGA2
    4     1     2     3	 9 ;      CG301     CG3C31     CG3C31     CG3C31
    4     1     2    31	 9 ;      CG301     CG3C31     CG3C31       HGA2
    4     1     2    32	 9 ;      CG301     CG3C31     CG3C31       HGA2
   30     1     2     3	 9 ;       HGA1     CG3C31     CG3C31     CG3C31
   30     1     2    31	 9 ;       HGA1     CG3C31     CG3C31       HGA2
   30     1     2    32	 9 ;       HGA1     CG3C31     CG3C31       HGA2
    3     1     4    13	 9 ;     CG3C31     CG3C31      CG301      CG331
    3     1     4     5	 9 ;     CG3C31     CG3C31      CG301      NG3P2
    3     1     4    12	 9 ;     CG3C31     CG3C31      CG301      CG321
    2     1     4    13	 9 ;     CG3C31     CG3C31      CG301      CG331
    2     1     4     5	 9 ;     CG3C31     CG3C31      CG301      NG3P2
    2     1     4    12	 9 ;     CG3C31     CG3C31      CG301      CG321
   30     1     4    13	 9 ;       HGA1     CG3C31      CG301      CG331
   30     1     4     5	 9 ;       HGA1     CG3C31      CG301      NG3P2
   30     1     4    12	 9 ;       HGA1     CG3C31      CG301      CG321
    1     2     3    17	 9 ;     CG3C31     CG3C31     CG3C31     CG2R61
    1     2     3    33	 9 ;     CG3C31     CG3C31     CG3C31       HGA1
   31     2     3    17	 9 ;       HGA2     CG3C31     CG3C31     CG2R61
   31     2     3     1	 9 ;       HGA2     CG3C31     CG3C31     CG3C31
   31     2     3    33	 9 ;       HGA2     CG3C31     CG3C31       HGA1
   32     2     3    17	 9 ;       HGA2     CG3C31     CG3C31     CG2R61
   32     2     3     1	 9 ;       HGA2     CG3C31     CG3C31     CG3C31
   32     2     3    33	 9 ;       HGA2     CG3C31     CG3C31       HGA1
    2     3    17    22	 9 ;     CG3C31     CG3C31     CG2R61     CG2R61
    2     3    17    18	 9 ;     CG3C31     CG3C31     CG2R61     CG2R61
    1     3    17    22	 9 ;     CG3C31     CG3C31     CG2R61     CG2R61
    1     3    17    18	 9 ;     CG3C31     CG3C31     CG2R61     CG2R61
   33     3    17    22	 9 ;       HGA1     CG3C31     CG2R61     CG2R61
   33     3    17    18	 9 ;       HGA1     CG3C31     CG2R61     CG2R61
    1     4    13    41	 9 ;     CG3C31      CG301      CG331       HGA3
    1     4    13    42	 9 ;     CG3C31      CG301      CG331       HGA3
    1     4    13    43	 9 ;     CG3C31      CG301      CG331       HGA3
    5     4    13    41	 9 ;      NG3P2      CG301      CG331       HGA3
    5     4    13    42	 9 ;      NG3P2      CG301      CG331       HGA3
    5     4    13    43	 9 ;      NG3P2      CG301      CG331       HGA3
   12     4    13    41	 9 ;      CG321      CG301      CG331       HGA3
   12     4    13    42	 9 ;      CG321      CG301      CG331       HGA3
   12     4    13    43	 9 ;      CG321      CG301      CG331       HGA3
    1     4     5     7	 9 ;     CG3C31      CG301      NG3P2       HGP2
    1     4     5     6	 9 ;     CG3C31      CG301      NG3P2      CG314
    1     4     5    34	 9 ;     CG3C31      CG301      NG3P2       HGP2
   13     4     5     7	 9 ;      CG331      CG301      NG3P2       HGP2
   13     4     5     6	 9 ;      CG331      CG301      NG3P2      CG314
   13     4     5    34	 9 ;      CG331      CG301      NG3P2       HGP2
   12     4     5     7	 9 ;      CG321      CG301      NG3P2       HGP2
   12     4     5     6	 9 ;      CG321      CG301      NG3P2      CG314
   12     4     5    34	 9 ;      CG321      CG301      NG3P2       HGP2
    1     4    12     9	 9 ;     CG3C31      CG301      CG321      CG2O1
    1     4    12    39	 9 ;     CG3C31      CG301      CG321       HGA2
    1     4    12    40	 9 ;     CG3C31      CG301      CG321       HGA2
   13     4    12     9	 9 ;      CG331      CG301      CG321      CG2O1
   13     4    12    39	 9 ;      CG331      CG301      CG321       HGA2
   13     4    12    40	 9 ;      CG331      CG301      CG321       HGA2
    5     4    12     9	 9 ;      NG3P2      CG301      CG321      CG2O1
    5     4    12    39	 9 ;      NG3P2      CG301      CG321       HGA2
    5     4    12    40	 9 ;      NG3P2      CG301      CG321       HGA2
    7     5     6    14	 9 ;       HGP2      NG3P2      CG314      NG3P3
    7     5     6     8	 9 ;       HGP2      NG3P2      CG314      NG2S0
    7     5     6    35	 9 ;       HGP2      NG3P2      CG314       HGA1
    4     5     6    14	 9 ;      CG301      NG3P2      CG314      NG3P3
    4     5     6     8	 9 ;      CG301      NG3P2      CG314      NG2S0
    4     5     6    35	 9 ;      CG301      NG3P2      CG314       HGA1
   34     5     6    14	 9 ;       HGP2      NG3P2      CG314      NG3P3
   34     5     6     8	 9 ;       HGP2      NG3P2      CG314      NG2S0
   34     5     6    35	 9 ;       HGP2      NG3P2      CG314       HGA1
    5     6    14    16	 9 ;      NG3P2      CG314      NG3P3       HGP2
    5     6    14    15	 9 ;      NG3P2      CG314      NG3P3       HGP2
    5     6    14    44	 9 ;      NG3P2      CG314      NG3P3       HGP2
    8     6    14    16	 9 ;      NG2S0      CG314      NG3P3       HGP2
    8     6    14    15	 9 ;      NG2S0      CG314      NG3P3       HGP2
    8     6    14    44	 9 ;      NG2S0      CG314      NG3P3       HGP2
   35     6    14    16	 9 ;       HGA1      CG314      NG3P3       HGP2
   35     6    14    15	 9 ;       HGA1      CG314      NG3P3       HGP2
   35     6    14    44	 9 ;       HGA1      CG314      NG3P3       HGP2
    5     6     8     9	 9 ;      NG3P2      CG314      NG2S0      CG2O1
    5     6     8    10	 9 ;      NG3P2      CG314      NG2S0      CG331
   14     6     8     9	 9 ;      NG3P3      CG314      NG2S0      CG2O1
   14     6     8    10	 9 ;      NG3P3      CG314      NG2S0      CG331
   35     6     8     9	 9 ;       HGA1      CG314      NG2S0      CG2O1
   35     6     8    10	 9 ;       HGA1      CG314      NG2S0      CG331
    6     8     9    12	 9 ;      CG314      NG2S0      CG2O1      CG321
    6     8     9    11	 9 ;      CG314      NG2S0      CG2O1      OG2D1
   10     8     9    12	 9 ;      CG331      NG2S0      CG2O1      CG321
   10     8     9    11	 9 ;      CG331      NG2S0      CG2O1      OG2D1
    6     8    10    36	 9 ;      CG314      NG2S0      CG331       HGA3
    6     8    10    37	 9 ;      CG314      NG2S0      CG331       HGA3
    6     8    10    38	 9 ;      CG314      NG2S0      CG331       HGA3
    9     8    10    36	 9 ;      CG2O1      NG2S0      CG331       HGA3
    9     8    10    37	 9 ;      CG2O1      NG2S0      CG331       HGA3
    9     8    10    38	 9 ;      CG2O1      NG2S0      CG331       HGA3
    8     9    12     4	 9 ;      NG2S0      CG2O1      CG321      CG301
    8     9    12    39	 9 ;      NG2S0      CG2O1      CG321       HGA2
    8     9    12    40	 9 ;      NG2S0      CG2O1      CG321       HGA2
   11     9    12     4	 9 ;      OG2D1      CG2O1      CG321      CG301
   11     9    12    39	 9 ;      OG2D1      CG2O1      CG321       HGA2
   11     9    12    40	 9 ;      OG2D1      CG2O1      CG321       HGA2
   18    17    22    21	 9 ;     CG2R61     CG2R61     CG2R61     CG2R61
   18    17    22    48	 9 ;     CG2R61     CG2R61     CG2R61      HGR61
    3    17    22    21	 9 ;     CG3C31     CG2R61     CG2R61     CG2R61
    3    17    22    48	 9 ;     CG3C31     CG2R61     CG2R61      HGR61
   22    17    18    19	 9 ;     CG2R61     CG2R61     CG2R61     CG2R61
   22    17    18    45	 9 ;     CG2R61     CG2R61     CG2R61      HGR61
    3    17    18    19	 9 ;     CG3C31     CG2R61     CG2R61     CG2R61
    3    17    18    45	 9 ;     CG3C31     CG2R61     CG2R61      HGR61
   17    18    19    20	 9 ;     CG2R61     CG2R61     CG2R61     CG2R61
   17    18    19    23	 9 ;     CG2R61     CG2R61     CG2R61     CG2DC1
   45    18    19    20	 9 ;      HGR61     CG2R61     CG2R61     CG2R61
   45    18    19    23	 9 ;      HGR61     CG2R61     CG2R61     CG2DC1
   23    19    20    21	 9 ;     CG2DC1     CG2R61     CG2R61     CG2R61
   23    19    20    46	 9 ;     CG2DC1     CG2R61     CG2R61      HGR61
   18    19    20    21	 9 ;     CG2R61     CG2R61     CG2R61     CG2R61
   18    19    20    46	 9 ;     CG2R61     CG2R61     CG2R61      HGR61
   20    19    23    28	 9 ;     CG2R61     CG2R61     CG2DC1     CG2D1O
   20    19    23    24	 9 ;     CG2R61     CG2R61     CG2DC1     CG2DC2
   18    19    23    28	 9 ;     CG2R61     CG2R61     CG2DC1     CG2D1O
   18    19    23    24	 9 ;     CG2R61     CG2R61     CG2DC1     CG2DC2
   19    20    21    22	 9 ;     CG2R61     CG2R61     CG2R61     CG2R61
   19    20    21    47	 9 ;     CG2R61     CG2R61     CG2R61      HGR61
   46    20    21    22	 9 ;      HGR61     CG2R61     CG2R61     CG2R61
   46    20    21    47	 9 ;      HGR61     CG2R61     CG2R61      HGR61
   20    21    22    17	 9 ;     CG2R61     CG2R61     CG2R61     CG2R61
   20    21    22    48	 9 ;     CG2R61     CG2R61     CG2R61      HGR61
   47    21    22    17	 9 ;      HGR61     CG2R61     CG2R61     CG2R61
   47    21    22    48	 9 ;      HGR61     CG2R61     CG2R61      HGR61
   19    23    28    27	 9 ;     CG2R61     CG2DC1     CG2D1O      NG311
   19    23    28    52	 9 ;     CG2R61     CG2DC1     CG2D1O       HGA4
   24    23    28    27	 9 ;     CG2DC2     CG2DC1     CG2D1O      NG311
   24    23    28    52	 9 ;     CG2DC2     CG2DC1     CG2D1O       HGA4
   28    23    24    25	 9 ;     CG2D1O     CG2DC1     CG2DC2     CG2DC2
   28    23    24    49	 9 ;     CG2D1O     CG2DC1     CG2DC2       HGA4
   19    23    24    25	 9 ;     CG2R61     CG2DC1     CG2DC2     CG2DC2
   19    23    24    49	 9 ;     CG2R61     CG2DC1     CG2DC2       HGA4
   23    24    25    26	 9 ;     CG2DC1     CG2DC2     CG2DC2      CG321
   23    24    25    50	 9 ;     CG2DC1     CG2DC2     CG2DC2       HGA4
   49    24    25    26	 9 ;       HGA4     CG2DC2     CG2DC2      CG321
   49    24    25    50	 9 ;       HGA4     CG2DC2     CG2DC2       HGA4
   24    25    26    27	 9 ;     CG2DC2     CG2DC2      CG321      NG311
   24    25    26    51	 9 ;     CG2DC2     CG2DC2      CG321       HGA2
   24    25    26    53	 9 ;     CG2DC2     CG2DC2      CG321       HGA2
   50    25    26    27	 9 ;       HGA4     CG2DC2      CG321      NG311
   50    25    26    51	 9 ;       HGA4     CG2DC2      CG321       HGA2
   50    25    26    53	 9 ;       HGA4     CG2DC2      CG321       HGA2
   25    26    27    29	 9 ;     CG2DC2      CG321      NG311     HGPAM1
   25    26    27    28	 9 ;     CG2DC2      CG321      NG311     CG2D1O
   51    26    27    29	 9 ;       HGA2      CG321      NG311     HGPAM1
   51    26    27    28	 9 ;       HGA2      CG321      NG311     CG2D1O
   53    26    27    29	 9 ;       HGA2      CG321      NG311     HGPAM1
   53    26    27    28	 9 ;       HGA2      CG321      NG311     CG2D1O
   29    27    28    23	 9 ;     HGPAM1      NG311     CG2D1O     CG2DC1
   29    27    28    52	 9 ;     HGPAM1      NG311     CG2D1O       HGA4
   26    27    28    23	 9 ;      CG321      NG311     CG2D1O     CG2DC1
   26    27    28    52	 9 ;      CG321      NG311     CG2D1O       HGA4

[ dihedrals ]
;	ai	  aj	ak	  al funct			  c0			c1			  c2			c3
    9    12     8    11	 2
   28    23    27    52	 2

