GROningen MAchine for Chemical Simulation
   53
    1LIG     C1    1  -1.705   0.350  -1.549
    1LIG     C2    2  -1.658   0.269  -1.667
    1LIG     C3    3  -1.587   0.398  -1.635
    1LIG     C4    4  -1.837   0.426  -1.543
    1LIG     N1    5  -1.904   0.399  -1.670
    1LIG     C5    6  -2.011   0.331  -1.679
    1LIG    HN3    7  -1.863   0.438  -1.755
    1LIG     N2    8  -2.073   0.270  -1.573
    1LIG     C6    9  -2.026   0.282  -1.444
    1LIG     C7   10  -2.191   0.188  -1.593
    1LIG      O   11  -2.073   0.222  -1.348
    1LIG     C8   12  -1.915   0.381  -1.420
    1LIG     C9   13  -1.822   0.578  -1.537
    1LIG     N3   14  -2.063   0.319  -1.805
    1LIG     H1   15  -2.053   0.231  -1.854
    1LIG     H2   16  -2.044   0.400  -1.862
    1LIG    C10   17  -1.450   0.399  -1.572
    1LIG    C11   18  -1.388   0.279  -1.532
    1LIG    C12   19  -1.259   0.273  -1.477
    1LIG    C13   20  -1.192   0.395  -1.459
    1LIG    C14   21  -1.252   0.517  -1.494
    1LIG    C15   22  -1.380   0.518  -1.549
    1LIG    C16   23  -1.196   0.144  -1.443
    1LIG    C17   24  -1.229   0.075  -1.325
    1LIG    C18   25  -1.168  -0.047  -1.294
    1LIG    C19   26  -1.076  -0.098  -1.383
    1LIG     N4   27  -1.041  -0.037  -1.498
    1LIG    C20   28  -1.102   0.082  -1.525
    1LIG    HN4   29  -0.973  -0.078  -1.563
    1LIG     HC   30  -1.674   0.308  -1.453
    1LIG    HC2   31  -1.720   0.262  -1.757
    1LIG    HC3   32  -1.603   0.178  -1.643
    1LIG    HC1   33  -1.609   0.482  -1.701
    1LIG    HN2   34  -1.849   0.315  -1.682
    1LIG    HC4   35  -2.070   0.421  -1.663
    1LIG    HC5   36  -2.225   0.149  -1.497
    1LIG    HC6   37  -2.167   0.105  -1.659
    1LIG    HC7   38  -2.270   0.248  -1.638
    1LIG    HC8   39  -1.845   0.335  -1.350
    1LIG    HC9   40  -1.958   0.469  -1.373
    1LIG   HC10   41  -1.766   0.613  -1.624
    1LIG   HC11   42  -1.921   0.625  -1.536
    1LIG   HC12   43  -1.768   0.606  -1.446
    1LIG    HN1   44  -2.163   0.325  -1.789
    1LIG   HC13   45  -1.443   0.187  -1.544
    1LIG   HC14   46  -1.092   0.396  -1.418
    1LIG   HC15   47  -1.199   0.609  -1.477
    1LIG   HC16   48  -1.425   0.613  -1.576
    1LIG   HC17   49  -1.301   0.116  -1.257
    1LIG   HC18   50  -1.192  -0.100  -1.203
    1LIG   HC19   51  -1.028  -0.193  -1.360
    1LIG   HC20   52  -1.074   0.132  -1.616
    1LIG    H28   53  -0.996  -0.046  -1.331
   0.00000   0.00000   0.00000
