GROningen MAchine for Chemical Simulation
   53
    1LIG     C1    1  -1.394   0.536  -1.344
    1LIG     C2    2  -1.505   0.568  -1.423
    1LIG     C3    3  -1.509   0.556  -1.565
    1LIG     C4    4  -1.387   0.537  -1.631
    1LIG     C5    5  -1.371   0.568  -1.778
    1LIG     C6    6  -1.503   0.592  -1.858
    1LIG     C7    7  -1.610   0.662  -1.764
    1LIG     C8    8  -1.641   0.572  -1.642
    1LIG     N1    9  -1.705   0.452  -1.707
    1LIG    HN3   10  -1.669   0.399  -1.787
    1LIG     C9   11  -1.813   0.429  -1.642
    1LIG     N2   12  -1.816   0.482  -1.517
    1LIG    C10   13  -1.747   0.382  -1.433
    1LIG    C11   14  -1.754   0.604  -1.543
    1LIG      O   15  -1.789   0.713  -1.501
    1LIG    C12   16  -1.546   0.456  -1.917
    1LIG    C13   17  -1.475   0.682  -1.980
    1LIG    C14   18  -1.273   0.508  -1.554
    1LIG    C15   19  -1.278   0.503  -1.414
    1LIG     N3   20  -1.915   0.350  -1.682
    1LIG     H1   21  -1.930   0.353  -1.783
    1LIG     H2   22  -1.903   0.254  -1.650
    1LIG    C16   23  -1.404   0.534  -1.195
    1LIG    C17   24  -1.427   0.415  -1.122
    1LIG    C18   25  -1.430   0.416  -0.982
    1LIG    C19   26  -1.411   0.536  -0.917
    1LIG     N4   27  -1.388   0.652  -0.980
    1LIG    C20   28  -1.385   0.648  -1.116
    1LIG    HN4   29  -1.374   0.739  -0.929
    1LIG      F   30  -1.356   0.765  -1.176
    1LIG     HC   31  -1.594   0.604  -1.373
    1LIG    HC2   32  -1.310   0.657  -1.787
    1LIG    HC3   33  -1.318   0.485  -1.825
    1LIG    HC4   34  -1.571   0.757  -1.729
    1LIG    HC5   35  -1.702   0.679  -1.820
    1LIG    HN2   36  -1.755   0.512  -1.770
    1LIG    HC1   37  -1.861   0.517  -1.684
    1LIG    HC6   38  -1.813   0.297  -1.416
    1LIG    HC7   39  -1.722   0.428  -1.337
    1LIG    HC8   40  -1.656   0.350  -1.482
    1LIG    HC9   41  -1.494   0.438  -2.011
    1LIG   HC10   42  -1.522   0.376  -1.847
    1LIG   HC11   43  -1.654   0.457  -1.936
    1LIG   HC12   44  -1.444   0.781  -1.945
    1LIG   HC13   45  -1.396   0.638  -2.040
    1LIG   HC14   46  -1.566   0.692  -2.039
    1LIG   HC15   47  -1.180   0.489  -1.604
    1LIG   HC16   48  -1.190   0.474  -1.359
    1LIG    HN1   49  -1.999   0.385  -1.638
    1LIG   HC17   50  -1.442   0.323  -1.175
    1LIG   HC18   51  -1.446   0.325  -0.927
    1LIG   HC19   52  -1.414   0.536  -0.809
    1LIG    H27   53  -1.518   0.555  -0.920
   0.00000   0.00000   0.00000
