; Created by cgenff_charmm2gmx.py

[ moleculetype ]
; Name			   nrexcl
LIG				 3

[ atoms ]
;	 nr		  type	resnr residue  atom   cgnr	   charge		mass  typeB    chargeB		massB
; residue	 1 LIG rtp LIG q	qsum
     1     CG2R61      1    LIG     C1      1     -0.137     12.011   ;
     2     CG2R61      1    LIG     C2      2     -0.128     12.011   ;
     3     CG2R61      1    LIG     C3      3     -0.231     12.011   ;
     4     CG2R61      1    LIG     C4      4      0.052     12.011   ;
     5      CG321      1    LIG     C5      5     -0.291     12.011   ;
     6      CG301      1    LIG     C6      6      0.074     12.011   ;
     7      CG321      1    LIG     C7      7     -0.253     12.011   ;
     8     CG3C50      1    LIG     C8      8      1.538     12.011   ;
     9      NG3P2      1    LIG     N1      9     -0.588     14.007   ;
    10       HGP2      1    LIG    HN3     10      0.336      1.008   ;
    11     CG3C53      1    LIG     C9     11      0.785     12.011   ;
    12     NG2R53      1    LIG     N2     12     -0.178     14.007   ;
    13      CG331      1    LIG    C10     13     -0.169     12.011   ;
    14     CG2R53      1    LIG    C11     14     -0.420     12.011   ;
    15      OG2D1      1    LIG      O     15     -0.325     15.999   ;
    16      CG331      1    LIG    C12     16     -0.275     12.011   ;
    17      CG331      1    LIG    C13     17     -0.275     12.011   ;
    18     CG2R61      1    LIG    C14     18     -0.109     12.011   ;
    19     CG2R61      1    LIG    C15     19     -0.113     12.011   ;
    20      NG3P3      1    LIG     N3     20     -0.267     14.007   ;
    21       HGP2      1    LIG     H1     21      0.301      1.008   ;
    22       HGP2      1    LIG     H2     22      0.301      1.008   ;
    23     CG2DC1      1    LIG    C16     23      0.053     12.011   ;
    24     CG2DC2      1    LIG    C17     24     -0.246     12.011   ;
    25     CG2DC2      1    LIG    C18     25     -0.181     12.011   ;
    26      CG321      1    LIG    C19     26     -0.037     12.011   ;
    27      NG311      1    LIG     N4     27     -0.466     14.007   ;
    28     CG2D1O      1    LIG    C20     28      0.321     12.011   ;
    29     HGPAM1      1    LIG    HN4     29      0.324      1.008   ;
    30       FGA1      1    LIG      F     30     -0.107     18.998   ;
    31      HGR61      1    LIG     HC     31      0.116      1.008   ;
    32       HGA2      1    LIG    HC2     32      0.090      1.008   ;
    33       HGA2      1    LIG    HC3     33      0.090      1.008   ;
    34       HGA2      1    LIG    HC4     34      0.090      1.008   ;
    35       HGA2      1    LIG    HC5     35      0.090      1.008   ;
    36       HGP2      1    LIG    HN2     36      0.336      1.008   ;
    37       HGA1      1    LIG    HC1     37      0.073      1.008   ;
    38       HGA3      1    LIG    HC6     38      0.090      1.008   ;
    39       HGA3      1    LIG    HC7     39      0.090      1.008   ;
    40       HGA3      1    LIG    HC8     40      0.090      1.008   ;
    41       HGA3      1    LIG    HC9     41      0.090      1.008   ;
    42       HGA3      1    LIG   HC10     42      0.090      1.008   ;
    43       HGA3      1    LIG   HC11     43      0.090      1.008   ;
    44       HGA3      1    LIG   HC12     44      0.090      1.008   ;
    45       HGA3      1    LIG   HC13     45      0.090      1.008   ;
    46       HGA3      1    LIG   HC14     46      0.090      1.008   ;
    47      HGR61      1    LIG   HC15     47      0.116      1.008   ;
    48      HGR61      1    LIG   HC16     48      0.116      1.008   ;
    49       HGP2      1    LIG    HN1     49      0.301      1.008   ;
    50       HGA4      1    LIG   HC17     50      0.153      1.008   ;
    51       HGA4      1    LIG   HC18     51      0.150      1.008   ;
    52       HGA2      1    LIG   HC19     52      0.090      1.008   ;
    53       HGA2      1    LIG    H27     53      0.090      1.008   ;

[ bonds ]
;	ai	  aj funct			  c0			c1			  c2			c3
    1    19	 1 ;      CG2R61     CG2R61
    1    23	 1 ;      CG2R61     CG2DC1
    1     2	 1 ;      CG2R61     CG2R61
    2     3	 1 ;      CG2R61     CG2R61
    2    31	 1 ;      CG2R61      HGR61
    3     4	 1 ;      CG2R61     CG2R61
    3     8	 1 ;      CG2R61     CG3C50
    4    18	 1 ;      CG2R61     CG2R61
    4     5	 1 ;      CG2R61      CG321
    5     6	 1 ;       CG321      CG301
    5    32	 1 ;       CG321       HGA2
    5    33	 1 ;       CG321       HGA2
    6    16	 1 ;       CG301      CG331
    6    17	 1 ;       CG301      CG331
    6     7	 1 ;       CG301      CG321
    7     8	 1 ;       CG321     CG3C50
    7    34	 1 ;       CG321       HGA2
    7    35	 1 ;       CG321       HGA2
    8     9	 1 ;      CG3C50      NG3P2
    8    14	 1 ;      CG3C50     CG2R53
    9    10	 1 ;       NG3P2       HGP2
    9    11	 1 ;       NG3P2     CG3C53
    9    36	 1 ;       NG3P2       HGP2
   11    20	 1 ;      CG3C53      NG3P3
   11    12	 1 ;      CG3C53     NG2R53
   11    37	 1 ;      CG3C53       HGA1
   12    13	 1 ;      NG2R53      CG331
   12    14	 1 ;      NG2R53     CG2R53
   13    38	 1 ;       CG331       HGA3
   13    39	 1 ;       CG331       HGA3
   13    40	 1 ;       CG331       HGA3
   14    15	 1 ;      CG2R53      OG2D1
   16    41	 1 ;       CG331       HGA3
   16    42	 1 ;       CG331       HGA3
   16    43	 1 ;       CG331       HGA3
   17    44	 1 ;       CG331       HGA3
   17    45	 1 ;       CG331       HGA3
   17    46	 1 ;       CG331       HGA3
   18    19	 1 ;      CG2R61     CG2R61
   18    47	 1 ;      CG2R61      HGR61
   19    48	 1 ;      CG2R61      HGR61
   20    22	 1 ;       NG3P3       HGP2
   20    21	 1 ;       NG3P3       HGP2
   20    49	 1 ;       NG3P3       HGP2
   23    24	 1 ;      CG2DC1     CG2DC2
   23    28	 1 ;      CG2DC1     CG2D1O
   24    25	 1 ;      CG2DC2     CG2DC2
   24    50	 1 ;      CG2DC2       HGA4
   25    26	 1 ;      CG2DC2      CG321
   25    51	 1 ;      CG2DC2       HGA4
   26    27	 1 ;       CG321      NG311
   26    52	 1 ;       CG321       HGA2
   26    53	 1 ;       CG321       HGA2
   27    28	 1 ;       NG311     CG2D1O
   27    29	 1 ;       NG311     HGPAM1
   28    30	 1 ;      CG2D1O       FGA1

[ pairs ]
;	ai	  aj funct			  c0			c1			  c2			c3
    1     4	 1
    1     8	 1
    1    47	 1
    1    25	 1
    1    50	 1
    1    27	 1
    1    30	 1
    2    18	 1
    2    48	 1
    2    24	 1
    2    28	 1
    2     5	 1
    2     9	 1
    2     7	 1
    2    14	 1
    3    19	 1
    3    23	 1
    3    47	 1
    3     6	 1
    3    32	 1
    3    33	 1
    3    34	 1
    3    35	 1
    3    10	 1
    3    11	 1
    3    36	 1
    3    12	 1
    3    15	 1
    4    31	 1
    4     9	 1
    4     7	 1
    4    14	 1
    4    16	 1
    4    17	 1
    4    48	 1
    5     8	 1
    5    19	 1
    5    47	 1
    5    41	 1
    5    42	 1
    5    43	 1
    5    44	 1
    5    45	 1
    5    46	 1
    5    34	 1
    5    35	 1
    6    18	 1
    6     9	 1
    6    14	 1
    7    32	 1
    7    33	 1
    7    41	 1
    7    42	 1
    7    43	 1
    7    44	 1
    7    45	 1
    7    46	 1
    7    10	 1
    7    11	 1
    7    36	 1
    7    12	 1
    7    15	 1
    8    31	 1
    8    18	 1
    8    16	 1
    8    17	 1
    8    20	 1
    8    37	 1
    8    13	 1
    9    34	 1
    9    35	 1
    9    15	 1
    9    22	 1
    9    21	 1
    9    49	 1
    9    13	 1
   10    14	 1
   10    20	 1
   10    12	 1
   10    37	 1
   11    38	 1
   11    39	 1
   11    40	 1
   11    15	 1
   12    36	 1
   12    22	 1
   12    21	 1
   12    49	 1
   13    20	 1
   13    37	 1
   13    15	 1
   14    34	 1
   14    35	 1
   14    36	 1
   14    20	 1
   14    37	 1
   14    38	 1
   14    39	 1
   14    40	 1
   16    32	 1
   16    33	 1
   16    44	 1
   16    45	 1
   16    46	 1
   16    34	 1
   16    35	 1
   17    32	 1
   17    33	 1
   17    41	 1
   17    42	 1
   17    43	 1
   17    34	 1
   17    35	 1
   18    23	 1
   18    32	 1
   18    33	 1
   19    24	 1
   19    28	 1
   19    31	 1
   20    36	 1
   21    37	 1
   22    37	 1
   23    48	 1
   23    31	 1
   23    26	 1
   23    51	 1
   23    29	 1
   24    27	 1
   24    30	 1
   24    52	 1
   24    53	 1
   25    28	 1
   25    29	 1
   26    50	 1
   26    30	 1
   27    51	 1
   28    50	 1
   28    52	 1
   28    53	 1
   29    52	 1
   29    53	 1
   29    30	 1
   36    37	 1
   37    49	 1
   47    48	 1
   50    51	 1
   51    52	 1
   51    53	 1

[ angles ]
;	ai	  aj	ak funct			c0			  c1			c2			  c3
   19     1    23	5 ;     CG2R61     CG2R61     CG2DC1
   19     1     2	5 ;     CG2R61     CG2R61     CG2R61
   23     1     2	5 ;     CG2DC1     CG2R61     CG2R61
    1     2     3	5 ;     CG2R61     CG2R61     CG2R61
    1     2    31	5 ;     CG2R61     CG2R61      HGR61
    3     2    31	5 ;     CG2R61     CG2R61      HGR61
    4     3     2	5 ;     CG2R61     CG2R61     CG2R61
    4     3     8	5 ;     CG2R61     CG2R61     CG3C50
    2     3     8	5 ;     CG2R61     CG2R61     CG3C50
   18     4     5	5 ;     CG2R61     CG2R61      CG321
   18     4     3	5 ;     CG2R61     CG2R61     CG2R61
    5     4     3	5 ;      CG321     CG2R61     CG2R61
    4     5     6	5 ;     CG2R61      CG321      CG301
    4     5    32	5 ;     CG2R61      CG321       HGA2
    4     5    33	5 ;     CG2R61      CG321       HGA2
    6     5    32	5 ;      CG301      CG321       HGA2
    6     5    33	5 ;      CG301      CG321       HGA2
   32     5    33	5 ;       HGA2      CG321       HGA2
    5     6    16	5 ;      CG321      CG301      CG331
    5     6    17	5 ;      CG321      CG301      CG331
    5     6     7	5 ;      CG321      CG301      CG321
   16     6    17	5 ;      CG331      CG301      CG331
   16     6     7	5 ;      CG331      CG301      CG321
   17     6     7	5 ;      CG331      CG301      CG321
    6     7     8	5 ;      CG301      CG321     CG3C50
    6     7    34	5 ;      CG301      CG321       HGA2
    6     7    35	5 ;      CG301      CG321       HGA2
    8     7    34	5 ;     CG3C50      CG321       HGA2
    8     7    35	5 ;     CG3C50      CG321       HGA2
   34     7    35	5 ;       HGA2      CG321       HGA2
    3     8     9	5 ;     CG2R61     CG3C50      NG3P2
    3     8     7	5 ;     CG2R61     CG3C50      CG321
    3     8    14	5 ;     CG2R61     CG3C50     CG2R53
    9     8     7	5 ;      NG3P2     CG3C50      CG321
    9     8    14	5 ;      NG3P2     CG3C50     CG2R53
    7     8    14	5 ;      CG321     CG3C50     CG2R53
   10     9     8	5 ;       HGP2      NG3P2     CG3C50
   10     9    11	5 ;       HGP2      NG3P2     CG3C53
   10     9    36	5 ;       HGP2      NG3P2       HGP2
    8     9    11	5 ;     CG3C50      NG3P2     CG3C53
    8     9    36	5 ;     CG3C50      NG3P2       HGP2
   11     9    36	5 ;     CG3C53      NG3P2       HGP2
    9    11    20	5 ;      NG3P2     CG3C53      NG3P3
    9    11    12	5 ;      NG3P2     CG3C53     NG2R53
    9    11    37	5 ;      NG3P2     CG3C53       HGA1
   20    11    12	5 ;      NG3P3     CG3C53     NG2R53
   20    11    37	5 ;      NG3P3     CG3C53       HGA1
   12    11    37	5 ;     NG2R53     CG3C53       HGA1
   13    12    11	5 ;      CG331     NG2R53     CG3C53
   13    12    14	5 ;      CG331     NG2R53     CG2R53
   11    12    14	5 ;     CG3C53     NG2R53     CG2R53
   12    13    38	5 ;     NG2R53      CG331       HGA3
   12    13    39	5 ;     NG2R53      CG331       HGA3
   12    13    40	5 ;     NG2R53      CG331       HGA3
   38    13    39	5 ;       HGA3      CG331       HGA3
   38    13    40	5 ;       HGA3      CG331       HGA3
   39    13    40	5 ;       HGA3      CG331       HGA3
    8    14    12	5 ;     CG3C50     CG2R53     NG2R53
    8    14    15	5 ;     CG3C50     CG2R53      OG2D1
   12    14    15	5 ;     NG2R53     CG2R53      OG2D1
    6    16    41	5 ;      CG301      CG331       HGA3
    6    16    42	5 ;      CG301      CG331       HGA3
    6    16    43	5 ;      CG301      CG331       HGA3
   41    16    42	5 ;       HGA3      CG331       HGA3
   41    16    43	5 ;       HGA3      CG331       HGA3
   42    16    43	5 ;       HGA3      CG331       HGA3
    6    17    44	5 ;      CG301      CG331       HGA3
    6    17    45	5 ;      CG301      CG331       HGA3
    6    17    46	5 ;      CG301      CG331       HGA3
   44    17    45	5 ;       HGA3      CG331       HGA3
   44    17    46	5 ;       HGA3      CG331       HGA3
   45    17    46	5 ;       HGA3      CG331       HGA3
   19    18     4	5 ;     CG2R61     CG2R61     CG2R61
   19    18    47	5 ;     CG2R61     CG2R61      HGR61
    4    18    47	5 ;     CG2R61     CG2R61      HGR61
   18    19     1	5 ;     CG2R61     CG2R61     CG2R61
   18    19    48	5 ;     CG2R61     CG2R61      HGR61
    1    19    48	5 ;     CG2R61     CG2R61      HGR61
   22    20    11	5 ;       HGP2      NG3P3     CG3C53
   22    20    21	5 ;       HGP2      NG3P3       HGP2
   22    20    49	5 ;       HGP2      NG3P3       HGP2
   11    20    21	5 ;     CG3C53      NG3P3       HGP2
   11    20    49	5 ;     CG3C53      NG3P3       HGP2
   21    20    49	5 ;       HGP2      NG3P3       HGP2
   24    23     1	5 ;     CG2DC2     CG2DC1     CG2R61
   24    23    28	5 ;     CG2DC2     CG2DC1     CG2D1O
    1    23    28	5 ;     CG2R61     CG2DC1     CG2D1O
   25    24    23	5 ;     CG2DC2     CG2DC2     CG2DC1
   25    24    50	5 ;     CG2DC2     CG2DC2       HGA4
   23    24    50	5 ;     CG2DC1     CG2DC2       HGA4
   24    25    26	5 ;     CG2DC2     CG2DC2      CG321
   24    25    51	5 ;     CG2DC2     CG2DC2       HGA4
   26    25    51	5 ;      CG321     CG2DC2       HGA4
   25    26    27	5 ;     CG2DC2      CG321      NG311
   25    26    52	5 ;     CG2DC2      CG321       HGA2
   25    26    53	5 ;     CG2DC2      CG321       HGA2
   27    26    52	5 ;      NG311      CG321       HGA2
   27    26    53	5 ;      NG311      CG321       HGA2
   52    26    53	5 ;       HGA2      CG321       HGA2
   26    27    28	5 ;      CG321      NG311     CG2D1O
   26    27    29	5 ;      CG321      NG311     HGPAM1
   28    27    29	5 ;     CG2D1O      NG311     HGPAM1
   23    28    27	5 ;     CG2DC1     CG2D1O      NG311
   23    28    30	5 ;     CG2DC1     CG2D1O       FGA1
   27    28    30	5 ;      NG311     CG2D1O       FGA1

[ dihedrals ]
;	ai	  aj	ak	  al funct			  c0			c1			  c2			c3			  c4			c5
   23     1    19    18	 9 ;     CG2DC1     CG2R61     CG2R61     CG2R61
   23     1    19    48	 9 ;     CG2DC1     CG2R61     CG2R61      HGR61
    2     1    19    18	 9 ;     CG2R61     CG2R61     CG2R61     CG2R61
    2     1    19    48	 9 ;     CG2R61     CG2R61     CG2R61      HGR61
   19     1    23    24	 9 ;     CG2R61     CG2R61     CG2DC1     CG2DC2
   19     1    23    28	 9 ;     CG2R61     CG2R61     CG2DC1     CG2D1O
    2     1    23    24	 9 ;     CG2R61     CG2R61     CG2DC1     CG2DC2
    2     1    23    28	 9 ;     CG2R61     CG2R61     CG2DC1     CG2D1O
   19     1     2     3	 9 ;     CG2R61     CG2R61     CG2R61     CG2R61
   19     1     2    31	 9 ;     CG2R61     CG2R61     CG2R61      HGR61
   23     1     2     3	 9 ;     CG2DC1     CG2R61     CG2R61     CG2R61
   23     1     2    31	 9 ;     CG2DC1     CG2R61     CG2R61      HGR61
    1     2     3     4	 9 ;     CG2R61     CG2R61     CG2R61     CG2R61
    1     2     3     8	 9 ;     CG2R61     CG2R61     CG2R61     CG3C50
   31     2     3     4	 9 ;      HGR61     CG2R61     CG2R61     CG2R61
   31     2     3     8	 9 ;      HGR61     CG2R61     CG2R61     CG3C50
    2     3     4    18	 9 ;     CG2R61     CG2R61     CG2R61     CG2R61
    2     3     4     5	 9 ;     CG2R61     CG2R61     CG2R61      CG321
    8     3     4    18	 9 ;     CG3C50     CG2R61     CG2R61     CG2R61
    8     3     4     5	 9 ;     CG3C50     CG2R61     CG2R61      CG321
    4     3     8     9	 9 ;     CG2R61     CG2R61     CG3C50      NG3P2
    4     3     8     7	 9 ;     CG2R61     CG2R61     CG3C50      CG321
    4     3     8    14	 9 ;     CG2R61     CG2R61     CG3C50     CG2R53
    2     3     8     9	 9 ;     CG2R61     CG2R61     CG3C50      NG3P2
    2     3     8     7	 9 ;     CG2R61     CG2R61     CG3C50      CG321
    2     3     8    14	 9 ;     CG2R61     CG2R61     CG3C50     CG2R53
    5     4    18    19	 9 ;      CG321     CG2R61     CG2R61     CG2R61
    5     4    18    47	 9 ;      CG321     CG2R61     CG2R61      HGR61
    3     4    18    19	 9 ;     CG2R61     CG2R61     CG2R61     CG2R61
    3     4    18    47	 9 ;     CG2R61     CG2R61     CG2R61      HGR61
   18     4     5     6	 9 ;     CG2R61     CG2R61      CG321      CG301
   18     4     5    32	 9 ;     CG2R61     CG2R61      CG321       HGA2
   18     4     5    33	 9 ;     CG2R61     CG2R61      CG321       HGA2
    3     4     5     6	 9 ;     CG2R61     CG2R61      CG321      CG301
    3     4     5    32	 9 ;     CG2R61     CG2R61      CG321       HGA2
    3     4     5    33	 9 ;     CG2R61     CG2R61      CG321       HGA2
    4     5     6    16	 9 ;     CG2R61      CG321      CG301      CG331
    4     5     6    17	 9 ;     CG2R61      CG321      CG301      CG331
    4     5     6     7	 9 ;     CG2R61      CG321      CG301      CG321
   32     5     6    16	 9 ;       HGA2      CG321      CG301      CG331
   32     5     6    17	 9 ;       HGA2      CG321      CG301      CG331
   32     5     6     7	 9 ;       HGA2      CG321      CG301      CG321
   33     5     6    16	 9 ;       HGA2      CG321      CG301      CG331
   33     5     6    17	 9 ;       HGA2      CG321      CG301      CG331
   33     5     6     7	 9 ;       HGA2      CG321      CG301      CG321
    5     6    16    41	 9 ;      CG321      CG301      CG331       HGA3
    5     6    16    42	 9 ;      CG321      CG301      CG331       HGA3
    5     6    16    43	 9 ;      CG321      CG301      CG331       HGA3
   17     6    16    41	 9 ;      CG331      CG301      CG331       HGA3
   17     6    16    42	 9 ;      CG331      CG301      CG331       HGA3
   17     6    16    43	 9 ;      CG331      CG301      CG331       HGA3
    7     6    16    41	 9 ;      CG321      CG301      CG331       HGA3
    7     6    16    42	 9 ;      CG321      CG301      CG331       HGA3
    7     6    16    43	 9 ;      CG321      CG301      CG331       HGA3
    5     6    17    44	 9 ;      CG321      CG301      CG331       HGA3
    5     6    17    45	 9 ;      CG321      CG301      CG331       HGA3
    5     6    17    46	 9 ;      CG321      CG301      CG331       HGA3
   16     6    17    44	 9 ;      CG331      CG301      CG331       HGA3
   16     6    17    45	 9 ;      CG331      CG301      CG331       HGA3
   16     6    17    46	 9 ;      CG331      CG301      CG331       HGA3
    7     6    17    44	 9 ;      CG321      CG301      CG331       HGA3
    7     6    17    45	 9 ;      CG321      CG301      CG331       HGA3
    7     6    17    46	 9 ;      CG321      CG301      CG331       HGA3
    5     6     7     8	 9 ;      CG321      CG301      CG321     CG3C50
    5     6     7    34	 9 ;      CG321      CG301      CG321       HGA2
    5     6     7    35	 9 ;      CG321      CG301      CG321       HGA2
   16     6     7     8	 9 ;      CG331      CG301      CG321     CG3C50
   16     6     7    34	 9 ;      CG331      CG301      CG321       HGA2
   16     6     7    35	 9 ;      CG331      CG301      CG321       HGA2
   17     6     7     8	 9 ;      CG331      CG301      CG321     CG3C50
   17     6     7    34	 9 ;      CG331      CG301      CG321       HGA2
   17     6     7    35	 9 ;      CG331      CG301      CG321       HGA2
    6     7     8     3	 9 ;      CG301      CG321     CG3C50     CG2R61
    6     7     8     9	 9 ;      CG301      CG321     CG3C50      NG3P2
    6     7     8    14	 9 ;      CG301      CG321     CG3C50     CG2R53
   34     7     8     3	 9 ;       HGA2      CG321     CG3C50     CG2R61
   34     7     8     9	 9 ;       HGA2      CG321     CG3C50      NG3P2
   34     7     8    14	 9 ;       HGA2      CG321     CG3C50     CG2R53
   35     7     8     3	 9 ;       HGA2      CG321     CG3C50     CG2R61
   35     7     8     9	 9 ;       HGA2      CG321     CG3C50      NG3P2
   35     7     8    14	 9 ;       HGA2      CG321     CG3C50     CG2R53
    3     8     9    10	 9 ;     CG2R61     CG3C50      NG3P2       HGP2
    3     8     9    11	 9 ;     CG2R61     CG3C50      NG3P2     CG3C53
    3     8     9    36	 9 ;     CG2R61     CG3C50      NG3P2       HGP2
    7     8     9    10	 9 ;      CG321     CG3C50      NG3P2       HGP2
    7     8     9    11	 9 ;      CG321     CG3C50      NG3P2     CG3C53
    7     8     9    36	 9 ;      CG321     CG3C50      NG3P2       HGP2
   14     8     9    10	 9 ;     CG2R53     CG3C50      NG3P2       HGP2
   14     8     9    11	 9 ;     CG2R53     CG3C50      NG3P2     CG3C53
   14     8     9    36	 9 ;     CG2R53     CG3C50      NG3P2       HGP2
    3     8    14    12	 9 ;     CG2R61     CG3C50     CG2R53     NG2R53
    3     8    14    15	 9 ;     CG2R61     CG3C50     CG2R53      OG2D1
    9     8    14    12	 9 ;      NG3P2     CG3C50     CG2R53     NG2R53
    9     8    14    15	 9 ;      NG3P2     CG3C50     CG2R53      OG2D1
    7     8    14    12	 9 ;      CG321     CG3C50     CG2R53     NG2R53
    7     8    14    15	 9 ;      CG321     CG3C50     CG2R53      OG2D1
   10     9    11    20	 9 ;       HGP2      NG3P2     CG3C53      NG3P3
   10     9    11    12	 9 ;       HGP2      NG3P2     CG3C53     NG2R53
   10     9    11    37	 9 ;       HGP2      NG3P2     CG3C53       HGA1
    8     9    11    20	 9 ;     CG3C50      NG3P2     CG3C53      NG3P3
    8     9    11    12	 9 ;     CG3C50      NG3P2     CG3C53     NG2R53
    8     9    11    37	 9 ;     CG3C50      NG3P2     CG3C53       HGA1
   36     9    11    20	 9 ;       HGP2      NG3P2     CG3C53      NG3P3
   36     9    11    12	 9 ;       HGP2      NG3P2     CG3C53     NG2R53
   36     9    11    37	 9 ;       HGP2      NG3P2     CG3C53       HGA1
    9    11    20    22	 9 ;      NG3P2     CG3C53      NG3P3       HGP2
    9    11    20    21	 9 ;      NG3P2     CG3C53      NG3P3       HGP2
    9    11    20    49	 9 ;      NG3P2     CG3C53      NG3P3       HGP2
   12    11    20    22	 9 ;     NG2R53     CG3C53      NG3P3       HGP2
   12    11    20    21	 9 ;     NG2R53     CG3C53      NG3P3       HGP2
   12    11    20    49	 9 ;     NG2R53     CG3C53      NG3P3       HGP2
   37    11    20    22	 9 ;       HGA1     CG3C53      NG3P3       HGP2
   37    11    20    21	 9 ;       HGA1     CG3C53      NG3P3       HGP2
   37    11    20    49	 9 ;       HGA1     CG3C53      NG3P3       HGP2
    9    11    12    13	 9 ;      NG3P2     CG3C53     NG2R53      CG331
    9    11    12    14	 9 ;      NG3P2     CG3C53     NG2R53     CG2R53
   20    11    12    13	 9 ;      NG3P3     CG3C53     NG2R53      CG331
   20    11    12    14	 9 ;      NG3P3     CG3C53     NG2R53     CG2R53
   37    11    12    13	 9 ;       HGA1     CG3C53     NG2R53      CG331
   37    11    12    14	 9 ;       HGA1     CG3C53     NG2R53     CG2R53
   11    12    13    38	 9 ;     CG3C53     NG2R53      CG331       HGA3
   11    12    13    39	 9 ;     CG3C53     NG2R53      CG331       HGA3
   11    12    13    40	 9 ;     CG3C53     NG2R53      CG331       HGA3
   14    12    13    38	 9 ;     CG2R53     NG2R53      CG331       HGA3
   14    12    13    39	 9 ;     CG2R53     NG2R53      CG331       HGA3
   14    12    13    40	 9 ;     CG2R53     NG2R53      CG331       HGA3
   13    12    14     8	 9 ;      CG331     NG2R53     CG2R53     CG3C50
   13    12    14    15	 9 ;      CG331     NG2R53     CG2R53      OG2D1
   11    12    14     8	 9 ;     CG3C53     NG2R53     CG2R53     CG3C50
   11    12    14    15	 9 ;     CG3C53     NG2R53     CG2R53      OG2D1
    4    18    19     1	 9 ;     CG2R61     CG2R61     CG2R61     CG2R61
    4    18    19    48	 9 ;     CG2R61     CG2R61     CG2R61      HGR61
   47    18    19     1	 9 ;      HGR61     CG2R61     CG2R61     CG2R61
   47    18    19    48	 9 ;      HGR61     CG2R61     CG2R61      HGR61
    1    23    24    25	 9 ;     CG2R61     CG2DC1     CG2DC2     CG2DC2
    1    23    24    50	 9 ;     CG2R61     CG2DC1     CG2DC2       HGA4
   28    23    24    25	 9 ;     CG2D1O     CG2DC1     CG2DC2     CG2DC2
   28    23    24    50	 9 ;     CG2D1O     CG2DC1     CG2DC2       HGA4
   24    23    28    27	 9 ;     CG2DC2     CG2DC1     CG2D1O      NG311
   24    23    28    30	 9 ;     CG2DC2     CG2DC1     CG2D1O       FGA1
    1    23    28    27	 9 ;     CG2R61     CG2DC1     CG2D1O      NG311
    1    23    28    30	 9 ;     CG2R61     CG2DC1     CG2D1O       FGA1
   23    24    25    26	 9 ;     CG2DC1     CG2DC2     CG2DC2      CG321
   23    24    25    51	 9 ;     CG2DC1     CG2DC2     CG2DC2       HGA4
   50    24    25    26	 9 ;       HGA4     CG2DC2     CG2DC2      CG321
   50    24    25    51	 9 ;       HGA4     CG2DC2     CG2DC2       HGA4
   24    25    26    27	 9 ;     CG2DC2     CG2DC2      CG321      NG311
   24    25    26    52	 9 ;     CG2DC2     CG2DC2      CG321       HGA2
   24    25    26    53	 9 ;     CG2DC2     CG2DC2      CG321       HGA2
   51    25    26    27	 9 ;       HGA4     CG2DC2      CG321      NG311
   51    25    26    52	 9 ;       HGA4     CG2DC2      CG321       HGA2
   51    25    26    53	 9 ;       HGA4     CG2DC2      CG321       HGA2
   25    26    27    28	 9 ;     CG2DC2      CG321      NG311     CG2D1O
   25    26    27    29	 9 ;     CG2DC2      CG321      NG311     HGPAM1
   52    26    27    28	 9 ;       HGA2      CG321      NG311     CG2D1O
   52    26    27    29	 9 ;       HGA2      CG321      NG311     HGPAM1
   53    26    27    28	 9 ;       HGA2      CG321      NG311     CG2D1O
   53    26    27    29	 9 ;       HGA2      CG321      NG311     HGPAM1
   26    27    28    23	 9 ;      CG321      NG311     CG2D1O     CG2DC1
   26    27    28    30	 9 ;      CG321      NG311     CG2D1O       FGA1
   29    27    28    23	 9 ;     HGPAM1      NG311     CG2D1O     CG2DC1
   29    27    28    30	 9 ;     HGPAM1      NG311     CG2D1O       FGA1

[ dihedrals ]
;	ai	  aj	ak	  al funct			  c0			c1			  c2			c3
   14     8    12    15	 2
   28    23    27    30	 2

