; Created by cgenff_charmm2gmx.py

[ moleculetype ]
; Name			   nrexcl
LIG				 3

[ atoms ]
;	 nr		  type	resnr residue  atom   cgnr	   charge		mass  typeB    chargeB		massB
; residue	 1 LIG rtp LIG q	qsum
     1      CG311      1    LIG     C1      1      0.010     12.011   ;
     2      CG321      1    LIG     C2      2     -0.153     12.011   ;
     3     CG2R61      1    LIG     C3      3      0.057     12.011   ;
     4     CG2R61      1    LIG     C4      4     -0.218     12.011   ;
     5     CG2R66      1    LIG     C5      5      0.261     12.011   ;
     6       FGR1      1    LIG     F1      6     -0.210     18.998   ;
     7     CG2R61      1    LIG     C6      7     -0.240     12.011   ;
     8     CG2R66      1    LIG     C7      8      0.261     12.011   ;
     9     CG2R61      1    LIG     C8      9     -0.218     12.011   ;
    10       FGR1      1    LIG     F2     10     -0.210     18.998   ;
    11      NG2S1      1    LIG     N1     11     -0.226     14.007   ;
    12      CG2O1      1    LIG     C9     12      0.302     12.011   ;
    13      OG2D1      1    LIG     O1     13     -0.463     15.999   ;
    14       HGP1      1    LIG     H1     14      0.262      1.008   ;
    15     CG2R61      1    LIG    C10     15     -0.101     12.011   ;
    16     CG2R61      1    LIG    C11     16     -0.067     12.011   ;
    17     CG2R61      1    LIG    C12     17     -0.032     12.011   ;
    18     CG2R61      1    LIG    C13     18     -0.066     12.011   ;
    19     CG2R61      1    LIG    C14     19     -0.160     12.011   ;
    20     CG2R61      1    LIG    C15     20     -0.003     12.011   ;
    21      CG321      1    LIG    C16     21     -0.174     12.011   ;
    22      CG311      1    LIG    C17     22      0.186     12.011   ;
    23      OG301      1    LIG     O2     23     -0.398     15.999   ;
    24      CG331      1    LIG    C18     24     -0.091     12.011   ;
    25      CG321      1    LIG    C19     25     -0.045     12.011   ;
    26      OG301      1    LIG     O3     26     -0.326     15.999   ;
    27      CG331      1    LIG    C20     27     -0.100     12.011   ;
    28      CG2O1      1    LIG    C21     28      0.400     12.011   ;
    29      OG2D1      1    LIG     O4     29     -0.476     15.999   ;
    30      NG2S0      1    LIG     N2     30     -0.418     14.007   ;
    31      CG321      1    LIG    C22     31      0.096     12.011   ;
    32      CG321      1    LIG    C23     32     -0.170     12.011   ;
    33      CG331      1    LIG    C24     33     -0.285     12.011   ;
    34      CG321      1    LIG    C25     34      0.096     12.011   ;
    35      CG321      1    LIG    C26     35     -0.170     12.011   ;
    36      CG331      1    LIG    C27     36     -0.285     12.011   ;
    37      CG311      1    LIG    C28     37      0.094     12.011   ;
    38      OG311      1    LIG     O5     38     -0.625     15.999   ;
    39       HGP1      1    LIG     H2     39      0.415      1.008   ;
    40      CG324      1    LIG    C29     40      0.178     12.011   ;
    41      NG3P2      1    LIG     N3     41     -0.444     14.007   ;
    42       HGP2      1    LIG     H3     42      0.348      1.008   ;
    43       HGP2      1    LIG     H4     43      0.348      1.008   ;
    44      CG324      1    LIG    C30     44      0.171     12.011   ;
    45     CG2R61      1    LIG    C31     45      0.036     12.011   ;
    46     CG2R61      1    LIG    C32     46     -0.124     12.011   ;
    47     CG2R61      1    LIG    C33     47      0.216     12.011   ;
    48     CG2R61      1    LIG    C34     48     -0.121     12.011   ;
    49     CG2R61      1    LIG    C35     49     -0.108     12.011   ;
    50     CG2R61      1    LIG    C36     50     -0.119     12.011   ;
    51      OG301      1    LIG     O6     51     -0.383     15.999   ;
    52      CG331      1    LIG    C37     52     -0.094     12.011   ;
    53       HGA1      1    LIG     HC     53      0.090      1.008   ;
    54       HGA2      1    LIG    HC2     54      0.090      1.008   ;
    55       HGA2      1    LIG    HC3     55      0.090      1.008   ;
    56      HGR62      1    LIG    HC1     56      0.174      1.008   ;
    57      HGR62      1    LIG    HC4     57      0.186      1.008   ;
    58      HGR62      1    LIG    HC5     58      0.174      1.008   ;
    59      HGR61      1    LIG    HC6     59      0.116      1.008   ;
    60      HGR61      1    LIG    HC7     60      0.116      1.008   ;
    61      HGR61      1    LIG    HC8     61      0.116      1.008   ;
    62       HGA2      1    LIG    HC9     62      0.090      1.008   ;
    63       HGA2      1    LIG   HC10     63      0.090      1.008   ;
    64       HGA1      1    LIG   HC11     64      0.090      1.008   ;
    65       HGA3      1    LIG   HC12     65      0.090      1.008   ;
    66       HGA3      1    LIG   HC13     66      0.090      1.008   ;
    67       HGA3      1    LIG   HC14     67      0.090      1.008   ;
    68       HGA2      1    LIG   HC15     68      0.090      1.008   ;
    69       HGA2      1    LIG   HC16     69      0.090      1.008   ;
    70       HGA3      1    LIG   HC17     70      0.090      1.008   ;
    71       HGA3      1    LIG   HC18     71      0.090      1.008   ;
    72       HGA3      1    LIG   HC19     72      0.090      1.008   ;
    73       HGA2      1    LIG   HC20     73      0.090      1.008   ;
    74       HGA2      1    LIG   HC21     74      0.090      1.008   ;
    75       HGA2      1    LIG   HC22     75      0.090      1.008   ;
    76       HGA2      1    LIG   HC23     76      0.090      1.008   ;
    77       HGA3      1    LIG   HC24     77      0.090      1.008   ;
    78       HGA3      1    LIG   HC25     78      0.090      1.008   ;
    79       HGA3      1    LIG   HC26     79      0.090      1.008   ;
    80       HGA2      1    LIG   HC27     80      0.090      1.008   ;
    81       HGA2      1    LIG   HC28     81      0.090      1.008   ;
    82       HGA2      1    LIG   HC29     82      0.090      1.008   ;
    83       HGA2      1    LIG   HC30     83      0.090      1.008   ;
    84       HGA3      1    LIG   HC31     84      0.090      1.008   ;
    85       HGA3      1    LIG   HC32     85      0.090      1.008   ;
    86       HGA3      1    LIG   HC33     86      0.090      1.008   ;
    87       HGA1      1    LIG   HC34     87      0.090      1.008   ;
    88       HGA2      1    LIG   HC35     88      0.090      1.008   ;
    89       HGA2      1    LIG   HC36     89      0.090      1.008   ;
    90       HGA2      1    LIG   HC37     90      0.090      1.008   ;
    91       HGA2      1    LIG   HC38     91      0.090      1.008   ;
    92      HGR61      1    LIG   HC39     92      0.116      1.008   ;
    93      HGR61      1    LIG   HC40     93      0.116      1.008   ;
    94      HGR61      1    LIG   HC41     94      0.116      1.008   ;
    95      HGR61      1    LIG   HC42     95      0.116      1.008   ;
    96       HGA3      1    LIG   HC43     96      0.090      1.008   ;
    97       HGA3      1    LIG   HC44     97      0.090      1.008   ;
    98       HGA3      1    LIG   HC45     98      0.090      1.008   ;

[ bonds ]
;	ai	  aj funct			  c0			c1			  c2			c3
    1    37	 1 ;       CG311      CG311
    1     2	 1 ;       CG311      CG321
    1    11	 1 ;       CG311      NG2S1
    1    53	 1 ;       CG311       HGA1
    2     3	 1 ;       CG321     CG2R61
    2    54	 1 ;       CG321       HGA2
    2    55	 1 ;       CG321       HGA2
    3     9	 1 ;      CG2R61     CG2R61
    3     4	 1 ;      CG2R61     CG2R61
    4     5	 1 ;      CG2R61     CG2R66
    4    56	 1 ;      CG2R61      HGR62
    5     7	 1 ;      CG2R66     CG2R61
    5     6	 1 ;      CG2R66       FGR1
    7     8	 1 ;      CG2R61     CG2R66
    7    57	 1 ;      CG2R61      HGR62
    8    10	 1 ;      CG2R66       FGR1
    8     9	 1 ;      CG2R66     CG2R61
    9    58	 1 ;      CG2R61      HGR62
   11    14	 1 ;       NG2S1       HGP1
   11    12	 1 ;       NG2S1      CG2O1
   12    13	 1 ;       CG2O1      OG2D1
   12    15	 1 ;       CG2O1     CG2R61
   15    16	 1 ;      CG2R61     CG2R61
   15    20	 1 ;      CG2R61     CG2R61
   16    17	 1 ;      CG2R61     CG2R61
   16    59	 1 ;      CG2R61      HGR61
   17    21	 1 ;      CG2R61      CG321
   17    18	 1 ;      CG2R61     CG2R61
   18    19	 1 ;      CG2R61     CG2R61
   18    60	 1 ;      CG2R61      HGR61
   19    20	 1 ;      CG2R61     CG2R61
   19    28	 1 ;      CG2R61      CG2O1
   20    61	 1 ;      CG2R61      HGR61
   21    22	 1 ;       CG321      CG311
   21    62	 1 ;       CG321       HGA2
   21    63	 1 ;       CG321       HGA2
   22    25	 1 ;       CG311      CG321
   22    23	 1 ;       CG311      OG301
   22    64	 1 ;       CG311       HGA1
   23    24	 1 ;       OG301      CG331
   24    65	 1 ;       CG331       HGA3
   24    66	 1 ;       CG331       HGA3
   24    67	 1 ;       CG331       HGA3
   25    26	 1 ;       CG321      OG301
   25    68	 1 ;       CG321       HGA2
   25    69	 1 ;       CG321       HGA2
   26    27	 1 ;       OG301      CG331
   27    70	 1 ;       CG331       HGA3
   27    71	 1 ;       CG331       HGA3
   27    72	 1 ;       CG331       HGA3
   28    29	 1 ;       CG2O1      OG2D1
   28    30	 1 ;       CG2O1      NG2S0
   30    31	 1 ;       NG2S0      CG321
   30    34	 1 ;       NG2S0      CG321
   31    32	 1 ;       CG321      CG321
   31    73	 1 ;       CG321       HGA2
   31    74	 1 ;       CG321       HGA2
   32    33	 1 ;       CG321      CG331
   32    75	 1 ;       CG321       HGA2
   32    76	 1 ;       CG321       HGA2
   33    77	 1 ;       CG331       HGA3
   33    78	 1 ;       CG331       HGA3
   33    79	 1 ;       CG331       HGA3
   34    35	 1 ;       CG321      CG321
   34    80	 1 ;       CG321       HGA2
   34    81	 1 ;       CG321       HGA2
   35    36	 1 ;       CG321      CG331
   35    82	 1 ;       CG321       HGA2
   35    83	 1 ;       CG321       HGA2
   36    84	 1 ;       CG331       HGA3
   36    85	 1 ;       CG331       HGA3
   36    86	 1 ;       CG331       HGA3
   37    38	 1 ;       CG311      OG311
   37    40	 1 ;       CG311      CG324
   37    87	 1 ;       CG311       HGA1
   38    39	 1 ;       OG311       HGP1
   40    41	 1 ;       CG324      NG3P2
   40    88	 1 ;       CG324       HGA2
   40    89	 1 ;       CG324       HGA2
   41    42	 1 ;       NG3P2       HGP2
   41    43	 1 ;       NG3P2       HGP2
   41    44	 1 ;       NG3P2      CG324
   44    45	 1 ;       CG324     CG2R61
   44    90	 1 ;       CG324       HGA2
   44    91	 1 ;       CG324       HGA2
   45    50	 1 ;      CG2R61     CG2R61
   45    46	 1 ;      CG2R61     CG2R61
   46    47	 1 ;      CG2R61     CG2R61
   46    92	 1 ;      CG2R61      HGR61
   47    48	 1 ;      CG2R61     CG2R61
   47    51	 1 ;      CG2R61      OG301
   48    49	 1 ;      CG2R61     CG2R61
   48    93	 1 ;      CG2R61      HGR61
   49    50	 1 ;      CG2R61     CG2R61
   49    94	 1 ;      CG2R61      HGR61
   50    95	 1 ;      CG2R61      HGR61
   51    52	 1 ;       OG301      CG331
   52    96	 1 ;       CG331       HGA3
   52    97	 1 ;       CG331       HGA3
   52    98	 1 ;       CG331       HGA3

[ pairs ]
;	ai	  aj funct			  c0			c1			  c2			c3
    1     9	 1
    1     4	 1
    1    13	 1
    1    15	 1
    1    39	 1
    1    41	 1
    1    88	 1
    1    89	 1
    2    38	 1
    2    40	 1
    2    87	 1
    2    14	 1
    2    12	 1
    2     8	 1
    2    58	 1
    2     5	 1
    2    56	 1
    3    37	 1
    3    11	 1
    3    53	 1
    3     7	 1
    3     6	 1
    3    10	 1
    4    54	 1
    4    55	 1
    4     8	 1
    4    58	 1
    4    57	 1
    5     9	 1
    5    10	 1
    6    56	 1
    6     8	 1
    6    57	 1
    7    56	 1
    7    58	 1
    9    54	 1
    9    55	 1
    9    56	 1
    9    57	 1
   10    57	 1
   10    58	 1
   11    38	 1
   11    40	 1
   11    87	 1
   11    54	 1
   11    55	 1
   11    16	 1
   11    20	 1
   12    37	 1
   12    53	 1
   12    17	 1
   12    59	 1
   12    19	 1
   12    61	 1
   13    14	 1
   13    16	 1
   13    20	 1
   14    37	 1
   14    53	 1
   14    15	 1
   15    21	 1
   15    18	 1
   15    28	 1
   16    19	 1
   16    61	 1
   16    22	 1
   16    62	 1
   16    63	 1
   16    60	 1
   17    20	 1
   17    28	 1
   17    25	 1
   17    23	 1
   17    64	 1
   18    59	 1
   18    22	 1
   18    62	 1
   18    63	 1
   18    61	 1
   18    29	 1
   18    30	 1
   19    21	 1
   19    31	 1
   19    34	 1
   20    59	 1
   20    60	 1
   20    29	 1
   20    30	 1
   21    59	 1
   21    60	 1
   21    26	 1
   21    68	 1
   21    69	 1
   21    24	 1
   22    65	 1
   22    66	 1
   22    67	 1
   22    27	 1
   23    62	 1
   23    63	 1
   23    26	 1
   23    68	 1
   23    69	 1
   24    25	 1
   24    64	 1
   25    62	 1
   25    63	 1
   25    70	 1
   25    71	 1
   25    72	 1
   26    64	 1
   27    68	 1
   27    69	 1
   28    60	 1
   28    61	 1
   28    32	 1
   28    73	 1
   28    74	 1
   28    35	 1
   28    80	 1
   28    81	 1
   29    31	 1
   29    34	 1
   30    33	 1
   30    75	 1
   30    76	 1
   30    36	 1
   30    82	 1
   30    83	 1
   31    35	 1
   31    80	 1
   31    81	 1
   31    77	 1
   31    78	 1
   31    79	 1
   32    34	 1
   33    73	 1
   33    74	 1
   34    73	 1
   34    74	 1
   34    84	 1
   34    85	 1
   34    86	 1
   36    80	 1
   36    81	 1
   37    54	 1
   37    55	 1
   37    42	 1
   37    43	 1
   37    44	 1
   38    53	 1
   38    41	 1
   38    88	 1
   38    89	 1
   39    40	 1
   39    87	 1
   40    53	 1
   40    45	 1
   40    90	 1
   40    91	 1
   41    87	 1
   41    50	 1
   41    46	 1
   42    88	 1
   42    89	 1
   42    45	 1
   42    90	 1
   42    91	 1
   43    88	 1
   43    89	 1
   43    45	 1
   43    90	 1
   43    91	 1
   44    88	 1
   44    89	 1
   44    49	 1
   44    95	 1
   44    47	 1
   44    92	 1
   45    48	 1
   45    51	 1
   45    94	 1
   46    90	 1
   46    91	 1
   46    49	 1
   46    95	 1
   46    93	 1
   46    52	 1
   47    50	 1
   47    94	 1
   47    96	 1
   47    97	 1
   47    98	 1
   48    92	 1
   48    52	 1
   48    95	 1
   49    51	 1
   50    90	 1
   50    91	 1
   50    92	 1
   50    93	 1
   51    92	 1
   51    93	 1
   53    87	 1
   53    54	 1
   53    55	 1
   62    64	 1
   63    64	 1
   64    68	 1
   64    69	 1
   73    75	 1
   73    76	 1
   74    75	 1
   74    76	 1
   75    77	 1
   75    78	 1
   75    79	 1
   76    77	 1
   76    78	 1
   76    79	 1
   80    82	 1
   80    83	 1
   81    82	 1
   81    83	 1
   82    84	 1
   82    85	 1
   82    86	 1
   83    84	 1
   83    85	 1
   83    86	 1
   87    88	 1
   87    89	 1
   93    94	 1
   94    95	 1

[ angles ]
;	ai	  aj	ak funct			c0			  c1			c2			  c3
   37     1     2	5 ;      CG311      CG311      CG321
   37     1    11	5 ;      CG311      CG311      NG2S1
   37     1    53	5 ;      CG311      CG311       HGA1
    2     1    11	5 ;      CG321      CG311      NG2S1
    2     1    53	5 ;      CG321      CG311       HGA1
   11     1    53	5 ;      NG2S1      CG311       HGA1
    1     2     3	5 ;      CG311      CG321     CG2R61
    1     2    54	5 ;      CG311      CG321       HGA2
    1     2    55	5 ;      CG311      CG321       HGA2
    3     2    54	5 ;     CG2R61      CG321       HGA2
    3     2    55	5 ;     CG2R61      CG321       HGA2
   54     2    55	5 ;       HGA2      CG321       HGA2
    9     3     2	5 ;     CG2R61     CG2R61      CG321
    9     3     4	5 ;     CG2R61     CG2R61     CG2R61
    2     3     4	5 ;      CG321     CG2R61     CG2R61
    3     4     5	5 ;     CG2R61     CG2R61     CG2R66
    3     4    56	5 ;     CG2R61     CG2R61      HGR62
    5     4    56	5 ;     CG2R66     CG2R61      HGR62
    7     5     4	5 ;     CG2R61     CG2R66     CG2R61
    7     5     6	5 ;     CG2R61     CG2R66       FGR1
    4     5     6	5 ;     CG2R61     CG2R66       FGR1
    8     7     5	5 ;     CG2R66     CG2R61     CG2R66
    8     7    57	5 ;     CG2R66     CG2R61      HGR62
    5     7    57	5 ;     CG2R66     CG2R61      HGR62
   10     8     9	5 ;       FGR1     CG2R66     CG2R61
   10     8     7	5 ;       FGR1     CG2R66     CG2R61
    9     8     7	5 ;     CG2R61     CG2R66     CG2R61
    8     9     3	5 ;     CG2R66     CG2R61     CG2R61
    8     9    58	5 ;     CG2R66     CG2R61      HGR62
    3     9    58	5 ;     CG2R61     CG2R61      HGR62
    1    11    14	5 ;      CG311      NG2S1       HGP1
    1    11    12	5 ;      CG311      NG2S1      CG2O1
   14    11    12	5 ;       HGP1      NG2S1      CG2O1
   11    12    13	5 ;      NG2S1      CG2O1      OG2D1
   11    12    15	5 ;      NG2S1      CG2O1     CG2R61
   13    12    15	5 ;      OG2D1      CG2O1     CG2R61
   12    15    16	5 ;      CG2O1     CG2R61     CG2R61
   12    15    20	5 ;      CG2O1     CG2R61     CG2R61
   16    15    20	5 ;     CG2R61     CG2R61     CG2R61
   15    16    17	5 ;     CG2R61     CG2R61     CG2R61
   15    16    59	5 ;     CG2R61     CG2R61      HGR61
   17    16    59	5 ;     CG2R61     CG2R61      HGR61
   16    17    21	5 ;     CG2R61     CG2R61      CG321
   16    17    18	5 ;     CG2R61     CG2R61     CG2R61
   21    17    18	5 ;      CG321     CG2R61     CG2R61
   17    18    19	5 ;     CG2R61     CG2R61     CG2R61
   17    18    60	5 ;     CG2R61     CG2R61      HGR61
   19    18    60	5 ;     CG2R61     CG2R61      HGR61
   20    19    18	5 ;     CG2R61     CG2R61     CG2R61
   20    19    28	5 ;     CG2R61     CG2R61      CG2O1
   18    19    28	5 ;     CG2R61     CG2R61      CG2O1
   15    20    19	5 ;     CG2R61     CG2R61     CG2R61
   15    20    61	5 ;     CG2R61     CG2R61      HGR61
   19    20    61	5 ;     CG2R61     CG2R61      HGR61
   22    21    17	5 ;      CG311      CG321     CG2R61
   22    21    62	5 ;      CG311      CG321       HGA2
   22    21    63	5 ;      CG311      CG321       HGA2
   17    21    62	5 ;     CG2R61      CG321       HGA2
   17    21    63	5 ;     CG2R61      CG321       HGA2
   62    21    63	5 ;       HGA2      CG321       HGA2
   25    22    23	5 ;      CG321      CG311      OG301
   25    22    21	5 ;      CG321      CG311      CG321
   25    22    64	5 ;      CG321      CG311       HGA1
   23    22    21	5 ;      OG301      CG311      CG321
   23    22    64	5 ;      OG301      CG311       HGA1
   21    22    64	5 ;      CG321      CG311       HGA1
   24    23    22	5 ;      CG331      OG301      CG311
   23    24    65	5 ;      OG301      CG331       HGA3
   23    24    66	5 ;      OG301      CG331       HGA3
   23    24    67	5 ;      OG301      CG331       HGA3
   65    24    66	5 ;       HGA3      CG331       HGA3
   65    24    67	5 ;       HGA3      CG331       HGA3
   66    24    67	5 ;       HGA3      CG331       HGA3
   26    25    22	5 ;      OG301      CG321      CG311
   26    25    68	5 ;      OG301      CG321       HGA2
   26    25    69	5 ;      OG301      CG321       HGA2
   22    25    68	5 ;      CG311      CG321       HGA2
   22    25    69	5 ;      CG311      CG321       HGA2
   68    25    69	5 ;       HGA2      CG321       HGA2
   27    26    25	5 ;      CG331      OG301      CG321
   26    27    70	5 ;      OG301      CG331       HGA3
   26    27    71	5 ;      OG301      CG331       HGA3
   26    27    72	5 ;      OG301      CG331       HGA3
   70    27    71	5 ;       HGA3      CG331       HGA3
   70    27    72	5 ;       HGA3      CG331       HGA3
   71    27    72	5 ;       HGA3      CG331       HGA3
   19    28    29	5 ;     CG2R61      CG2O1      OG2D1
   19    28    30	5 ;     CG2R61      CG2O1      NG2S0
   29    28    30	5 ;      OG2D1      CG2O1      NG2S0
   28    30    31	5 ;      CG2O1      NG2S0      CG321
   28    30    34	5 ;      CG2O1      NG2S0      CG321
   31    30    34	5 ;      CG321      NG2S0      CG321
   30    31    32	5 ;      NG2S0      CG321      CG321
   30    31    73	5 ;      NG2S0      CG321       HGA2
   30    31    74	5 ;      NG2S0      CG321       HGA2
   32    31    73	5 ;      CG321      CG321       HGA2
   32    31    74	5 ;      CG321      CG321       HGA2
   73    31    74	5 ;       HGA2      CG321       HGA2
   31    32    33	5 ;      CG321      CG321      CG331
   31    32    75	5 ;      CG321      CG321       HGA2
   31    32    76	5 ;      CG321      CG321       HGA2
   33    32    75	5 ;      CG331      CG321       HGA2
   33    32    76	5 ;      CG331      CG321       HGA2
   75    32    76	5 ;       HGA2      CG321       HGA2
   32    33    77	5 ;      CG321      CG331       HGA3
   32    33    78	5 ;      CG321      CG331       HGA3
   32    33    79	5 ;      CG321      CG331       HGA3
   77    33    78	5 ;       HGA3      CG331       HGA3
   77    33    79	5 ;       HGA3      CG331       HGA3
   78    33    79	5 ;       HGA3      CG331       HGA3
   30    34    35	5 ;      NG2S0      CG321      CG321
   30    34    80	5 ;      NG2S0      CG321       HGA2
   30    34    81	5 ;      NG2S0      CG321       HGA2
   35    34    80	5 ;      CG321      CG321       HGA2
   35    34    81	5 ;      CG321      CG321       HGA2
   80    34    81	5 ;       HGA2      CG321       HGA2
   36    35    34	5 ;      CG331      CG321      CG321
   36    35    82	5 ;      CG331      CG321       HGA2
   36    35    83	5 ;      CG331      CG321       HGA2
   34    35    82	5 ;      CG321      CG321       HGA2
   34    35    83	5 ;      CG321      CG321       HGA2
   82    35    83	5 ;       HGA2      CG321       HGA2
   35    36    84	5 ;      CG321      CG331       HGA3
   35    36    85	5 ;      CG321      CG331       HGA3
   35    36    86	5 ;      CG321      CG331       HGA3
   84    36    85	5 ;       HGA3      CG331       HGA3
   84    36    86	5 ;       HGA3      CG331       HGA3
   85    36    86	5 ;       HGA3      CG331       HGA3
   38    37    40	5 ;      OG311      CG311      CG324
   38    37     1	5 ;      OG311      CG311      CG311
   38    37    87	5 ;      OG311      CG311       HGA1
   40    37     1	5 ;      CG324      CG311      CG311
   40    37    87	5 ;      CG324      CG311       HGA1
    1    37    87	5 ;      CG311      CG311       HGA1
   39    38    37	5 ;       HGP1      OG311      CG311
   41    40    37	5 ;      NG3P2      CG324      CG311
   41    40    88	5 ;      NG3P2      CG324       HGA2
   41    40    89	5 ;      NG3P2      CG324       HGA2
   37    40    88	5 ;      CG311      CG324       HGA2
   37    40    89	5 ;      CG311      CG324       HGA2
   88    40    89	5 ;       HGA2      CG324       HGA2
   42    41    40	5 ;       HGP2      NG3P2      CG324
   42    41    43	5 ;       HGP2      NG3P2       HGP2
   42    41    44	5 ;       HGP2      NG3P2      CG324
   40    41    43	5 ;      CG324      NG3P2       HGP2
   40    41    44	5 ;      CG324      NG3P2      CG324
   43    41    44	5 ;       HGP2      NG3P2      CG324
   41    44    45	5 ;      NG3P2      CG324     CG2R61
   41    44    90	5 ;      NG3P2      CG324       HGA2
   41    44    91	5 ;      NG3P2      CG324       HGA2
   45    44    90	5 ;     CG2R61      CG324       HGA2
   45    44    91	5 ;     CG2R61      CG324       HGA2
   90    44    91	5 ;       HGA2      CG324       HGA2
   44    45    50	5 ;      CG324     CG2R61     CG2R61
   44    45    46	5 ;      CG324     CG2R61     CG2R61
   50    45    46	5 ;     CG2R61     CG2R61     CG2R61
   45    46    47	5 ;     CG2R61     CG2R61     CG2R61
   45    46    92	5 ;     CG2R61     CG2R61      HGR61
   47    46    92	5 ;     CG2R61     CG2R61      HGR61
   46    47    48	5 ;     CG2R61     CG2R61     CG2R61
   46    47    51	5 ;     CG2R61     CG2R61      OG301
   48    47    51	5 ;     CG2R61     CG2R61      OG301
   49    48    47	5 ;     CG2R61     CG2R61     CG2R61
   49    48    93	5 ;     CG2R61     CG2R61      HGR61
   47    48    93	5 ;     CG2R61     CG2R61      HGR61
   50    49    48	5 ;     CG2R61     CG2R61     CG2R61
   50    49    94	5 ;     CG2R61     CG2R61      HGR61
   48    49    94	5 ;     CG2R61     CG2R61      HGR61
   45    50    49	5 ;     CG2R61     CG2R61     CG2R61
   45    50    95	5 ;     CG2R61     CG2R61      HGR61
   49    50    95	5 ;     CG2R61     CG2R61      HGR61
   47    51    52	5 ;     CG2R61      OG301      CG331
   51    52    96	5 ;      OG301      CG331       HGA3
   51    52    97	5 ;      OG301      CG331       HGA3
   51    52    98	5 ;      OG301      CG331       HGA3
   96    52    97	5 ;       HGA3      CG331       HGA3
   96    52    98	5 ;       HGA3      CG331       HGA3
   97    52    98	5 ;       HGA3      CG331       HGA3

[ dihedrals ]
;	ai	  aj	ak	  al funct			  c0			c1			  c2			c3			  c4			c5
    2     1    37    38	 9 ;      CG321      CG311      CG311      OG311
    2     1    37    40	 9 ;      CG321      CG311      CG311      CG324
    2     1    37    87	 9 ;      CG321      CG311      CG311       HGA1
   11     1    37    38	 9 ;      NG2S1      CG311      CG311      OG311
   11     1    37    40	 9 ;      NG2S1      CG311      CG311      CG324
   11     1    37    87	 9 ;      NG2S1      CG311      CG311       HGA1
   53     1    37    38	 9 ;       HGA1      CG311      CG311      OG311
   53     1    37    40	 9 ;       HGA1      CG311      CG311      CG324
   53     1    37    87	 9 ;       HGA1      CG311      CG311       HGA1
   37     1     2     3	 9 ;      CG311      CG311      CG321     CG2R61
   37     1     2    54	 9 ;      CG311      CG311      CG321       HGA2
   37     1     2    55	 9 ;      CG311      CG311      CG321       HGA2
   11     1     2     3	 9 ;      NG2S1      CG311      CG321     CG2R61
   11     1     2    54	 9 ;      NG2S1      CG311      CG321       HGA2
   11     1     2    55	 9 ;      NG2S1      CG311      CG321       HGA2
   53     1     2     3	 9 ;       HGA1      CG311      CG321     CG2R61
   53     1     2    54	 9 ;       HGA1      CG311      CG321       HGA2
   53     1     2    55	 9 ;       HGA1      CG311      CG321       HGA2
   37     1    11    14	 9 ;      CG311      CG311      NG2S1       HGP1
   37     1    11    12	 9 ;      CG311      CG311      NG2S1      CG2O1
    2     1    11    14	 9 ;      CG321      CG311      NG2S1       HGP1
    2     1    11    12	 9 ;      CG321      CG311      NG2S1      CG2O1
   53     1    11    14	 9 ;       HGA1      CG311      NG2S1       HGP1
   53     1    11    12	 9 ;       HGA1      CG311      NG2S1      CG2O1
    1     2     3     9	 9 ;      CG311      CG321     CG2R61     CG2R61
    1     2     3     4	 9 ;      CG311      CG321     CG2R61     CG2R61
   54     2     3     9	 9 ;       HGA2      CG321     CG2R61     CG2R61
   54     2     3     4	 9 ;       HGA2      CG321     CG2R61     CG2R61
   55     2     3     9	 9 ;       HGA2      CG321     CG2R61     CG2R61
   55     2     3     4	 9 ;       HGA2      CG321     CG2R61     CG2R61
    2     3     9     8	 9 ;      CG321     CG2R61     CG2R61     CG2R66
    2     3     9    58	 9 ;      CG321     CG2R61     CG2R61      HGR62
    4     3     9     8	 9 ;     CG2R61     CG2R61     CG2R61     CG2R66
    4     3     9    58	 9 ;     CG2R61     CG2R61     CG2R61      HGR62
    9     3     4     5	 9 ;     CG2R61     CG2R61     CG2R61     CG2R66
    9     3     4    56	 9 ;     CG2R61     CG2R61     CG2R61      HGR62
    2     3     4     5	 9 ;      CG321     CG2R61     CG2R61     CG2R66
    2     3     4    56	 9 ;      CG321     CG2R61     CG2R61      HGR62
    3     4     5     7	 9 ;     CG2R61     CG2R61     CG2R66     CG2R61
    3     4     5     6	 9 ;     CG2R61     CG2R61     CG2R66       FGR1
   56     4     5     7	 9 ;      HGR62     CG2R61     CG2R66     CG2R61
   56     4     5     6	 9 ;      HGR62     CG2R61     CG2R66       FGR1
    4     5     7     8	 9 ;     CG2R61     CG2R66     CG2R61     CG2R66
    4     5     7    57	 9 ;     CG2R61     CG2R66     CG2R61      HGR62
    6     5     7     8	 9 ;       FGR1     CG2R66     CG2R61     CG2R66
    6     5     7    57	 9 ;       FGR1     CG2R66     CG2R61      HGR62
    5     7     8    10	 9 ;     CG2R66     CG2R61     CG2R66       FGR1
    5     7     8     9	 9 ;     CG2R66     CG2R61     CG2R66     CG2R61
   57     7     8    10	 9 ;      HGR62     CG2R61     CG2R66       FGR1
   57     7     8     9	 9 ;      HGR62     CG2R61     CG2R66     CG2R61
   10     8     9     3	 9 ;       FGR1     CG2R66     CG2R61     CG2R61
   10     8     9    58	 9 ;       FGR1     CG2R66     CG2R61      HGR62
    7     8     9     3	 9 ;     CG2R61     CG2R66     CG2R61     CG2R61
    7     8     9    58	 9 ;     CG2R61     CG2R66     CG2R61      HGR62
    1    11    12    13	 9 ;      CG311      NG2S1      CG2O1      OG2D1
    1    11    12    15	 9 ;      CG311      NG2S1      CG2O1     CG2R61
   14    11    12    13	 9 ;       HGP1      NG2S1      CG2O1      OG2D1
   14    11    12    15	 9 ;       HGP1      NG2S1      CG2O1     CG2R61
   11    12    15    16	 9 ;      NG2S1      CG2O1     CG2R61     CG2R61
   11    12    15    20	 9 ;      NG2S1      CG2O1     CG2R61     CG2R61
   13    12    15    16	 9 ;      OG2D1      CG2O1     CG2R61     CG2R61
   13    12    15    20	 9 ;      OG2D1      CG2O1     CG2R61     CG2R61
   12    15    16    17	 9 ;      CG2O1     CG2R61     CG2R61     CG2R61
   12    15    16    59	 9 ;      CG2O1     CG2R61     CG2R61      HGR61
   20    15    16    17	 9 ;     CG2R61     CG2R61     CG2R61     CG2R61
   20    15    16    59	 9 ;     CG2R61     CG2R61     CG2R61      HGR61
   12    15    20    19	 9 ;      CG2O1     CG2R61     CG2R61     CG2R61
   12    15    20    61	 9 ;      CG2O1     CG2R61     CG2R61      HGR61
   16    15    20    19	 9 ;     CG2R61     CG2R61     CG2R61     CG2R61
   16    15    20    61	 9 ;     CG2R61     CG2R61     CG2R61      HGR61
   15    16    17    21	 9 ;     CG2R61     CG2R61     CG2R61      CG321
   15    16    17    18	 9 ;     CG2R61     CG2R61     CG2R61     CG2R61
   59    16    17    21	 9 ;      HGR61     CG2R61     CG2R61      CG321
   59    16    17    18	 9 ;      HGR61     CG2R61     CG2R61     CG2R61
   16    17    21    22	 9 ;     CG2R61     CG2R61      CG321      CG311
   16    17    21    62	 9 ;     CG2R61     CG2R61      CG321       HGA2
   16    17    21    63	 9 ;     CG2R61     CG2R61      CG321       HGA2
   18    17    21    22	 9 ;     CG2R61     CG2R61      CG321      CG311
   18    17    21    62	 9 ;     CG2R61     CG2R61      CG321       HGA2
   18    17    21    63	 9 ;     CG2R61     CG2R61      CG321       HGA2
   16    17    18    19	 9 ;     CG2R61     CG2R61     CG2R61     CG2R61
   16    17    18    60	 9 ;     CG2R61     CG2R61     CG2R61      HGR61
   21    17    18    19	 9 ;      CG321     CG2R61     CG2R61     CG2R61
   21    17    18    60	 9 ;      CG321     CG2R61     CG2R61      HGR61
   17    18    19    20	 9 ;     CG2R61     CG2R61     CG2R61     CG2R61
   17    18    19    28	 9 ;     CG2R61     CG2R61     CG2R61      CG2O1
   60    18    19    20	 9 ;      HGR61     CG2R61     CG2R61     CG2R61
   60    18    19    28	 9 ;      HGR61     CG2R61     CG2R61      CG2O1
   18    19    20    15	 9 ;     CG2R61     CG2R61     CG2R61     CG2R61
   18    19    20    61	 9 ;     CG2R61     CG2R61     CG2R61      HGR61
   28    19    20    15	 9 ;      CG2O1     CG2R61     CG2R61     CG2R61
   28    19    20    61	 9 ;      CG2O1     CG2R61     CG2R61      HGR61
   20    19    28    29	 9 ;     CG2R61     CG2R61      CG2O1      OG2D1
   20    19    28    30	 9 ;     CG2R61     CG2R61      CG2O1      NG2S0
   18    19    28    29	 9 ;     CG2R61     CG2R61      CG2O1      OG2D1
   18    19    28    30	 9 ;     CG2R61     CG2R61      CG2O1      NG2S0
   17    21    22    25	 9 ;     CG2R61      CG321      CG311      CG321
   17    21    22    23	 9 ;     CG2R61      CG321      CG311      OG301
   17    21    22    64	 9 ;     CG2R61      CG321      CG311       HGA1
   62    21    22    25	 9 ;       HGA2      CG321      CG311      CG321
   62    21    22    23	 9 ;       HGA2      CG321      CG311      OG301
   62    21    22    64	 9 ;       HGA2      CG321      CG311       HGA1
   63    21    22    25	 9 ;       HGA2      CG321      CG311      CG321
   63    21    22    23	 9 ;       HGA2      CG321      CG311      OG301
   63    21    22    64	 9 ;       HGA2      CG321      CG311       HGA1
   23    22    25    26	 9 ;      OG301      CG311      CG321      OG301
   23    22    25    68	 9 ;      OG301      CG311      CG321       HGA2
   23    22    25    69	 9 ;      OG301      CG311      CG321       HGA2
   21    22    25    26	 9 ;      CG321      CG311      CG321      OG301
   21    22    25    68	 9 ;      CG321      CG311      CG321       HGA2
   21    22    25    69	 9 ;      CG321      CG311      CG321       HGA2
   64    22    25    26	 9 ;       HGA1      CG311      CG321      OG301
   64    22    25    68	 9 ;       HGA1      CG311      CG321       HGA2
   64    22    25    69	 9 ;       HGA1      CG311      CG321       HGA2
   25    22    23    24	 9 ;      CG321      CG311      OG301      CG331
   21    22    23    24	 9 ;      CG321      CG311      OG301      CG331
   64    22    23    24	 9 ;       HGA1      CG311      OG301      CG331
   22    23    24    65	 9 ;      CG311      OG301      CG331       HGA3
   22    23    24    66	 9 ;      CG311      OG301      CG331       HGA3
   22    23    24    67	 9 ;      CG311      OG301      CG331       HGA3
   22    25    26    27	 9 ;      CG311      CG321      OG301      CG331
   68    25    26    27	 9 ;       HGA2      CG321      OG301      CG331
   69    25    26    27	 9 ;       HGA2      CG321      OG301      CG331
   25    26    27    70	 9 ;      CG321      OG301      CG331       HGA3
   25    26    27    71	 9 ;      CG321      OG301      CG331       HGA3
   25    26    27    72	 9 ;      CG321      OG301      CG331       HGA3
   19    28    30    31	 9 ;     CG2R61      CG2O1      NG2S0      CG321
   19    28    30    34	 9 ;     CG2R61      CG2O1      NG2S0      CG321
   29    28    30    31	 9 ;      OG2D1      CG2O1      NG2S0      CG321
   29    28    30    34	 9 ;      OG2D1      CG2O1      NG2S0      CG321
   28    30    31    32	 9 ;      CG2O1      NG2S0      CG321      CG321
   28    30    31    73	 9 ;      CG2O1      NG2S0      CG321       HGA2
   28    30    31    74	 9 ;      CG2O1      NG2S0      CG321       HGA2
   34    30    31    32	 9 ;      CG321      NG2S0      CG321      CG321
   34    30    31    73	 9 ;      CG321      NG2S0      CG321       HGA2
   34    30    31    74	 9 ;      CG321      NG2S0      CG321       HGA2
   28    30    34    35	 9 ;      CG2O1      NG2S0      CG321      CG321
   28    30    34    80	 9 ;      CG2O1      NG2S0      CG321       HGA2
   28    30    34    81	 9 ;      CG2O1      NG2S0      CG321       HGA2
   31    30    34    35	 9 ;      CG321      NG2S0      CG321      CG321
   31    30    34    80	 9 ;      CG321      NG2S0      CG321       HGA2
   31    30    34    81	 9 ;      CG321      NG2S0      CG321       HGA2
   30    31    32    33	 9 ;      NG2S0      CG321      CG321      CG331
   30    31    32    75	 9 ;      NG2S0      CG321      CG321       HGA2
   30    31    32    76	 9 ;      NG2S0      CG321      CG321       HGA2
   73    31    32    33	 9 ;       HGA2      CG321      CG321      CG331
   73    31    32    75	 9 ;       HGA2      CG321      CG321       HGA2
   73    31    32    76	 9 ;       HGA2      CG321      CG321       HGA2
   74    31    32    33	 9 ;       HGA2      CG321      CG321      CG331
   74    31    32    75	 9 ;       HGA2      CG321      CG321       HGA2
   74    31    32    76	 9 ;       HGA2      CG321      CG321       HGA2
   31    32    33    77	 9 ;      CG321      CG321      CG331       HGA3
   31    32    33    78	 9 ;      CG321      CG321      CG331       HGA3
   31    32    33    79	 9 ;      CG321      CG321      CG331       HGA3
   75    32    33    77	 9 ;       HGA2      CG321      CG331       HGA3
   75    32    33    78	 9 ;       HGA2      CG321      CG331       HGA3
   75    32    33    79	 9 ;       HGA2      CG321      CG331       HGA3
   76    32    33    77	 9 ;       HGA2      CG321      CG331       HGA3
   76    32    33    78	 9 ;       HGA2      CG321      CG331       HGA3
   76    32    33    79	 9 ;       HGA2      CG321      CG331       HGA3
   30    34    35    36	 9 ;      NG2S0      CG321      CG321      CG331
   30    34    35    82	 9 ;      NG2S0      CG321      CG321       HGA2
   30    34    35    83	 9 ;      NG2S0      CG321      CG321       HGA2
   80    34    35    36	 9 ;       HGA2      CG321      CG321      CG331
   80    34    35    82	 9 ;       HGA2      CG321      CG321       HGA2
   80    34    35    83	 9 ;       HGA2      CG321      CG321       HGA2
   81    34    35    36	 9 ;       HGA2      CG321      CG321      CG331
   81    34    35    82	 9 ;       HGA2      CG321      CG321       HGA2
   81    34    35    83	 9 ;       HGA2      CG321      CG321       HGA2
   34    35    36    84	 9 ;      CG321      CG321      CG331       HGA3
   34    35    36    85	 9 ;      CG321      CG321      CG331       HGA3
   34    35    36    86	 9 ;      CG321      CG321      CG331       HGA3
   82    35    36    84	 9 ;       HGA2      CG321      CG331       HGA3
   82    35    36    85	 9 ;       HGA2      CG321      CG331       HGA3
   82    35    36    86	 9 ;       HGA2      CG321      CG331       HGA3
   83    35    36    84	 9 ;       HGA2      CG321      CG331       HGA3
   83    35    36    85	 9 ;       HGA2      CG321      CG331       HGA3
   83    35    36    86	 9 ;       HGA2      CG321      CG331       HGA3
   40    37    38    39	 9 ;      CG324      CG311      OG311       HGP1
    1    37    38    39	 9 ;      CG311      CG311      OG311       HGP1
   87    37    38    39	 9 ;       HGA1      CG311      OG311       HGP1
   38    37    40    41	 9 ;      OG311      CG311      CG324      NG3P2
   38    37    40    88	 9 ;      OG311      CG311      CG324       HGA2
   38    37    40    89	 9 ;      OG311      CG311      CG324       HGA2
    1    37    40    41	 9 ;      CG311      CG311      CG324      NG3P2
    1    37    40    88	 9 ;      CG311      CG311      CG324       HGA2
    1    37    40    89	 9 ;      CG311      CG311      CG324       HGA2
   87    37    40    41	 9 ;       HGA1      CG311      CG324      NG3P2
   87    37    40    88	 9 ;       HGA1      CG311      CG324       HGA2
   87    37    40    89	 9 ;       HGA1      CG311      CG324       HGA2
   37    40    41    42	 9 ;      CG311      CG324      NG3P2       HGP2
   37    40    41    43	 9 ;      CG311      CG324      NG3P2       HGP2
   37    40    41    44	 9 ;      CG311      CG324      NG3P2      CG324
   88    40    41    42	 9 ;       HGA2      CG324      NG3P2       HGP2
   88    40    41    43	 9 ;       HGA2      CG324      NG3P2       HGP2
   88    40    41    44	 9 ;       HGA2      CG324      NG3P2      CG324
   89    40    41    42	 9 ;       HGA2      CG324      NG3P2       HGP2
   89    40    41    43	 9 ;       HGA2      CG324      NG3P2       HGP2
   89    40    41    44	 9 ;       HGA2      CG324      NG3P2      CG324
   42    41    44    45	 9 ;       HGP2      NG3P2      CG324     CG2R61
   42    41    44    90	 9 ;       HGP2      NG3P2      CG324       HGA2
   42    41    44    91	 9 ;       HGP2      NG3P2      CG324       HGA2
   40    41    44    45	 9 ;      CG324      NG3P2      CG324     CG2R61
   40    41    44    90	 9 ;      CG324      NG3P2      CG324       HGA2
   40    41    44    91	 9 ;      CG324      NG3P2      CG324       HGA2
   43    41    44    45	 9 ;       HGP2      NG3P2      CG324     CG2R61
   43    41    44    90	 9 ;       HGP2      NG3P2      CG324       HGA2
   43    41    44    91	 9 ;       HGP2      NG3P2      CG324       HGA2
   41    44    45    50	 9 ;      NG3P2      CG324     CG2R61     CG2R61
   41    44    45    46	 9 ;      NG3P2      CG324     CG2R61     CG2R61
   90    44    45    50	 9 ;       HGA2      CG324     CG2R61     CG2R61
   90    44    45    46	 9 ;       HGA2      CG324     CG2R61     CG2R61
   91    44    45    50	 9 ;       HGA2      CG324     CG2R61     CG2R61
   91    44    45    46	 9 ;       HGA2      CG324     CG2R61     CG2R61
   44    45    50    49	 9 ;      CG324     CG2R61     CG2R61     CG2R61
   44    45    50    95	 9 ;      CG324     CG2R61     CG2R61      HGR61
   46    45    50    49	 9 ;     CG2R61     CG2R61     CG2R61     CG2R61
   46    45    50    95	 9 ;     CG2R61     CG2R61     CG2R61      HGR61
   44    45    46    47	 9 ;      CG324     CG2R61     CG2R61     CG2R61
   44    45    46    92	 9 ;      CG324     CG2R61     CG2R61      HGR61
   50    45    46    47	 9 ;     CG2R61     CG2R61     CG2R61     CG2R61
   50    45    46    92	 9 ;     CG2R61     CG2R61     CG2R61      HGR61
   45    46    47    48	 9 ;     CG2R61     CG2R61     CG2R61     CG2R61
   45    46    47    51	 9 ;     CG2R61     CG2R61     CG2R61      OG301
   92    46    47    48	 9 ;      HGR61     CG2R61     CG2R61     CG2R61
   92    46    47    51	 9 ;      HGR61     CG2R61     CG2R61      OG301
   46    47    48    49	 9 ;     CG2R61     CG2R61     CG2R61     CG2R61
   46    47    48    93	 9 ;     CG2R61     CG2R61     CG2R61      HGR61
   51    47    48    49	 9 ;      OG301     CG2R61     CG2R61     CG2R61
   51    47    48    93	 9 ;      OG301     CG2R61     CG2R61      HGR61
   46    47    51    52	 9 ;     CG2R61     CG2R61      OG301      CG331
   48    47    51    52	 9 ;     CG2R61     CG2R61      OG301      CG331
   47    48    49    50	 9 ;     CG2R61     CG2R61     CG2R61     CG2R61
   47    48    49    94	 9 ;     CG2R61     CG2R61     CG2R61      HGR61
   93    48    49    50	 9 ;      HGR61     CG2R61     CG2R61     CG2R61
   93    48    49    94	 9 ;      HGR61     CG2R61     CG2R61      HGR61
   48    49    50    45	 9 ;     CG2R61     CG2R61     CG2R61     CG2R61
   48    49    50    95	 9 ;     CG2R61     CG2R61     CG2R61      HGR61
   94    49    50    45	 9 ;      HGR61     CG2R61     CG2R61     CG2R61
   94    49    50    95	 9 ;      HGR61     CG2R61     CG2R61      HGR61
   47    51    52    96	 9 ;     CG2R61      OG301      CG331       HGA3
   47    51    52    97	 9 ;     CG2R61      OG301      CG331       HGA3
   47    51    52    98	 9 ;     CG2R61      OG301      CG331       HGA3

[ dihedrals ]
;	ai	  aj	ak	  al funct			  c0			c1			  c2			c3
   12    15    11    13	 2
   28    19    30    29	 2

