Getting the Right Output Means no Artefacts in Calculating Stuff
   98
    1LIG     C1    1  -1.316   0.351  -1.588
    1LIG     C2    2  -1.247   0.319  -1.450
    1LIG     C3    3  -1.183   0.180  -1.452
    1LIG     C4    4  -1.250   0.073  -1.513
    1LIG     C5    5  -1.207  -0.058  -1.490
    1LIG     F1    6  -1.279  -0.159  -1.542
    1LIG     C6    7  -1.097  -0.085  -1.411
    1LIG     C7    8  -1.026   0.021  -1.358
    1LIG     C8    9  -1.066   0.153  -1.379
    1LIG     F2   10  -0.920  -0.003  -1.280
    1LIG     N1   11  -1.463   0.385  -1.572
    1LIG     C9   12  -1.566   0.313  -1.628
    1LIG     O1   13  -1.538   0.204  -1.685
    1LIG     H1   14  -1.484   0.482  -1.552
    1LIG    C10   15  -1.712   0.358  -1.616
    1LIG    C11   16  -1.729   0.501  -1.608
    1LIG    C12   17  -1.852   0.564  -1.614
    1LIG    C13   18  -1.964   0.474  -1.623
    1LIG    C14   19  -1.957   0.328  -1.620
    1LIG    C15   20  -1.827   0.272  -1.617
    1LIG    C16   21  -1.875   0.720  -1.619
    1LIG    C17   22  -1.773   0.834  -1.666
    1LIG     O2   23  -1.819   0.968  -1.634
    1LIG    C18   24  -1.728   1.053  -1.569
    1LIG    C19   25  -1.636   0.836  -1.587
    1LIG     O3   26  -1.517   0.813  -1.663
    1LIG    C20   27  -1.414   0.754  -1.582
    1LIG    C21   28  -2.093   0.255  -1.599
    1LIG     O4   29  -2.162   0.254  -1.702
    1LIG     N2   30  -2.158   0.204  -1.479
    1LIG    C22   31  -2.102   0.127  -1.365
    1LIG    C23   32  -2.169  -0.011  -1.324
    1LIG    C24   33  -2.164  -0.057  -1.178
    1LIG    C25   34  -2.304   0.230  -1.474
    1LIG    C26   35  -2.344   0.328  -1.363
    1LIG    C27   36  -2.258   0.454  -1.361
    1LIG    C28   37  -1.235   0.450  -1.684
    1LIG     O5   38  -1.099   0.465  -1.640
    1LIG     H2   39  -1.066   0.553  -1.667
    1LIG    C29   40  -1.228   0.393  -1.830
    1LIG     N3   41  -1.326   0.449  -1.933
    1LIG     H3   42  -1.268   0.484  -2.010
    1LIG     H4   43  -1.381   0.372  -1.973
    1LIG    C30   44  -1.420   0.566  -1.906
    1LIG    C31   45  -1.564   0.528  -1.941
    1LIG    C32   46  -1.661   0.630  -1.947
    1LIG    C33   47  -1.796   0.602  -1.971
    1LIG    C34   48  -1.838   0.470  -1.990
    1LIG    C35   49  -1.744   0.368  -1.991
    1LIG    C36   50  -1.607   0.397  -1.967
    1LIG     O6   51  -1.895   0.695  -1.978
    1LIG    C37   52  -2.028   0.650  -1.951
    1LIG     HC   53  -1.316   0.256  -1.641
    1LIG    HC2   54  -1.169   0.393  -1.431
    1LIG    HC3   55  -1.321   0.324  -1.370
    1LIG    HC1   56  -1.334   0.092  -1.578
    1LIG    HC4   57  -1.068  -0.187  -1.390
    1LIG    HC5   58  -1.007   0.235  -1.340
    1LIG    HC6   59  -1.640   0.562  -1.598
    1LIG    HC7   60  -2.062   0.518  -1.633
    1LIG    HC8   61  -1.814   0.164  -1.615
    1LIG    HC9   62  -1.962   0.734  -1.683
    1LIG   HC10   63  -1.908   0.749  -1.518
    1LIG   HC11   64  -1.755   0.826  -1.773
    1LIG   HC12   65  -1.771   1.153  -1.560
    1LIG   HC13   66  -1.707   1.014  -1.469
    1LIG   HC14   67  -1.635   1.058  -1.625
    1LIG   HC15   68  -1.626   0.933  -1.540
    1LIG   HC16   69  -1.641   0.760  -1.509
    1LIG   HC17   70  -1.325   0.737  -1.643
    1LIG   HC18   71  -1.390   0.821  -1.499
    1LIG   HC19   72  -1.449   0.658  -1.543
    1LIG   HC20   73  -1.998   0.106  -1.388
    1LIG   HC21   74  -2.104   0.192  -1.277
    1LIG   HC22   75  -2.120  -0.088  -1.383
    1LIG   HC23   76  -2.274  -0.007  -1.354
    1LIG   HC24   77  -2.215  -0.153  -1.168
    1LIG   HC25   78  -2.214   0.017  -1.115
    1LIG   HC26   79  -2.060  -0.067  -1.146
    1LIG   HC27   80  -2.336   0.271  -1.570
    1LIG   HC28   81  -2.356   0.135  -1.458
    1LIG   HC29   82  -2.448   0.357  -1.378
    1LIG   HC30   83  -2.335   0.278  -1.267
    1LIG   HC31   84  -2.291   0.519  -1.281
    1LIG   HC32   85  -2.268   0.506  -1.456
    1LIG   HC33   86  -2.154   0.426  -1.345
    1LIG   HC34   87  -1.284   0.548  -1.685
    1LIG   HC35   88  -1.128   0.411  -1.867
    1LIG   HC36   89  -1.244   0.285  -1.825
    1LIG   HC37   90  -1.414   0.594  -1.801
    1LIG   HC38   91  -1.390   0.651  -1.968
    1LIG   HC39   92  -1.631   0.732  -1.932
    1LIG   HC40   93  -1.942   0.448  -2.005
    1LIG   HC41   94  -1.775   0.266  -2.010
    1LIG   HC42   95  -1.535   0.317  -1.968
    1LIG   HC43   96  -2.094   0.735  -1.937
    1LIG   HC44   97  -2.063   0.590  -2.035
    1LIG   HC45   98  -2.028   0.589  -1.860
   0.00000   0.00000   0.00000
