GRoups of Organic Molecules in ACtion for Science
   50
    1LIG     C1    1  -1.227   0.291  -1.475
    1LIG     C2    2  -1.352   0.317  -1.535
    1LIG     C3    3  -1.391   0.446  -1.575
    1LIG     C4    4  -1.305   0.555  -1.545
    1LIG     C5    5  -1.350   0.700  -1.551
    1LIG     C6    6  -1.472   0.727  -1.641
    1LIG     C7    7  -1.573   0.610  -1.615
    1LIG     C8    8  -1.516   0.472  -1.658
    1LIG     N1    9  -1.474   0.486  -1.798
    1LIG    HN3   10  -1.400   0.548  -1.833
    1LIG     C9   11  -1.546   0.407  -1.868
    1LIG      O   12  -1.631   0.324  -1.805
    1LIG    C10   13  -1.627   0.364  -1.667
    1LIG    C11   14  -1.420   0.744  -1.786
    1LIG    C12   15  -1.542   0.860  -1.607
    1LIG    C13   16  -1.176   0.528  -1.497
    1LIG    C14   17  -1.138   0.398  -1.466
    1LIG    C15   18  -1.193   0.158  -1.419
    1LIG    C16   19  -1.087   0.081  -1.472
    1LIG    C17   20  -1.053  -0.040  -1.415
    1LIG      F   21  -0.952  -0.112  -1.466
    1LIG    C18   22  -1.123  -0.085  -1.304
    1LIG     N2   23  -1.225  -0.016  -1.249
    1LIG    C19   24  -1.258   0.102  -1.308
    1LIG    HN4   25  -1.275  -0.051  -1.167
    1LIG     N3   26  -1.549   0.409  -2.003
    1LIG     H1   27  -1.474   0.471  -2.031
    1LIG     H2   28  -1.629   0.466  -2.029
    1LIG     HC   29  -1.420   0.235  -1.551
    1LIG    HC2   30  -1.374   0.733  -1.450
    1LIG    HC3   31  -1.266   0.761  -1.587
    1LIG    HC4   32  -1.664   0.629  -1.673
    1LIG    HC5   33  -1.598   0.607  -1.509
    1LIG    HN2   34  -1.406   0.412  -1.785
    1LIG    HC1   35  -1.468   0.331  -1.868
    1LIG    HC6   36  -1.603   0.279  -1.604
    1LIG    HC7   37  -1.723   0.406  -1.638
    1LIG    HC8   38  -1.413   0.850  -1.809
    1LIG    HC9   39  -1.489   0.696  -1.855
    1LIG   HC10   40  -1.321   0.698  -1.795
    1LIG   HC11   41  -1.582   0.855  -1.506
    1LIG   HC12   42  -1.470   0.941  -1.615
    1LIG   HC13   43  -1.624   0.877  -1.678
    1LIG   HC14   44  -1.106   0.609  -1.484
    1LIG   HC15   45  -1.036   0.380  -1.435
    1LIG   HC16   46  -1.032   0.118  -1.558
    1LIG   HC17   47  -1.094  -0.179  -1.260
    1LIG   HC18   48  -1.340   0.158  -1.265
    1LIG    HN1   49  -1.546   0.317  -2.046
    1LIG    H26   50  -1.193  -0.137  -1.370
   0.00000   0.00000   0.00000
