Getting the Right Output Means no Artefacts in Calculating Stuff
   79
    1LIG     C1    1  -1.278   0.586  -1.898
    1LIG     C2    2  -1.348   0.450  -1.918
    1LIG     O1    3  -1.365   0.437  -2.060
    1LIG     H1    4  -1.383   0.342  -2.078
    1LIG     C3    5  -1.279   0.325  -1.851
    1LIG     N1    6  -1.174   0.269  -1.939
    1LIG     C4    7  -1.195   0.164  -2.026
    1LIG     O2    8  -1.306   0.114  -2.042
    1LIG     C5    9  -1.072   0.117  -2.100
    1LIG     H2   10  -1.082   0.310  -1.936
    1LIG     C6   11  -1.223   0.355  -1.709
    1LIG     C7   12  -1.224   0.247  -1.601
    1LIG     C8   13  -1.222   0.293  -1.468
    1LIG     C9   14  -1.243   0.207  -1.360
    1LIG    C10   15  -1.270   0.073  -1.384
    1LIG     F1   16  -1.298  -0.006  -1.280
    1LIG    C11   17  -1.271   0.022  -1.514
    1LIG    C12   18  -1.243   0.110  -1.622
    1LIG    C13   19  -1.315  -0.119  -1.539
    1LIG     F2   20  -1.308  -0.203  -1.432
    1LIG     F3   21  -1.446  -0.123  -1.579
    1LIG     F4   22  -1.245  -0.180  -1.639
    1LIG     N2   23  -1.383   0.682  -1.842
    1LIG     H3   24  -1.400   0.750  -1.918
    1LIG     H4   25  -1.471   0.633  -1.830
    1LIG    C14   26  -1.353   0.758  -1.713
    1LIG    C15   27  -1.355   0.907  -1.745
    1LIG    C16   28  -1.446   0.993  -1.655
    1LIG     O3   29  -1.461   0.938  -1.522
    1LIG    C17   30  -1.579   1.051  -1.713
    1LIG    C18   31  -1.394   1.140  -1.666
    1LIG    C19   32  -1.498   0.805  -1.516
    1LIG     N3   33  -1.588   0.769  -1.423
    1LIG    C20   34  -1.436   0.714  -1.599
    1LIG    C21   35  -1.614   0.637  -1.408
    1LIG     HN   36  -1.634   0.839  -1.365
    1LIG    C22   37  -1.547   0.536  -1.478
    1LIG    C23   38  -1.452   0.577  -1.571
    1LIG    C24   39  -1.493   1.158  -1.783
    1LIG    C25   40  -1.572   0.388  -1.458
    1LIG    C26   41  -1.664   0.317  -1.562
    1LIG    C27   42  -1.662   0.385  -1.700
    1LIG    C28   43  -1.613   0.173  -1.581
    1LIG    C29   44  -1.809   0.311  -1.512
    1LIG    HC2   45  -1.241   0.624  -1.993
    1LIG    HC3   46  -1.195   0.576  -1.828
    1LIG     HC   47  -1.448   0.458  -1.874
    1LIG    HC1   48  -1.356   0.249  -1.840
    1LIG    HC4   49  -1.280   0.439  -1.670
    1LIG    HC5   50  -1.120   0.388  -1.721
    1LIG    HC6   51  -1.204   0.398  -1.448
    1LIG    HC7   52  -1.240   0.244  -1.259
    1LIG    HC8   53  -1.237   0.070  -1.723
    1LIG    HC9   54  -1.250   0.734  -1.687
    1LIG   HC10   55  -1.253   0.945  -1.736
    1LIG   HC11   56  -1.388   0.919  -1.849
    1LIG   HC12   57  -1.648   1.091  -1.638
    1LIG   HC13   58  -1.628   0.984  -1.783
    1LIG   HC14   59  -1.414   1.203  -1.579
    1LIG   HC15   60  -1.290   1.146  -1.699
    1LIG   HC16   61  -1.691   0.607  -1.339
    1LIG   HC17   62  -1.391   0.504  -1.621
    1LIG   HC18   63  -1.455   1.129  -1.881
    1LIG   HC19   64  -1.541   1.257  -1.784
    1LIG   HC20   65  -1.475   0.338  -1.460
    1LIG   HC21   66  -1.615   0.374  -1.359
    1LIG   HC22   67  -1.847   0.412  -1.498
    1LIG   HC23   68  -1.813   0.257  -1.417
    1LIG   HC24   69  -1.871   0.259  -1.585
    1LIG   HC25   70  -1.099   0.035  -2.166
    1LIG   HC26   71  -0.997   0.083  -2.029
    1LIG   HC27   72  -1.031   0.200  -2.159
    1LIG   HC28   73  -1.613   0.121  -1.485
    1LIG   HC29   74  -1.511   0.176  -1.621
    1LIG   HC30   75  -1.678   0.120  -1.651
    1LIG   HC31   76  -1.731   0.334  -1.767
    1LIG   HC32   77  -1.561   0.381  -1.741
    1LIG   HC33   78  -1.692   0.489  -1.690
    1LIG    H40   79  -1.577   0.821  -1.589
   0.00000   0.00000   0.00000
