; Created by cgenff_charmm2gmx.py

[ moleculetype ]
; Name			   nrexcl
LIG				 3

[ atoms ]
;	 nr		  type	resnr residue  atom   cgnr	   charge		mass  typeB    chargeB		massB
; residue	 1 LIG rtp LIG q	qsum
     1      CG324      1    LIG     C1      1      0.191     12.011   ;
     2      CG311      1    LIG     C2      2      0.089     12.011   ;
     3      OG311      1    LIG     O1      3     -0.625     15.999   ;
     4       HGP1      1    LIG     H1      4      0.415      1.008   ;
     5      CG311      1    LIG     C3      5     -0.007     12.011   ;
     6      NG2S1      1    LIG     N1      6     -0.339     14.007   ;
     7      CG2O1      1    LIG     C4      7      0.488     12.011   ;
     8      OG2D1      1    LIG     O2      8     -0.509     15.999   ;
     9      CG331      1    LIG     C5      9     -0.270     12.011   ;
    10       HGP1      1    LIG     H2     10      0.261      1.008   ;
    11      CG321      1    LIG     C6     11     -0.111     12.011   ;
    12     CG2R61      1    LIG     C7     12      0.029     12.011   ;
    13     CG2R61      1    LIG     C8     13     -0.158     12.011   ;
    14     CG2R61      1    LIG     C9     14     -0.052     12.011   ;
    15     CG2R66      1    LIG    C10     15     -0.039     12.011   ;
    16       FGR1      1    LIG     F1     16     -0.137     18.998   ;
    17     CG2R61      1    LIG    C11     17     -0.085     12.011   ;
    18     CG2R61      1    LIG    C12     18     -0.074     12.011   ;
    19      CG302      1    LIG    C13     19      0.608     12.011   ;
    20       FGA3      1    LIG     F2     20     -0.176     18.998   ;
    21       FGA3      1    LIG     F3     21     -0.176     18.998   ;
    22       FGA3      1    LIG     F4     22     -0.176     18.998   ;
    23      NG3P2      1    LIG     N2     23     -0.445     14.007   ;
    24       HGP2      1    LIG     H3     24      0.339      1.008   ;
    25       HGP2      1    LIG     H4     25      0.339      1.008   ;
    26      CG314      1    LIG    C14     26      0.361     12.011   ;
    27      CG321      1    LIG    C15     27     -0.254     12.011   ;
    28     CG3C41      1    LIG    C16     28      0.278     12.011   ;
    29     OG3C61      1    LIG     O3     29     -0.389     15.999   ;
    30     CG3C41      1    LIG    C17     30     -0.203     12.011   ;
    31     CG3C41      1    LIG    C18     31     -0.203     12.011   ;
    32      CG311      1    LIG    C19     32      0.450     12.011   ;
    33      NG311      1    LIG     N3     33     -0.567     14.007   ;
    34     CG2DC1      1    LIG    C20     34     -0.330     12.011   ;
    35     CG2D2O      1    LIG    C21     35     -0.109     12.011   ;
    36     HGPAM1      1    LIG     HN     36      0.368      1.008   ;
    37     CG2DC2      1    LIG    C22     37      0.091     12.011   ;
    38     CG2DC1      1    LIG    C23     38     -0.108     12.011   ;
    39     CG3C41      1    LIG    C24     39     -0.168     12.011   ;
    40      CG321      1    LIG    C25     40     -0.131     12.011   ;
    41      CG301      1    LIG    C26     41     -0.287     12.011   ;
    42      CG331      1    LIG    C27     42     -0.197     12.011   ;
    43      CG331      1    LIG    C28     43     -0.197     12.011   ;
    44      CG331      1    LIG    C29     44     -0.197     12.011   ;
    45       HGA2      1    LIG    HC2     45      0.090      1.008   ;
    46       HGA2      1    LIG    HC3     46      0.090      1.008   ;
    47       HGA1      1    LIG     HC     47      0.090      1.008   ;
    48       HGA1      1    LIG    HC1     48      0.090      1.008   ;
    49       HGA2      1    LIG    HC4     49      0.090      1.008   ;
    50       HGA2      1    LIG    HC5     50      0.090      1.008   ;
    51      HGR61      1    LIG    HC6     51      0.116      1.008   ;
    52      HGR62      1    LIG    HC7     52      0.179      1.008   ;
    53      HGR61      1    LIG    HC8     53      0.116      1.008   ;
    54       HGA1      1    LIG    HC9     54      0.090      1.008   ;
    55       HGA2      1    LIG   HC10     55      0.090      1.008   ;
    56       HGA2      1    LIG   HC11     56      0.090      1.008   ;
    57       HGA2      1    LIG   HC12     57      0.090      1.008   ;
    58       HGA2      1    LIG   HC13     58      0.090      1.008   ;
    59       HGA2      1    LIG   HC14     59      0.090      1.008   ;
    60       HGA2      1    LIG   HC15     60      0.090      1.008   ;
    61       HGA4      1    LIG   HC16     61      0.158      1.008   ;
    62       HGA4      1    LIG   HC17     62      0.143      1.008   ;
    63       HGA2      1    LIG   HC18     63      0.090      1.008   ;
    64       HGA2      1    LIG   HC19     64      0.090      1.008   ;
    65       HGA2      1    LIG   HC20     65      0.090      1.008   ;
    66       HGA2      1    LIG   HC21     66      0.090      1.008   ;
    67       HGA3      1    LIG   HC22     67      0.090      1.008   ;
    68       HGA3      1    LIG   HC23     68      0.090      1.008   ;
    69       HGA3      1    LIG   HC24     69      0.090      1.008   ;
    70       HGA3      1    LIG   HC25     70      0.090      1.008   ;
    71       HGA3      1    LIG   HC26     71      0.090      1.008   ;
    72       HGA3      1    LIG   HC27     72      0.090      1.008   ;
    73       HGA3      1    LIG   HC28     73      0.090      1.008   ;
    74       HGA3      1    LIG   HC29     74      0.090      1.008   ;
    75       HGA3      1    LIG   HC30     75      0.090      1.008   ;
    76       HGA3      1    LIG   HC31     76      0.090      1.008   ;
    77       HGA3      1    LIG   HC32     77      0.090      1.008   ;
    78       HGA3      1    LIG   HC33     78      0.090      1.008   ;
    79       HGA1      1    LIG    H40     79      0.090      1.008   ;

[ bonds ]
;	ai	  aj funct			  c0			c1			  c2			c3
    1     2	 1 ;       CG324      CG311
    1    23	 1 ;       CG324      NG3P2
    1    45	 1 ;       CG324       HGA2
    1    46	 1 ;       CG324       HGA2
    2     3	 1 ;       CG311      OG311
    2     5	 1 ;       CG311      CG311
    2    47	 1 ;       CG311       HGA1
    3     4	 1 ;       OG311       HGP1
    5     6	 1 ;       CG311      NG2S1
    5    11	 1 ;       CG311      CG321
    5    48	 1 ;       CG311       HGA1
    6     7	 1 ;       NG2S1      CG2O1
    6    10	 1 ;       NG2S1       HGP1
    7     9	 1 ;       CG2O1      CG331
    7     8	 1 ;       CG2O1      OG2D1
    9    70	 1 ;       CG331       HGA3
    9    71	 1 ;       CG331       HGA3
    9    72	 1 ;       CG331       HGA3
   11    12	 1 ;       CG321     CG2R61
   11    49	 1 ;       CG321       HGA2
   11    50	 1 ;       CG321       HGA2
   12    18	 1 ;      CG2R61     CG2R61
   12    13	 1 ;      CG2R61     CG2R61
   13    14	 1 ;      CG2R61     CG2R61
   13    51	 1 ;      CG2R61      HGR61
   14    15	 1 ;      CG2R61     CG2R66
   14    52	 1 ;      CG2R61      HGR62
   15    17	 1 ;      CG2R66     CG2R61
   15    16	 1 ;      CG2R66       FGR1
   17    18	 1 ;      CG2R61     CG2R61
   17    19	 1 ;      CG2R61      CG302
   18    53	 1 ;      CG2R61      HGR61
   19    22	 1 ;       CG302       FGA3
   19    21	 1 ;       CG302       FGA3
   19    20	 1 ;       CG302       FGA3
   23    24	 1 ;       NG3P2       HGP2
   23    25	 1 ;       NG3P2       HGP2
   23    26	 1 ;       NG3P2      CG314
   26    27	 1 ;       CG314      CG321
   26    34	 1 ;       CG314     CG2DC1
   26    54	 1 ;       CG314       HGA1
   27    28	 1 ;       CG321     CG3C41
   27    55	 1 ;       CG321       HGA2
   27    56	 1 ;       CG321       HGA2
   28    31	 1 ;      CG3C41     CG3C41
   28    30	 1 ;      CG3C41     CG3C41
   28    29	 1 ;      CG3C41     OG3C61
   29    32	 1 ;      OG3C61      CG311
   30    39	 1 ;      CG3C41     CG3C41
   30    57	 1 ;      CG3C41       HGA2
   30    58	 1 ;      CG3C41       HGA2
   31    39	 1 ;      CG3C41     CG3C41
   31    59	 1 ;      CG3C41       HGA2
   31    60	 1 ;      CG3C41       HGA2
   32    34	 1 ;       CG311     CG2DC1
   32    33	 1 ;       CG311      NG311
   32    79	 1 ;       CG311       HGA1
   33    35	 1 ;       NG311     CG2D2O
   33    36	 1 ;       NG311     HGPAM1
   34    38	 1 ;      CG2DC1     CG2DC1
   35    37	 1 ;      CG2D2O     CG2DC2
   35    61	 1 ;      CG2D2O       HGA4
   37    38	 1 ;      CG2DC2     CG2DC1
   37    40	 1 ;      CG2DC2      CG321
   38    62	 1 ;      CG2DC1       HGA4
   39    63	 1 ;      CG3C41       HGA2
   39    64	 1 ;      CG3C41       HGA2
   40    41	 1 ;       CG321      CG301
   40    65	 1 ;       CG321       HGA2
   40    66	 1 ;       CG321       HGA2
   41    42	 1 ;       CG301      CG331
   41    43	 1 ;       CG301      CG331
   41    44	 1 ;       CG301      CG331
   42    76	 1 ;       CG331       HGA3
   42    77	 1 ;       CG331       HGA3
   42    78	 1 ;       CG331       HGA3
   43    73	 1 ;       CG331       HGA3
   43    74	 1 ;       CG331       HGA3
   43    75	 1 ;       CG331       HGA3
   44    67	 1 ;       CG331       HGA3
   44    68	 1 ;       CG331       HGA3
   44    69	 1 ;       CG331       HGA3

[ pairs ]
;	ai	  aj funct			  c0			c1			  c2			c3
    1     4	 1
    1     6	 1
    1    11	 1
    1    48	 1
    1    27	 1
    1    34	 1
    1    54	 1
    2    24	 1
    2    25	 1
    2    26	 1
    2     7	 1
    2    10	 1
    2    12	 1
    2    49	 1
    2    50	 1
    3    23	 1
    3    45	 1
    3    46	 1
    3     6	 1
    3    11	 1
    3    48	 1
    4     5	 1
    4    47	 1
    5    23	 1
    5    45	 1
    5    46	 1
    5     9	 1
    5     8	 1
    5    18	 1
    5    13	 1
    6    47	 1
    6    12	 1
    6    49	 1
    6    50	 1
    6    70	 1
    6    71	 1
    6    72	 1
    7    11	 1
    7    48	 1
    8    10	 1
    8    70	 1
    8    71	 1
    8    72	 1
    9    10	 1
   10    11	 1
   10    48	 1
   11    47	 1
   11    17	 1
   11    53	 1
   11    14	 1
   11    51	 1
   12    48	 1
   12    15	 1
   12    52	 1
   12    19	 1
   13    49	 1
   13    50	 1
   13    17	 1
   13    53	 1
   13    16	 1
   14    18	 1
   14    19	 1
   15    51	 1
   15    53	 1
   15    22	 1
   15    21	 1
   15    20	 1
   16    52	 1
   16    18	 1
   16    19	 1
   17    52	 1
   18    49	 1
   18    50	 1
   18    51	 1
   18    22	 1
   18    21	 1
   18    20	 1
   19    53	 1
   23    47	 1
   23    28	 1
   23    55	 1
   23    56	 1
   23    38	 1
   23    32	 1
   24    45	 1
   24    46	 1
   24    27	 1
   24    34	 1
   24    54	 1
   25    45	 1
   25    46	 1
   25    27	 1
   25    34	 1
   25    54	 1
   26    45	 1
   26    46	 1
   26    31	 1
   26    30	 1
   26    29	 1
   26    33	 1
   26    79	 1
   26    37	 1
   26    62	 1
   27    38	 1
   27    32	 1
   27    39	 1
   27    59	 1
   27    60	 1
   27    57	 1
   27    58	 1
   28    34	 1
   28    54	 1
   28    33	 1
   28    79	 1
   28    63	 1
   28    64	 1
   29    55	 1
   29    56	 1
   29    39	 1
   29    59	 1
   29    60	 1
   29    57	 1
   29    58	 1
   29    38	 1
   29    35	 1
   29    36	 1
   30    55	 1
   30    56	 1
   30    59	 1
   30    60	 1
   30    32	 1
   31    55	 1
   31    56	 1
   31    57	 1
   31    58	 1
   31    32	 1
   32    54	 1
   32    37	 1
   32    61	 1
   32    62	 1
   33    38	 1
   33    40	 1
   34    55	 1
   34    56	 1
   34    35	 1
   34    36	 1
   34    40	 1
   35    79	 1
   35    62	 1
   35    41	 1
   35    65	 1
   35    66	 1
   36    79	 1
   36    37	 1
   36    61	 1
   37    42	 1
   37    43	 1
   37    44	 1
   38    54	 1
   38    79	 1
   38    61	 1
   38    41	 1
   38    65	 1
   38    66	 1
   40    61	 1
   40    62	 1
   40    76	 1
   40    77	 1
   40    78	 1
   40    73	 1
   40    74	 1
   40    75	 1
   40    67	 1
   40    68	 1
   40    69	 1
   42    65	 1
   42    66	 1
   42    73	 1
   42    74	 1
   42    75	 1
   42    67	 1
   42    68	 1
   42    69	 1
   43    65	 1
   43    66	 1
   43    76	 1
   43    77	 1
   43    78	 1
   43    67	 1
   43    68	 1
   43    69	 1
   44    65	 1
   44    66	 1
   44    76	 1
   44    77	 1
   44    78	 1
   44    73	 1
   44    74	 1
   44    75	 1
   45    47	 1
   46    47	 1
   47    48	 1
   48    49	 1
   48    50	 1
   51    52	 1
   54    55	 1
   54    56	 1
   57    63	 1
   57    64	 1
   58    63	 1
   58    64	 1
   59    63	 1
   59    64	 1
   60    63	 1
   60    64	 1

[ angles ]
;	ai	  aj	ak funct			c0			  c1			c2			  c3
    2     1    23	5 ;      CG311      CG324      NG3P2
    2     1    45	5 ;      CG311      CG324       HGA2
    2     1    46	5 ;      CG311      CG324       HGA2
   23     1    45	5 ;      NG3P2      CG324       HGA2
   23     1    46	5 ;      NG3P2      CG324       HGA2
   45     1    46	5 ;       HGA2      CG324       HGA2
    3     2     1	5 ;      OG311      CG311      CG324
    3     2     5	5 ;      OG311      CG311      CG311
    3     2    47	5 ;      OG311      CG311       HGA1
    1     2     5	5 ;      CG324      CG311      CG311
    1     2    47	5 ;      CG324      CG311       HGA1
    5     2    47	5 ;      CG311      CG311       HGA1
    4     3     2	5 ;       HGP1      OG311      CG311
    6     5     2	5 ;      NG2S1      CG311      CG311
    6     5    11	5 ;      NG2S1      CG311      CG321
    6     5    48	5 ;      NG2S1      CG311       HGA1
    2     5    11	5 ;      CG311      CG311      CG321
    2     5    48	5 ;      CG311      CG311       HGA1
   11     5    48	5 ;      CG321      CG311       HGA1
    7     6    10	5 ;      CG2O1      NG2S1       HGP1
    7     6     5	5 ;      CG2O1      NG2S1      CG311
   10     6     5	5 ;       HGP1      NG2S1      CG311
    9     7     8	5 ;      CG331      CG2O1      OG2D1
    9     7     6	5 ;      CG331      CG2O1      NG2S1
    8     7     6	5 ;      OG2D1      CG2O1      NG2S1
    7     9    70	5 ;      CG2O1      CG331       HGA3
    7     9    71	5 ;      CG2O1      CG331       HGA3
    7     9    72	5 ;      CG2O1      CG331       HGA3
   70     9    71	5 ;       HGA3      CG331       HGA3
   70     9    72	5 ;       HGA3      CG331       HGA3
   71     9    72	5 ;       HGA3      CG331       HGA3
    5    11    12	5 ;      CG311      CG321     CG2R61
    5    11    49	5 ;      CG311      CG321       HGA2
    5    11    50	5 ;      CG311      CG321       HGA2
   12    11    49	5 ;     CG2R61      CG321       HGA2
   12    11    50	5 ;     CG2R61      CG321       HGA2
   49    11    50	5 ;       HGA2      CG321       HGA2
   11    12    18	5 ;      CG321     CG2R61     CG2R61
   11    12    13	5 ;      CG321     CG2R61     CG2R61
   18    12    13	5 ;     CG2R61     CG2R61     CG2R61
   12    13    14	5 ;     CG2R61     CG2R61     CG2R61
   12    13    51	5 ;     CG2R61     CG2R61      HGR61
   14    13    51	5 ;     CG2R61     CG2R61      HGR61
   13    14    15	5 ;     CG2R61     CG2R61     CG2R66
   13    14    52	5 ;     CG2R61     CG2R61      HGR62
   15    14    52	5 ;     CG2R66     CG2R61      HGR62
   17    15    14	5 ;     CG2R61     CG2R66     CG2R61
   17    15    16	5 ;     CG2R61     CG2R66       FGR1
   14    15    16	5 ;     CG2R61     CG2R66       FGR1
   18    17    19	5 ;     CG2R61     CG2R61      CG302
   18    17    15	5 ;     CG2R61     CG2R61     CG2R66
   19    17    15	5 ;      CG302     CG2R61     CG2R66
   12    18    17	5 ;     CG2R61     CG2R61     CG2R61
   12    18    53	5 ;     CG2R61     CG2R61      HGR61
   17    18    53	5 ;     CG2R61     CG2R61      HGR61
   22    19    17	5 ;       FGA3      CG302     CG2R61
   22    19    21	5 ;       FGA3      CG302       FGA3
   22    19    20	5 ;       FGA3      CG302       FGA3
   17    19    21	5 ;     CG2R61      CG302       FGA3
   17    19    20	5 ;     CG2R61      CG302       FGA3
   21    19    20	5 ;       FGA3      CG302       FGA3
    1    23    24	5 ;      CG324      NG3P2       HGP2
    1    23    25	5 ;      CG324      NG3P2       HGP2
    1    23    26	5 ;      CG324      NG3P2      CG314
   24    23    25	5 ;       HGP2      NG3P2       HGP2
   24    23    26	5 ;       HGP2      NG3P2      CG314
   25    23    26	5 ;       HGP2      NG3P2      CG314
   23    26    27	5 ;      NG3P2      CG314      CG321
   23    26    34	5 ;      NG3P2      CG314     CG2DC1
   23    26    54	5 ;      NG3P2      CG314       HGA1
   27    26    34	5 ;      CG321      CG314     CG2DC1
   27    26    54	5 ;      CG321      CG314       HGA1
   34    26    54	5 ;     CG2DC1      CG314       HGA1
   26    27    28	5 ;      CG314      CG321     CG3C41
   26    27    55	5 ;      CG314      CG321       HGA2
   26    27    56	5 ;      CG314      CG321       HGA2
   28    27    55	5 ;     CG3C41      CG321       HGA2
   28    27    56	5 ;     CG3C41      CG321       HGA2
   55    27    56	5 ;       HGA2      CG321       HGA2
   27    28    31	5 ;      CG321     CG3C41     CG3C41
   27    28    30	5 ;      CG321     CG3C41     CG3C41
   27    28    29	5 ;      CG321     CG3C41     OG3C61
   31    28    30	5 ;     CG3C41     CG3C41     CG3C41
   31    28    29	5 ;     CG3C41     CG3C41     OG3C61
   30    28    29	5 ;     CG3C41     CG3C41     OG3C61
   28    29    32	5 ;     CG3C41     OG3C61      CG311
   39    30    28	5 ;     CG3C41     CG3C41     CG3C41
   39    30    57	5 ;     CG3C41     CG3C41       HGA2
   39    30    58	5 ;     CG3C41     CG3C41       HGA2
   28    30    57	5 ;     CG3C41     CG3C41       HGA2
   28    30    58	5 ;     CG3C41     CG3C41       HGA2
   57    30    58	5 ;       HGA2     CG3C41       HGA2
   39    31    28	5 ;     CG3C41     CG3C41     CG3C41
   39    31    59	5 ;     CG3C41     CG3C41       HGA2
   39    31    60	5 ;     CG3C41     CG3C41       HGA2
   28    31    59	5 ;     CG3C41     CG3C41       HGA2
   28    31    60	5 ;     CG3C41     CG3C41       HGA2
   59    31    60	5 ;       HGA2     CG3C41       HGA2
   34    32    29	5 ;     CG2DC1      CG311     OG3C61
   34    32    33	5 ;     CG2DC1      CG311      NG311
   34    32    79	5 ;     CG2DC1      CG311       HGA1
   29    32    33	5 ;     OG3C61      CG311      NG311
   29    32    79	5 ;     OG3C61      CG311       HGA1
   33    32    79	5 ;      NG311      CG311       HGA1
   32    33    35	5 ;      CG311      NG311     CG2D2O
   32    33    36	5 ;      CG311      NG311     HGPAM1
   35    33    36	5 ;     CG2D2O      NG311     HGPAM1
   26    34    38	5 ;      CG314     CG2DC1     CG2DC1
   26    34    32	5 ;      CG314     CG2DC1      CG311
   38    34    32	5 ;     CG2DC1     CG2DC1      CG311
   37    35    33	5 ;     CG2DC2     CG2D2O      NG311
   37    35    61	5 ;     CG2DC2     CG2D2O       HGA4
   33    35    61	5 ;      NG311     CG2D2O       HGA4
   38    37    40	5 ;     CG2DC1     CG2DC2      CG321
   38    37    35	5 ;     CG2DC1     CG2DC2     CG2D2O
   40    37    35	5 ;      CG321     CG2DC2     CG2D2O
   34    38    37	5 ;     CG2DC1     CG2DC1     CG2DC2
   34    38    62	5 ;     CG2DC1     CG2DC1       HGA4
   37    38    62	5 ;     CG2DC2     CG2DC1       HGA4
   31    39    30	5 ;     CG3C41     CG3C41     CG3C41
   31    39    63	5 ;     CG3C41     CG3C41       HGA2
   31    39    64	5 ;     CG3C41     CG3C41       HGA2
   30    39    63	5 ;     CG3C41     CG3C41       HGA2
   30    39    64	5 ;     CG3C41     CG3C41       HGA2
   63    39    64	5 ;       HGA2     CG3C41       HGA2
   41    40    37	5 ;      CG301      CG321     CG2DC2
   41    40    65	5 ;      CG301      CG321       HGA2
   41    40    66	5 ;      CG301      CG321       HGA2
   37    40    65	5 ;     CG2DC2      CG321       HGA2
   37    40    66	5 ;     CG2DC2      CG321       HGA2
   65    40    66	5 ;       HGA2      CG321       HGA2
   42    41    43	5 ;      CG331      CG301      CG331
   42    41    40	5 ;      CG331      CG301      CG321
   42    41    44	5 ;      CG331      CG301      CG331
   43    41    40	5 ;      CG331      CG301      CG321
   43    41    44	5 ;      CG331      CG301      CG331
   40    41    44	5 ;      CG321      CG301      CG331
   41    42    76	5 ;      CG301      CG331       HGA3
   41    42    77	5 ;      CG301      CG331       HGA3
   41    42    78	5 ;      CG301      CG331       HGA3
   76    42    77	5 ;       HGA3      CG331       HGA3
   76    42    78	5 ;       HGA3      CG331       HGA3
   77    42    78	5 ;       HGA3      CG331       HGA3
   41    43    73	5 ;      CG301      CG331       HGA3
   41    43    74	5 ;      CG301      CG331       HGA3
   41    43    75	5 ;      CG301      CG331       HGA3
   73    43    74	5 ;       HGA3      CG331       HGA3
   73    43    75	5 ;       HGA3      CG331       HGA3
   74    43    75	5 ;       HGA3      CG331       HGA3
   41    44    67	5 ;      CG301      CG331       HGA3
   41    44    68	5 ;      CG301      CG331       HGA3
   41    44    69	5 ;      CG301      CG331       HGA3
   67    44    68	5 ;       HGA3      CG331       HGA3
   67    44    69	5 ;       HGA3      CG331       HGA3
   68    44    69	5 ;       HGA3      CG331       HGA3

[ dihedrals ]
;	ai	  aj	ak	  al funct			  c0			c1			  c2			c3			  c4			c5
   23     1     2     3	 9 ;      NG3P2      CG324      CG311      OG311
   23     1     2     5	 9 ;      NG3P2      CG324      CG311      CG311
   23     1     2    47	 9 ;      NG3P2      CG324      CG311       HGA1
   45     1     2     3	 9 ;       HGA2      CG324      CG311      OG311
   45     1     2     5	 9 ;       HGA2      CG324      CG311      CG311
   45     1     2    47	 9 ;       HGA2      CG324      CG311       HGA1
   46     1     2     3	 9 ;       HGA2      CG324      CG311      OG311
   46     1     2     5	 9 ;       HGA2      CG324      CG311      CG311
   46     1     2    47	 9 ;       HGA2      CG324      CG311       HGA1
    2     1    23    24	 9 ;      CG311      CG324      NG3P2       HGP2
    2     1    23    25	 9 ;      CG311      CG324      NG3P2       HGP2
    2     1    23    26	 9 ;      CG311      CG324      NG3P2      CG314
   45     1    23    24	 9 ;       HGA2      CG324      NG3P2       HGP2
   45     1    23    25	 9 ;       HGA2      CG324      NG3P2       HGP2
   45     1    23    26	 9 ;       HGA2      CG324      NG3P2      CG314
   46     1    23    24	 9 ;       HGA2      CG324      NG3P2       HGP2
   46     1    23    25	 9 ;       HGA2      CG324      NG3P2       HGP2
   46     1    23    26	 9 ;       HGA2      CG324      NG3P2      CG314
    1     2     3     4	 9 ;      CG324      CG311      OG311       HGP1
    5     2     3     4	 9 ;      CG311      CG311      OG311       HGP1
   47     2     3     4	 9 ;       HGA1      CG311      OG311       HGP1
    3     2     5     6	 9 ;      OG311      CG311      CG311      NG2S1
    3     2     5    11	 9 ;      OG311      CG311      CG311      CG321
    3     2     5    48	 9 ;      OG311      CG311      CG311       HGA1
    1     2     5     6	 9 ;      CG324      CG311      CG311      NG2S1
    1     2     5    11	 9 ;      CG324      CG311      CG311      CG321
    1     2     5    48	 9 ;      CG324      CG311      CG311       HGA1
   47     2     5     6	 9 ;       HGA1      CG311      CG311      NG2S1
   47     2     5    11	 9 ;       HGA1      CG311      CG311      CG321
   47     2     5    48	 9 ;       HGA1      CG311      CG311       HGA1
    2     5     6     7	 9 ;      CG311      CG311      NG2S1      CG2O1
    2     5     6    10	 9 ;      CG311      CG311      NG2S1       HGP1
   11     5     6     7	 9 ;      CG321      CG311      NG2S1      CG2O1
   11     5     6    10	 9 ;      CG321      CG311      NG2S1       HGP1
   48     5     6     7	 9 ;       HGA1      CG311      NG2S1      CG2O1
   48     5     6    10	 9 ;       HGA1      CG311      NG2S1       HGP1
    6     5    11    12	 9 ;      NG2S1      CG311      CG321     CG2R61
    6     5    11    49	 9 ;      NG2S1      CG311      CG321       HGA2
    6     5    11    50	 9 ;      NG2S1      CG311      CG321       HGA2
    2     5    11    12	 9 ;      CG311      CG311      CG321     CG2R61
    2     5    11    49	 9 ;      CG311      CG311      CG321       HGA2
    2     5    11    50	 9 ;      CG311      CG311      CG321       HGA2
   48     5    11    12	 9 ;       HGA1      CG311      CG321     CG2R61
   48     5    11    49	 9 ;       HGA1      CG311      CG321       HGA2
   48     5    11    50	 9 ;       HGA1      CG311      CG321       HGA2
   10     6     7     9	 9 ;       HGP1      NG2S1      CG2O1      CG331
   10     6     7     8	 9 ;       HGP1      NG2S1      CG2O1      OG2D1
    5     6     7     9	 9 ;      CG311      NG2S1      CG2O1      CG331
    5     6     7     8	 9 ;      CG311      NG2S1      CG2O1      OG2D1
    8     7     9    70	 9 ;      OG2D1      CG2O1      CG331       HGA3
    8     7     9    71	 9 ;      OG2D1      CG2O1      CG331       HGA3
    8     7     9    72	 9 ;      OG2D1      CG2O1      CG331       HGA3
    6     7     9    70	 9 ;      NG2S1      CG2O1      CG331       HGA3
    6     7     9    71	 9 ;      NG2S1      CG2O1      CG331       HGA3
    6     7     9    72	 9 ;      NG2S1      CG2O1      CG331       HGA3
    5    11    12    18	 9 ;      CG311      CG321     CG2R61     CG2R61
    5    11    12    13	 9 ;      CG311      CG321     CG2R61     CG2R61
   49    11    12    18	 9 ;       HGA2      CG321     CG2R61     CG2R61
   49    11    12    13	 9 ;       HGA2      CG321     CG2R61     CG2R61
   50    11    12    18	 9 ;       HGA2      CG321     CG2R61     CG2R61
   50    11    12    13	 9 ;       HGA2      CG321     CG2R61     CG2R61
   11    12    18    17	 9 ;      CG321     CG2R61     CG2R61     CG2R61
   11    12    18    53	 9 ;      CG321     CG2R61     CG2R61      HGR61
   13    12    18    17	 9 ;     CG2R61     CG2R61     CG2R61     CG2R61
   13    12    18    53	 9 ;     CG2R61     CG2R61     CG2R61      HGR61
   11    12    13    14	 9 ;      CG321     CG2R61     CG2R61     CG2R61
   11    12    13    51	 9 ;      CG321     CG2R61     CG2R61      HGR61
   18    12    13    14	 9 ;     CG2R61     CG2R61     CG2R61     CG2R61
   18    12    13    51	 9 ;     CG2R61     CG2R61     CG2R61      HGR61
   12    13    14    15	 9 ;     CG2R61     CG2R61     CG2R61     CG2R66
   12    13    14    52	 9 ;     CG2R61     CG2R61     CG2R61      HGR62
   51    13    14    15	 9 ;      HGR61     CG2R61     CG2R61     CG2R66
   51    13    14    52	 9 ;      HGR61     CG2R61     CG2R61      HGR62
   13    14    15    17	 9 ;     CG2R61     CG2R61     CG2R66     CG2R61
   13    14    15    16	 9 ;     CG2R61     CG2R61     CG2R66       FGR1
   52    14    15    17	 9 ;      HGR62     CG2R61     CG2R66     CG2R61
   52    14    15    16	 9 ;      HGR62     CG2R61     CG2R66       FGR1
   14    15    17    18	 9 ;     CG2R61     CG2R66     CG2R61     CG2R61
   14    15    17    19	 9 ;     CG2R61     CG2R66     CG2R61      CG302
   16    15    17    18	 9 ;       FGR1     CG2R66     CG2R61     CG2R61
   16    15    17    19	 9 ;       FGR1     CG2R66     CG2R61      CG302
   19    17    18    12	 9 ;      CG302     CG2R61     CG2R61     CG2R61
   19    17    18    53	 9 ;      CG302     CG2R61     CG2R61      HGR61
   15    17    18    12	 9 ;     CG2R66     CG2R61     CG2R61     CG2R61
   15    17    18    53	 9 ;     CG2R66     CG2R61     CG2R61      HGR61
   18    17    19    22	 9 ;     CG2R61     CG2R61      CG302       FGA3
   18    17    19    21	 9 ;     CG2R61     CG2R61      CG302       FGA3
   18    17    19    20	 9 ;     CG2R61     CG2R61      CG302       FGA3
   15    17    19    22	 9 ;     CG2R66     CG2R61      CG302       FGA3
   15    17    19    21	 9 ;     CG2R66     CG2R61      CG302       FGA3
   15    17    19    20	 9 ;     CG2R66     CG2R61      CG302       FGA3
    1    23    26    27	 9 ;      CG324      NG3P2      CG314      CG321
    1    23    26    34	 9 ;      CG324      NG3P2      CG314     CG2DC1
    1    23    26    54	 9 ;      CG324      NG3P2      CG314       HGA1
   24    23    26    27	 9 ;       HGP2      NG3P2      CG314      CG321
   24    23    26    34	 9 ;       HGP2      NG3P2      CG314     CG2DC1
   24    23    26    54	 9 ;       HGP2      NG3P2      CG314       HGA1
   25    23    26    27	 9 ;       HGP2      NG3P2      CG314      CG321
   25    23    26    34	 9 ;       HGP2      NG3P2      CG314     CG2DC1
   25    23    26    54	 9 ;       HGP2      NG3P2      CG314       HGA1
   23    26    27    28	 9 ;      NG3P2      CG314      CG321     CG3C41
   23    26    27    55	 9 ;      NG3P2      CG314      CG321       HGA2
   23    26    27    56	 9 ;      NG3P2      CG314      CG321       HGA2
   34    26    27    28	 9 ;     CG2DC1      CG314      CG321     CG3C41
   34    26    27    55	 9 ;     CG2DC1      CG314      CG321       HGA2
   34    26    27    56	 9 ;     CG2DC1      CG314      CG321       HGA2
   54    26    27    28	 9 ;       HGA1      CG314      CG321     CG3C41
   54    26    27    55	 9 ;       HGA1      CG314      CG321       HGA2
   54    26    27    56	 9 ;       HGA1      CG314      CG321       HGA2
   23    26    34    38	 9 ;      NG3P2      CG314     CG2DC1     CG2DC1
   23    26    34    32	 9 ;      NG3P2      CG314     CG2DC1      CG311
   27    26    34    38	 9 ;      CG321      CG314     CG2DC1     CG2DC1
   27    26    34    32	 9 ;      CG321      CG314     CG2DC1      CG311
   54    26    34    38	 9 ;       HGA1      CG314     CG2DC1     CG2DC1
   54    26    34    32	 9 ;       HGA1      CG314     CG2DC1      CG311
   26    27    28    31	 9 ;      CG314      CG321     CG3C41     CG3C41
   26    27    28    30	 9 ;      CG314      CG321     CG3C41     CG3C41
   26    27    28    29	 9 ;      CG314      CG321     CG3C41     OG3C61
   55    27    28    31	 9 ;       HGA2      CG321     CG3C41     CG3C41
   55    27    28    30	 9 ;       HGA2      CG321     CG3C41     CG3C41
   55    27    28    29	 9 ;       HGA2      CG321     CG3C41     OG3C61
   56    27    28    31	 9 ;       HGA2      CG321     CG3C41     CG3C41
   56    27    28    30	 9 ;       HGA2      CG321     CG3C41     CG3C41
   56    27    28    29	 9 ;       HGA2      CG321     CG3C41     OG3C61
   27    28    31    39	 9 ;      CG321     CG3C41     CG3C41     CG3C41
   27    28    31    59	 9 ;      CG321     CG3C41     CG3C41       HGA2
   27    28    31    60	 9 ;      CG321     CG3C41     CG3C41       HGA2
   30    28    31    39	 9 ;     CG3C41     CG3C41     CG3C41     CG3C41
   30    28    31    59	 9 ;     CG3C41     CG3C41     CG3C41       HGA2
   30    28    31    60	 9 ;     CG3C41     CG3C41     CG3C41       HGA2
   29    28    31    39	 9 ;     OG3C61     CG3C41     CG3C41     CG3C41
   29    28    31    59	 9 ;     OG3C61     CG3C41     CG3C41       HGA2
   29    28    31    60	 9 ;     OG3C61     CG3C41     CG3C41       HGA2
   27    28    30    39	 9 ;      CG321     CG3C41     CG3C41     CG3C41
   27    28    30    57	 9 ;      CG321     CG3C41     CG3C41       HGA2
   27    28    30    58	 9 ;      CG321     CG3C41     CG3C41       HGA2
   31    28    30    39	 9 ;     CG3C41     CG3C41     CG3C41     CG3C41
   31    28    30    57	 9 ;     CG3C41     CG3C41     CG3C41       HGA2
   31    28    30    58	 9 ;     CG3C41     CG3C41     CG3C41       HGA2
   29    28    30    39	 9 ;     OG3C61     CG3C41     CG3C41     CG3C41
   29    28    30    57	 9 ;     OG3C61     CG3C41     CG3C41       HGA2
   29    28    30    58	 9 ;     OG3C61     CG3C41     CG3C41       HGA2
   27    28    29    32	 9 ;      CG321     CG3C41     OG3C61      CG311
   31    28    29    32	 9 ;     CG3C41     CG3C41     OG3C61      CG311
   30    28    29    32	 9 ;     CG3C41     CG3C41     OG3C61      CG311
   28    29    32    34	 9 ;     CG3C41     OG3C61      CG311     CG2DC1
   28    29    32    33	 9 ;     CG3C41     OG3C61      CG311      NG311
   28    29    32    79	 9 ;     CG3C41     OG3C61      CG311       HGA1
   28    30    39    31	 9 ;     CG3C41     CG3C41     CG3C41     CG3C41
   28    30    39    63	 9 ;     CG3C41     CG3C41     CG3C41       HGA2
   28    30    39    64	 9 ;     CG3C41     CG3C41     CG3C41       HGA2
   57    30    39    31	 9 ;       HGA2     CG3C41     CG3C41     CG3C41
   57    30    39    63	 9 ;       HGA2     CG3C41     CG3C41       HGA2
   57    30    39    64	 9 ;       HGA2     CG3C41     CG3C41       HGA2
   58    30    39    31	 9 ;       HGA2     CG3C41     CG3C41     CG3C41
   58    30    39    63	 9 ;       HGA2     CG3C41     CG3C41       HGA2
   58    30    39    64	 9 ;       HGA2     CG3C41     CG3C41       HGA2
   28    31    39    30	 9 ;     CG3C41     CG3C41     CG3C41     CG3C41
   28    31    39    63	 9 ;     CG3C41     CG3C41     CG3C41       HGA2
   28    31    39    64	 9 ;     CG3C41     CG3C41     CG3C41       HGA2
   59    31    39    30	 9 ;       HGA2     CG3C41     CG3C41     CG3C41
   59    31    39    63	 9 ;       HGA2     CG3C41     CG3C41       HGA2
   59    31    39    64	 9 ;       HGA2     CG3C41     CG3C41       HGA2
   60    31    39    30	 9 ;       HGA2     CG3C41     CG3C41     CG3C41
   60    31    39    63	 9 ;       HGA2     CG3C41     CG3C41       HGA2
   60    31    39    64	 9 ;       HGA2     CG3C41     CG3C41       HGA2
   29    32    34    26	 9 ;     OG3C61      CG311     CG2DC1      CG314
   29    32    34    38	 9 ;     OG3C61      CG311     CG2DC1     CG2DC1
   33    32    34    26	 9 ;      NG311      CG311     CG2DC1      CG314
   33    32    34    38	 9 ;      NG311      CG311     CG2DC1     CG2DC1
   79    32    34    26	 9 ;       HGA1      CG311     CG2DC1      CG314
   79    32    34    38	 9 ;       HGA1      CG311     CG2DC1     CG2DC1
   34    32    33    35	 9 ;     CG2DC1      CG311      NG311     CG2D2O
   34    32    33    36	 9 ;     CG2DC1      CG311      NG311     HGPAM1
   29    32    33    35	 9 ;     OG3C61      CG311      NG311     CG2D2O
   29    32    33    36	 9 ;     OG3C61      CG311      NG311     HGPAM1
   79    32    33    35	 9 ;       HGA1      CG311      NG311     CG2D2O
   79    32    33    36	 9 ;       HGA1      CG311      NG311     HGPAM1
   32    33    35    37	 9 ;      CG311      NG311     CG2D2O     CG2DC2
   32    33    35    61	 9 ;      CG311      NG311     CG2D2O       HGA4
   36    33    35    37	 9 ;     HGPAM1      NG311     CG2D2O     CG2DC2
   36    33    35    61	 9 ;     HGPAM1      NG311     CG2D2O       HGA4
   26    34    38    37	 9 ;      CG314     CG2DC1     CG2DC1     CG2DC2
   26    34    38    62	 9 ;      CG314     CG2DC1     CG2DC1       HGA4
   32    34    38    37	 9 ;      CG311     CG2DC1     CG2DC1     CG2DC2
   32    34    38    62	 9 ;      CG311     CG2DC1     CG2DC1       HGA4
   33    35    37    38	 9 ;      NG311     CG2D2O     CG2DC2     CG2DC1
   33    35    37    40	 9 ;      NG311     CG2D2O     CG2DC2      CG321
   61    35    37    38	 9 ;       HGA4     CG2D2O     CG2DC2     CG2DC1
   61    35    37    40	 9 ;       HGA4     CG2D2O     CG2DC2      CG321
   40    37    38    34	 9 ;      CG321     CG2DC2     CG2DC1     CG2DC1
   40    37    38    62	 9 ;      CG321     CG2DC2     CG2DC1       HGA4
   35    37    38    34	 9 ;     CG2D2O     CG2DC2     CG2DC1     CG2DC1
   35    37    38    62	 9 ;     CG2D2O     CG2DC2     CG2DC1       HGA4
   38    37    40    41	 9 ;     CG2DC1     CG2DC2      CG321      CG301
   38    37    40    65	 9 ;     CG2DC1     CG2DC2      CG321       HGA2
   38    37    40    66	 9 ;     CG2DC1     CG2DC2      CG321       HGA2
   35    37    40    41	 9 ;     CG2D2O     CG2DC2      CG321      CG301
   35    37    40    65	 9 ;     CG2D2O     CG2DC2      CG321       HGA2
   35    37    40    66	 9 ;     CG2D2O     CG2DC2      CG321       HGA2
   37    40    41    42	 9 ;     CG2DC2      CG321      CG301      CG331
   37    40    41    43	 9 ;     CG2DC2      CG321      CG301      CG331
   37    40    41    44	 9 ;     CG2DC2      CG321      CG301      CG331
   65    40    41    42	 9 ;       HGA2      CG321      CG301      CG331
   65    40    41    43	 9 ;       HGA2      CG321      CG301      CG331
   65    40    41    44	 9 ;       HGA2      CG321      CG301      CG331
   66    40    41    42	 9 ;       HGA2      CG321      CG301      CG331
   66    40    41    43	 9 ;       HGA2      CG321      CG301      CG331
   66    40    41    44	 9 ;       HGA2      CG321      CG301      CG331
   43    41    42    76	 9 ;      CG331      CG301      CG331       HGA3
   43    41    42    77	 9 ;      CG331      CG301      CG331       HGA3
   43    41    42    78	 9 ;      CG331      CG301      CG331       HGA3
   40    41    42    76	 9 ;      CG321      CG301      CG331       HGA3
   40    41    42    77	 9 ;      CG321      CG301      CG331       HGA3
   40    41    42    78	 9 ;      CG321      CG301      CG331       HGA3
   44    41    42    76	 9 ;      CG331      CG301      CG331       HGA3
   44    41    42    77	 9 ;      CG331      CG301      CG331       HGA3
   44    41    42    78	 9 ;      CG331      CG301      CG331       HGA3
   42    41    43    73	 9 ;      CG331      CG301      CG331       HGA3
   42    41    43    74	 9 ;      CG331      CG301      CG331       HGA3
   42    41    43    75	 9 ;      CG331      CG301      CG331       HGA3
   40    41    43    73	 9 ;      CG321      CG301      CG331       HGA3
   40    41    43    74	 9 ;      CG321      CG301      CG331       HGA3
   40    41    43    75	 9 ;      CG321      CG301      CG331       HGA3
   44    41    43    73	 9 ;      CG331      CG301      CG331       HGA3
   44    41    43    74	 9 ;      CG331      CG301      CG331       HGA3
   44    41    43    75	 9 ;      CG331      CG301      CG331       HGA3
   42    41    44    67	 9 ;      CG331      CG301      CG331       HGA3
   42    41    44    68	 9 ;      CG331      CG301      CG331       HGA3
   42    41    44    69	 9 ;      CG331      CG301      CG331       HGA3
   43    41    44    67	 9 ;      CG331      CG301      CG331       HGA3
   43    41    44    68	 9 ;      CG331      CG301      CG331       HGA3
   43    41    44    69	 9 ;      CG331      CG301      CG331       HGA3
   40    41    44    67	 9 ;      CG321      CG301      CG331       HGA3
   40    41    44    68	 9 ;      CG321      CG301      CG331       HGA3
   40    41    44    69	 9 ;      CG321      CG301      CG331       HGA3

[ dihedrals ]
;	ai	  aj	ak	  al funct			  c0			c1			  c2			c3
    7     9     6     8	 2
   35    37    33    61	 2

