GROningen MAchine for Chemical Simulation
   58
    1LIG     C1    1  -1.421   0.376  -1.723
    1LIG     N1    2  -1.438   0.317  -1.866
    1LIG    HN1    3  -1.492   0.235  -1.894
    1LIG     C2    4  -1.368   0.398  -1.941
    1LIG     N2    5  -1.338   0.518  -1.887
    1LIG     C3    6  -1.382   0.523  -1.758
    1LIG     N3    7  -1.392   0.628  -1.682
    1LIG    HN2    8  -1.406   0.624  -1.581
    1LIG     O1    9  -1.382   0.748  -1.757
    1LIG     C4   10  -1.274   0.751  -1.850
    1LIG     C5   11  -1.270   0.631  -1.944
    1LIG     C6   12  -1.305   0.291  -1.666
    1LIG     C7   13  -1.191   0.345  -1.607
    1LIG     C8   14  -1.087   0.261  -1.565
    1LIG     C9   15  -1.099   0.122  -1.574
    1LIG    C10   16  -1.211   0.068  -1.637
    1LIG    C11   17  -1.313   0.151  -1.682
    1LIG     O2   18  -1.008   0.031  -1.531
    1LIG    C12   19  -0.958  -0.064  -1.625
    1LIG     F1   20  -1.054  -0.130  -1.693
    1LIG     F2   21  -0.881   0.001  -1.714
    1LIG     F3   22  -0.882  -0.154  -1.559
    1LIG    C13   23  -1.542   0.370  -1.630
    1LIG    C14   24  -1.532   0.377  -1.490
    1LIG    C15   25  -1.645   0.372  -1.406
    1LIG    C16   26  -1.772   0.363  -1.467
    1LIG    C17   27  -1.785   0.357  -1.605
    1LIG    C18   28  -1.671   0.359  -1.685
    1LIG    C19   29  -1.630   0.374  -1.258
    1LIG    C20   30  -1.709   0.290  -1.178
    1LIG    C21   31  -1.694   0.289  -1.039
    1LIG    C22   32  -1.599   0.373  -0.983
    1LIG     N4   33  -1.523   0.458  -1.055
    1LIG    C23   34  -1.540   0.456  -1.190
    1LIG    HN3   35  -1.456   0.520  -1.010
    1LIG     F4   36  -1.462   0.541  -1.258
    1LIG     N5   37  -1.327   0.370  -2.067
    1LIG     H1   38  -1.356   0.277  -2.099
    1LIG     H2   39  -1.363   0.440  -2.132
    1LIG     H3   40  -1.360   0.321  -2.014
    1LIG     H4   41  -1.377   0.605  -1.689
    1LIG     H5   42  -1.406   0.626  -1.581
    1LIG     H6   43  -1.283   0.840  -1.909
    1LIG     H7   44  -1.184   0.749  -1.793
    1LIG     H8   45  -1.318   0.657  -2.036
    1LIG     H9   46  -1.168   0.604  -1.961
    1LIG    H10   47  -1.182   0.447  -1.595
    1LIG    H11   48  -1.001   0.302  -1.526
    1LIG    H12   49  -1.218  -0.034  -1.650
    1LIG    H13   50  -1.396   0.109  -1.728
    1LIG    H14   51  -1.438   0.386  -1.448
    1LIG    H15   52  -1.857   0.362  -1.408
    1LIG    H16   53  -1.878   0.350  -1.648
    1LIG    H17   54  -1.682   0.351  -1.788
    1LIG    H18   55  -1.780   0.229  -1.222
    1LIG    H19   56  -1.751   0.227  -0.980
    1LIG    H20   57  -1.652   0.434  -0.913
    1LIG    H21   58  -1.526   0.303  -0.949
   0.00000   0.00000   0.00000
