Great Red Owns Many ACres of Sand 
   20
    1LIG     CL    1  -0.955  -0.127  -1.568
    1LIG     C1    2  -1.041   0.011  -1.625
    1LIG     C2    3  -1.115   0.002  -1.744
    1LIG     C3    4  -1.184   0.115  -1.788
    1LIG     N1    5  -1.262   0.133  -1.900
    1LIG     HN    6  -1.284   0.064  -1.971
    1LIG     C4    7  -1.303   0.257  -1.895
    1LIG     N2    8  -1.254   0.321  -1.784
    1LIG     C5    9  -1.177   0.233  -1.714
    1LIG     C6   10  -1.105   0.244  -1.595
    1LIG     C7   11  -1.036   0.130  -1.552
    1LIG     H1   12  -1.272   0.417  -1.760
    1LIG     N3   13  -1.381   0.321  -1.982
    1LIG     H2   14  -1.481   0.332  -1.974
    1LIG     H3   15  -1.338   0.361  -2.065
    1LIG     H4   16  -1.118  -0.087  -1.797
    1LIG     H5   17  -1.361   0.262  -1.984
    1LIG     H6   18  -1.101   0.333  -1.542
    1LIG     H7   19  -0.981   0.133  -1.465
    1LIG    LP1   20  -0.873  -0.258  -1.514
   0.00000   0.00000   0.00000
