; Created by cgenff_charmm2gmx.py

[ moleculetype ]
; Name			   nrexcl
LIG				 3

[ atoms ]
;	 nr		  type	resnr residue  atom   cgnr	   charge		mass  typeB    chargeB		massB
; residue	 1 LIG rtp LIG q	qsum
     1      CLGR1      1    LIG     CL      1     -0.200     35.453   ;
     2     CG2R61      1    LIG     C1      2      0.001     12.011   ;
     3     CG2R61      1    LIG     C2      3     -0.130     12.011   ;
     4     CG2RC0      1    LIG     C3      4      0.054     12.011   ;
     5     NG3C51      1    LIG     N1      5     -0.492     14.007   ;
     6       HGP1      1    LIG     HN      6      0.254      1.008   ;
     7     CG3C51      1    LIG     C4      7      0.132     12.011   ;
     8     NG3C51      1    LIG     N2      8     -0.492     14.007   ;
     9     CG2RC0      1    LIG     C5      9      0.454     12.011   ;
    10     CG2R61      1    LIG     C6     10     -0.334     12.011   ;
    11     CG2R61      1    LIG     C7     11     -0.178     12.011   ;
    12       HGP1      1    LIG     H1     12      0.254      1.008   ;
    13      NG321      1    LIG     N3     13     -0.854     14.007   ;
    14     HGPAM2      1    LIG     H2     14      0.349      1.008   ;
    15     HGPAM2      1    LIG     H3     15      0.349      1.008   ;
    16      HGR62      1    LIG     H4     16      0.223      1.008   ;
    17       HGA1      1    LIG     H5     17      0.158      1.008   ;
    18      HGR61      1    LIG     H6     18      0.207      1.008   ;
    19      HGR62      1    LIG     H7     19      0.195      1.008   ;
    20        LPH      1    LIG    LP1     20      0.050      0.000   ;

[ bonds ]
;	ai	  aj funct			  c0			c1			  c2			c3
    1     2	 1 ;       CLGR1     CG2R61
    2     3	 1 ;      CG2R61     CG2R61
    2    11	 1 ;      CG2R61     CG2R61
    3     4	 1 ;      CG2R61     CG2RC0
    3    16	 1 ;      CG2R61      HGR62
    4     5	 1 ;      CG2RC0     NG3C51
    4     9	 1 ;      CG2RC0     CG2RC0
    5     6	 1 ;      NG3C51       HGP1
    5     7	 1 ;      NG3C51     CG3C51
    7    13	 1 ;      CG3C51      NG321
    7     8	 1 ;      CG3C51     NG3C51
    7    17	 1 ;      CG3C51       HGA1
    8    12	 1 ;      NG3C51       HGP1
    8     9	 1 ;      NG3C51     CG2RC0
    9    10	 1 ;      CG2RC0     CG2R61
   10    11	 1 ;      CG2R61     CG2R61
   10    18	 1 ;      CG2R61      HGR61
   11    19	 1 ;      CG2R61      HGR62
   13    15	 1 ;       NG321     HGPAM2
   13    14	 1 ;       NG321     HGPAM2

[ pairs ]
;	ai	  aj funct			  c0			c1			  c2			c3
    1     4	 1
   20     4	 1
    1    16	 1
   20    16	 1
    1    10	 1
   20    10	 1
    1    19	 1
   20    19	 1
    2     5	 1
    2     9	 1
    2    18	 1
    3    10	 1
    3    19	 1
    3     6	 1
    3     7	 1
    3     8	 1
    4    11	 1
    4    13	 1
    4    17	 1
    4    12	 1
    4    18	 1
    5    16	 1
    5    10	 1
    5    15	 1
    5    14	 1
    5    12	 1
    6     9	 1
    6    13	 1
    6     8	 1
    6    17	 1
    7    10	 1
    8    15	 1
    8    14	 1
    8    11	 1
    8    18	 1
    9    16	 1
    9    13	 1
    9    17	 1
    9    19	 1
   10    12	 1
   11    16	 1
   12    13	 1
   12    17	 1
   14    17	 1
   15    17	 1
   18    19	 1

[ angles ]
;	ai	  aj	ak funct			c0			  c1			c2			  c3
    3     2     1	5 ;     CG2R61     CG2R61      CLGR1
    3     2    11	5 ;     CG2R61     CG2R61     CG2R61
    1     2    11	5 ;      CLGR1     CG2R61     CG2R61
    4     3     2	5 ;     CG2RC0     CG2R61     CG2R61
    4     3    16	5 ;     CG2RC0     CG2R61      HGR62
    2     3    16	5 ;     CG2R61     CG2R61      HGR62
    5     4     3	5 ;     NG3C51     CG2RC0     CG2R61
    5     4     9	5 ;     NG3C51     CG2RC0     CG2RC0
    3     4     9	5 ;     CG2R61     CG2RC0     CG2RC0
    6     5     7	5 ;       HGP1     NG3C51     CG3C51
    6     5     4	5 ;       HGP1     NG3C51     CG2RC0
    7     5     4	5 ;     CG3C51     NG3C51     CG2RC0
   13     7     5	5 ;      NG321     CG3C51     NG3C51
   13     7     8	5 ;      NG321     CG3C51     NG3C51
   13     7    17	5 ;      NG321     CG3C51       HGA1
    5     7     8	5 ;     NG3C51     CG3C51     NG3C51
    5     7    17	5 ;     NG3C51     CG3C51       HGA1
    8     7    17	5 ;     NG3C51     CG3C51       HGA1
    7     8    12	5 ;     CG3C51     NG3C51       HGP1
    7     8     9	5 ;     CG3C51     NG3C51     CG2RC0
   12     8     9	5 ;       HGP1     NG3C51     CG2RC0
    4     9     8	5 ;     CG2RC0     CG2RC0     NG3C51
    4     9    10	5 ;     CG2RC0     CG2RC0     CG2R61
    8     9    10	5 ;     NG3C51     CG2RC0     CG2R61
    9    10    11	5 ;     CG2RC0     CG2R61     CG2R61
    9    10    18	5 ;     CG2RC0     CG2R61      HGR61
   11    10    18	5 ;     CG2R61     CG2R61      HGR61
    2    11    10	5 ;     CG2R61     CG2R61     CG2R61
    2    11    19	5 ;     CG2R61     CG2R61      HGR62
   10    11    19	5 ;     CG2R61     CG2R61      HGR62
   15    13    14	5 ;     HGPAM2      NG321     HGPAM2
   15    13     7	5 ;     HGPAM2      NG321     CG3C51
   14    13     7	5 ;     HGPAM2      NG321     CG3C51

[ dihedrals ]
;	ai	  aj	ak	  al funct			  c0			c1			  c2			c3			  c4			c5
    1     2     3     4	 9 ;      CLGR1     CG2R61     CG2R61     CG2RC0
    1     2     3    16	 9 ;      CLGR1     CG2R61     CG2R61      HGR62
   11     2     3     4	 9 ;     CG2R61     CG2R61     CG2R61     CG2RC0
   11     2     3    16	 9 ;     CG2R61     CG2R61     CG2R61      HGR62
    3     2    11    10	 9 ;     CG2R61     CG2R61     CG2R61     CG2R61
    3     2    11    19	 9 ;     CG2R61     CG2R61     CG2R61      HGR62
    1     2    11    10	 9 ;      CLGR1     CG2R61     CG2R61     CG2R61
    1     2    11    19	 9 ;      CLGR1     CG2R61     CG2R61      HGR62
    2     3     4     5	 9 ;     CG2R61     CG2R61     CG2RC0     NG3C51
    2     3     4     9	 9 ;     CG2R61     CG2R61     CG2RC0     CG2RC0
   16     3     4     5	 9 ;      HGR62     CG2R61     CG2RC0     NG3C51
   16     3     4     9	 9 ;      HGR62     CG2R61     CG2RC0     CG2RC0
    3     4     5     6	 9 ;     CG2R61     CG2RC0     NG3C51       HGP1
    3     4     5     7	 9 ;     CG2R61     CG2RC0     NG3C51     CG3C51
    9     4     5     6	 9 ;     CG2RC0     CG2RC0     NG3C51       HGP1
    9     4     5     7	 9 ;     CG2RC0     CG2RC0     NG3C51     CG3C51
    5     4     9     8	 9 ;     NG3C51     CG2RC0     CG2RC0     NG3C51
    5     4     9    10	 9 ;     NG3C51     CG2RC0     CG2RC0     CG2R61
    3     4     9     8	 9 ;     CG2R61     CG2RC0     CG2RC0     NG3C51
    3     4     9    10	 9 ;     CG2R61     CG2RC0     CG2RC0     CG2R61
    6     5     7    13	 9 ;       HGP1     NG3C51     CG3C51      NG321
    6     5     7     8	 9 ;       HGP1     NG3C51     CG3C51     NG3C51
    6     5     7    17	 9 ;       HGP1     NG3C51     CG3C51       HGA1
    4     5     7    13	 9 ;     CG2RC0     NG3C51     CG3C51      NG321
    4     5     7     8	 9 ;     CG2RC0     NG3C51     CG3C51     NG3C51
    4     5     7    17	 9 ;     CG2RC0     NG3C51     CG3C51       HGA1
    5     7    13    15	 9 ;     NG3C51     CG3C51      NG321     HGPAM2
    5     7    13    14	 9 ;     NG3C51     CG3C51      NG321     HGPAM2
    8     7    13    15	 9 ;     NG3C51     CG3C51      NG321     HGPAM2
    8     7    13    14	 9 ;     NG3C51     CG3C51      NG321     HGPAM2
   17     7    13    15	 9 ;       HGA1     CG3C51      NG321     HGPAM2
   17     7    13    14	 9 ;       HGA1     CG3C51      NG321     HGPAM2
   13     7     8    12	 9 ;      NG321     CG3C51     NG3C51       HGP1
   13     7     8     9	 9 ;      NG321     CG3C51     NG3C51     CG2RC0
    5     7     8    12	 9 ;     NG3C51     CG3C51     NG3C51       HGP1
    5     7     8     9	 9 ;     NG3C51     CG3C51     NG3C51     CG2RC0
   17     7     8    12	 9 ;       HGA1     CG3C51     NG3C51       HGP1
   17     7     8     9	 9 ;       HGA1     CG3C51     NG3C51     CG2RC0
    7     8     9     4	 9 ;     CG3C51     NG3C51     CG2RC0     CG2RC0
    7     8     9    10	 9 ;     CG3C51     NG3C51     CG2RC0     CG2R61
   12     8     9     4	 9 ;       HGP1     NG3C51     CG2RC0     CG2RC0
   12     8     9    10	 9 ;       HGP1     NG3C51     CG2RC0     CG2R61
    4     9    10    11	 9 ;     CG2RC0     CG2RC0     CG2R61     CG2R61
    4     9    10    18	 9 ;     CG2RC0     CG2RC0     CG2R61      HGR61
    8     9    10    11	 9 ;     NG3C51     CG2RC0     CG2R61     CG2R61
    8     9    10    18	 9 ;     NG3C51     CG2RC0     CG2R61      HGR61
    9    10    11     2	 9 ;     CG2RC0     CG2R61     CG2R61     CG2R61
    9    10    11    19	 9 ;     CG2RC0     CG2R61     CG2R61      HGR62
   18    10    11     2	 9 ;      HGR61     CG2R61     CG2R61     CG2R61
   18    10    11    19	 9 ;      HGR61     CG2R61     CG2R61      HGR62

[ virtual_sites2 ]
; Site   from				funct a
   20     1     2     2   -0.164

[ exclusions ]
;	ai	  aj
    1    20
   20     2
   20     3
   20    11
   20     4
   20    16
   20    10
   20    19

