Great Red Oystrich Makes All Chemists Sane
   52
    1LIG     C1    1  -1.407   0.431  -1.705
    1LIG     N1    2  -1.509   0.358  -1.791
    1LIG    HN1    3  -1.587   0.302  -1.758
    1LIG     C2    4  -1.477   0.382  -1.914
    1LIG     N2    5  -1.377   0.470  -1.934
    1LIG     C3    6  -1.312   0.502  -2.059
    1LIG     C4    7  -1.336   0.518  -1.813
    1LIG     O1    8  -1.253   0.607  -1.796
    1LIG     C5    9  -1.477   0.510  -1.594
    1LIG     C6   10  -1.508   0.447  -1.471
    1LIG     C7   11  -1.574   0.514  -1.365
    1LIG     C8   12  -1.607   0.649  -1.386
    1LIG     C9   13  -1.573   0.715  -1.504
    1LIG    C10   14  -1.509   0.646  -1.607
    1LIG    C11   15  -1.609   0.444  -1.238
    1LIG    C12   16  -1.729   0.373  -1.224
    1LIG    C13   17  -1.760   0.309  -1.104
    1LIG    C14   18  -1.671   0.318  -0.999
    1LIG     N3   19  -1.555   0.385  -1.007
    1LIG    C15   20  -1.526   0.445  -1.125
    1LIG    HN2   21  -1.491   0.390  -0.927
    1LIG     F1   22  -1.408   0.509  -1.129
    1LIG    C16   23  -1.301   0.331  -1.652
    1LIG    C17   24  -1.315   0.192  -1.671
    1LIG    C18   25  -1.211   0.104  -1.641
    1LIG    C19   26  -1.090   0.153  -1.592
    1LIG    C20   27  -1.078   0.289  -1.564
    1LIG    C21   28  -1.182   0.377  -1.595
    1LIG     O2   29  -0.979   0.078  -1.565
    1LIG    C22   30  -0.966  -0.039  -1.644
    1LIG     F2   31  -0.876  -0.012  -1.742
    1LIG     F3   32  -0.912  -0.137  -1.568
    1LIG     N4   33  -1.542   0.323  -2.017
    1LIG     H1   34  -1.529   0.222  -2.019
    1LIG     H2   35  -1.637   0.352  -2.035
    1LIG     H3   36  -1.507   0.323  -1.998
    1LIG     H4   37  -1.362   0.453  -2.139
    1LIG     H5   38  -1.210   0.470  -2.056
    1LIG     H6   39  -1.316   0.608  -2.074
    1LIG     H7   40  -1.481   0.349  -1.457
    1LIG     H8   41  -1.657   0.700  -1.312
    1LIG     H9   42  -1.596   0.814  -1.515
    1LIG    H10   43  -1.485   0.696  -1.694
    1LIG    H11   44  -1.795   0.368  -1.303
    1LIG    H12   45  -1.848   0.256  -1.094
    1LIG    H13   46  -1.645   0.217  -0.974
    1LIG    H14   47  -1.726   0.378  -0.930
    1LIG    H15   48  -1.404   0.155  -1.708
    1LIG    H16   49  -1.223   0.003  -1.656
    1LIG    H17   50  -0.991   0.325  -1.522
    1LIG    H18   51  -1.170   0.478  -1.575
    1LIG    H19   52  -1.061  -0.069  -1.683
   0.00000   0.00000   0.00000
