; Created by cgenff_charmm2gmx.py

[ moleculetype ]
; Name			   nrexcl
LIG				 3

[ atoms ]
;	 nr		  type	resnr residue  atom   cgnr	   charge		mass  typeB    chargeB		massB
; residue	 1 LIG rtp LIG q	qsum
     1      CG311      1    LIG     C1      1      0.093     12.011   ;
     2      CG324      1    LIG     C2      2      0.181     12.011   ;
     3      NG3P2      1    LIG     N1      3     -0.406     14.007   ;
     4       HGP2      1    LIG     H1      4      0.335      1.008   ;
     5       HGP2      1    LIG     H2      5      0.335      1.008   ;
     6     CG3C31      1    LIG     C3      6      0.257     12.011   ;
     7     CG3C31      1    LIG     C4      7     -0.150     12.011   ;
     8     CG3C31      1    LIG     C5      8     -0.150     12.011   ;
     9     CG3C51      1    LIG     C6      9      0.358     12.011   ;
    10     CG3C52      1    LIG     C7     10     -0.266     12.011   ;
    11     CG3C51      1    LIG     C8     11     -0.184     12.011   ;
    12     CG3C52      1    LIG     C9     12      0.014     12.011   ;
    13      SG311      1    LIG      S     13     -0.385     32.060   ;
    14      CG321      1    LIG    C10     14     -0.129     12.011   ;
    15      CG301      1    LIG    C11     15     -0.041     12.011   ;
    16      CG331      1    LIG    C12     16     -0.267     12.011   ;
    17      CG331      1    LIG    C13     17     -0.267     12.011   ;
    18      CG331      1    LIG    C14     18     -0.267     12.011   ;
    19      OG311      1    LIG     O1     19     -0.625     15.999   ;
    20       HGP1      1    LIG     H3     20      0.415      1.008   ;
    21      CG311      1    LIG    C15     21     -0.007     12.011   ;
    22      NG2S1      1    LIG     N2     22     -0.339     14.007   ;
    23      CG2O1      1    LIG    C16     23      0.488     12.011   ;
    24      OG2D1      1    LIG     O2     24     -0.509     15.999   ;
    25      CG331      1    LIG    C17     25     -0.270     12.011   ;
    26       HGP1      1    LIG     H4     26      0.261      1.008   ;
    27      CG321      1    LIG    C18     27     -0.153     12.011   ;
    28     CG2R61      1    LIG    C19     28      0.057     12.011   ;
    29     CG2R61      1    LIG    C20     29     -0.218     12.011   ;
    30     CG2R66      1    LIG    C21     30      0.261     12.011   ;
    31       FGR1      1    LIG     F1     31     -0.210     18.998   ;
    32     CG2R61      1    LIG    C22     32     -0.240     12.011   ;
    33     CG2R66      1    LIG    C23     33      0.261     12.011   ;
    34       FGR1      1    LIG     F2     34     -0.210     18.998   ;
    35     CG2R61      1    LIG    C24     35     -0.218     12.011   ;
    36       HGA1      1    LIG     HC     36      0.090      1.008   ;
    37       HGA2      1    LIG    HC2     37      0.090      1.008   ;
    38       HGA2      1    LIG    HC3     38      0.090      1.008   ;
    39       HGA2      1    LIG    HC4     39      0.090      1.008   ;
    40       HGA2      1    LIG    HC5     40      0.090      1.008   ;
    41       HGA2      1    LIG    HC6     41      0.090      1.008   ;
    42       HGA2      1    LIG    HC7     42      0.090      1.008   ;
    43       HGA2      1    LIG    HC1     43      0.090      1.008   ;
    44       HGA2      1    LIG    HC8     44      0.090      1.008   ;
    45       HGA2      1    LIG    HC9     45      0.090      1.008   ;
    46       HGA2      1    LIG   HC10     46      0.090      1.008   ;
    47       HGA3      1    LIG   HC11     47      0.090      1.008   ;
    48       HGA3      1    LIG   HC12     48      0.090      1.008   ;
    49       HGA3      1    LIG   HC13     49      0.090      1.008   ;
    50       HGA3      1    LIG   HC14     50      0.090      1.008   ;
    51       HGA3      1    LIG   HC15     51      0.090      1.008   ;
    52       HGA3      1    LIG   HC16     52      0.090      1.008   ;
    53       HGA3      1    LIG   HC17     53      0.090      1.008   ;
    54       HGA3      1    LIG   HC18     54      0.090      1.008   ;
    55       HGA3      1    LIG   HC19     55      0.090      1.008   ;
    56       HGA1      1    LIG   HC20     56      0.090      1.008   ;
    57       HGA3      1    LIG   HC21     57      0.090      1.008   ;
    58       HGA3      1    LIG   HC22     58      0.090      1.008   ;
    59       HGA3      1    LIG   HC23     59      0.090      1.008   ;
    60       HGA2      1    LIG   HC24     60      0.090      1.008   ;
    61       HGA2      1    LIG   HC25     61      0.090      1.008   ;
    62      HGR62      1    LIG   HC26     62      0.174      1.008   ;
    63      HGR62      1    LIG   HC27     63      0.186      1.008   ;
    64      HGR62      1    LIG   HC28     64      0.174      1.008   ;
    65       HGA1      1    LIG    H34     65      0.051      1.008   ;
    66       HGA2      1    LIG    H35     66      0.090      1.008   ;
    67       HGA1      1    LIG    H36     67      0.090      1.008   ;
    68       HGA2      1    LIG    H37     68      0.090      1.008   ;

[ bonds ]
;	ai	  aj funct			  c0			c1			  c2			c3
    1    19	 1 ;       CG311      OG311
    1    21	 1 ;       CG311      CG311
    1     2	 1 ;       CG311      CG324
    1    36	 1 ;       CG311       HGA1
    2     3	 1 ;       CG324      NG3P2
    2    37	 1 ;       CG324       HGA2
    2    38	 1 ;       CG324       HGA2
    3     4	 1 ;       NG3P2       HGP2
    3     5	 1 ;       NG3P2       HGP2
    3     6	 1 ;       NG3P2     CG3C31
    6     7	 1 ;      CG3C31     CG3C31
    6     8	 1 ;      CG3C31     CG3C31
    6     9	 1 ;      CG3C31     CG3C51
    7     8	 1 ;      CG3C31     CG3C31
    7    39	 1 ;      CG3C31       HGA2
    7    40	 1 ;      CG3C31       HGA2
    8    41	 1 ;      CG3C31       HGA2
    8    42	 1 ;      CG3C31       HGA2
    9    13	 1 ;      CG3C51      SG311
    9    10	 1 ;      CG3C51     CG3C52
    9    65	 1 ;      CG3C51       HGA1
   10    11	 1 ;      CG3C52     CG3C51
   10    43	 1 ;      CG3C52       HGA2
   10    66	 1 ;      CG3C52       HGA2
   11    12	 1 ;      CG3C51     CG3C52
   11    14	 1 ;      CG3C51      CG321
   11    67	 1 ;      CG3C51       HGA1
   12    13	 1 ;      CG3C52      SG311
   12    44	 1 ;      CG3C52       HGA2
   12    68	 1 ;      CG3C52       HGA2
   14    15	 1 ;       CG321      CG301
   14    45	 1 ;       CG321       HGA2
   14    46	 1 ;       CG321       HGA2
   15    18	 1 ;       CG301      CG331
   15    17	 1 ;       CG301      CG331
   15    16	 1 ;       CG301      CG331
   16    47	 1 ;       CG331       HGA3
   16    48	 1 ;       CG331       HGA3
   16    49	 1 ;       CG331       HGA3
   17    50	 1 ;       CG331       HGA3
   17    51	 1 ;       CG331       HGA3
   17    52	 1 ;       CG331       HGA3
   18    53	 1 ;       CG331       HGA3
   18    54	 1 ;       CG331       HGA3
   18    55	 1 ;       CG331       HGA3
   19    20	 1 ;       OG311       HGP1
   21    22	 1 ;       CG311      NG2S1
   21    27	 1 ;       CG311      CG321
   21    56	 1 ;       CG311       HGA1
   22    23	 1 ;       NG2S1      CG2O1
   22    26	 1 ;       NG2S1       HGP1
   23    24	 1 ;       CG2O1      OG2D1
   23    25	 1 ;       CG2O1      CG331
   25    57	 1 ;       CG331       HGA3
   25    58	 1 ;       CG331       HGA3
   25    59	 1 ;       CG331       HGA3
   27    28	 1 ;       CG321     CG2R61
   27    60	 1 ;       CG321       HGA2
   27    61	 1 ;       CG321       HGA2
   28    29	 1 ;      CG2R61     CG2R61
   28    35	 1 ;      CG2R61     CG2R61
   29    30	 1 ;      CG2R61     CG2R66
   29    62	 1 ;      CG2R61      HGR62
   30    31	 1 ;      CG2R66       FGR1
   30    32	 1 ;      CG2R66     CG2R61
   32    33	 1 ;      CG2R61     CG2R66
   32    63	 1 ;      CG2R61      HGR62
   33    35	 1 ;      CG2R66     CG2R61
   33    34	 1 ;      CG2R66       FGR1
   35    64	 1 ;      CG2R61      HGR62

[ pairs ]
;	ai	  aj funct			  c0			c1			  c2			c3
    1     4	 1
    1     5	 1
    1     6	 1
    1    23	 1
    1    26	 1
    1    28	 1
    1    60	 1
    1    61	 1
    2    20	 1
    2    22	 1
    2    27	 1
    2    56	 1
    2     7	 1
    2     8	 1
    2     9	 1
    3    19	 1
    3    21	 1
    3    36	 1
    3    39	 1
    3    40	 1
    3    41	 1
    3    42	 1
    3    13	 1
    3    10	 1
    3    65	 1
    4    37	 1
    4    38	 1
    4     7	 1
    4     8	 1
    4     9	 1
    5    37	 1
    5    38	 1
    5     7	 1
    5     8	 1
    5     9	 1
    6    37	 1
    6    38	 1
    6    12	 1
    6    11	 1
    6    43	 1
    6    66	 1
    7    13	 1
    7    10	 1
    7    65	 1
    8    13	 1
    8    10	 1
    8    65	 1
    9    39	 1
    9    40	 1
    9    41	 1
    9    42	 1
    9    14	 1
    9    67	 1
    9    44	 1
    9    68	 1
   10    44	 1
   10    68	 1
   10    15	 1
   10    45	 1
   10    46	 1
   11    65	 1
   11    18	 1
   11    17	 1
   11    16	 1
   12    65	 1
   12    43	 1
   12    66	 1
   12    15	 1
   12    45	 1
   12    46	 1
   13    43	 1
   13    66	 1
   13    14	 1
   13    67	 1
   14    43	 1
   14    66	 1
   14    44	 1
   14    68	 1
   14    53	 1
   14    54	 1
   14    55	 1
   14    50	 1
   14    51	 1
   14    52	 1
   14    47	 1
   14    48	 1
   14    49	 1
   15    67	 1
   16    45	 1
   16    46	 1
   16    53	 1
   16    54	 1
   16    55	 1
   16    50	 1
   16    51	 1
   16    52	 1
   17    45	 1
   17    46	 1
   17    53	 1
   17    54	 1
   17    55	 1
   17    47	 1
   17    48	 1
   17    49	 1
   18    45	 1
   18    46	 1
   18    50	 1
   18    51	 1
   18    52	 1
   18    47	 1
   18    48	 1
   18    49	 1
   19    22	 1
   19    27	 1
   19    56	 1
   19    37	 1
   19    38	 1
   20    21	 1
   20    36	 1
   21    37	 1
   21    38	 1
   21    24	 1
   21    25	 1
   21    29	 1
   21    35	 1
   22    36	 1
   22    28	 1
   22    60	 1
   22    61	 1
   22    57	 1
   22    58	 1
   22    59	 1
   23    27	 1
   23    56	 1
   24    26	 1
   24    57	 1
   24    58	 1
   24    59	 1
   25    26	 1
   26    27	 1
   26    56	 1
   27    36	 1
   27    30	 1
   27    62	 1
   27    33	 1
   27    64	 1
   28    56	 1
   28    31	 1
   28    32	 1
   28    34	 1
   29    60	 1
   29    61	 1
   29    33	 1
   29    64	 1
   29    63	 1
   30    35	 1
   30    34	 1
   31    62	 1
   31    33	 1
   31    63	 1
   32    62	 1
   32    64	 1
   34    63	 1
   34    64	 1
   35    60	 1
   35    61	 1
   35    62	 1
   35    63	 1
   36    56	 1
   36    37	 1
   36    38	 1
   39    41	 1
   39    42	 1
   40    41	 1
   40    42	 1
   43    65	 1
   43    67	 1
   44    67	 1
   45    67	 1
   46    67	 1
   56    60	 1
   56    61	 1
   65    66	 1
   66    67	 1
   67    68	 1

[ angles ]
;	ai	  aj	ak funct			c0			  c1			c2			  c3
   19     1    21	5 ;      OG311      CG311      CG311
   19     1     2	5 ;      OG311      CG311      CG324
   19     1    36	5 ;      OG311      CG311       HGA1
   21     1     2	5 ;      CG311      CG311      CG324
   21     1    36	5 ;      CG311      CG311       HGA1
    2     1    36	5 ;      CG324      CG311       HGA1
    1     2     3	5 ;      CG311      CG324      NG3P2
    1     2    37	5 ;      CG311      CG324       HGA2
    1     2    38	5 ;      CG311      CG324       HGA2
    3     2    37	5 ;      NG3P2      CG324       HGA2
    3     2    38	5 ;      NG3P2      CG324       HGA2
   37     2    38	5 ;       HGA2      CG324       HGA2
    2     3     4	5 ;      CG324      NG3P2       HGP2
    2     3     5	5 ;      CG324      NG3P2       HGP2
    2     3     6	5 ;      CG324      NG3P2     CG3C31
    4     3     5	5 ;       HGP2      NG3P2       HGP2
    4     3     6	5 ;       HGP2      NG3P2     CG3C31
    5     3     6	5 ;       HGP2      NG3P2     CG3C31
    3     6     7	5 ;      NG3P2     CG3C31     CG3C31
    3     6     8	5 ;      NG3P2     CG3C31     CG3C31
    3     6     9	5 ;      NG3P2     CG3C31     CG3C51
    7     6     8	5 ;     CG3C31     CG3C31     CG3C31
    7     6     9	5 ;     CG3C31     CG3C31     CG3C51
    8     6     9	5 ;     CG3C31     CG3C31     CG3C51
    6     7     8	5 ;     CG3C31     CG3C31     CG3C31
    6     7    39	5 ;     CG3C31     CG3C31       HGA2
    6     7    40	5 ;     CG3C31     CG3C31       HGA2
    8     7    39	5 ;     CG3C31     CG3C31       HGA2
    8     7    40	5 ;     CG3C31     CG3C31       HGA2
   39     7    40	5 ;       HGA2     CG3C31       HGA2
    7     8     6	5 ;     CG3C31     CG3C31     CG3C31
    7     8    41	5 ;     CG3C31     CG3C31       HGA2
    7     8    42	5 ;     CG3C31     CG3C31       HGA2
    6     8    41	5 ;     CG3C31     CG3C31       HGA2
    6     8    42	5 ;     CG3C31     CG3C31       HGA2
   41     8    42	5 ;       HGA2     CG3C31       HGA2
    6     9    13	5 ;     CG3C31     CG3C51      SG311
    6     9    10	5 ;     CG3C31     CG3C51     CG3C52
    6     9    65	5 ;     CG3C31     CG3C51       HGA1
   13     9    10	5 ;      SG311     CG3C51     CG3C52
   13     9    65	5 ;      SG311     CG3C51       HGA1
   10     9    65	5 ;     CG3C52     CG3C51       HGA1
    9    10    11	5 ;     CG3C51     CG3C52     CG3C51
    9    10    43	5 ;     CG3C51     CG3C52       HGA2
    9    10    66	5 ;     CG3C51     CG3C52       HGA2
   11    10    43	5 ;     CG3C51     CG3C52       HGA2
   11    10    66	5 ;     CG3C51     CG3C52       HGA2
   43    10    66	5 ;       HGA2     CG3C52       HGA2
   10    11    12	5 ;     CG3C52     CG3C51     CG3C52
   10    11    14	5 ;     CG3C52     CG3C51      CG321
   10    11    67	5 ;     CG3C52     CG3C51       HGA1
   12    11    14	5 ;     CG3C52     CG3C51      CG321
   12    11    67	5 ;     CG3C52     CG3C51       HGA1
   14    11    67	5 ;      CG321     CG3C51       HGA1
   13    12    11	5 ;      SG311     CG3C52     CG3C51
   13    12    44	5 ;      SG311     CG3C52       HGA2
   13    12    68	5 ;      SG311     CG3C52       HGA2
   11    12    44	5 ;     CG3C51     CG3C52       HGA2
   11    12    68	5 ;     CG3C51     CG3C52       HGA2
   44    12    68	5 ;       HGA2     CG3C52       HGA2
    9    13    12	5 ;     CG3C51      SG311     CG3C52
   11    14    15	5 ;     CG3C51      CG321      CG301
   11    14    45	5 ;     CG3C51      CG321       HGA2
   11    14    46	5 ;     CG3C51      CG321       HGA2
   15    14    45	5 ;      CG301      CG321       HGA2
   15    14    46	5 ;      CG301      CG321       HGA2
   45    14    46	5 ;       HGA2      CG321       HGA2
   18    15    14	5 ;      CG331      CG301      CG321
   18    15    17	5 ;      CG331      CG301      CG331
   18    15    16	5 ;      CG331      CG301      CG331
   14    15    17	5 ;      CG321      CG301      CG331
   14    15    16	5 ;      CG321      CG301      CG331
   17    15    16	5 ;      CG331      CG301      CG331
   15    16    47	5 ;      CG301      CG331       HGA3
   15    16    48	5 ;      CG301      CG331       HGA3
   15    16    49	5 ;      CG301      CG331       HGA3
   47    16    48	5 ;       HGA3      CG331       HGA3
   47    16    49	5 ;       HGA3      CG331       HGA3
   48    16    49	5 ;       HGA3      CG331       HGA3
   15    17    50	5 ;      CG301      CG331       HGA3
   15    17    51	5 ;      CG301      CG331       HGA3
   15    17    52	5 ;      CG301      CG331       HGA3
   50    17    51	5 ;       HGA3      CG331       HGA3
   50    17    52	5 ;       HGA3      CG331       HGA3
   51    17    52	5 ;       HGA3      CG331       HGA3
   15    18    53	5 ;      CG301      CG331       HGA3
   15    18    54	5 ;      CG301      CG331       HGA3
   15    18    55	5 ;      CG301      CG331       HGA3
   53    18    54	5 ;       HGA3      CG331       HGA3
   53    18    55	5 ;       HGA3      CG331       HGA3
   54    18    55	5 ;       HGA3      CG331       HGA3
   20    19     1	5 ;       HGP1      OG311      CG311
   22    21     1	5 ;      NG2S1      CG311      CG311
   22    21    27	5 ;      NG2S1      CG311      CG321
   22    21    56	5 ;      NG2S1      CG311       HGA1
    1    21    27	5 ;      CG311      CG311      CG321
    1    21    56	5 ;      CG311      CG311       HGA1
   27    21    56	5 ;      CG321      CG311       HGA1
   23    22    21	5 ;      CG2O1      NG2S1      CG311
   23    22    26	5 ;      CG2O1      NG2S1       HGP1
   21    22    26	5 ;      CG311      NG2S1       HGP1
   24    23    25	5 ;      OG2D1      CG2O1      CG331
   24    23    22	5 ;      OG2D1      CG2O1      NG2S1
   25    23    22	5 ;      CG331      CG2O1      NG2S1
   23    25    57	5 ;      CG2O1      CG331       HGA3
   23    25    58	5 ;      CG2O1      CG331       HGA3
   23    25    59	5 ;      CG2O1      CG331       HGA3
   57    25    58	5 ;       HGA3      CG331       HGA3
   57    25    59	5 ;       HGA3      CG331       HGA3
   58    25    59	5 ;       HGA3      CG331       HGA3
   21    27    28	5 ;      CG311      CG321     CG2R61
   21    27    60	5 ;      CG311      CG321       HGA2
   21    27    61	5 ;      CG311      CG321       HGA2
   28    27    60	5 ;     CG2R61      CG321       HGA2
   28    27    61	5 ;     CG2R61      CG321       HGA2
   60    27    61	5 ;       HGA2      CG321       HGA2
   29    28    27	5 ;     CG2R61     CG2R61      CG321
   29    28    35	5 ;     CG2R61     CG2R61     CG2R61
   27    28    35	5 ;      CG321     CG2R61     CG2R61
   30    29    28	5 ;     CG2R66     CG2R61     CG2R61
   30    29    62	5 ;     CG2R66     CG2R61      HGR62
   28    29    62	5 ;     CG2R61     CG2R61      HGR62
   31    30    29	5 ;       FGR1     CG2R66     CG2R61
   31    30    32	5 ;       FGR1     CG2R66     CG2R61
   29    30    32	5 ;     CG2R61     CG2R66     CG2R61
   30    32    33	5 ;     CG2R66     CG2R61     CG2R66
   30    32    63	5 ;     CG2R66     CG2R61      HGR62
   33    32    63	5 ;     CG2R66     CG2R61      HGR62
   32    33    35	5 ;     CG2R61     CG2R66     CG2R61
   32    33    34	5 ;     CG2R61     CG2R66       FGR1
   35    33    34	5 ;     CG2R61     CG2R66       FGR1
   28    35    33	5 ;     CG2R61     CG2R61     CG2R66
   28    35    64	5 ;     CG2R61     CG2R61      HGR62
   33    35    64	5 ;     CG2R66     CG2R61      HGR62

[ dihedrals ]
;	ai	  aj	ak	  al funct			  c0			c1			  c2			c3			  c4			c5
   21     1    19    20	 9 ;      CG311      CG311      OG311       HGP1
    2     1    19    20	 9 ;      CG324      CG311      OG311       HGP1
   36     1    19    20	 9 ;       HGA1      CG311      OG311       HGP1
   19     1    21    22	 9 ;      OG311      CG311      CG311      NG2S1
   19     1    21    27	 9 ;      OG311      CG311      CG311      CG321
   19     1    21    56	 9 ;      OG311      CG311      CG311       HGA1
    2     1    21    22	 9 ;      CG324      CG311      CG311      NG2S1
    2     1    21    27	 9 ;      CG324      CG311      CG311      CG321
    2     1    21    56	 9 ;      CG324      CG311      CG311       HGA1
   36     1    21    22	 9 ;       HGA1      CG311      CG311      NG2S1
   36     1    21    27	 9 ;       HGA1      CG311      CG311      CG321
   36     1    21    56	 9 ;       HGA1      CG311      CG311       HGA1
   19     1     2     3	 9 ;      OG311      CG311      CG324      NG3P2
   19     1     2    37	 9 ;      OG311      CG311      CG324       HGA2
   19     1     2    38	 9 ;      OG311      CG311      CG324       HGA2
   21     1     2     3	 9 ;      CG311      CG311      CG324      NG3P2
   21     1     2    37	 9 ;      CG311      CG311      CG324       HGA2
   21     1     2    38	 9 ;      CG311      CG311      CG324       HGA2
   36     1     2     3	 9 ;       HGA1      CG311      CG324      NG3P2
   36     1     2    37	 9 ;       HGA1      CG311      CG324       HGA2
   36     1     2    38	 9 ;       HGA1      CG311      CG324       HGA2
    1     2     3     4	 9 ;      CG311      CG324      NG3P2       HGP2
    1     2     3     5	 9 ;      CG311      CG324      NG3P2       HGP2
    1     2     3     6	 9 ;      CG311      CG324      NG3P2     CG3C31
   37     2     3     4	 9 ;       HGA2      CG324      NG3P2       HGP2
   37     2     3     5	 9 ;       HGA2      CG324      NG3P2       HGP2
   37     2     3     6	 9 ;       HGA2      CG324      NG3P2     CG3C31
   38     2     3     4	 9 ;       HGA2      CG324      NG3P2       HGP2
   38     2     3     5	 9 ;       HGA2      CG324      NG3P2       HGP2
   38     2     3     6	 9 ;       HGA2      CG324      NG3P2     CG3C31
    2     3     6     7	 9 ;      CG324      NG3P2     CG3C31     CG3C31
    2     3     6     8	 9 ;      CG324      NG3P2     CG3C31     CG3C31
    2     3     6     9	 9 ;      CG324      NG3P2     CG3C31     CG3C51
    4     3     6     7	 9 ;       HGP2      NG3P2     CG3C31     CG3C31
    4     3     6     8	 9 ;       HGP2      NG3P2     CG3C31     CG3C31
    4     3     6     9	 9 ;       HGP2      NG3P2     CG3C31     CG3C51
    5     3     6     7	 9 ;       HGP2      NG3P2     CG3C31     CG3C31
    5     3     6     8	 9 ;       HGP2      NG3P2     CG3C31     CG3C31
    5     3     6     9	 9 ;       HGP2      NG3P2     CG3C31     CG3C51
    3     6     7     8	 9 ;      NG3P2     CG3C31     CG3C31     CG3C31
    3     6     7    39	 9 ;      NG3P2     CG3C31     CG3C31       HGA2
    3     6     7    40	 9 ;      NG3P2     CG3C31     CG3C31       HGA2
    8     6     7    39	 9 ;     CG3C31     CG3C31     CG3C31       HGA2
    8     6     7    40	 9 ;     CG3C31     CG3C31     CG3C31       HGA2
    9     6     7     8	 9 ;     CG3C51     CG3C31     CG3C31     CG3C31
    9     6     7    39	 9 ;     CG3C51     CG3C31     CG3C31       HGA2
    9     6     7    40	 9 ;     CG3C51     CG3C31     CG3C31       HGA2
    3     6     8     7	 9 ;      NG3P2     CG3C31     CG3C31     CG3C31
    3     6     8    41	 9 ;      NG3P2     CG3C31     CG3C31       HGA2
    3     6     8    42	 9 ;      NG3P2     CG3C31     CG3C31       HGA2
    7     6     8    41	 9 ;     CG3C31     CG3C31     CG3C31       HGA2
    7     6     8    42	 9 ;     CG3C31     CG3C31     CG3C31       HGA2
    9     6     8     7	 9 ;     CG3C51     CG3C31     CG3C31     CG3C31
    9     6     8    41	 9 ;     CG3C51     CG3C31     CG3C31       HGA2
    9     6     8    42	 9 ;     CG3C51     CG3C31     CG3C31       HGA2
    3     6     9    13	 9 ;      NG3P2     CG3C31     CG3C51      SG311
    3     6     9    10	 9 ;      NG3P2     CG3C31     CG3C51     CG3C52
    3     6     9    65	 9 ;      NG3P2     CG3C31     CG3C51       HGA1
    7     6     9    13	 9 ;     CG3C31     CG3C31     CG3C51      SG311
    7     6     9    10	 9 ;     CG3C31     CG3C31     CG3C51     CG3C52
    7     6     9    65	 9 ;     CG3C31     CG3C31     CG3C51       HGA1
    8     6     9    13	 9 ;     CG3C31     CG3C31     CG3C51      SG311
    8     6     9    10	 9 ;     CG3C31     CG3C31     CG3C51     CG3C52
    8     6     9    65	 9 ;     CG3C31     CG3C31     CG3C51       HGA1
    6     7     8    41	 9 ;     CG3C31     CG3C31     CG3C31       HGA2
    6     7     8    42	 9 ;     CG3C31     CG3C31     CG3C31       HGA2
   39     7     8     6	 9 ;       HGA2     CG3C31     CG3C31     CG3C31
   39     7     8    41	 9 ;       HGA2     CG3C31     CG3C31       HGA2
   39     7     8    42	 9 ;       HGA2     CG3C31     CG3C31       HGA2
   40     7     8     6	 9 ;       HGA2     CG3C31     CG3C31     CG3C31
   40     7     8    41	 9 ;       HGA2     CG3C31     CG3C31       HGA2
   40     7     8    42	 9 ;       HGA2     CG3C31     CG3C31       HGA2
    6     9    13    12	 9 ;     CG3C31     CG3C51      SG311     CG3C52
   10     9    13    12	 9 ;     CG3C52     CG3C51      SG311     CG3C52
   65     9    13    12	 9 ;       HGA1     CG3C51      SG311     CG3C52
    6     9    10    11	 9 ;     CG3C31     CG3C51     CG3C52     CG3C51
    6     9    10    43	 9 ;     CG3C31     CG3C51     CG3C52       HGA2
    6     9    10    66	 9 ;     CG3C31     CG3C51     CG3C52       HGA2
   13     9    10    11	 9 ;      SG311     CG3C51     CG3C52     CG3C51
   13     9    10    43	 9 ;      SG311     CG3C51     CG3C52       HGA2
   13     9    10    66	 9 ;      SG311     CG3C51     CG3C52       HGA2
   65     9    10    11	 9 ;       HGA1     CG3C51     CG3C52     CG3C51
   65     9    10    43	 9 ;       HGA1     CG3C51     CG3C52       HGA2
   65     9    10    66	 9 ;       HGA1     CG3C51     CG3C52       HGA2
    9    10    11    12	 9 ;     CG3C51     CG3C52     CG3C51     CG3C52
    9    10    11    14	 9 ;     CG3C51     CG3C52     CG3C51      CG321
    9    10    11    67	 9 ;     CG3C51     CG3C52     CG3C51       HGA1
   43    10    11    12	 9 ;       HGA2     CG3C52     CG3C51     CG3C52
   43    10    11    14	 9 ;       HGA2     CG3C52     CG3C51      CG321
   43    10    11    67	 9 ;       HGA2     CG3C52     CG3C51       HGA1
   66    10    11    12	 9 ;       HGA2     CG3C52     CG3C51     CG3C52
   66    10    11    14	 9 ;       HGA2     CG3C52     CG3C51      CG321
   66    10    11    67	 9 ;       HGA2     CG3C52     CG3C51       HGA1
   10    11    12    13	 9 ;     CG3C52     CG3C51     CG3C52      SG311
   10    11    12    44	 9 ;     CG3C52     CG3C51     CG3C52       HGA2
   10    11    12    68	 9 ;     CG3C52     CG3C51     CG3C52       HGA2
   14    11    12    13	 9 ;      CG321     CG3C51     CG3C52      SG311
   14    11    12    44	 9 ;      CG321     CG3C51     CG3C52       HGA2
   14    11    12    68	 9 ;      CG321     CG3C51     CG3C52       HGA2
   67    11    12    13	 9 ;       HGA1     CG3C51     CG3C52      SG311
   67    11    12    44	 9 ;       HGA1     CG3C51     CG3C52       HGA2
   67    11    12    68	 9 ;       HGA1     CG3C51     CG3C52       HGA2
   10    11    14    15	 9 ;     CG3C52     CG3C51      CG321      CG301
   10    11    14    45	 9 ;     CG3C52     CG3C51      CG321       HGA2
   10    11    14    46	 9 ;     CG3C52     CG3C51      CG321       HGA2
   12    11    14    15	 9 ;     CG3C52     CG3C51      CG321      CG301
   12    11    14    45	 9 ;     CG3C52     CG3C51      CG321       HGA2
   12    11    14    46	 9 ;     CG3C52     CG3C51      CG321       HGA2
   67    11    14    15	 9 ;       HGA1     CG3C51      CG321      CG301
   67    11    14    45	 9 ;       HGA1     CG3C51      CG321       HGA2
   67    11    14    46	 9 ;       HGA1     CG3C51      CG321       HGA2
   11    12    13     9	 9 ;     CG3C51     CG3C52      SG311     CG3C51
   44    12    13     9	 9 ;       HGA2     CG3C52      SG311     CG3C51
   68    12    13     9	 9 ;       HGA2     CG3C52      SG311     CG3C51
   11    14    15    18	 9 ;     CG3C51      CG321      CG301      CG331
   11    14    15    17	 9 ;     CG3C51      CG321      CG301      CG331
   11    14    15    16	 9 ;     CG3C51      CG321      CG301      CG331
   45    14    15    18	 9 ;       HGA2      CG321      CG301      CG331
   45    14    15    17	 9 ;       HGA2      CG321      CG301      CG331
   45    14    15    16	 9 ;       HGA2      CG321      CG301      CG331
   46    14    15    18	 9 ;       HGA2      CG321      CG301      CG331
   46    14    15    17	 9 ;       HGA2      CG321      CG301      CG331
   46    14    15    16	 9 ;       HGA2      CG321      CG301      CG331
   14    15    18    53	 9 ;      CG321      CG301      CG331       HGA3
   14    15    18    54	 9 ;      CG321      CG301      CG331       HGA3
   14    15    18    55	 9 ;      CG321      CG301      CG331       HGA3
   17    15    18    53	 9 ;      CG331      CG301      CG331       HGA3
   17    15    18    54	 9 ;      CG331      CG301      CG331       HGA3
   17    15    18    55	 9 ;      CG331      CG301      CG331       HGA3
   16    15    18    53	 9 ;      CG331      CG301      CG331       HGA3
   16    15    18    54	 9 ;      CG331      CG301      CG331       HGA3
   16    15    18    55	 9 ;      CG331      CG301      CG331       HGA3
   18    15    17    50	 9 ;      CG331      CG301      CG331       HGA3
   18    15    17    51	 9 ;      CG331      CG301      CG331       HGA3
   18    15    17    52	 9 ;      CG331      CG301      CG331       HGA3
   14    15    17    50	 9 ;      CG321      CG301      CG331       HGA3
   14    15    17    51	 9 ;      CG321      CG301      CG331       HGA3
   14    15    17    52	 9 ;      CG321      CG301      CG331       HGA3
   16    15    17    50	 9 ;      CG331      CG301      CG331       HGA3
   16    15    17    51	 9 ;      CG331      CG301      CG331       HGA3
   16    15    17    52	 9 ;      CG331      CG301      CG331       HGA3
   18    15    16    47	 9 ;      CG331      CG301      CG331       HGA3
   18    15    16    48	 9 ;      CG331      CG301      CG331       HGA3
   18    15    16    49	 9 ;      CG331      CG301      CG331       HGA3
   14    15    16    47	 9 ;      CG321      CG301      CG331       HGA3
   14    15    16    48	 9 ;      CG321      CG301      CG331       HGA3
   14    15    16    49	 9 ;      CG321      CG301      CG331       HGA3
   17    15    16    47	 9 ;      CG331      CG301      CG331       HGA3
   17    15    16    48	 9 ;      CG331      CG301      CG331       HGA3
   17    15    16    49	 9 ;      CG331      CG301      CG331       HGA3
    1    21    22    23	 9 ;      CG311      CG311      NG2S1      CG2O1
    1    21    22    26	 9 ;      CG311      CG311      NG2S1       HGP1
   27    21    22    23	 9 ;      CG321      CG311      NG2S1      CG2O1
   27    21    22    26	 9 ;      CG321      CG311      NG2S1       HGP1
   56    21    22    23	 9 ;       HGA1      CG311      NG2S1      CG2O1
   56    21    22    26	 9 ;       HGA1      CG311      NG2S1       HGP1
   22    21    27    28	 9 ;      NG2S1      CG311      CG321     CG2R61
   22    21    27    60	 9 ;      NG2S1      CG311      CG321       HGA2
   22    21    27    61	 9 ;      NG2S1      CG311      CG321       HGA2
    1    21    27    28	 9 ;      CG311      CG311      CG321     CG2R61
    1    21    27    60	 9 ;      CG311      CG311      CG321       HGA2
    1    21    27    61	 9 ;      CG311      CG311      CG321       HGA2
   56    21    27    28	 9 ;       HGA1      CG311      CG321     CG2R61
   56    21    27    60	 9 ;       HGA1      CG311      CG321       HGA2
   56    21    27    61	 9 ;       HGA1      CG311      CG321       HGA2
   21    22    23    24	 9 ;      CG311      NG2S1      CG2O1      OG2D1
   21    22    23    25	 9 ;      CG311      NG2S1      CG2O1      CG331
   26    22    23    24	 9 ;       HGP1      NG2S1      CG2O1      OG2D1
   26    22    23    25	 9 ;       HGP1      NG2S1      CG2O1      CG331
   24    23    25    57	 9 ;      OG2D1      CG2O1      CG331       HGA3
   24    23    25    58	 9 ;      OG2D1      CG2O1      CG331       HGA3
   24    23    25    59	 9 ;      OG2D1      CG2O1      CG331       HGA3
   22    23    25    57	 9 ;      NG2S1      CG2O1      CG331       HGA3
   22    23    25    58	 9 ;      NG2S1      CG2O1      CG331       HGA3
   22    23    25    59	 9 ;      NG2S1      CG2O1      CG331       HGA3
   21    27    28    29	 9 ;      CG311      CG321     CG2R61     CG2R61
   21    27    28    35	 9 ;      CG311      CG321     CG2R61     CG2R61
   60    27    28    29	 9 ;       HGA2      CG321     CG2R61     CG2R61
   60    27    28    35	 9 ;       HGA2      CG321     CG2R61     CG2R61
   61    27    28    29	 9 ;       HGA2      CG321     CG2R61     CG2R61
   61    27    28    35	 9 ;       HGA2      CG321     CG2R61     CG2R61
   27    28    29    30	 9 ;      CG321     CG2R61     CG2R61     CG2R66
   27    28    29    62	 9 ;      CG321     CG2R61     CG2R61      HGR62
   35    28    29    30	 9 ;     CG2R61     CG2R61     CG2R61     CG2R66
   35    28    29    62	 9 ;     CG2R61     CG2R61     CG2R61      HGR62
   29    28    35    33	 9 ;     CG2R61     CG2R61     CG2R61     CG2R66
   29    28    35    64	 9 ;     CG2R61     CG2R61     CG2R61      HGR62
   27    28    35    33	 9 ;      CG321     CG2R61     CG2R61     CG2R66
   27    28    35    64	 9 ;      CG321     CG2R61     CG2R61      HGR62
   28    29    30    31	 9 ;     CG2R61     CG2R61     CG2R66       FGR1
   28    29    30    32	 9 ;     CG2R61     CG2R61     CG2R66     CG2R61
   62    29    30    31	 9 ;      HGR62     CG2R61     CG2R66       FGR1
   62    29    30    32	 9 ;      HGR62     CG2R61     CG2R66     CG2R61
   31    30    32    33	 9 ;       FGR1     CG2R66     CG2R61     CG2R66
   31    30    32    63	 9 ;       FGR1     CG2R66     CG2R61      HGR62
   29    30    32    33	 9 ;     CG2R61     CG2R66     CG2R61     CG2R66
   29    30    32    63	 9 ;     CG2R61     CG2R66     CG2R61      HGR62
   30    32    33    35	 9 ;     CG2R66     CG2R61     CG2R66     CG2R61
   30    32    33    34	 9 ;     CG2R66     CG2R61     CG2R66       FGR1
   63    32    33    35	 9 ;      HGR62     CG2R61     CG2R66     CG2R61
   63    32    33    34	 9 ;      HGR62     CG2R61     CG2R66       FGR1
   32    33    35    28	 9 ;     CG2R61     CG2R66     CG2R61     CG2R61
   32    33    35    64	 9 ;     CG2R61     CG2R66     CG2R61      HGR62
   34    33    35    28	 9 ;       FGR1     CG2R66     CG2R61     CG2R61
   34    33    35    64	 9 ;       FGR1     CG2R66     CG2R61      HGR62

[ dihedrals ]
;	ai	  aj	ak	  al funct			  c0			c1			  c2			c3
   23    25    22    24	 2

