Good gRace! Old Maple Actually Chews Slate
   68
    1LIG     C1    1  -1.284   0.403  -1.757
    1LIG     C2    2  -1.371   0.529  -1.762
    1LIG     N1    3  -1.515   0.496  -1.775
    1LIG     H1    4  -1.544   0.502  -1.873
    1LIG     H2    5  -1.565   0.574  -1.729
    1LIG     C3    6  -1.579   0.368  -1.717
    1LIG     C4    7  -1.619   0.309  -1.861
    1LIG     C5    8  -1.673   0.247  -1.747
    1LIG     C6    9  -1.650   0.435  -1.592
    1LIG     C7   10  -1.707   0.371  -1.485
    1LIG     C8   11  -1.834   0.436  -1.450
    1LIG     C9   12  -1.838   0.563  -1.503
    1LIG      S   13  -1.702   0.598  -1.601
    1LIG    C10   14  -1.939   0.361  -1.371
    1LIG    C11   15  -2.057   0.279  -1.433
    1LIG    C12   16  -2.099   0.149  -1.361
    1LIG    C13   17  -2.182   0.372  -1.424
    1LIG    C14   18  -2.031   0.249  -1.581
    1LIG     O1   19  -1.209   0.401  -1.880
    1LIG     H3   20  -1.137   0.465  -1.874
    1LIG    C15   21  -1.191   0.400  -1.632
    1LIG     N2   22  -1.154   0.539  -1.595
    1LIG    C16   23  -1.048   0.610  -1.651
    1LIG     O2   24  -0.985   0.569  -1.748
    1LIG    C17   25  -1.003   0.729  -1.571
    1LIG     H4   26  -1.205   0.584  -1.520
    1LIG    C18   27  -1.247   0.319  -1.510
    1LIG    C19   28  -1.193   0.182  -1.472
    1LIG    C20   29  -1.082   0.156  -1.392
    1LIG    C21   30  -1.039   0.025  -1.368
    1LIG     F1   31  -0.932   0.003  -1.291
    1LIG    C22   32  -1.107  -0.084  -1.422
    1LIG    C23   33  -1.217  -0.060  -1.501
    1LIG     F2   34  -1.285  -0.163  -1.554
    1LIG    C24   35  -1.260   0.071  -1.526
    1LIG     HC   36  -1.349   0.315  -1.754
    1LIG    HC2   37  -1.341   0.589  -1.847
    1LIG    HC3   38  -1.356   0.586  -1.670
    1LIG    HC4   39  -1.544   0.257  -1.920
    1LIG    HC5   40  -1.689   0.370  -1.918
    1LIG    HC6   41  -1.641   0.146  -1.721
    1LIG    HC7   42  -1.780   0.266  -1.731
    1LIG    HC1   43  -1.665   0.286  -1.433
    1LIG    HC8   44  -1.919   0.633  -1.485
    1LIG    HC9   45  -1.884   0.289  -1.309
    1LIG   HC10   46  -1.984   0.432  -1.302
    1LIG   HC11   47  -2.016   0.078  -1.363
    1LIG   HC12   48  -2.125   0.171  -1.258
    1LIG   HC13   49  -2.185   0.105  -1.412
    1LIG   HC14   50  -2.160   0.467  -1.473
    1LIG   HC15   51  -2.266   0.324  -1.474
    1LIG   HC16   52  -2.206   0.390  -1.319
    1LIG   HC17   53  -1.944   0.184  -1.590
    1LIG   HC18   54  -2.118   0.200  -1.624
    1LIG   HC19   55  -2.012   0.343  -1.634
    1LIG   HC20   56  -1.099   0.350  -1.662
    1LIG   HC21   57  -0.921   0.778  -1.622
    1LIG   HC22   58  -1.086   0.799  -1.560
    1LIG   HC23   59  -0.970   0.696  -1.473
    1LIG   HC24   60  -1.233   0.382  -1.422
    1LIG   HC25   61  -1.354   0.308  -1.525
    1LIG   HC26   62  -1.027   0.238  -1.348
    1LIG   HC27   63  -1.074  -0.185  -1.402
    1LIG   HC28   64  -1.346   0.087  -1.589
    1LIG    H34   65  -1.557   0.458  -1.540
    1LIG    H35   66  -1.655   0.438  -1.417
    1LIG    H36   67  -1.791   0.475  -1.357
    1LIG    H37   68  -1.891   0.525  -1.590
   0.00000   0.00000   0.00000
