Getting the Right Output Means no Artefacts in Calculating Stuff
   69
    1LIG     C1    1  -1.540   0.361  -1.499
    1LIG     C2    2  -1.430   0.457  -1.564
    1LIG     C3    3  -1.277   0.436  -1.522
    1LIG     N1    4  -1.197   0.560  -1.503
    1LIG     C4    5  -1.125   0.607  -1.614
    1LIG     O1    6  -1.154   0.576  -1.728
    1LIG     C5    7  -1.008   0.698  -1.581
    1LIG     H1    8  -1.152   0.574  -1.413
    1LIG     C6    9  -1.257   0.350  -1.391
    1LIG     C7   10  -1.199   0.213  -1.416
    1LIG     C8   11  -1.264   0.125  -1.504
    1LIG     C9   12  -1.220  -0.006  -1.516
    1LIG     F1   13  -1.289  -0.091  -1.594
    1LIG    C10   14  -1.110  -0.052  -1.446
    1LIG    C11   15  -1.040   0.037  -1.366
    1LIG    C12   16  -1.082   0.170  -1.352
    1LIG     F2   17  -0.933  -0.005  -1.299
    1LIG     O2   18  -1.446   0.455  -1.707
    1LIG     H2   19  -1.542   0.450  -1.727
    1LIG     N2   20  -1.684   0.416  -1.522
    1LIG     H3   21  -1.721   0.448  -1.431
    1LIG     H4   22  -1.671   0.503  -1.576
    1LIG    C13   23  -1.797   0.335  -1.588
    1LIG    C14   24  -1.758   0.225  -1.685
    1LIG    C15   25  -1.810   0.354  -1.740
    1LIG    C16   26  -1.932   0.320  -1.514
    1LIG    C17   27  -2.013   0.208  -1.538
    1LIG    C18   28  -2.138   0.190  -1.476
    1LIG    C19   29  -2.188   0.291  -1.395
    1LIG     N3   30  -2.116   0.407  -1.374
    1LIG    C20   31  -1.988   0.419  -1.432
    1LIG    C21   32  -2.207   0.057  -1.492
    1LIG    C22   33  -2.215  -0.042  -1.374
    1LIG    C23   34  -2.131  -0.000  -1.252
    1LIG    C24   35  -2.363  -0.044  -1.331
    1LIG    C25   36  -2.173  -0.184  -1.417
    1LIG     O3   37  -2.161   0.500  -1.301
    1LIG     HO   38  -2.149   0.591  -1.324
    1LIG    HC2   39  -1.532   0.262  -1.544
    1LIG    HC3   40  -1.521   0.353  -1.391
    1LIG     HC   41  -1.456   0.558  -1.532
    1LIG    HC1   42  -1.230   0.381  -1.603
    1LIG    HC4   43  -0.959   0.729  -1.673
    1LIG    HC5   44  -1.044   0.786  -1.528
    1LIG    HC6   45  -0.937   0.644  -1.519
    1LIG    HC7   46  -1.190   0.404  -1.324
    1LIG    HC8   47  -1.353   0.338  -1.342
    1LIG    HC9   48  -1.348   0.160  -1.562
    1LIG   HC10   49  -1.080  -0.156  -1.452
    1LIG   HC11   50  -1.025   0.238  -1.291
    1LIG   HC12   51  -1.654   0.198  -1.698
    1LIG   HC13   52  -1.829   0.141  -1.690
    1LIG   HC14   53  -1.742   0.421  -1.792
    1LIG   HC15   54  -1.911   0.351  -1.778
    1LIG   HC16   55  -1.977   0.132  -1.606
    1LIG   HC17   56  -2.285   0.279  -1.349
    1LIG   HC18   57  -1.931   0.509  -1.412
    1LIG   HC19   58  -2.155   0.004  -1.573
    1LIG   HC20   59  -2.309   0.077  -1.526
    1LIG   HC21   60  -2.026   0.002  -1.280
    1LIG   HC22   61  -2.146  -0.072  -1.171
    1LIG   HC23   62  -2.162   0.099  -1.219
    1LIG   HC24   63  -2.376  -0.113  -1.247
    1LIG   HC25   64  -2.425  -0.078  -1.414
    1LIG   HC26   65  -2.394   0.056  -1.301
    1LIG   HC27   66  -2.233  -0.214  -1.504
    1LIG   HC28   67  -2.068  -0.184  -1.444
    1LIG   HC29   68  -2.190  -0.253  -1.335
    1LIG    H36   69  -2.141   0.245  -1.309
   0.00000   0.00000   0.00000
