; Created by cgenff_charmm2gmx.py

[ moleculetype ]
; Name			   nrexcl
LIG				 3

[ atoms ]
;	 nr		  type	resnr residue  atom   cgnr	   charge		mass  typeB    chargeB		massB
; residue	 1 LIG rtp LIG q	qsum
     1      CG324      1    LIG     C1      1      0.186     12.011   ;
     2      CG311      1    LIG     C2      2      0.093     12.011   ;
     3      CG311      1    LIG     C3      3     -0.007     12.011   ;
     4      NG2S1      1    LIG     N1      4     -0.339     14.007   ;
     5      CG2O1      1    LIG     C4      5      0.488     12.011   ;
     6      OG2D1      1    LIG     O1      6     -0.509     15.999   ;
     7      CG331      1    LIG     C5      7     -0.270     12.011   ;
     8       HGP1      1    LIG     H1      8      0.261      1.008   ;
     9      CG321      1    LIG     C6      9     -0.153     12.011   ;
    10     CG2R61      1    LIG     C7     10      0.057     12.011   ;
    11     CG2R61      1    LIG     C8     11     -0.218     12.011   ;
    12     CG2R66      1    LIG     C9     12      0.261     12.011   ;
    13       FGR1      1    LIG     F1     13     -0.210     18.998   ;
    14     CG2R61      1    LIG    C10     14     -0.240     12.011   ;
    15     CG2R66      1    LIG    C11     15      0.261     12.011   ;
    16     CG2R61      1    LIG    C12     16     -0.218     12.011   ;
    17       FGR1      1    LIG     F2     17     -0.210     18.998   ;
    18      OG311      1    LIG     O2     18     -0.625     15.999   ;
    19       HGP1      1    LIG     H2     19      0.415      1.008   ;
    20      NG3P2      1    LIG     N2     20     -0.485     14.007   ;
    21       HGP2      1    LIG     H3     21      0.343      1.008   ;
    22       HGP2      1    LIG     H4     22      0.343      1.008   ;
    23     CG3C31      1    LIG    C13     23      0.532     12.011   ;
    24     CG3C31      1    LIG    C14     24     -0.154     12.011   ;
    25     CG3C31      1    LIG    C15     25     -0.154     12.011   ;
    26     CG2DC1      1    LIG    C16     26     -0.084     12.011   ;
    27     CG2DC2      1    LIG    C17     27     -0.280     12.011   ;
    28     CG2DC2      1    LIG    C18     28      0.019     12.011   ;
    29      CG321      1    LIG    C19     29      0.043     12.011   ;
    30      NG301      1    LIG     N3     30     -0.309     14.007   ;
    31     CG2D1O      1    LIG    C20     31      0.002     12.011   ;
    32      CG321      1    LIG    C21     32     -0.126     12.011   ;
    33      CG301      1    LIG    C22     33     -0.267     12.011   ;
    34      CG331      1    LIG    C23     34     -0.197     12.011   ;
    35      CG331      1    LIG    C24     35     -0.197     12.011   ;
    36      CG331      1    LIG    C25     36     -0.197     12.011   ;
    37      OG311      1    LIG     O3     37     -0.478     15.999   ;
    38       HGP1      1    LIG     HO     38      0.457      1.008   ;
    39       HGA2      1    LIG    HC2     39      0.090      1.008   ;
    40       HGA2      1    LIG    HC3     40      0.090      1.008   ;
    41       HGA1      1    LIG     HC     41      0.090      1.008   ;
    42       HGA1      1    LIG    HC1     42      0.090      1.008   ;
    43       HGA3      1    LIG    HC4     43      0.090      1.008   ;
    44       HGA3      1    LIG    HC5     44      0.090      1.008   ;
    45       HGA3      1    LIG    HC6     45      0.090      1.008   ;
    46       HGA2      1    LIG    HC7     46      0.090      1.008   ;
    47       HGA2      1    LIG    HC8     47      0.090      1.008   ;
    48      HGR62      1    LIG    HC9     48      0.174      1.008   ;
    49      HGR62      1    LIG   HC10     49      0.186      1.008   ;
    50      HGR62      1    LIG   HC11     50      0.174      1.008   ;
    51       HGA2      1    LIG   HC12     51      0.090      1.008   ;
    52       HGA2      1    LIG   HC13     52      0.090      1.008   ;
    53       HGA2      1    LIG   HC14     53      0.090      1.008   ;
    54       HGA2      1    LIG   HC15     54      0.090      1.008   ;
    55       HGA4      1    LIG   HC16     55      0.150      1.008   ;
    56       HGA2      1    LIG   HC17     56      0.090      1.008   ;
    57       HGA4      1    LIG   HC18     57      0.142      1.008   ;
    58       HGA2      1    LIG   HC19     58      0.090      1.008   ;
    59       HGA2      1    LIG   HC20     59      0.090      1.008   ;
    60       HGA3      1    LIG   HC21     60      0.090      1.008   ;
    61       HGA3      1    LIG   HC22     61      0.090      1.008   ;
    62       HGA3      1    LIG   HC23     62      0.090      1.008   ;
    63       HGA3      1    LIG   HC24     63      0.090      1.008   ;
    64       HGA3      1    LIG   HC25     64      0.090      1.008   ;
    65       HGA3      1    LIG   HC26     65      0.090      1.008   ;
    66       HGA3      1    LIG   HC27     66      0.090      1.008   ;
    67       HGA3      1    LIG   HC28     67      0.090      1.008   ;
    68       HGA3      1    LIG   HC29     68      0.090      1.008   ;
    69       HGA2      1    LIG    H36     69      0.090      1.008   ;

[ bonds ]
;	ai	  aj funct			  c0			c1			  c2			c3
    1     2	 1 ;       CG324      CG311
    1    20	 1 ;       CG324      NG3P2
    1    39	 1 ;       CG324       HGA2
    1    40	 1 ;       CG324       HGA2
    2     3	 1 ;       CG311      CG311
    2    18	 1 ;       CG311      OG311
    2    41	 1 ;       CG311       HGA1
    3     4	 1 ;       CG311      NG2S1
    3     9	 1 ;       CG311      CG321
    3    42	 1 ;       CG311       HGA1
    4     5	 1 ;       NG2S1      CG2O1
    4     8	 1 ;       NG2S1       HGP1
    5     7	 1 ;       CG2O1      CG331
    5     6	 1 ;       CG2O1      OG2D1
    7    43	 1 ;       CG331       HGA3
    7    44	 1 ;       CG331       HGA3
    7    45	 1 ;       CG331       HGA3
    9    10	 1 ;       CG321     CG2R61
    9    46	 1 ;       CG321       HGA2
    9    47	 1 ;       CG321       HGA2
   10    16	 1 ;      CG2R61     CG2R61
   10    11	 1 ;      CG2R61     CG2R61
   11    12	 1 ;      CG2R61     CG2R66
   11    48	 1 ;      CG2R61      HGR62
   12    14	 1 ;      CG2R66     CG2R61
   12    13	 1 ;      CG2R66       FGR1
   14    15	 1 ;      CG2R61     CG2R66
   14    49	 1 ;      CG2R61      HGR62
   15    17	 1 ;      CG2R66       FGR1
   15    16	 1 ;      CG2R66     CG2R61
   16    50	 1 ;      CG2R61      HGR62
   18    19	 1 ;       OG311       HGP1
   20    22	 1 ;       NG3P2       HGP2
   20    23	 1 ;       NG3P2     CG3C31
   20    21	 1 ;       NG3P2       HGP2
   23    25	 1 ;      CG3C31     CG3C31
   23    24	 1 ;      CG3C31     CG3C31
   23    26	 1 ;      CG3C31     CG2DC1
   24    25	 1 ;      CG3C31     CG3C31
   24    51	 1 ;      CG3C31       HGA2
   24    52	 1 ;      CG3C31       HGA2
   25    53	 1 ;      CG3C31       HGA2
   25    54	 1 ;      CG3C31       HGA2
   26    31	 1 ;      CG2DC1     CG2D1O
   26    27	 1 ;      CG2DC1     CG2DC2
   27    28	 1 ;      CG2DC2     CG2DC2
   27    55	 1 ;      CG2DC2       HGA4
   28    29	 1 ;      CG2DC2      CG321
   28    32	 1 ;      CG2DC2      CG321
   29    30	 1 ;       CG321      NG301
   29    56	 1 ;       CG321       HGA2
   29    69	 1 ;       CG321       HGA2
   30    31	 1 ;       NG301     CG2D1O
   30    37	 1 ;       NG301      OG311
   31    57	 1 ;      CG2D1O       HGA4
   32    33	 1 ;       CG321      CG301
   32    58	 1 ;       CG321       HGA2
   32    59	 1 ;       CG321       HGA2
   33    36	 1 ;       CG301      CG331
   33    34	 1 ;       CG301      CG331
   33    35	 1 ;       CG301      CG331
   34    60	 1 ;       CG331       HGA3
   34    61	 1 ;       CG331       HGA3
   34    62	 1 ;       CG331       HGA3
   35    63	 1 ;       CG331       HGA3
   35    64	 1 ;       CG331       HGA3
   35    65	 1 ;       CG331       HGA3
   36    66	 1 ;       CG331       HGA3
   36    67	 1 ;       CG331       HGA3
   36    68	 1 ;       CG331       HGA3
   37    38	 1 ;       OG311       HGP1

[ pairs ]
;	ai	  aj funct			  c0			c1			  c2			c3
    1     4	 1
    1     9	 1
    1    42	 1
    1    19	 1
    1    25	 1
    1    24	 1
    1    26	 1
    2    22	 1
    2    23	 1
    2    21	 1
    2     5	 1
    2     8	 1
    2    10	 1
    2    46	 1
    2    47	 1
    3    20	 1
    3    39	 1
    3    40	 1
    3    19	 1
    3     7	 1
    3     6	 1
    3    16	 1
    3    11	 1
    4    18	 1
    4    41	 1
    4    10	 1
    4    46	 1
    4    47	 1
    4    43	 1
    4    44	 1
    4    45	 1
    5     9	 1
    5    42	 1
    6     8	 1
    6    43	 1
    6    44	 1
    6    45	 1
    7     8	 1
    8     9	 1
    8    42	 1
    9    18	 1
    9    41	 1
    9    15	 1
    9    50	 1
    9    12	 1
    9    48	 1
   10    42	 1
   10    14	 1
   10    13	 1
   10    17	 1
   11    46	 1
   11    47	 1
   11    15	 1
   11    50	 1
   11    49	 1
   12    16	 1
   12    17	 1
   13    48	 1
   13    15	 1
   13    49	 1
   14    48	 1
   14    50	 1
   16    46	 1
   16    47	 1
   16    48	 1
   16    49	 1
   17    49	 1
   17    50	 1
   18    20	 1
   18    39	 1
   18    40	 1
   18    42	 1
   19    41	 1
   20    41	 1
   20    53	 1
   20    54	 1
   20    51	 1
   20    52	 1
   20    31	 1
   20    27	 1
   21    39	 1
   21    40	 1
   21    25	 1
   21    24	 1
   21    26	 1
   22    39	 1
   22    40	 1
   22    25	 1
   22    24	 1
   22    26	 1
   23    39	 1
   23    40	 1
   23    30	 1
   23    57	 1
   23    28	 1
   23    55	 1
   24    31	 1
   24    27	 1
   25    31	 1
   25    27	 1
   26    53	 1
   26    54	 1
   26    51	 1
   26    52	 1
   26    29	 1
   26    32	 1
   26    37	 1
   27    30	 1
   27    57	 1
   27    56	 1
   27    69	 1
   27    33	 1
   27    58	 1
   27    59	 1
   28    31	 1
   28    37	 1
   28    36	 1
   28    34	 1
   28    35	 1
   29    55	 1
   29    33	 1
   29    58	 1
   29    59	 1
   29    57	 1
   29    38	 1
   30    32	 1
   31    55	 1
   31    56	 1
   31    69	 1
   31    38	 1
   32    55	 1
   32    56	 1
   32    69	 1
   32    66	 1
   32    67	 1
   32    68	 1
   32    60	 1
   32    61	 1
   32    62	 1
   32    63	 1
   32    64	 1
   32    65	 1
   34    58	 1
   34    59	 1
   34    66	 1
   34    67	 1
   34    68	 1
   34    63	 1
   34    64	 1
   34    65	 1
   35    58	 1
   35    59	 1
   35    66	 1
   35    67	 1
   35    68	 1
   35    60	 1
   35    61	 1
   35    62	 1
   36    58	 1
   36    59	 1
   36    60	 1
   36    61	 1
   36    62	 1
   36    63	 1
   36    64	 1
   36    65	 1
   37    56	 1
   37    69	 1
   37    57	 1
   39    41	 1
   40    41	 1
   41    42	 1
   42    46	 1
   42    47	 1
   51    53	 1
   51    54	 1
   52    53	 1
   52    54	 1

[ angles ]
;	ai	  aj	ak funct			c0			  c1			c2			  c3
    2     1    20	5 ;      CG311      CG324      NG3P2
    2     1    39	5 ;      CG311      CG324       HGA2
    2     1    40	5 ;      CG311      CG324       HGA2
   20     1    39	5 ;      NG3P2      CG324       HGA2
   20     1    40	5 ;      NG3P2      CG324       HGA2
   39     1    40	5 ;       HGA2      CG324       HGA2
    3     2    18	5 ;      CG311      CG311      OG311
    3     2     1	5 ;      CG311      CG311      CG324
    3     2    41	5 ;      CG311      CG311       HGA1
   18     2     1	5 ;      OG311      CG311      CG324
   18     2    41	5 ;      OG311      CG311       HGA1
    1     2    41	5 ;      CG324      CG311       HGA1
    4     3     9	5 ;      NG2S1      CG311      CG321
    4     3     2	5 ;      NG2S1      CG311      CG311
    4     3    42	5 ;      NG2S1      CG311       HGA1
    9     3     2	5 ;      CG321      CG311      CG311
    9     3    42	5 ;      CG321      CG311       HGA1
    2     3    42	5 ;      CG311      CG311       HGA1
    5     4     8	5 ;      CG2O1      NG2S1       HGP1
    5     4     3	5 ;      CG2O1      NG2S1      CG311
    8     4     3	5 ;       HGP1      NG2S1      CG311
    7     5     6	5 ;      CG331      CG2O1      OG2D1
    7     5     4	5 ;      CG331      CG2O1      NG2S1
    6     5     4	5 ;      OG2D1      CG2O1      NG2S1
    5     7    43	5 ;      CG2O1      CG331       HGA3
    5     7    44	5 ;      CG2O1      CG331       HGA3
    5     7    45	5 ;      CG2O1      CG331       HGA3
   43     7    44	5 ;       HGA3      CG331       HGA3
   43     7    45	5 ;       HGA3      CG331       HGA3
   44     7    45	5 ;       HGA3      CG331       HGA3
    3     9    10	5 ;      CG311      CG321     CG2R61
    3     9    46	5 ;      CG311      CG321       HGA2
    3     9    47	5 ;      CG311      CG321       HGA2
   10     9    46	5 ;     CG2R61      CG321       HGA2
   10     9    47	5 ;     CG2R61      CG321       HGA2
   46     9    47	5 ;       HGA2      CG321       HGA2
   16    10    11	5 ;     CG2R61     CG2R61     CG2R61
   16    10     9	5 ;     CG2R61     CG2R61      CG321
   11    10     9	5 ;     CG2R61     CG2R61      CG321
   10    11    12	5 ;     CG2R61     CG2R61     CG2R66
   10    11    48	5 ;     CG2R61     CG2R61      HGR62
   12    11    48	5 ;     CG2R66     CG2R61      HGR62
   14    12    11	5 ;     CG2R61     CG2R66     CG2R61
   14    12    13	5 ;     CG2R61     CG2R66       FGR1
   11    12    13	5 ;     CG2R61     CG2R66       FGR1
   15    14    12	5 ;     CG2R66     CG2R61     CG2R66
   15    14    49	5 ;     CG2R66     CG2R61      HGR62
   12    14    49	5 ;     CG2R66     CG2R61      HGR62
   17    15    16	5 ;       FGR1     CG2R66     CG2R61
   17    15    14	5 ;       FGR1     CG2R66     CG2R61
   16    15    14	5 ;     CG2R61     CG2R66     CG2R61
   15    16    10	5 ;     CG2R66     CG2R61     CG2R61
   15    16    50	5 ;     CG2R66     CG2R61      HGR62
   10    16    50	5 ;     CG2R61     CG2R61      HGR62
    2    18    19	5 ;      CG311      OG311       HGP1
    1    20    22	5 ;      CG324      NG3P2       HGP2
    1    20    23	5 ;      CG324      NG3P2     CG3C31
    1    20    21	5 ;      CG324      NG3P2       HGP2
   22    20    23	5 ;       HGP2      NG3P2     CG3C31
   22    20    21	5 ;       HGP2      NG3P2       HGP2
   23    20    21	5 ;     CG3C31      NG3P2       HGP2
   25    23    20	5 ;     CG3C31     CG3C31      NG3P2
   25    23    24	5 ;     CG3C31     CG3C31     CG3C31
   25    23    26	5 ;     CG3C31     CG3C31     CG2DC1
   20    23    24	5 ;      NG3P2     CG3C31     CG3C31
   20    23    26	5 ;      NG3P2     CG3C31     CG2DC1
   24    23    26	5 ;     CG3C31     CG3C31     CG2DC1
   25    24    23	5 ;     CG3C31     CG3C31     CG3C31
   25    24    51	5 ;     CG3C31     CG3C31       HGA2
   25    24    52	5 ;     CG3C31     CG3C31       HGA2
   23    24    51	5 ;     CG3C31     CG3C31       HGA2
   23    24    52	5 ;     CG3C31     CG3C31       HGA2
   51    24    52	5 ;       HGA2     CG3C31       HGA2
   24    25    23	5 ;     CG3C31     CG3C31     CG3C31
   24    25    53	5 ;     CG3C31     CG3C31       HGA2
   24    25    54	5 ;     CG3C31     CG3C31       HGA2
   23    25    53	5 ;     CG3C31     CG3C31       HGA2
   23    25    54	5 ;     CG3C31     CG3C31       HGA2
   53    25    54	5 ;       HGA2     CG3C31       HGA2
   23    26    31	5 ;     CG3C31     CG2DC1     CG2D1O
   23    26    27	5 ;     CG3C31     CG2DC1     CG2DC2
   31    26    27	5 ;     CG2D1O     CG2DC1     CG2DC2
   26    27    28	5 ;     CG2DC1     CG2DC2     CG2DC2
   26    27    55	5 ;     CG2DC1     CG2DC2       HGA4
   28    27    55	5 ;     CG2DC2     CG2DC2       HGA4
   27    28    29	5 ;     CG2DC2     CG2DC2      CG321
   27    28    32	5 ;     CG2DC2     CG2DC2      CG321
   29    28    32	5 ;      CG321     CG2DC2      CG321
   30    29    28	5 ;      NG301      CG321     CG2DC2
   30    29    56	5 ;      NG301      CG321       HGA2
   30    29    69	5 ;      NG301      CG321       HGA2
   28    29    56	5 ;     CG2DC2      CG321       HGA2
   28    29    69	5 ;     CG2DC2      CG321       HGA2
   56    29    69	5 ;       HGA2      CG321       HGA2
   31    30    37	5 ;     CG2D1O      NG301      OG311
   31    30    29	5 ;     CG2D1O      NG301      CG321
   37    30    29	5 ;      OG311      NG301      CG321
   26    31    30	5 ;     CG2DC1     CG2D1O      NG301
   26    31    57	5 ;     CG2DC1     CG2D1O       HGA4
   30    31    57	5 ;      NG301     CG2D1O       HGA4
   28    32    33	5 ;     CG2DC2      CG321      CG301
   28    32    58	5 ;     CG2DC2      CG321       HGA2
   28    32    59	5 ;     CG2DC2      CG321       HGA2
   33    32    58	5 ;      CG301      CG321       HGA2
   33    32    59	5 ;      CG301      CG321       HGA2
   58    32    59	5 ;       HGA2      CG321       HGA2
   32    33    36	5 ;      CG321      CG301      CG331
   32    33    34	5 ;      CG321      CG301      CG331
   32    33    35	5 ;      CG321      CG301      CG331
   36    33    34	5 ;      CG331      CG301      CG331
   36    33    35	5 ;      CG331      CG301      CG331
   34    33    35	5 ;      CG331      CG301      CG331
   33    34    60	5 ;      CG301      CG331       HGA3
   33    34    61	5 ;      CG301      CG331       HGA3
   33    34    62	5 ;      CG301      CG331       HGA3
   60    34    61	5 ;       HGA3      CG331       HGA3
   60    34    62	5 ;       HGA3      CG331       HGA3
   61    34    62	5 ;       HGA3      CG331       HGA3
   33    35    63	5 ;      CG301      CG331       HGA3
   33    35    64	5 ;      CG301      CG331       HGA3
   33    35    65	5 ;      CG301      CG331       HGA3
   63    35    64	5 ;       HGA3      CG331       HGA3
   63    35    65	5 ;       HGA3      CG331       HGA3
   64    35    65	5 ;       HGA3      CG331       HGA3
   33    36    66	5 ;      CG301      CG331       HGA3
   33    36    67	5 ;      CG301      CG331       HGA3
   33    36    68	5 ;      CG301      CG331       HGA3
   66    36    67	5 ;       HGA3      CG331       HGA3
   66    36    68	5 ;       HGA3      CG331       HGA3
   67    36    68	5 ;       HGA3      CG331       HGA3
   30    37    38	5 ;      NG301      OG311       HGP1

[ dihedrals ]
;	ai	  aj	ak	  al funct			  c0			c1			  c2			c3			  c4			c5
   20     1     2     3	 9 ;      NG3P2      CG324      CG311      CG311
   20     1     2    18	 9 ;      NG3P2      CG324      CG311      OG311
   20     1     2    41	 9 ;      NG3P2      CG324      CG311       HGA1
   39     1     2     3	 9 ;       HGA2      CG324      CG311      CG311
   39     1     2    18	 9 ;       HGA2      CG324      CG311      OG311
   39     1     2    41	 9 ;       HGA2      CG324      CG311       HGA1
   40     1     2     3	 9 ;       HGA2      CG324      CG311      CG311
   40     1     2    18	 9 ;       HGA2      CG324      CG311      OG311
   40     1     2    41	 9 ;       HGA2      CG324      CG311       HGA1
    2     1    20    22	 9 ;      CG311      CG324      NG3P2       HGP2
    2     1    20    23	 9 ;      CG311      CG324      NG3P2     CG3C31
    2     1    20    21	 9 ;      CG311      CG324      NG3P2       HGP2
   39     1    20    22	 9 ;       HGA2      CG324      NG3P2       HGP2
   39     1    20    23	 9 ;       HGA2      CG324      NG3P2     CG3C31
   39     1    20    21	 9 ;       HGA2      CG324      NG3P2       HGP2
   40     1    20    22	 9 ;       HGA2      CG324      NG3P2       HGP2
   40     1    20    23	 9 ;       HGA2      CG324      NG3P2     CG3C31
   40     1    20    21	 9 ;       HGA2      CG324      NG3P2       HGP2
   18     2     3     4	 9 ;      OG311      CG311      CG311      NG2S1
   18     2     3     9	 9 ;      OG311      CG311      CG311      CG321
   18     2     3    42	 9 ;      OG311      CG311      CG311       HGA1
    1     2     3     4	 9 ;      CG324      CG311      CG311      NG2S1
    1     2     3     9	 9 ;      CG324      CG311      CG311      CG321
    1     2     3    42	 9 ;      CG324      CG311      CG311       HGA1
   41     2     3     4	 9 ;       HGA1      CG311      CG311      NG2S1
   41     2     3     9	 9 ;       HGA1      CG311      CG311      CG321
   41     2     3    42	 9 ;       HGA1      CG311      CG311       HGA1
    3     2    18    19	 9 ;      CG311      CG311      OG311       HGP1
    1     2    18    19	 9 ;      CG324      CG311      OG311       HGP1
   41     2    18    19	 9 ;       HGA1      CG311      OG311       HGP1
    9     3     4     5	 9 ;      CG321      CG311      NG2S1      CG2O1
    9     3     4     8	 9 ;      CG321      CG311      NG2S1       HGP1
    2     3     4     5	 9 ;      CG311      CG311      NG2S1      CG2O1
    2     3     4     8	 9 ;      CG311      CG311      NG2S1       HGP1
   42     3     4     5	 9 ;       HGA1      CG311      NG2S1      CG2O1
   42     3     4     8	 9 ;       HGA1      CG311      NG2S1       HGP1
    4     3     9    10	 9 ;      NG2S1      CG311      CG321     CG2R61
    4     3     9    46	 9 ;      NG2S1      CG311      CG321       HGA2
    4     3     9    47	 9 ;      NG2S1      CG311      CG321       HGA2
    2     3     9    10	 9 ;      CG311      CG311      CG321     CG2R61
    2     3     9    46	 9 ;      CG311      CG311      CG321       HGA2
    2     3     9    47	 9 ;      CG311      CG311      CG321       HGA2
   42     3     9    10	 9 ;       HGA1      CG311      CG321     CG2R61
   42     3     9    46	 9 ;       HGA1      CG311      CG321       HGA2
   42     3     9    47	 9 ;       HGA1      CG311      CG321       HGA2
    8     4     5     7	 9 ;       HGP1      NG2S1      CG2O1      CG331
    8     4     5     6	 9 ;       HGP1      NG2S1      CG2O1      OG2D1
    3     4     5     7	 9 ;      CG311      NG2S1      CG2O1      CG331
    3     4     5     6	 9 ;      CG311      NG2S1      CG2O1      OG2D1
    6     5     7    43	 9 ;      OG2D1      CG2O1      CG331       HGA3
    6     5     7    44	 9 ;      OG2D1      CG2O1      CG331       HGA3
    6     5     7    45	 9 ;      OG2D1      CG2O1      CG331       HGA3
    4     5     7    43	 9 ;      NG2S1      CG2O1      CG331       HGA3
    4     5     7    44	 9 ;      NG2S1      CG2O1      CG331       HGA3
    4     5     7    45	 9 ;      NG2S1      CG2O1      CG331       HGA3
    3     9    10    16	 9 ;      CG311      CG321     CG2R61     CG2R61
    3     9    10    11	 9 ;      CG311      CG321     CG2R61     CG2R61
   46     9    10    16	 9 ;       HGA2      CG321     CG2R61     CG2R61
   46     9    10    11	 9 ;       HGA2      CG321     CG2R61     CG2R61
   47     9    10    16	 9 ;       HGA2      CG321     CG2R61     CG2R61
   47     9    10    11	 9 ;       HGA2      CG321     CG2R61     CG2R61
   11    10    16    15	 9 ;     CG2R61     CG2R61     CG2R61     CG2R66
   11    10    16    50	 9 ;     CG2R61     CG2R61     CG2R61      HGR62
    9    10    16    15	 9 ;      CG321     CG2R61     CG2R61     CG2R66
    9    10    16    50	 9 ;      CG321     CG2R61     CG2R61      HGR62
   16    10    11    12	 9 ;     CG2R61     CG2R61     CG2R61     CG2R66
   16    10    11    48	 9 ;     CG2R61     CG2R61     CG2R61      HGR62
    9    10    11    12	 9 ;      CG321     CG2R61     CG2R61     CG2R66
    9    10    11    48	 9 ;      CG321     CG2R61     CG2R61      HGR62
   10    11    12    14	 9 ;     CG2R61     CG2R61     CG2R66     CG2R61
   10    11    12    13	 9 ;     CG2R61     CG2R61     CG2R66       FGR1
   48    11    12    14	 9 ;      HGR62     CG2R61     CG2R66     CG2R61
   48    11    12    13	 9 ;      HGR62     CG2R61     CG2R66       FGR1
   11    12    14    15	 9 ;     CG2R61     CG2R66     CG2R61     CG2R66
   11    12    14    49	 9 ;     CG2R61     CG2R66     CG2R61      HGR62
   13    12    14    15	 9 ;       FGR1     CG2R66     CG2R61     CG2R66
   13    12    14    49	 9 ;       FGR1     CG2R66     CG2R61      HGR62
   12    14    15    17	 9 ;     CG2R66     CG2R61     CG2R66       FGR1
   12    14    15    16	 9 ;     CG2R66     CG2R61     CG2R66     CG2R61
   49    14    15    17	 9 ;      HGR62     CG2R61     CG2R66       FGR1
   49    14    15    16	 9 ;      HGR62     CG2R61     CG2R66     CG2R61
   17    15    16    10	 9 ;       FGR1     CG2R66     CG2R61     CG2R61
   17    15    16    50	 9 ;       FGR1     CG2R66     CG2R61      HGR62
   14    15    16    10	 9 ;     CG2R61     CG2R66     CG2R61     CG2R61
   14    15    16    50	 9 ;     CG2R61     CG2R66     CG2R61      HGR62
    1    20    23    25	 9 ;      CG324      NG3P2     CG3C31     CG3C31
    1    20    23    24	 9 ;      CG324      NG3P2     CG3C31     CG3C31
    1    20    23    26	 9 ;      CG324      NG3P2     CG3C31     CG2DC1
   22    20    23    25	 9 ;       HGP2      NG3P2     CG3C31     CG3C31
   22    20    23    24	 9 ;       HGP2      NG3P2     CG3C31     CG3C31
   22    20    23    26	 9 ;       HGP2      NG3P2     CG3C31     CG2DC1
   21    20    23    25	 9 ;       HGP2      NG3P2     CG3C31     CG3C31
   21    20    23    24	 9 ;       HGP2      NG3P2     CG3C31     CG3C31
   21    20    23    26	 9 ;       HGP2      NG3P2     CG3C31     CG2DC1
   20    23    25    24	 9 ;      NG3P2     CG3C31     CG3C31     CG3C31
   20    23    25    53	 9 ;      NG3P2     CG3C31     CG3C31       HGA2
   20    23    25    54	 9 ;      NG3P2     CG3C31     CG3C31       HGA2
   24    23    25    53	 9 ;     CG3C31     CG3C31     CG3C31       HGA2
   24    23    25    54	 9 ;     CG3C31     CG3C31     CG3C31       HGA2
   26    23    25    24	 9 ;     CG2DC1     CG3C31     CG3C31     CG3C31
   26    23    25    53	 9 ;     CG2DC1     CG3C31     CG3C31       HGA2
   26    23    25    54	 9 ;     CG2DC1     CG3C31     CG3C31       HGA2
   25    23    24    51	 9 ;     CG3C31     CG3C31     CG3C31       HGA2
   25    23    24    52	 9 ;     CG3C31     CG3C31     CG3C31       HGA2
   20    23    24    25	 9 ;      NG3P2     CG3C31     CG3C31     CG3C31
   20    23    24    51	 9 ;      NG3P2     CG3C31     CG3C31       HGA2
   20    23    24    52	 9 ;      NG3P2     CG3C31     CG3C31       HGA2
   26    23    24    25	 9 ;     CG2DC1     CG3C31     CG3C31     CG3C31
   26    23    24    51	 9 ;     CG2DC1     CG3C31     CG3C31       HGA2
   26    23    24    52	 9 ;     CG2DC1     CG3C31     CG3C31       HGA2
   25    23    26    31	 9 ;     CG3C31     CG3C31     CG2DC1     CG2D1O
   25    23    26    27	 9 ;     CG3C31     CG3C31     CG2DC1     CG2DC2
   20    23    26    31	 9 ;      NG3P2     CG3C31     CG2DC1     CG2D1O
   20    23    26    27	 9 ;      NG3P2     CG3C31     CG2DC1     CG2DC2
   24    23    26    31	 9 ;     CG3C31     CG3C31     CG2DC1     CG2D1O
   24    23    26    27	 9 ;     CG3C31     CG3C31     CG2DC1     CG2DC2
   23    24    25    53	 9 ;     CG3C31     CG3C31     CG3C31       HGA2
   23    24    25    54	 9 ;     CG3C31     CG3C31     CG3C31       HGA2
   51    24    25    23	 9 ;       HGA2     CG3C31     CG3C31     CG3C31
   51    24    25    53	 9 ;       HGA2     CG3C31     CG3C31       HGA2
   51    24    25    54	 9 ;       HGA2     CG3C31     CG3C31       HGA2
   52    24    25    23	 9 ;       HGA2     CG3C31     CG3C31     CG3C31
   52    24    25    53	 9 ;       HGA2     CG3C31     CG3C31       HGA2
   52    24    25    54	 9 ;       HGA2     CG3C31     CG3C31       HGA2
   23    26    31    30	 9 ;     CG3C31     CG2DC1     CG2D1O      NG301
   23    26    31    57	 9 ;     CG3C31     CG2DC1     CG2D1O       HGA4
   27    26    31    30	 9 ;     CG2DC2     CG2DC1     CG2D1O      NG301
   27    26    31    57	 9 ;     CG2DC2     CG2DC1     CG2D1O       HGA4
   23    26    27    28	 9 ;     CG3C31     CG2DC1     CG2DC2     CG2DC2
   23    26    27    55	 9 ;     CG3C31     CG2DC1     CG2DC2       HGA4
   31    26    27    28	 9 ;     CG2D1O     CG2DC1     CG2DC2     CG2DC2
   31    26    27    55	 9 ;     CG2D1O     CG2DC1     CG2DC2       HGA4
   26    27    28    29	 9 ;     CG2DC1     CG2DC2     CG2DC2      CG321
   26    27    28    32	 9 ;     CG2DC1     CG2DC2     CG2DC2      CG321
   55    27    28    29	 9 ;       HGA4     CG2DC2     CG2DC2      CG321
   55    27    28    32	 9 ;       HGA4     CG2DC2     CG2DC2      CG321
   27    28    29    30	 9 ;     CG2DC2     CG2DC2      CG321      NG301
   27    28    29    56	 9 ;     CG2DC2     CG2DC2      CG321       HGA2
   27    28    29    69	 9 ;     CG2DC2     CG2DC2      CG321       HGA2
   32    28    29    30	 9 ;      CG321     CG2DC2      CG321      NG301
   32    28    29    56	 9 ;      CG321     CG2DC2      CG321       HGA2
   32    28    29    69	 9 ;      CG321     CG2DC2      CG321       HGA2
   27    28    32    33	 9 ;     CG2DC2     CG2DC2      CG321      CG301
   27    28    32    58	 9 ;     CG2DC2     CG2DC2      CG321       HGA2
   27    28    32    59	 9 ;     CG2DC2     CG2DC2      CG321       HGA2
   29    28    32    33	 9 ;      CG321     CG2DC2      CG321      CG301
   29    28    32    58	 9 ;      CG321     CG2DC2      CG321       HGA2
   29    28    32    59	 9 ;      CG321     CG2DC2      CG321       HGA2
   28    29    30    31	 9 ;     CG2DC2      CG321      NG301     CG2D1O
   28    29    30    37	 9 ;     CG2DC2      CG321      NG301      OG311
   56    29    30    31	 9 ;       HGA2      CG321      NG301     CG2D1O
   56    29    30    37	 9 ;       HGA2      CG321      NG301      OG311
   69    29    30    31	 9 ;       HGA2      CG321      NG301     CG2D1O
   69    29    30    37	 9 ;       HGA2      CG321      NG301      OG311
   37    30    31    26	 9 ;      OG311      NG301     CG2D1O     CG2DC1
   37    30    31    57	 9 ;      OG311      NG301     CG2D1O       HGA4
   29    30    31    26	 9 ;      CG321      NG301     CG2D1O     CG2DC1
   29    30    31    57	 9 ;      CG321      NG301     CG2D1O       HGA4
   31    30    37    38	 9 ;     CG2D1O      NG301      OG311       HGP1
   29    30    37    38	 9 ;      CG321      NG301      OG311       HGP1
   28    32    33    36	 9 ;     CG2DC2      CG321      CG301      CG331
   28    32    33    34	 9 ;     CG2DC2      CG321      CG301      CG331
   28    32    33    35	 9 ;     CG2DC2      CG321      CG301      CG331
   58    32    33    36	 9 ;       HGA2      CG321      CG301      CG331
   58    32    33    34	 9 ;       HGA2      CG321      CG301      CG331
   58    32    33    35	 9 ;       HGA2      CG321      CG301      CG331
   59    32    33    36	 9 ;       HGA2      CG321      CG301      CG331
   59    32    33    34	 9 ;       HGA2      CG321      CG301      CG331
   59    32    33    35	 9 ;       HGA2      CG321      CG301      CG331
   32    33    36    66	 9 ;      CG321      CG301      CG331       HGA3
   32    33    36    67	 9 ;      CG321      CG301      CG331       HGA3
   32    33    36    68	 9 ;      CG321      CG301      CG331       HGA3
   34    33    36    66	 9 ;      CG331      CG301      CG331       HGA3
   34    33    36    67	 9 ;      CG331      CG301      CG331       HGA3
   34    33    36    68	 9 ;      CG331      CG301      CG331       HGA3
   35    33    36    66	 9 ;      CG331      CG301      CG331       HGA3
   35    33    36    67	 9 ;      CG331      CG301      CG331       HGA3
   35    33    36    68	 9 ;      CG331      CG301      CG331       HGA3
   32    33    34    60	 9 ;      CG321      CG301      CG331       HGA3
   32    33    34    61	 9 ;      CG321      CG301      CG331       HGA3
   32    33    34    62	 9 ;      CG321      CG301      CG331       HGA3
   36    33    34    60	 9 ;      CG331      CG301      CG331       HGA3
   36    33    34    61	 9 ;      CG331      CG301      CG331       HGA3
   36    33    34    62	 9 ;      CG331      CG301      CG331       HGA3
   35    33    34    60	 9 ;      CG331      CG301      CG331       HGA3
   35    33    34    61	 9 ;      CG331      CG301      CG331       HGA3
   35    33    34    62	 9 ;      CG331      CG301      CG331       HGA3
   32    33    35    63	 9 ;      CG321      CG301      CG331       HGA3
   32    33    35    64	 9 ;      CG321      CG301      CG331       HGA3
   32    33    35    65	 9 ;      CG321      CG301      CG331       HGA3
   36    33    35    63	 9 ;      CG331      CG301      CG331       HGA3
   36    33    35    64	 9 ;      CG331      CG301      CG331       HGA3
   36    33    35    65	 9 ;      CG331      CG301      CG331       HGA3
   34    33    35    63	 9 ;      CG331      CG301      CG331       HGA3
   34    33    35    64	 9 ;      CG331      CG301      CG331       HGA3
   34    33    35    65	 9 ;      CG331      CG301      CG331       HGA3

[ dihedrals ]
;	ai	  aj	ak	  al funct			  c0			c1			  c2			c3
    5     7     4     6	 2
   31    26    30    57	 2

