Good ROcking Metal Altar for Chronical Sinners
   65
    1LIG      S    1  -1.655   0.606  -1.636
    1LIG     O1    2  -1.719   0.603  -1.765
    1LIG     O2    3  -1.651   0.725  -1.554
    1LIG     C1    4  -1.718   0.471  -1.537
    1LIG     C2    5  -1.694   0.333  -1.600
    1LIG     C3    6  -1.545   0.314  -1.641
    1LIG     C4    7  -1.484   0.424  -1.733
    1LIG     C5    8  -1.486   0.559  -1.664
    1LIG     N1    9  -1.339   0.382  -1.769
    1LIG     H1   10  -1.331   0.280  -1.782
    1LIG     H2   11  -1.323   0.420  -1.864
    1LIG     C6   12  -1.229   0.430  -1.679
    1LIG     C7   13  -1.218   0.356  -1.547
    1LIG     C8   14  -1.203   0.216  -1.543
    1LIG     C9   15  -1.194   0.142  -1.423
    1LIG    C10   16  -1.206   0.215  -1.303
    1LIG    C11   17  -1.222   0.354  -1.305
    1LIG    C12   18  -1.226   0.424  -1.425
    1LIG    C13   19  -1.163  -0.010  -1.419
    1LIG    C14   20  -1.200  -0.074  -1.283
    1LIG    C15   21  -1.247  -0.081  -1.528
    1LIG    C16   22  -1.015  -0.047  -1.445
    1LIG     O3   23  -1.520   0.189  -1.707
    1LIG     H3   24  -1.605   0.151  -1.737
    1LIG    C17   25  -1.795   0.298  -1.712
    1LIG    C18   26  -1.939   0.275  -1.667
    1LIG    C19   27  -1.962   0.208  -1.546
    1LIG    C20   28  -2.094   0.187  -1.502
    1LIG    C21   29  -2.200   0.232  -1.580
    1LIG    C22   30  -2.156   0.127  -1.389
    1LIG     N2   31  -2.313   0.195  -1.511
    1LIG    C23   32  -2.181   0.299  -1.701
    1LIG     N3   33  -2.289   0.132  -1.395
    1LIG     H4   34  -2.410   0.211  -1.537
    1LIG     HN   35  -2.356   0.096  -1.327
    1LIG    C24   36  -2.049   0.320  -1.742
    1LIG    HC2   37  -1.825   0.485  -1.524
    1LIG    HC3   38  -1.669   0.474  -1.439
    1LIG     HC   39  -1.712   0.261  -1.520
    1LIG    HC1   40  -1.486   0.313  -1.549
    1LIG    HC4   41  -1.543   0.430  -1.825
    1LIG    HC5   42  -1.438   0.633  -1.728
    1LIG    HC6   43  -1.434   0.552  -1.569
    1LIG    HC7   44  -1.134   0.418  -1.732
    1LIG    HC8   45  -1.244   0.536  -1.659
    1LIG    HC9   46  -1.198   0.162  -1.637
    1LIG   HC10   47  -1.203   0.163  -1.209
    1LIG   HC11   48  -1.231   0.407  -1.212
    1LIG   HC12   49  -1.236   0.532  -1.424
    1LIG   HC13   50  -1.304  -0.051  -1.259
    1LIG   HC14   51  -1.187  -0.182  -1.288
    1LIG   HC15   52  -1.136  -0.033  -1.205
    1LIG   HC16   53  -1.353  -0.058  -1.514
    1LIG   HC17   54  -1.215  -0.046  -1.627
    1LIG   HC18   55  -1.232  -0.189  -1.522
    1LIG   HC19   56  -0.984  -0.004  -1.541
    1LIG   HC20   57  -0.953  -0.006  -1.365
    1LIG   HC21   58  -1.004  -0.155  -1.448
    1LIG   HC22   59  -1.760   0.206  -1.761
    1LIG   HC23   60  -1.795   0.378  -1.786
    1LIG   HC24   61  -1.879   0.173  -1.486
    1LIG   HC25   62  -2.101   0.083  -1.308
    1LIG   HC26   63  -2.265   0.332  -1.760
    1LIG   HC27   64  -2.030   0.373  -1.834
    1LIG    H34   65  -1.964   0.112  -1.598
   0.00000   0.00000   0.00000
