; Created by cgenff_charmm2gmx.py

[ moleculetype ]
; Name			   nrexcl
LIG				 3

[ atoms ]
;	 nr		  type	resnr residue  atom   cgnr	   charge		mass  typeB    chargeB		massB
; residue	 1 LIG rtp LIG q	qsum
     1      CG311      1    LIG     CA      1     -0.001     12.011   ;
     2      CG2O3      1    LIG     C1      2      0.898     12.011   ;
     3      OG2D2      1    LIG      O      3     -0.832     15.999   ;
     4      OG2D2      1    LIG    OXT      4     -0.832     15.999   ;
     5      CG321      1    LIG     C2      5     -0.170     12.011   ;
     6     CG2R51      1    LIG     C3      6      0.103     12.011   ;
     7     CG2R51      1    LIG     C4      7     -0.165     12.011   ;
     8     SG2R50      1    LIG      S      8     -0.062     32.060   ;
     9     CG2R51      1    LIG     C5      9     -0.371     12.011   ;
    10     CG2R51      1    LIG     C6     10     -0.009     12.011   ;
    11     CG2DC1      1    LIG     C7     11      0.012     12.011   ;
    12     CG2DC1      1    LIG     C8     12     -0.192     12.011   ;
    13      CG321      1    LIG     C9     13     -0.040     12.011   ;
    14      NG311      1    LIG     N1     14     -0.531     14.007   ;
    15     CG2D2O      1    LIG    C10     15      0.020     12.011   ;
    16     HGPAM1      1    LIG    HN1     16      0.389      1.008   ;
    17     CG2DC2      1    LIG    C11     17     -0.324     12.011   ;
    18      NG311      1    LIG     N2     18     -0.806     14.007   ;
    19     HGPAM1      1    LIG      H     19      0.362      1.008   ;
    20      CG311      1    LIG    C12     20      0.346     12.011   ;
    21      NG311      1    LIG     N3     21     -0.864     14.007   ;
    22      CG301      1    LIG    C13     22      0.375     12.011   ;
    23     HGPAM1      1    LIG    HN2     23      0.350      1.008   ;
    24      CG321      1    LIG    C14     24     -0.230     12.011   ;
    25      CG331      1    LIG    C15     25     -0.295     12.011   ;
    26      CG331      1    LIG    C16     26     -0.295     12.011   ;
    27     CG2R61      1    LIG    C17     27      0.075     12.011   ;
    28     CG2R61      1    LIG    C18     28     -0.121     12.011   ;
    29     CG2R61      1    LIG    C19     29     -0.052     12.011   ;
    30     CG2R61      1    LIG    C20     30      0.048     12.011   ;
    31      CLGR1      1    LIG     CL     31     -0.200     35.453   ;
    32     CG2R61      1    LIG    C21     32     -0.099     12.011   ;
    33     CG2R61      1    LIG    C22     33     -0.108     12.011   ;
    34       HGA1      1    LIG     HC     34      0.090      1.008   ;
    35       HGA2      1    LIG    HC2     35      0.090      1.008   ;
    36       HGA2      1    LIG    HC3     36      0.090      1.008   ;
    37      HGR52      1    LIG    HC1     37      0.195      1.008   ;
    38      HGR52      1    LIG    HC4     38      0.233      1.008   ;
    39       HGA4      1    LIG    HC5     39      0.167      1.008   ;
    40       HGA2      1    LIG    HC6     40      0.090      1.008   ;
    41       HGA4      1    LIG    HC7     41      0.152      1.008   ;
    42       HGA4      1    LIG    HC8     42      0.153      1.008   ;
    43       HGA2      1    LIG    HC9     43      0.090      1.008   ;
    44       HGA2      1    LIG   HC10     44      0.090      1.008   ;
    45       HGA3      1    LIG   HC11     45      0.090      1.008   ;
    46       HGA3      1    LIG   HC12     46      0.090      1.008   ;
    47       HGA3      1    LIG   HC13     47      0.090      1.008   ;
    48       HGA3      1    LIG   HC14     48      0.090      1.008   ;
    49       HGA3      1    LIG   HC15     49      0.090      1.008   ;
    50       HGA3      1    LIG   HC16     50      0.090      1.008   ;
    51      HGR62      1    LIG   HC17     51      0.145      1.008   ;
    52      HGR62      1    LIG   HC18     52      0.150      1.008   ;
    53      HGR61      1    LIG   HC19     53      0.116      1.008   ;
    54       HGA2      1    LIG    H24     54      0.090      1.008   ;
    55       HGA1      1    LIG    H25     55      0.090      1.008   ;
    56        LPH      1    LIG    LP1     56      0.050      0.000   ;

[ bonds ]
;	ai	  aj funct			  c0			c1			  c2			c3
    1     2	 1 ;       CG311      CG2O3
    1     5	 1 ;       CG311      CG321
    1    18	 1 ;       CG311      NG311
    1    34	 1 ;       CG311       HGA1
    2     3	 1 ;       CG2O3      OG2D2
    2     4	 1 ;       CG2O3      OG2D2
    5     6	 1 ;       CG321     CG2R51
    5    35	 1 ;       CG321       HGA2
    5    36	 1 ;       CG321       HGA2
    6     7	 1 ;      CG2R51     CG2R51
    6    10	 1 ;      CG2R51     CG2R51
    7     8	 1 ;      CG2R51     SG2R50
    7    37	 1 ;      CG2R51      HGR52
    8     9	 1 ;      SG2R50     CG2R51
    9    10	 1 ;      CG2R51     CG2R51
    9    38	 1 ;      CG2R51      HGR52
   10    11	 1 ;      CG2R51     CG2DC1
   11    17	 1 ;      CG2DC1     CG2DC2
   11    12	 1 ;      CG2DC1     CG2DC1
   12    13	 1 ;      CG2DC1      CG321
   12    39	 1 ;      CG2DC1       HGA4
   13    14	 1 ;       CG321      NG311
   13    40	 1 ;       CG321       HGA2
   13    54	 1 ;       CG321       HGA2
   14    15	 1 ;       NG311     CG2D2O
   14    16	 1 ;       NG311     HGPAM1
   15    17	 1 ;      CG2D2O     CG2DC2
   15    41	 1 ;      CG2D2O       HGA4
   17    42	 1 ;      CG2DC2       HGA4
   18    19	 1 ;       NG311     HGPAM1
   18    20	 1 ;       NG311      CG311
   20    21	 1 ;       CG311      NG311
   20    29	 1 ;       CG311     CG2R61
   20    55	 1 ;       CG311       HGA1
   21    23	 1 ;       NG311     HGPAM1
   21    22	 1 ;       NG311      CG301
   22    25	 1 ;       CG301      CG331
   22    24	 1 ;       CG301      CG321
   22    26	 1 ;       CG301      CG331
   24    27	 1 ;       CG321     CG2R61
   24    43	 1 ;       CG321       HGA2
   24    44	 1 ;       CG321       HGA2
   25    45	 1 ;       CG331       HGA3
   25    46	 1 ;       CG331       HGA3
   25    47	 1 ;       CG331       HGA3
   26    48	 1 ;       CG331       HGA3
   26    49	 1 ;       CG331       HGA3
   26    50	 1 ;       CG331       HGA3
   27    29	 1 ;      CG2R61     CG2R61
   27    28	 1 ;      CG2R61     CG2R61
   28    30	 1 ;      CG2R61     CG2R61
   28    51	 1 ;      CG2R61      HGR62
   29    33	 1 ;      CG2R61     CG2R61
   30    32	 1 ;      CG2R61     CG2R61
   30    31	 1 ;      CG2R61      CLGR1
   32    33	 1 ;      CG2R61     CG2R61
   32    52	 1 ;      CG2R61      HGR62
   33    53	 1 ;      CG2R61      HGR61

[ pairs ]
;	ai	  aj funct			  c0			c1			  c2			c3
    1     7	 1
    1    10	 1
    1    21	 1
    1    29	 1
    1    55	 1
    2     6	 1
    2    35	 1
    2    36	 1
    2    19	 1
    2    20	 1
    3     5	 1
    3    18	 1
    3    34	 1
    4     5	 1
    4    18	 1
    4    34	 1
    5    19	 1
    5    20	 1
    5     8	 1
    5    37	 1
    5     9	 1
    5    11	 1
    6    18	 1
    6    34	 1
    6    38	 1
    6    17	 1
    6    12	 1
    7    35	 1
    7    36	 1
    7    11	 1
    7    38	 1
    8    11	 1
    9    37	 1
    9    17	 1
    9    12	 1
   10    35	 1
   10    36	 1
   10    37	 1
   10    15	 1
   10    42	 1
   10    13	 1
   10    39	 1
   11    38	 1
   11    14	 1
   11    40	 1
   11    54	 1
   11    41	 1
   12    15	 1
   12    42	 1
   12    16	 1
   13    17	 1
   13    41	 1
   14    39	 1
   14    42	 1
   15    40	 1
   15    54	 1
   16    40	 1
   16    54	 1
   16    17	 1
   16    41	 1
   17    39	 1
   18    35	 1
   18    36	 1
   18    23	 1
   18    22	 1
   18    33	 1
   18    27	 1
   19    34	 1
   19    21	 1
   19    29	 1
   19    55	 1
   20    34	 1
   20    25	 1
   20    24	 1
   20    26	 1
   20    28	 1
   20    32	 1
   20    53	 1
   21    33	 1
   21    27	 1
   21    45	 1
   21    46	 1
   21    47	 1
   21    43	 1
   21    44	 1
   21    48	 1
   21    49	 1
   21    50	 1
   22    29	 1
   22    55	 1
   22    28	 1
   23    29	 1
   23    55	 1
   23    25	 1
   23    24	 1
   23    26	 1
   24    45	 1
   24    46	 1
   24    47	 1
   24    48	 1
   24    49	 1
   24    50	 1
   24    33	 1
   24    30	 1
   24    51	 1
   25    27	 1
   25    43	 1
   25    44	 1
   25    48	 1
   25    49	 1
   25    50	 1
   26    45	 1
   26    46	 1
   26    47	 1
   26    27	 1
   26    43	 1
   26    44	 1
   27    55	 1
   27    32	 1
   27    31	 1
   56    27	 1
   27    53	 1
   28    43	 1
   28    44	 1
   28    33	 1
   28    52	 1
   29    43	 1
   29    44	 1
   29    30	 1
   29    51	 1
   29    52	 1
   30    53	 1
   31    51	 1
   56    51	 1
   31    33	 1
   56    33	 1
   31    52	 1
   56    52	 1
   32    51	 1
   33    55	 1
   34    35	 1
   34    36	 1
   39    40	 1
   39    54	 1
   41    42	 1
   52    53	 1

[ angles ]
;	ai	  aj	ak funct			c0			  c1			c2			  c3
    2     1     5	5 ;      CG2O3      CG311      CG321
    2     1    18	5 ;      CG2O3      CG311      NG311
    2     1    34	5 ;      CG2O3      CG311       HGA1
    5     1    18	5 ;      CG321      CG311      NG311
    5     1    34	5 ;      CG321      CG311       HGA1
   18     1    34	5 ;      NG311      CG311       HGA1
    3     2     4	5 ;      OG2D2      CG2O3      OG2D2
    3     2     1	5 ;      OG2D2      CG2O3      CG311
    4     2     1	5 ;      OG2D2      CG2O3      CG311
    6     5     1	5 ;     CG2R51      CG321      CG311
    6     5    35	5 ;     CG2R51      CG321       HGA2
    6     5    36	5 ;     CG2R51      CG321       HGA2
    1     5    35	5 ;      CG311      CG321       HGA2
    1     5    36	5 ;      CG311      CG321       HGA2
   35     5    36	5 ;       HGA2      CG321       HGA2
    7     6     5	5 ;     CG2R51     CG2R51      CG321
    7     6    10	5 ;     CG2R51     CG2R51     CG2R51
    5     6    10	5 ;      CG321     CG2R51     CG2R51
    8     7     6	5 ;     SG2R50     CG2R51     CG2R51
    8     7    37	5 ;     SG2R50     CG2R51      HGR52
    6     7    37	5 ;     CG2R51     CG2R51      HGR52
    7     8     9	5 ;     CG2R51     SG2R50     CG2R51
    8     9    10	5 ;     SG2R50     CG2R51     CG2R51
    8     9    38	5 ;     SG2R50     CG2R51      HGR52
   10     9    38	5 ;     CG2R51     CG2R51      HGR52
    6    10     9	5 ;     CG2R51     CG2R51     CG2R51
    6    10    11	5 ;     CG2R51     CG2R51     CG2DC1
    9    10    11	5 ;     CG2R51     CG2R51     CG2DC1
   10    11    17	5 ;     CG2R51     CG2DC1     CG2DC2
   10    11    12	5 ;     CG2R51     CG2DC1     CG2DC1
   17    11    12	5 ;     CG2DC2     CG2DC1     CG2DC1
   11    12    13	5 ;     CG2DC1     CG2DC1      CG321
   11    12    39	5 ;     CG2DC1     CG2DC1       HGA4
   13    12    39	5 ;      CG321     CG2DC1       HGA4
   12    13    14	5 ;     CG2DC1      CG321      NG311
   12    13    40	5 ;     CG2DC1      CG321       HGA2
   12    13    54	5 ;     CG2DC1      CG321       HGA2
   14    13    40	5 ;      NG311      CG321       HGA2
   14    13    54	5 ;      NG311      CG321       HGA2
   40    13    54	5 ;       HGA2      CG321       HGA2
   15    14    13	5 ;     CG2D2O      NG311      CG321
   15    14    16	5 ;     CG2D2O      NG311     HGPAM1
   13    14    16	5 ;      CG321      NG311     HGPAM1
   17    15    14	5 ;     CG2DC2     CG2D2O      NG311
   17    15    41	5 ;     CG2DC2     CG2D2O       HGA4
   14    15    41	5 ;      NG311     CG2D2O       HGA4
   11    17    15	5 ;     CG2DC1     CG2DC2     CG2D2O
   11    17    42	5 ;     CG2DC1     CG2DC2       HGA4
   15    17    42	5 ;     CG2D2O     CG2DC2       HGA4
    1    18    19	5 ;      CG311      NG311     HGPAM1
    1    18    20	5 ;      CG311      NG311      CG311
   19    18    20	5 ;     HGPAM1      NG311      CG311
   18    20    21	5 ;      NG311      CG311      NG311
   18    20    29	5 ;      NG311      CG311     CG2R61
   18    20    55	5 ;      NG311      CG311       HGA1
   21    20    29	5 ;      NG311      CG311     CG2R61
   21    20    55	5 ;      NG311      CG311       HGA1
   29    20    55	5 ;     CG2R61      CG311       HGA1
   23    21    20	5 ;     HGPAM1      NG311      CG311
   23    21    22	5 ;     HGPAM1      NG311      CG301
   20    21    22	5 ;      CG311      NG311      CG301
   21    22    25	5 ;      NG311      CG301      CG331
   21    22    24	5 ;      NG311      CG301      CG321
   21    22    26	5 ;      NG311      CG301      CG331
   25    22    24	5 ;      CG331      CG301      CG321
   25    22    26	5 ;      CG331      CG301      CG331
   24    22    26	5 ;      CG321      CG301      CG331
   22    24    27	5 ;      CG301      CG321     CG2R61
   22    24    43	5 ;      CG301      CG321       HGA2
   22    24    44	5 ;      CG301      CG321       HGA2
   27    24    43	5 ;     CG2R61      CG321       HGA2
   27    24    44	5 ;     CG2R61      CG321       HGA2
   43    24    44	5 ;       HGA2      CG321       HGA2
   22    25    45	5 ;      CG301      CG331       HGA3
   22    25    46	5 ;      CG301      CG331       HGA3
   22    25    47	5 ;      CG301      CG331       HGA3
   45    25    46	5 ;       HGA3      CG331       HGA3
   45    25    47	5 ;       HGA3      CG331       HGA3
   46    25    47	5 ;       HGA3      CG331       HGA3
   22    26    48	5 ;      CG301      CG331       HGA3
   22    26    49	5 ;      CG301      CG331       HGA3
   22    26    50	5 ;      CG301      CG331       HGA3
   48    26    49	5 ;       HGA3      CG331       HGA3
   48    26    50	5 ;       HGA3      CG331       HGA3
   49    26    50	5 ;       HGA3      CG331       HGA3
   29    27    24	5 ;     CG2R61     CG2R61      CG321
   29    27    28	5 ;     CG2R61     CG2R61     CG2R61
   24    27    28	5 ;      CG321     CG2R61     CG2R61
   27    28    30	5 ;     CG2R61     CG2R61     CG2R61
   27    28    51	5 ;     CG2R61     CG2R61      HGR62
   30    28    51	5 ;     CG2R61     CG2R61      HGR62
   20    29    33	5 ;      CG311     CG2R61     CG2R61
   20    29    27	5 ;      CG311     CG2R61     CG2R61
   33    29    27	5 ;     CG2R61     CG2R61     CG2R61
   32    30    28	5 ;     CG2R61     CG2R61     CG2R61
   32    30    31	5 ;     CG2R61     CG2R61      CLGR1
   28    30    31	5 ;     CG2R61     CG2R61      CLGR1
   33    32    30	5 ;     CG2R61     CG2R61     CG2R61
   33    32    52	5 ;     CG2R61     CG2R61      HGR62
   30    32    52	5 ;     CG2R61     CG2R61      HGR62
   29    33    32	5 ;     CG2R61     CG2R61     CG2R61
   29    33    53	5 ;     CG2R61     CG2R61      HGR61
   32    33    53	5 ;     CG2R61     CG2R61      HGR61

[ dihedrals ]
;	ai	  aj	ak	  al funct			  c0			c1			  c2			c3			  c4			c5
    5     1     2     3	 9 ;      CG321      CG311      CG2O3      OG2D2
    5     1     2     4	 9 ;      CG321      CG311      CG2O3      OG2D2
   18     1     2     3	 9 ;      NG311      CG311      CG2O3      OG2D2
   18     1     2     4	 9 ;      NG311      CG311      CG2O3      OG2D2
   34     1     2     3	 9 ;       HGA1      CG311      CG2O3      OG2D2
   34     1     2     4	 9 ;       HGA1      CG311      CG2O3      OG2D2
    2     1     5     6	 9 ;      CG2O3      CG311      CG321     CG2R51
    2     1     5    35	 9 ;      CG2O3      CG311      CG321       HGA2
    2     1     5    36	 9 ;      CG2O3      CG311      CG321       HGA2
   18     1     5     6	 9 ;      NG311      CG311      CG321     CG2R51
   18     1     5    35	 9 ;      NG311      CG311      CG321       HGA2
   18     1     5    36	 9 ;      NG311      CG311      CG321       HGA2
   34     1     5     6	 9 ;       HGA1      CG311      CG321     CG2R51
   34     1     5    35	 9 ;       HGA1      CG311      CG321       HGA2
   34     1     5    36	 9 ;       HGA1      CG311      CG321       HGA2
    2     1    18    19	 9 ;      CG2O3      CG311      NG311     HGPAM1
    2     1    18    20	 9 ;      CG2O3      CG311      NG311      CG311
    5     1    18    19	 9 ;      CG321      CG311      NG311     HGPAM1
    5     1    18    20	 9 ;      CG321      CG311      NG311      CG311
   34     1    18    19	 9 ;       HGA1      CG311      NG311     HGPAM1
   34     1    18    20	 9 ;       HGA1      CG311      NG311      CG311
    1     5     6     7	 9 ;      CG311      CG321     CG2R51     CG2R51
    1     5     6    10	 9 ;      CG311      CG321     CG2R51     CG2R51
   35     5     6     7	 9 ;       HGA2      CG321     CG2R51     CG2R51
   35     5     6    10	 9 ;       HGA2      CG321     CG2R51     CG2R51
   36     5     6     7	 9 ;       HGA2      CG321     CG2R51     CG2R51
   36     5     6    10	 9 ;       HGA2      CG321     CG2R51     CG2R51
    5     6     7     8	 9 ;      CG321     CG2R51     CG2R51     SG2R50
    5     6     7    37	 9 ;      CG321     CG2R51     CG2R51      HGR52
   10     6     7     8	 9 ;     CG2R51     CG2R51     CG2R51     SG2R50
   10     6     7    37	 9 ;     CG2R51     CG2R51     CG2R51      HGR52
    7     6    10     9	 9 ;     CG2R51     CG2R51     CG2R51     CG2R51
    7     6    10    11	 9 ;     CG2R51     CG2R51     CG2R51     CG2DC1
    5     6    10     9	 9 ;      CG321     CG2R51     CG2R51     CG2R51
    5     6    10    11	 9 ;      CG321     CG2R51     CG2R51     CG2DC1
    6     7     8     9	 9 ;     CG2R51     CG2R51     SG2R50     CG2R51
   37     7     8     9	 9 ;      HGR52     CG2R51     SG2R50     CG2R51
    7     8     9    10	 9 ;     CG2R51     SG2R50     CG2R51     CG2R51
    7     8     9    38	 9 ;     CG2R51     SG2R50     CG2R51      HGR52
    8     9    10     6	 9 ;     SG2R50     CG2R51     CG2R51     CG2R51
    8     9    10    11	 9 ;     SG2R50     CG2R51     CG2R51     CG2DC1
   38     9    10     6	 9 ;      HGR52     CG2R51     CG2R51     CG2R51
   38     9    10    11	 9 ;      HGR52     CG2R51     CG2R51     CG2DC1
    6    10    11    17	 9 ;     CG2R51     CG2R51     CG2DC1     CG2DC2
    6    10    11    12	 9 ;     CG2R51     CG2R51     CG2DC1     CG2DC1
    9    10    11    17	 9 ;     CG2R51     CG2R51     CG2DC1     CG2DC2
    9    10    11    12	 9 ;     CG2R51     CG2R51     CG2DC1     CG2DC1
   10    11    17    15	 9 ;     CG2R51     CG2DC1     CG2DC2     CG2D2O
   10    11    17    42	 9 ;     CG2R51     CG2DC1     CG2DC2       HGA4
   12    11    17    15	 9 ;     CG2DC1     CG2DC1     CG2DC2     CG2D2O
   12    11    17    42	 9 ;     CG2DC1     CG2DC1     CG2DC2       HGA4
   10    11    12    13	 9 ;     CG2R51     CG2DC1     CG2DC1      CG321
   10    11    12    39	 9 ;     CG2R51     CG2DC1     CG2DC1       HGA4
   17    11    12    13	 9 ;     CG2DC2     CG2DC1     CG2DC1      CG321
   17    11    12    39	 9 ;     CG2DC2     CG2DC1     CG2DC1       HGA4
   11    12    13    14	 9 ;     CG2DC1     CG2DC1      CG321      NG311
   11    12    13    40	 9 ;     CG2DC1     CG2DC1      CG321       HGA2
   11    12    13    54	 9 ;     CG2DC1     CG2DC1      CG321       HGA2
   39    12    13    14	 9 ;       HGA4     CG2DC1      CG321      NG311
   39    12    13    40	 9 ;       HGA4     CG2DC1      CG321       HGA2
   39    12    13    54	 9 ;       HGA4     CG2DC1      CG321       HGA2
   12    13    14    15	 9 ;     CG2DC1      CG321      NG311     CG2D2O
   12    13    14    16	 9 ;     CG2DC1      CG321      NG311     HGPAM1
   40    13    14    15	 9 ;       HGA2      CG321      NG311     CG2D2O
   40    13    14    16	 9 ;       HGA2      CG321      NG311     HGPAM1
   54    13    14    15	 9 ;       HGA2      CG321      NG311     CG2D2O
   54    13    14    16	 9 ;       HGA2      CG321      NG311     HGPAM1
   13    14    15    17	 9 ;      CG321      NG311     CG2D2O     CG2DC2
   13    14    15    41	 9 ;      CG321      NG311     CG2D2O       HGA4
   16    14    15    17	 9 ;     HGPAM1      NG311     CG2D2O     CG2DC2
   16    14    15    41	 9 ;     HGPAM1      NG311     CG2D2O       HGA4
   14    15    17    11	 9 ;      NG311     CG2D2O     CG2DC2     CG2DC1
   14    15    17    42	 9 ;      NG311     CG2D2O     CG2DC2       HGA4
   41    15    17    11	 9 ;       HGA4     CG2D2O     CG2DC2     CG2DC1
   41    15    17    42	 9 ;       HGA4     CG2D2O     CG2DC2       HGA4
    1    18    20    21	 9 ;      CG311      NG311      CG311      NG311
    1    18    20    29	 9 ;      CG311      NG311      CG311     CG2R61
    1    18    20    55	 9 ;      CG311      NG311      CG311       HGA1
   19    18    20    21	 9 ;     HGPAM1      NG311      CG311      NG311
   19    18    20    29	 9 ;     HGPAM1      NG311      CG311     CG2R61
   19    18    20    55	 9 ;     HGPAM1      NG311      CG311       HGA1
   18    20    21    23	 9 ;      NG311      CG311      NG311     HGPAM1
   18    20    21    22	 9 ;      NG311      CG311      NG311      CG301
   29    20    21    23	 9 ;     CG2R61      CG311      NG311     HGPAM1
   29    20    21    22	 9 ;     CG2R61      CG311      NG311      CG301
   55    20    21    23	 9 ;       HGA1      CG311      NG311     HGPAM1
   55    20    21    22	 9 ;       HGA1      CG311      NG311      CG301
   18    20    29    33	 9 ;      NG311      CG311     CG2R61     CG2R61
   18    20    29    27	 9 ;      NG311      CG311     CG2R61     CG2R61
   21    20    29    33	 9 ;      NG311      CG311     CG2R61     CG2R61
   21    20    29    27	 9 ;      NG311      CG311     CG2R61     CG2R61
   55    20    29    33	 9 ;       HGA1      CG311     CG2R61     CG2R61
   55    20    29    27	 9 ;       HGA1      CG311     CG2R61     CG2R61
   23    21    22    25	 9 ;     HGPAM1      NG311      CG301      CG331
   23    21    22    24	 9 ;     HGPAM1      NG311      CG301      CG321
   23    21    22    26	 9 ;     HGPAM1      NG311      CG301      CG331
   20    21    22    25	 9 ;      CG311      NG311      CG301      CG331
   20    21    22    24	 9 ;      CG311      NG311      CG301      CG321
   20    21    22    26	 9 ;      CG311      NG311      CG301      CG331
   21    22    25    45	 9 ;      NG311      CG301      CG331       HGA3
   21    22    25    46	 9 ;      NG311      CG301      CG331       HGA3
   21    22    25    47	 9 ;      NG311      CG301      CG331       HGA3
   24    22    25    45	 9 ;      CG321      CG301      CG331       HGA3
   24    22    25    46	 9 ;      CG321      CG301      CG331       HGA3
   24    22    25    47	 9 ;      CG321      CG301      CG331       HGA3
   26    22    25    45	 9 ;      CG331      CG301      CG331       HGA3
   26    22    25    46	 9 ;      CG331      CG301      CG331       HGA3
   26    22    25    47	 9 ;      CG331      CG301      CG331       HGA3
   21    22    24    27	 9 ;      NG311      CG301      CG321     CG2R61
   21    22    24    43	 9 ;      NG311      CG301      CG321       HGA2
   21    22    24    44	 9 ;      NG311      CG301      CG321       HGA2
   25    22    24    27	 9 ;      CG331      CG301      CG321     CG2R61
   25    22    24    43	 9 ;      CG331      CG301      CG321       HGA2
   25    22    24    44	 9 ;      CG331      CG301      CG321       HGA2
   26    22    24    27	 9 ;      CG331      CG301      CG321     CG2R61
   26    22    24    43	 9 ;      CG331      CG301      CG321       HGA2
   26    22    24    44	 9 ;      CG331      CG301      CG321       HGA2
   21    22    26    48	 9 ;      NG311      CG301      CG331       HGA3
   21    22    26    49	 9 ;      NG311      CG301      CG331       HGA3
   21    22    26    50	 9 ;      NG311      CG301      CG331       HGA3
   25    22    26    48	 9 ;      CG331      CG301      CG331       HGA3
   25    22    26    49	 9 ;      CG331      CG301      CG331       HGA3
   25    22    26    50	 9 ;      CG331      CG301      CG331       HGA3
   24    22    26    48	 9 ;      CG321      CG301      CG331       HGA3
   24    22    26    49	 9 ;      CG321      CG301      CG331       HGA3
   24    22    26    50	 9 ;      CG321      CG301      CG331       HGA3
   22    24    27    29	 9 ;      CG301      CG321     CG2R61     CG2R61
   22    24    27    28	 9 ;      CG301      CG321     CG2R61     CG2R61
   43    24    27    29	 9 ;       HGA2      CG321     CG2R61     CG2R61
   43    24    27    28	 9 ;       HGA2      CG321     CG2R61     CG2R61
   44    24    27    29	 9 ;       HGA2      CG321     CG2R61     CG2R61
   44    24    27    28	 9 ;       HGA2      CG321     CG2R61     CG2R61
   24    27    29    20	 9 ;      CG321     CG2R61     CG2R61      CG311
   24    27    29    33	 9 ;      CG321     CG2R61     CG2R61     CG2R61
   28    27    29    20	 9 ;     CG2R61     CG2R61     CG2R61      CG311
   28    27    29    33	 9 ;     CG2R61     CG2R61     CG2R61     CG2R61
   29    27    28    30	 9 ;     CG2R61     CG2R61     CG2R61     CG2R61
   29    27    28    51	 9 ;     CG2R61     CG2R61     CG2R61      HGR62
   24    27    28    30	 9 ;      CG321     CG2R61     CG2R61     CG2R61
   24    27    28    51	 9 ;      CG321     CG2R61     CG2R61      HGR62
   27    28    30    32	 9 ;     CG2R61     CG2R61     CG2R61     CG2R61
   27    28    30    31	 9 ;     CG2R61     CG2R61     CG2R61      CLGR1
   51    28    30    32	 9 ;      HGR62     CG2R61     CG2R61     CG2R61
   51    28    30    31	 9 ;      HGR62     CG2R61     CG2R61      CLGR1
   20    29    33    32	 9 ;      CG311     CG2R61     CG2R61     CG2R61
   20    29    33    53	 9 ;      CG311     CG2R61     CG2R61      HGR61
   27    29    33    32	 9 ;     CG2R61     CG2R61     CG2R61     CG2R61
   27    29    33    53	 9 ;     CG2R61     CG2R61     CG2R61      HGR61
   28    30    32    33	 9 ;     CG2R61     CG2R61     CG2R61     CG2R61
   28    30    32    52	 9 ;     CG2R61     CG2R61     CG2R61      HGR62
   31    30    32    33	 9 ;      CLGR1     CG2R61     CG2R61     CG2R61
   31    30    32    52	 9 ;      CLGR1     CG2R61     CG2R61      HGR62
   30    32    33    29	 9 ;     CG2R61     CG2R61     CG2R61     CG2R61
   30    32    33    53	 9 ;     CG2R61     CG2R61     CG2R61      HGR61
   52    32    33    29	 9 ;      HGR62     CG2R61     CG2R61     CG2R61
   52    32    33    53	 9 ;      HGR62     CG2R61     CG2R61      HGR61

[ dihedrals ]
;	ai	  aj	ak	  al funct			  c0			c1			  c2			c3
    2     3     4     1	 2
   15    17    14    41	 2

[ virtual_sites2 ]
; Site   from				funct a
   56    31    30     2   -0.164

[ exclusions ]
;	ai	  aj
   31    56
   56    30
   56    32
   56    28
   56    27
   56    51
   56    33
   56    52

