Gallium Rubidium Oxygen Manganese Argon Carbon Silicon
   56
    1LIG     CA    1  -0.966   0.379  -1.817
    1LIG     C1    2  -0.893   0.291  -1.927
    1LIG      O    3  -0.772   0.266  -1.904
    1LIG    OXT    4  -0.964   0.251  -2.024
    1LIG     C2    5  -0.950   0.522  -1.870
    1LIG     C3    6  -0.874   0.626  -1.789
    1LIG     C4    7  -0.746   0.670  -1.813
    1LIG      S    8  -0.692   0.783  -1.697
    1LIG     C5    9  -0.842   0.781  -1.616
    1LIG     C6   10  -0.934   0.698  -1.677
    1LIG     C7   11  -1.074   0.694  -1.634
    1LIG     C8   12  -1.106   0.627  -1.515
    1LIG     C9   13  -1.237   0.628  -1.471
    1LIG     N1   14  -1.338   0.687  -1.539
    1LIG    C10   15  -1.305   0.750  -1.653
    1LIG    HN1   16  -1.435   0.683  -1.505
    1LIG    C11   17  -1.176   0.756  -1.705
    1LIG     N2   18  -1.107   0.335  -1.807
    1LIG      H   19  -1.145   0.316  -1.899
    1LIG    C12   20  -1.162   0.268  -1.698
    1LIG     N3   21  -1.100   0.169  -1.640
    1LIG    C13   22  -1.154   0.108  -1.518
    1LIG    HN2   23  -1.013   0.134  -1.680
    1LIG    C14   24  -1.219   0.216  -1.428
    1LIG    C15   25  -1.036   0.043  -1.445
    1LIG    C16   26  -1.256  -0.003  -1.549
    1LIG    C17   27  -1.325   0.285  -1.509
    1LIG    C18   28  -1.452   0.312  -1.457
    1LIG    C19   29  -1.295   0.315  -1.644
    1LIG    C20   30  -1.549   0.369  -1.539
    1LIG     CL   31  -1.709   0.392  -1.479
    1LIG    C21   32  -1.520   0.400  -1.672
    1LIG    C22   33  -1.394   0.374  -1.724
    1LIG     HC   34  -0.915   0.368  -1.721
    1LIG    HC2   35  -1.050   0.561  -1.886
    1LIG    HC3   36  -0.902   0.516  -1.968
    1LIG    HC1   37  -0.686   0.637  -1.896
    1LIG    HC4   38  -0.863   0.838  -1.527
    1LIG    HC5   39  -1.030   0.576  -1.459
    1LIG    HC6   40  -1.260   0.579  -1.378
    1LIG    HC7   41  -1.384   0.799  -1.708
    1LIG    HC8   42  -1.156   0.808  -1.797
    1LIG    HC9   43  -1.265   0.169  -1.341
    1LIG   HC10   44  -1.144   0.288  -1.397
    1LIG   HC11   45  -0.962   0.119  -1.420
    1LIG   HC12   46  -0.991  -0.033  -1.509
    1LIG   HC13   47  -1.071  -0.004  -1.353
    1LIG   HC14   48  -1.341   0.039  -1.601
    1LIG   HC15   49  -1.208  -0.078  -1.613
    1LIG   HC16   50  -1.289  -0.050  -1.457
    1LIG   HC17   51  -1.474   0.290  -1.353
    1LIG   HC18   52  -1.596   0.445  -1.734
    1LIG   HC19   53  -1.372   0.399  -1.827
    1LIG    H24   54  -1.219   0.721  -1.418
    1LIG    H25   55  -1.212   0.198  -1.765
    1LIG    LP1   56  -1.860   0.415  -1.421
   0.00000   0.00000   0.00000
