; Created by cgenff_charmm2gmx.py

[ moleculetype ]
; Name			   nrexcl
LIG				 3

[ atoms ]
;	 nr		  type	resnr residue  atom   cgnr	   charge		mass  typeB    chargeB		massB
; residue	 1 LIG rtp LIG q	qsum
     1      SG3O2      1    LIG      S      1      0.113     32.060   ;
     2      OG2P1      1    LIG     O1      2     -0.300     15.999   ;
     3      OG2P1      1    LIG     O2      3     -0.300     15.999   ;
     4      CG321      1    LIG     C1      4      0.180     12.011   ;
     5      CG311      1    LIG     C2      5     -0.145     12.011   ;
     6      CG311      1    LIG     C3      6      0.100     12.011   ;
     7      CG314      1    LIG     C4      7     -0.043     12.011   ;
     8      CG321      1    LIG     C5      8      0.224     12.011   ;
     9      NG3P2      1    LIG     N1      9     -0.444     14.007   ;
    10       HGP2      1    LIG     H1     10      0.346      1.008   ;
    11       HGP2      1    LIG     H2     11      0.346      1.008   ;
    12      CG324      1    LIG     C6     12      0.178     12.011   ;
    13     CG2R61      1    LIG     C7     13      0.036     12.011   ;
    14     CG2R61      1    LIG     C8     14     -0.124     12.011   ;
    15     CG2R61      1    LIG     C9     15      0.084     12.011   ;
    16     CG2R61      1    LIG    C10     16     -0.121     12.011   ;
    17     CG2R61      1    LIG    C11     17     -0.108     12.011   ;
    18     CG2R61      1    LIG    C12     18     -0.119     12.011   ;
    19      CG301      1    LIG    C13     19     -0.018     12.011   ;
    20      CG331      1    LIG    C14     20     -0.289     12.011   ;
    21      CG331      1    LIG    C15     21     -0.289     12.011   ;
    22      CG331      1    LIG    C16     22     -0.289     12.011   ;
    23      OG311      1    LIG     O3     23     -0.595     15.999   ;
    24       HGP1      1    LIG     H3     24      0.422      1.008   ;
    25      CG321      1    LIG    C17     25     -0.108     12.011   ;
    26     CG2R61      1    LIG    C18     26      0.007     12.011   ;
    27     CG2R61      1    LIG    C19     27     -0.116     12.011   ;
    28     CG2R61      1    LIG    C20     28      0.065     12.011   ;
    29     CG2R61      1    LIG    C21     29      0.139     12.011   ;
    30     CG2R66      1    LIG    C22     30      0.006     12.011   ;
    31       FGR1      1    LIG      F     31     -0.230     18.998   ;
    32     CG2R61      1    LIG    C23     32     -0.121     12.011   ;
    33      CG321      1    LIG    C24     33     -0.211     12.011   ;
    34      CG331      1    LIG    C25     34     -0.271     12.011   ;
    35      NG2S3      1    LIG     N2     35     -0.742     14.007   ;
    36       HGP4      1    LIG     H4     36      0.357      1.008   ;
    37       HGP4      1    LIG     H5     37      0.357      1.008   ;
    38       HGA2      1    LIG     H6     38      0.090      1.008   ;
    39       HGA2      1    LIG     H7     39      0.090      1.008   ;
    40       HGA1      1    LIG     H8     40      0.090      1.008   ;
    41       HGA1      1    LIG     H9     41      0.090      1.008   ;
    42       HGA1      1    LIG    H10     42      0.109      1.008   ;
    43       HGA2      1    LIG    H11     43      0.090      1.008   ;
    44       HGA2      1    LIG    H12     44      0.090      1.008   ;
    45       HGA2      1    LIG    H13     45      0.090      1.008   ;
    46       HGA2      1    LIG    H14     46      0.090      1.008   ;
    47      HGR61      1    LIG    H15     47      0.116      1.008   ;
    48      HGR61      1    LIG    H16     48      0.116      1.008   ;
    49      HGR61      1    LIG    H17     49      0.116      1.008   ;
    50      HGR61      1    LIG    H18     50      0.116      1.008   ;
    51       HGA3      1    LIG    H19     51      0.090      1.008   ;
    52       HGA3      1    LIG    H20     52      0.090      1.008   ;
    53       HGA3      1    LIG    H21     53      0.090      1.008   ;
    54       HGA3      1    LIG    H22     54      0.090      1.008   ;
    55       HGA3      1    LIG    H23     55      0.090      1.008   ;
    56       HGA3      1    LIG    H24     56      0.090      1.008   ;
    57       HGA3      1    LIG    H25     57      0.090      1.008   ;
    58       HGA3      1    LIG    H26     58      0.090      1.008   ;
    59       HGA3      1    LIG    H27     59      0.090      1.008   ;
    60       HGA2      1    LIG    H28     60      0.090      1.008   ;
    61       HGA2      1    LIG    H29     61      0.090      1.008   ;
    62      HGR61      1    LIG    H30     62      0.116      1.008   ;
    63      HGR62      1    LIG    H31     63      0.174      1.008   ;
    64       HGA2      1    LIG    H32     64      0.090      1.008   ;
    65       HGA2      1    LIG    H33     65      0.090      1.008   ;
    66       HGA3      1    LIG    H34     66      0.090      1.008   ;
    67       HGA3      1    LIG    H35     67      0.090      1.008   ;
    68       HGA3      1    LIG    H36     68      0.090      1.008   ;

[ bonds ]
;	ai	  aj funct			  c0			c1			  c2			c3
    1     3	 1 ;       SG3O2      OG2P1
    1     4	 1 ;       SG3O2      CG321
    1     8	 1 ;       SG3O2      CG321
    1     2	 1 ;       SG3O2      OG2P1
    4     5	 1 ;       CG321      CG311
    4    38	 1 ;       CG321       HGA2
    4    39	 1 ;       CG321       HGA2
    5    25	 1 ;       CG311      CG321
    5     6	 1 ;       CG311      CG311
    5    40	 1 ;       CG311       HGA1
    6     7	 1 ;       CG311      CG314
    6    23	 1 ;       CG311      OG311
    6    41	 1 ;       CG311       HGA1
    7     8	 1 ;       CG314      CG321
    7     9	 1 ;       CG314      NG3P2
    7    42	 1 ;       CG314       HGA1
    8    43	 1 ;       CG321       HGA2
    8    44	 1 ;       CG321       HGA2
    9    11	 1 ;       NG3P2       HGP2
    9    12	 1 ;       NG3P2      CG324
    9    10	 1 ;       NG3P2       HGP2
   12    13	 1 ;       CG324     CG2R61
   12    45	 1 ;       CG324       HGA2
   12    46	 1 ;       CG324       HGA2
   13    14	 1 ;      CG2R61     CG2R61
   13    18	 1 ;      CG2R61     CG2R61
   14    15	 1 ;      CG2R61     CG2R61
   14    47	 1 ;      CG2R61      HGR61
   15    19	 1 ;      CG2R61      CG301
   15    16	 1 ;      CG2R61     CG2R61
   16    17	 1 ;      CG2R61     CG2R61
   16    48	 1 ;      CG2R61      HGR61
   17    18	 1 ;      CG2R61     CG2R61
   17    49	 1 ;      CG2R61      HGR61
   18    50	 1 ;      CG2R61      HGR61
   19    21	 1 ;       CG301      CG331
   19    20	 1 ;       CG301      CG331
   19    22	 1 ;       CG301      CG331
   20    51	 1 ;       CG331       HGA3
   20    52	 1 ;       CG331       HGA3
   20    53	 1 ;       CG331       HGA3
   21    54	 1 ;       CG331       HGA3
   21    55	 1 ;       CG331       HGA3
   21    56	 1 ;       CG331       HGA3
   22    57	 1 ;       CG331       HGA3
   22    58	 1 ;       CG331       HGA3
   22    59	 1 ;       CG331       HGA3
   23    24	 1 ;       OG311       HGP1
   25    26	 1 ;       CG321     CG2R61
   25    60	 1 ;       CG321       HGA2
   25    61	 1 ;       CG321       HGA2
   26    32	 1 ;      CG2R61     CG2R61
   26    27	 1 ;      CG2R61     CG2R61
   27    28	 1 ;      CG2R61     CG2R61
   27    62	 1 ;      CG2R61      HGR61
   28    29	 1 ;      CG2R61     CG2R61
   28    33	 1 ;      CG2R61      CG321
   29    30	 1 ;      CG2R61     CG2R66
   29    35	 1 ;      CG2R61      NG2S3
   30    32	 1 ;      CG2R66     CG2R61
   30    31	 1 ;      CG2R66       FGR1
   32    63	 1 ;      CG2R61      HGR62
   33    34	 1 ;       CG321      CG331
   33    64	 1 ;       CG321       HGA2
   33    65	 1 ;       CG321       HGA2
   34    66	 1 ;       CG331       HGA3
   34    67	 1 ;       CG331       HGA3
   34    68	 1 ;       CG331       HGA3
   35    36	 1 ;       NG2S3       HGP4
   35    37	 1 ;       NG2S3       HGP4

[ pairs ]
;	ai	  aj funct			  c0			c1			  c2			c3
    1    25	 1
    1     6	 1
    1    40	 1
    1     9	 1
    1    42	 1
    2     5	 1
    2    38	 1
    2    39	 1
    2     7	 1
    2    43	 1
    2    44	 1
    3     5	 1
    3    38	 1
    3    39	 1
    3     7	 1
    3    43	 1
    3    44	 1
    4     7	 1
    4    43	 1
    4    44	 1
    4    26	 1
    4    60	 1
    4    61	 1
    4    23	 1
    4    41	 1
    5     8	 1
    5     9	 1
    5    42	 1
    5    24	 1
    5    32	 1
    5    27	 1
    6    38	 1
    6    39	 1
    6    26	 1
    6    60	 1
    6    61	 1
    6    43	 1
    6    44	 1
    6    11	 1
    6    12	 1
    6    10	 1
    7    25	 1
    7    40	 1
    7    24	 1
    7    13	 1
    7    45	 1
    7    46	 1
    8    38	 1
    8    39	 1
    8    23	 1
    8    41	 1
    8    11	 1
    8    12	 1
    8    10	 1
    9    23	 1
    9    41	 1
    9    43	 1
    9    44	 1
    9    14	 1
    9    18	 1
   10    42	 1
   10    13	 1
   10    45	 1
   10    46	 1
   11    42	 1
   11    13	 1
   11    45	 1
   11    46	 1
   12    42	 1
   12    15	 1
   12    47	 1
   12    17	 1
   12    50	 1
   13    19	 1
   13    16	 1
   13    49	 1
   14    45	 1
   14    46	 1
   14    17	 1
   14    50	 1
   14    21	 1
   14    20	 1
   14    22	 1
   14    48	 1
   15    18	 1
   15    49	 1
   15    54	 1
   15    55	 1
   15    56	 1
   15    51	 1
   15    52	 1
   15    53	 1
   15    57	 1
   15    58	 1
   15    59	 1
   16    47	 1
   16    21	 1
   16    20	 1
   16    22	 1
   16    50	 1
   17    19	 1
   18    45	 1
   18    46	 1
   18    47	 1
   18    48	 1
   19    47	 1
   19    48	 1
   20    54	 1
   20    55	 1
   20    56	 1
   20    57	 1
   20    58	 1
   20    59	 1
   21    51	 1
   21    52	 1
   21    53	 1
   21    57	 1
   21    58	 1
   21    59	 1
   22    54	 1
   22    55	 1
   22    56	 1
   22    51	 1
   22    52	 1
   22    53	 1
   23    25	 1
   23    40	 1
   23    42	 1
   24    41	 1
   25    38	 1
   25    39	 1
   25    41	 1
   25    30	 1
   25    63	 1
   25    28	 1
   25    62	 1
   26    40	 1
   26    29	 1
   26    33	 1
   26    31	 1
   27    60	 1
   27    61	 1
   27    30	 1
   27    63	 1
   27    35	 1
   27    34	 1
   27    64	 1
   27    65	 1
   28    32	 1
   28    31	 1
   28    36	 1
   28    37	 1
   28    66	 1
   28    67	 1
   28    68	 1
   29    62	 1
   29    34	 1
   29    64	 1
   29    65	 1
   29    63	 1
   30    33	 1
   30    36	 1
   30    37	 1
   31    35	 1
   31    63	 1
   32    60	 1
   32    61	 1
   32    62	 1
   32    35	 1
   33    62	 1
   33    35	 1
   38    40	 1
   39    40	 1
   40    60	 1
   40    61	 1
   40    41	 1
   41    42	 1
   42    43	 1
   42    44	 1
   48    49	 1
   49    50	 1
   64    66	 1
   64    67	 1
   64    68	 1
   65    66	 1
   65    67	 1
   65    68	 1

[ angles ]
;	ai	  aj	ak funct			c0			  c1			c2			  c3
    3     1     4	5 ;      OG2P1      SG3O2      CG321
    3     1     8	5 ;      OG2P1      SG3O2      CG321
    3     1     2	5 ;      OG2P1      SG3O2      OG2P1
    4     1     8	5 ;      CG321      SG3O2      CG321
    4     1     2	5 ;      CG321      SG3O2      OG2P1
    8     1     2	5 ;      CG321      SG3O2      OG2P1
    1     4     5	5 ;      SG3O2      CG321      CG311
    1     4    38	5 ;      SG3O2      CG321       HGA2
    1     4    39	5 ;      SG3O2      CG321       HGA2
    5     4    38	5 ;      CG311      CG321       HGA2
    5     4    39	5 ;      CG311      CG321       HGA2
   38     4    39	5 ;       HGA2      CG321       HGA2
    4     5    25	5 ;      CG321      CG311      CG321
    4     5     6	5 ;      CG321      CG311      CG311
    4     5    40	5 ;      CG321      CG311       HGA1
   25     5     6	5 ;      CG321      CG311      CG311
   25     5    40	5 ;      CG321      CG311       HGA1
    6     5    40	5 ;      CG311      CG311       HGA1
    5     6     7	5 ;      CG311      CG311      CG314
    5     6    23	5 ;      CG311      CG311      OG311
    5     6    41	5 ;      CG311      CG311       HGA1
    7     6    23	5 ;      CG314      CG311      OG311
    7     6    41	5 ;      CG314      CG311       HGA1
   23     6    41	5 ;      OG311      CG311       HGA1
    8     7     6	5 ;      CG321      CG314      CG311
    8     7     9	5 ;      CG321      CG314      NG3P2
    8     7    42	5 ;      CG321      CG314       HGA1
    6     7     9	5 ;      CG311      CG314      NG3P2
    6     7    42	5 ;      CG311      CG314       HGA1
    9     7    42	5 ;      NG3P2      CG314       HGA1
    1     8     7	5 ;      SG3O2      CG321      CG314
    1     8    43	5 ;      SG3O2      CG321       HGA2
    1     8    44	5 ;      SG3O2      CG321       HGA2
    7     8    43	5 ;      CG314      CG321       HGA2
    7     8    44	5 ;      CG314      CG321       HGA2
   43     8    44	5 ;       HGA2      CG321       HGA2
    7     9    11	5 ;      CG314      NG3P2       HGP2
    7     9    12	5 ;      CG314      NG3P2      CG324
    7     9    10	5 ;      CG314      NG3P2       HGP2
   11     9    12	5 ;       HGP2      NG3P2      CG324
   11     9    10	5 ;       HGP2      NG3P2       HGP2
   12     9    10	5 ;      CG324      NG3P2       HGP2
    9    12    13	5 ;      NG3P2      CG324     CG2R61
    9    12    45	5 ;      NG3P2      CG324       HGA2
    9    12    46	5 ;      NG3P2      CG324       HGA2
   13    12    45	5 ;     CG2R61      CG324       HGA2
   13    12    46	5 ;     CG2R61      CG324       HGA2
   45    12    46	5 ;       HGA2      CG324       HGA2
   12    13    14	5 ;      CG324     CG2R61     CG2R61
   12    13    18	5 ;      CG324     CG2R61     CG2R61
   14    13    18	5 ;     CG2R61     CG2R61     CG2R61
   13    14    15	5 ;     CG2R61     CG2R61     CG2R61
   13    14    47	5 ;     CG2R61     CG2R61      HGR61
   15    14    47	5 ;     CG2R61     CG2R61      HGR61
   14    15    19	5 ;     CG2R61     CG2R61      CG301
   14    15    16	5 ;     CG2R61     CG2R61     CG2R61
   19    15    16	5 ;      CG301     CG2R61     CG2R61
   15    16    17	5 ;     CG2R61     CG2R61     CG2R61
   15    16    48	5 ;     CG2R61     CG2R61      HGR61
   17    16    48	5 ;     CG2R61     CG2R61      HGR61
   18    17    16	5 ;     CG2R61     CG2R61     CG2R61
   18    17    49	5 ;     CG2R61     CG2R61      HGR61
   16    17    49	5 ;     CG2R61     CG2R61      HGR61
   13    18    17	5 ;     CG2R61     CG2R61     CG2R61
   13    18    50	5 ;     CG2R61     CG2R61      HGR61
   17    18    50	5 ;     CG2R61     CG2R61      HGR61
   21    19    15	5 ;      CG331      CG301     CG2R61
   21    19    20	5 ;      CG331      CG301      CG331
   21    19    22	5 ;      CG331      CG301      CG331
   15    19    20	5 ;     CG2R61      CG301      CG331
   15    19    22	5 ;     CG2R61      CG301      CG331
   20    19    22	5 ;      CG331      CG301      CG331
   19    20    51	5 ;      CG301      CG331       HGA3
   19    20    52	5 ;      CG301      CG331       HGA3
   19    20    53	5 ;      CG301      CG331       HGA3
   51    20    52	5 ;       HGA3      CG331       HGA3
   51    20    53	5 ;       HGA3      CG331       HGA3
   52    20    53	5 ;       HGA3      CG331       HGA3
   19    21    54	5 ;      CG301      CG331       HGA3
   19    21    55	5 ;      CG301      CG331       HGA3
   19    21    56	5 ;      CG301      CG331       HGA3
   54    21    55	5 ;       HGA3      CG331       HGA3
   54    21    56	5 ;       HGA3      CG331       HGA3
   55    21    56	5 ;       HGA3      CG331       HGA3
   19    22    57	5 ;      CG301      CG331       HGA3
   19    22    58	5 ;      CG301      CG331       HGA3
   19    22    59	5 ;      CG301      CG331       HGA3
   57    22    58	5 ;       HGA3      CG331       HGA3
   57    22    59	5 ;       HGA3      CG331       HGA3
   58    22    59	5 ;       HGA3      CG331       HGA3
    6    23    24	5 ;      CG311      OG311       HGP1
    5    25    26	5 ;      CG311      CG321     CG2R61
    5    25    60	5 ;      CG311      CG321       HGA2
    5    25    61	5 ;      CG311      CG321       HGA2
   26    25    60	5 ;     CG2R61      CG321       HGA2
   26    25    61	5 ;     CG2R61      CG321       HGA2
   60    25    61	5 ;       HGA2      CG321       HGA2
   25    26    32	5 ;      CG321     CG2R61     CG2R61
   25    26    27	5 ;      CG321     CG2R61     CG2R61
   32    26    27	5 ;     CG2R61     CG2R61     CG2R61
   26    27    28	5 ;     CG2R61     CG2R61     CG2R61
   26    27    62	5 ;     CG2R61     CG2R61      HGR61
   28    27    62	5 ;     CG2R61     CG2R61      HGR61
   27    28    29	5 ;     CG2R61     CG2R61     CG2R61
   27    28    33	5 ;     CG2R61     CG2R61      CG321
   29    28    33	5 ;     CG2R61     CG2R61      CG321
   30    29    28	5 ;     CG2R66     CG2R61     CG2R61
   30    29    35	5 ;     CG2R66     CG2R61      NG2S3
   28    29    35	5 ;     CG2R61     CG2R61      NG2S3
   32    30    31	5 ;     CG2R61     CG2R66       FGR1
   32    30    29	5 ;     CG2R61     CG2R66     CG2R61
   31    30    29	5 ;       FGR1     CG2R66     CG2R61
   26    32    30	5 ;     CG2R61     CG2R61     CG2R66
   26    32    63	5 ;     CG2R61     CG2R61      HGR62
   30    32    63	5 ;     CG2R66     CG2R61      HGR62
   34    33    28	5 ;      CG331      CG321     CG2R61
   34    33    64	5 ;      CG331      CG321       HGA2
   34    33    65	5 ;      CG331      CG321       HGA2
   28    33    64	5 ;     CG2R61      CG321       HGA2
   28    33    65	5 ;     CG2R61      CG321       HGA2
   64    33    65	5 ;       HGA2      CG321       HGA2
   33    34    66	5 ;      CG321      CG331       HGA3
   33    34    67	5 ;      CG321      CG331       HGA3
   33    34    68	5 ;      CG321      CG331       HGA3
   66    34    67	5 ;       HGA3      CG331       HGA3
   66    34    68	5 ;       HGA3      CG331       HGA3
   67    34    68	5 ;       HGA3      CG331       HGA3
   29    35    36	5 ;     CG2R61      NG2S3       HGP4
   29    35    37	5 ;     CG2R61      NG2S3       HGP4
   36    35    37	5 ;       HGP4      NG2S3       HGP4

[ dihedrals ]
;	ai	  aj	ak	  al funct			  c0			c1			  c2			c3			  c4			c5
    3     1     4     5	 9 ;      OG2P1      SG3O2      CG321      CG311
    3     1     4    38	 9 ;      OG2P1      SG3O2      CG321       HGA2
    3     1     4    39	 9 ;      OG2P1      SG3O2      CG321       HGA2
    8     1     4     5	 9 ;      CG321      SG3O2      CG321      CG311
    8     1     4    38	 9 ;      CG321      SG3O2      CG321       HGA2
    8     1     4    39	 9 ;      CG321      SG3O2      CG321       HGA2
    2     1     4     5	 9 ;      OG2P1      SG3O2      CG321      CG311
    2     1     4    38	 9 ;      OG2P1      SG3O2      CG321       HGA2
    2     1     4    39	 9 ;      OG2P1      SG3O2      CG321       HGA2
    3     1     8     7	 9 ;      OG2P1      SG3O2      CG321      CG314
    3     1     8    43	 9 ;      OG2P1      SG3O2      CG321       HGA2
    3     1     8    44	 9 ;      OG2P1      SG3O2      CG321       HGA2
    4     1     8     7	 9 ;      CG321      SG3O2      CG321      CG314
    4     1     8    43	 9 ;      CG321      SG3O2      CG321       HGA2
    4     1     8    44	 9 ;      CG321      SG3O2      CG321       HGA2
    2     1     8     7	 9 ;      OG2P1      SG3O2      CG321      CG314
    2     1     8    43	 9 ;      OG2P1      SG3O2      CG321       HGA2
    2     1     8    44	 9 ;      OG2P1      SG3O2      CG321       HGA2
    1     4     5    25	 9 ;      SG3O2      CG321      CG311      CG321
    1     4     5     6	 9 ;      SG3O2      CG321      CG311      CG311
    1     4     5    40	 9 ;      SG3O2      CG321      CG311       HGA1
   38     4     5    25	 9 ;       HGA2      CG321      CG311      CG321
   38     4     5     6	 9 ;       HGA2      CG321      CG311      CG311
   38     4     5    40	 9 ;       HGA2      CG321      CG311       HGA1
   39     4     5    25	 9 ;       HGA2      CG321      CG311      CG321
   39     4     5     6	 9 ;       HGA2      CG321      CG311      CG311
   39     4     5    40	 9 ;       HGA2      CG321      CG311       HGA1
    4     5    25    26	 9 ;      CG321      CG311      CG321     CG2R61
    4     5    25    60	 9 ;      CG321      CG311      CG321       HGA2
    4     5    25    61	 9 ;      CG321      CG311      CG321       HGA2
    6     5    25    26	 9 ;      CG311      CG311      CG321     CG2R61
    6     5    25    60	 9 ;      CG311      CG311      CG321       HGA2
    6     5    25    61	 9 ;      CG311      CG311      CG321       HGA2
   40     5    25    26	 9 ;       HGA1      CG311      CG321     CG2R61
   40     5    25    60	 9 ;       HGA1      CG311      CG321       HGA2
   40     5    25    61	 9 ;       HGA1      CG311      CG321       HGA2
    4     5     6     7	 9 ;      CG321      CG311      CG311      CG314
    4     5     6    23	 9 ;      CG321      CG311      CG311      OG311
    4     5     6    41	 9 ;      CG321      CG311      CG311       HGA1
   25     5     6     7	 9 ;      CG321      CG311      CG311      CG314
   25     5     6    23	 9 ;      CG321      CG311      CG311      OG311
   25     5     6    41	 9 ;      CG321      CG311      CG311       HGA1
   40     5     6     7	 9 ;       HGA1      CG311      CG311      CG314
   40     5     6    23	 9 ;       HGA1      CG311      CG311      OG311
   40     5     6    41	 9 ;       HGA1      CG311      CG311       HGA1
    5     6     7     8	 9 ;      CG311      CG311      CG314      CG321
    5     6     7     9	 9 ;      CG311      CG311      CG314      NG3P2
    5     6     7    42	 9 ;      CG311      CG311      CG314       HGA1
   23     6     7     8	 9 ;      OG311      CG311      CG314      CG321
   23     6     7     9	 9 ;      OG311      CG311      CG314      NG3P2
   23     6     7    42	 9 ;      OG311      CG311      CG314       HGA1
   41     6     7     8	 9 ;       HGA1      CG311      CG314      CG321
   41     6     7     9	 9 ;       HGA1      CG311      CG314      NG3P2
   41     6     7    42	 9 ;       HGA1      CG311      CG314       HGA1
    5     6    23    24	 9 ;      CG311      CG311      OG311       HGP1
    7     6    23    24	 9 ;      CG314      CG311      OG311       HGP1
   41     6    23    24	 9 ;       HGA1      CG311      OG311       HGP1
    6     7     8     1	 9 ;      CG311      CG314      CG321      SG3O2
    6     7     8    43	 9 ;      CG311      CG314      CG321       HGA2
    6     7     8    44	 9 ;      CG311      CG314      CG321       HGA2
    9     7     8     1	 9 ;      NG3P2      CG314      CG321      SG3O2
    9     7     8    43	 9 ;      NG3P2      CG314      CG321       HGA2
    9     7     8    44	 9 ;      NG3P2      CG314      CG321       HGA2
   42     7     8     1	 9 ;       HGA1      CG314      CG321      SG3O2
   42     7     8    43	 9 ;       HGA1      CG314      CG321       HGA2
   42     7     8    44	 9 ;       HGA1      CG314      CG321       HGA2
    8     7     9    11	 9 ;      CG321      CG314      NG3P2       HGP2
    8     7     9    12	 9 ;      CG321      CG314      NG3P2      CG324
    8     7     9    10	 9 ;      CG321      CG314      NG3P2       HGP2
    6     7     9    11	 9 ;      CG311      CG314      NG3P2       HGP2
    6     7     9    12	 9 ;      CG311      CG314      NG3P2      CG324
    6     7     9    10	 9 ;      CG311      CG314      NG3P2       HGP2
   42     7     9    11	 9 ;       HGA1      CG314      NG3P2       HGP2
   42     7     9    12	 9 ;       HGA1      CG314      NG3P2      CG324
   42     7     9    10	 9 ;       HGA1      CG314      NG3P2       HGP2
    7     9    12    13	 9 ;      CG314      NG3P2      CG324     CG2R61
    7     9    12    45	 9 ;      CG314      NG3P2      CG324       HGA2
    7     9    12    46	 9 ;      CG314      NG3P2      CG324       HGA2
   11     9    12    13	 9 ;       HGP2      NG3P2      CG324     CG2R61
   11     9    12    45	 9 ;       HGP2      NG3P2      CG324       HGA2
   11     9    12    46	 9 ;       HGP2      NG3P2      CG324       HGA2
   10     9    12    13	 9 ;       HGP2      NG3P2      CG324     CG2R61
   10     9    12    45	 9 ;       HGP2      NG3P2      CG324       HGA2
   10     9    12    46	 9 ;       HGP2      NG3P2      CG324       HGA2
    9    12    13    14	 9 ;      NG3P2      CG324     CG2R61     CG2R61
    9    12    13    18	 9 ;      NG3P2      CG324     CG2R61     CG2R61
   45    12    13    14	 9 ;       HGA2      CG324     CG2R61     CG2R61
   45    12    13    18	 9 ;       HGA2      CG324     CG2R61     CG2R61
   46    12    13    14	 9 ;       HGA2      CG324     CG2R61     CG2R61
   46    12    13    18	 9 ;       HGA2      CG324     CG2R61     CG2R61
   12    13    14    15	 9 ;      CG324     CG2R61     CG2R61     CG2R61
   12    13    14    47	 9 ;      CG324     CG2R61     CG2R61      HGR61
   18    13    14    15	 9 ;     CG2R61     CG2R61     CG2R61     CG2R61
   18    13    14    47	 9 ;     CG2R61     CG2R61     CG2R61      HGR61
   12    13    18    17	 9 ;      CG324     CG2R61     CG2R61     CG2R61
   12    13    18    50	 9 ;      CG324     CG2R61     CG2R61      HGR61
   14    13    18    17	 9 ;     CG2R61     CG2R61     CG2R61     CG2R61
   14    13    18    50	 9 ;     CG2R61     CG2R61     CG2R61      HGR61
   13    14    15    19	 9 ;     CG2R61     CG2R61     CG2R61      CG301
   13    14    15    16	 9 ;     CG2R61     CG2R61     CG2R61     CG2R61
   47    14    15    19	 9 ;      HGR61     CG2R61     CG2R61      CG301
   47    14    15    16	 9 ;      HGR61     CG2R61     CG2R61     CG2R61
   14    15    19    21	 9 ;     CG2R61     CG2R61      CG301      CG331
   14    15    19    20	 9 ;     CG2R61     CG2R61      CG301      CG331
   14    15    19    22	 9 ;     CG2R61     CG2R61      CG301      CG331
   16    15    19    21	 9 ;     CG2R61     CG2R61      CG301      CG331
   16    15    19    20	 9 ;     CG2R61     CG2R61      CG301      CG331
   16    15    19    22	 9 ;     CG2R61     CG2R61      CG301      CG331
   14    15    16    17	 9 ;     CG2R61     CG2R61     CG2R61     CG2R61
   14    15    16    48	 9 ;     CG2R61     CG2R61     CG2R61      HGR61
   19    15    16    17	 9 ;      CG301     CG2R61     CG2R61     CG2R61
   19    15    16    48	 9 ;      CG301     CG2R61     CG2R61      HGR61
   15    16    17    18	 9 ;     CG2R61     CG2R61     CG2R61     CG2R61
   15    16    17    49	 9 ;     CG2R61     CG2R61     CG2R61      HGR61
   48    16    17    18	 9 ;      HGR61     CG2R61     CG2R61     CG2R61
   48    16    17    49	 9 ;      HGR61     CG2R61     CG2R61      HGR61
   16    17    18    13	 9 ;     CG2R61     CG2R61     CG2R61     CG2R61
   16    17    18    50	 9 ;     CG2R61     CG2R61     CG2R61      HGR61
   49    17    18    13	 9 ;      HGR61     CG2R61     CG2R61     CG2R61
   49    17    18    50	 9 ;      HGR61     CG2R61     CG2R61      HGR61
   15    19    21    54	 9 ;     CG2R61      CG301      CG331       HGA3
   15    19    21    55	 9 ;     CG2R61      CG301      CG331       HGA3
   15    19    21    56	 9 ;     CG2R61      CG301      CG331       HGA3
   20    19    21    54	 9 ;      CG331      CG301      CG331       HGA3
   20    19    21    55	 9 ;      CG331      CG301      CG331       HGA3
   20    19    21    56	 9 ;      CG331      CG301      CG331       HGA3
   22    19    21    54	 9 ;      CG331      CG301      CG331       HGA3
   22    19    21    55	 9 ;      CG331      CG301      CG331       HGA3
   22    19    21    56	 9 ;      CG331      CG301      CG331       HGA3
   21    19    20    51	 9 ;      CG331      CG301      CG331       HGA3
   21    19    20    52	 9 ;      CG331      CG301      CG331       HGA3
   21    19    20    53	 9 ;      CG331      CG301      CG331       HGA3
   15    19    20    51	 9 ;     CG2R61      CG301      CG331       HGA3
   15    19    20    52	 9 ;     CG2R61      CG301      CG331       HGA3
   15    19    20    53	 9 ;     CG2R61      CG301      CG331       HGA3
   22    19    20    51	 9 ;      CG331      CG301      CG331       HGA3
   22    19    20    52	 9 ;      CG331      CG301      CG331       HGA3
   22    19    20    53	 9 ;      CG331      CG301      CG331       HGA3
   21    19    22    57	 9 ;      CG331      CG301      CG331       HGA3
   21    19    22    58	 9 ;      CG331      CG301      CG331       HGA3
   21    19    22    59	 9 ;      CG331      CG301      CG331       HGA3
   15    19    22    57	 9 ;     CG2R61      CG301      CG331       HGA3
   15    19    22    58	 9 ;     CG2R61      CG301      CG331       HGA3
   15    19    22    59	 9 ;     CG2R61      CG301      CG331       HGA3
   20    19    22    57	 9 ;      CG331      CG301      CG331       HGA3
   20    19    22    58	 9 ;      CG331      CG301      CG331       HGA3
   20    19    22    59	 9 ;      CG331      CG301      CG331       HGA3
    5    25    26    32	 9 ;      CG311      CG321     CG2R61     CG2R61
    5    25    26    27	 9 ;      CG311      CG321     CG2R61     CG2R61
   60    25    26    32	 9 ;       HGA2      CG321     CG2R61     CG2R61
   60    25    26    27	 9 ;       HGA2      CG321     CG2R61     CG2R61
   61    25    26    32	 9 ;       HGA2      CG321     CG2R61     CG2R61
   61    25    26    27	 9 ;       HGA2      CG321     CG2R61     CG2R61
   25    26    32    30	 9 ;      CG321     CG2R61     CG2R61     CG2R66
   25    26    32    63	 9 ;      CG321     CG2R61     CG2R61      HGR62
   27    26    32    30	 9 ;     CG2R61     CG2R61     CG2R61     CG2R66
   27    26    32    63	 9 ;     CG2R61     CG2R61     CG2R61      HGR62
   25    26    27    28	 9 ;      CG321     CG2R61     CG2R61     CG2R61
   25    26    27    62	 9 ;      CG321     CG2R61     CG2R61      HGR61
   32    26    27    28	 9 ;     CG2R61     CG2R61     CG2R61     CG2R61
   32    26    27    62	 9 ;     CG2R61     CG2R61     CG2R61      HGR61
   26    27    28    29	 9 ;     CG2R61     CG2R61     CG2R61     CG2R61
   26    27    28    33	 9 ;     CG2R61     CG2R61     CG2R61      CG321
   62    27    28    29	 9 ;      HGR61     CG2R61     CG2R61     CG2R61
   62    27    28    33	 9 ;      HGR61     CG2R61     CG2R61      CG321
   27    28    29    30	 9 ;     CG2R61     CG2R61     CG2R61     CG2R66
   27    28    29    35	 9 ;     CG2R61     CG2R61     CG2R61      NG2S3
   33    28    29    30	 9 ;      CG321     CG2R61     CG2R61     CG2R66
   33    28    29    35	 9 ;      CG321     CG2R61     CG2R61      NG2S3
   27    28    33    34	 9 ;     CG2R61     CG2R61      CG321      CG331
   27    28    33    64	 9 ;     CG2R61     CG2R61      CG321       HGA2
   27    28    33    65	 9 ;     CG2R61     CG2R61      CG321       HGA2
   29    28    33    34	 9 ;     CG2R61     CG2R61      CG321      CG331
   29    28    33    64	 9 ;     CG2R61     CG2R61      CG321       HGA2
   29    28    33    65	 9 ;     CG2R61     CG2R61      CG321       HGA2
   28    29    30    32	 9 ;     CG2R61     CG2R61     CG2R66     CG2R61
   28    29    30    31	 9 ;     CG2R61     CG2R61     CG2R66       FGR1
   35    29    30    32	 9 ;      NG2S3     CG2R61     CG2R66     CG2R61
   35    29    30    31	 9 ;      NG2S3     CG2R61     CG2R66       FGR1
   30    29    35    36	 9 ;     CG2R66     CG2R61      NG2S3       HGP4
   30    29    35    37	 9 ;     CG2R66     CG2R61      NG2S3       HGP4
   28    29    35    36	 9 ;     CG2R61     CG2R61      NG2S3       HGP4
   28    29    35    37	 9 ;     CG2R61     CG2R61      NG2S3       HGP4
   31    30    32    26	 9 ;       FGR1     CG2R66     CG2R61     CG2R61
   31    30    32    63	 9 ;       FGR1     CG2R66     CG2R61      HGR62
   29    30    32    26	 9 ;     CG2R61     CG2R66     CG2R61     CG2R61
   29    30    32    63	 9 ;     CG2R61     CG2R66     CG2R61      HGR62
   28    33    34    66	 9 ;     CG2R61      CG321      CG331       HGA3
   28    33    34    67	 9 ;     CG2R61      CG321      CG331       HGA3
   28    33    34    68	 9 ;     CG2R61      CG321      CG331       HGA3
   64    33    34    66	 9 ;       HGA2      CG321      CG331       HGA3
   64    33    34    67	 9 ;       HGA2      CG321      CG331       HGA3
   64    33    34    68	 9 ;       HGA2      CG321      CG331       HGA3
   65    33    34    66	 9 ;       HGA2      CG321      CG331       HGA3
   65    33    34    67	 9 ;       HGA2      CG321      CG331       HGA3
   65    33    34    68	 9 ;       HGA2      CG321      CG331       HGA3

[ dihedrals ]
;	ai	  aj	ak	  al funct			  c0			c1			  c2			c3
   35    37    36    29	 2

