GROwing Monsters And Cloning Shrimps
   68
    1LIG      S    1  -1.343   0.586  -2.111
    1LIG     O1    2  -1.272   0.651  -2.003
    1LIG     O2    3  -1.324   0.624  -2.249
    1LIG     C1    4  -1.316   0.412  -2.094
    1LIG     C2    5  -1.357   0.363  -1.954
    1LIG     C3    6  -1.505   0.393  -1.924
    1LIG     C4    7  -1.543   0.544  -1.936
    1LIG     C5    8  -1.515   0.598  -2.074
    1LIG     N1    9  -1.470   0.620  -1.827
    1LIG     H1   10  -1.458   0.559  -1.745
    1LIG     H2   11  -1.374   0.646  -1.857
    1LIG     C6   12  -1.528   0.750  -1.781
    1LIG     C7   13  -1.559   0.738  -1.635
    1LIG     C8   14  -1.549   0.612  -1.575
    1LIG     C9   15  -1.557   0.595  -1.436
    1LIG    C10   16  -1.582   0.710  -1.359
    1LIG    C11   17  -1.594   0.836  -1.417
    1LIG    C12   18  -1.582   0.851  -1.555
    1LIG    C13   19  -1.534   0.458  -1.371
    1LIG    C14   20  -1.661   0.371  -1.367
    1LIG    C15   21  -1.428   0.382  -1.453
    1LIG    C16   22  -1.485   0.475  -1.226
    1LIG     O3   23  -1.543   0.354  -1.791
    1LIG     H3   24  -1.561   0.430  -1.734
    1LIG    C17   25  -1.325   0.213  -1.941
    1LIG    C18   26  -1.245   0.184  -1.816
    1LIG    C19   27  -1.189   0.289  -1.742
    1LIG    C20   28  -1.107   0.264  -1.630
    1LIG    C21   29  -1.086   0.132  -1.588
    1LIG    C22   30  -1.144   0.028  -1.663
    1LIG      F   31  -1.122  -0.100  -1.628
    1LIG    C23   32  -1.223   0.053  -1.775
    1LIG    C24   33  -1.041   0.383  -1.563
    1LIG    C25   34  -1.044   0.509  -1.648
    1LIG     N2   35  -0.990   0.099  -1.490
    1LIG     H4   36  -0.904   0.062  -1.529
    1LIG     H5   37  -1.024   0.045  -1.411
    1LIG     H6   38  -1.212   0.391  -2.110
    1LIG     H7   39  -1.376   0.361  -2.167
    1LIG     H8   40  -1.299   0.416  -1.881
    1LIG     H9   41  -1.558   0.337  -1.998
    1LIG    H10   42  -1.648   0.556  -1.921
    1LIG    H11   43  -1.571   0.541  -2.146
    1LIG    H12   44  -1.545   0.701  -2.079
    1LIG    H13   45  -1.617   0.772  -1.835
    1LIG    H14   46  -1.458   0.829  -1.797
    1LIG    H15   47  -1.535   0.529  -1.635
    1LIG    H16   48  -1.591   0.701  -1.256
    1LIG    H17   49  -1.612   0.919  -1.358
    1LIG    H18   50  -1.590   0.944  -1.598
    1LIG    H19   51  -1.699   0.357  -1.466
    1LIG    H20   52  -1.736   0.420  -1.307
    1LIG    H21   53  -1.638   0.276  -1.324
    1LIG    H22   54  -1.462   0.370  -1.554
    1LIG    H23   55  -1.412   0.285  -1.410
    1LIG    H24   56  -1.336   0.437  -1.453
    1LIG    H25   57  -1.396   0.536  -1.225
    1LIG    H26   58  -1.463   0.380  -1.184
    1LIG    H27   59  -1.561   0.523  -1.168
    1LIG    H28   60  -1.268   0.182  -2.026
    1LIG    H29   61  -1.417   0.159  -1.935
    1LIG    H30   62  -1.210   0.387  -1.769
    1LIG    H31   63  -1.266  -0.025  -1.826
    1LIG    H32   64  -1.091   0.402  -1.471
    1LIG    H33   65  -0.938   0.357  -1.548
    1LIG    H34   66  -1.145   0.538  -1.665
    1LIG    H35   67  -0.996   0.491  -1.741
    1LIG    H36   68  -0.993   0.588  -1.596
   0.00000   0.00000   0.00000
