Gromacs Runs One Microsecond At Cannonball Speeds
   50
    1LIG     C1    1  -1.356   0.601  -1.567
    1LIG     C2    2  -1.492   0.632  -1.577
    1LIG     C3    3  -1.535   0.760  -1.622
    1LIG     C4    4  -1.437   0.854  -1.656
    1LIG     C5    5  -1.302   0.824  -1.643
    1LIG     C6    6  -1.261   0.697  -1.602
    1LIG     C7    7  -1.686   0.791  -1.629
    1LIG     N1    8  -1.717   0.878  -1.513
    1LIG     C8    9  -1.714   0.995  -1.567
    1LIG    HN3   10  -1.735   0.853  -1.416
    1LIG     O1   11  -1.731   1.008  -1.700
    1LIG     C9   12  -1.731   0.874  -1.749
    1LIG    C10   13  -1.863   0.828  -1.812
    1LIG     O2   14  -1.961   0.774  -1.723
    1LIG    C11   15  -1.914   0.687  -1.621
    1LIG    C12   16  -1.765   0.660  -1.620
    1LIG     N2   17  -1.686   1.110  -1.501
    1LIG     H1   18  -1.773   1.145  -1.460
    1LIG     H2   19  -1.628   1.085  -1.421
    1LIG     N3   20  -1.307   0.475  -1.523
    1LIG    C13   21  -1.276   0.368  -1.603
    1LIG     O3   22  -1.285   0.361  -1.725
    1LIG     H3   23  -1.310   0.456  -1.424
    1LIG    C14   24  -1.238   0.245  -1.525
    1LIG    C15   25  -1.280   0.229  -1.393
    1LIG    C16   26  -1.240   0.116  -1.323
    1LIG    C17   27  -1.161   0.021  -1.388
    1LIG     CL   28  -1.111  -0.122  -1.306
    1LIG    C18   29  -1.123   0.045  -1.520
    1LIG     N4   30  -1.158   0.156  -1.589
    1LIG    HN4   31  -1.126   0.171  -1.685
    1LIG     HC   32  -1.565   0.558  -1.549
    1LIG    HC1   33  -1.467   0.952  -1.691
    1LIG    HC2   34  -1.227   0.899  -1.666
    1LIG    HC3   35  -1.156   0.673  -1.597
    1LIG    HN2   36  -1.816   0.872  -1.533
    1LIG    HC4   37  -1.820   1.009  -1.549
    1LIG    HC5   38  -1.653   0.867  -1.826
    1LIG    HC6   39  -1.908   0.915  -1.861
    1LIG    HC7   40  -1.841   0.753  -1.888
    1LIG    HC8   41  -1.965   0.591  -1.634
    1LIG    HC9   42  -1.943   0.728  -1.525
    1LIG   HC10   43  -1.738   0.609  -1.528
    1LIG   HC11   44  -1.738   0.598  -1.706
    1LIG    HN1   45  -1.641   1.179  -1.561
    1LIG   HC12   46  -1.343   0.304  -1.345
    1LIG   HC13   47  -1.269   0.101  -1.220
    1LIG   HC14   48  -1.063  -0.030  -1.569
    1LIG    H23   49  -1.327   0.193  -1.561
    1LIG    LP1   50  -1.064  -0.258  -1.229
   0.00000   0.00000   0.00000
