; Created by cgenff_charmm2gmx.py

[ moleculetype ]
; Name			   nrexcl
LIG				 3

[ atoms ]
;	 nr		  type	resnr residue  atom   cgnr	   charge		mass  typeB    chargeB		massB
; residue	 1 LIG rtp LIG q	qsum
     1     CG2R61      1    LIG     C1      1      0.141     12.011   ;
     2     CG2R61      1    LIG     C2      2     -0.117     12.011   ;
     3     CG2R61      1    LIG     C3      3     -0.246     12.011   ;
     4     CG2R61      1    LIG     C4      4     -0.114     12.011   ;
     5     CG2R61      1    LIG     C5      5     -0.110     12.011   ;
     6     CG2R61      1    LIG     C6      6     -0.119     12.011   ;
     7     CG3RC1      1    LIG     C7      7      0.458     12.011   ;
     8      NG3P2      1    LIG     N1      8     -1.175     14.007   ;
     9     CG3C53      1    LIG     C8      9      1.683     12.011   ;
    10       HGP2      1    LIG    HN3     10      0.467      1.008   ;
    11     OG3C51      1    LIG     O1     11     -0.282     15.999   ;
    12     CG3RC1      1    LIG     C9     12      0.303     12.011   ;
    13      CG321      1    LIG    C10     13      0.022     12.011   ;
    14     OG3C61      1    LIG     O2     14     -0.445     15.999   ;
    15      CG321      1    LIG    C11     15      0.006     12.011   ;
    16      CG321      1    LIG    C12     16     -0.131     12.011   ;
    17      NG3P3      1    LIG     N2     17     -0.781     14.007   ;
    18       HGP2      1    LIG     H1     18      0.307      1.008   ;
    19       HGP2      1    LIG     H2     19      0.307      1.008   ;
    20      NG2S1      1    LIG     N3     20     -0.504     14.007   ;
    21      CG2O1      1    LIG    C13     21      0.362     12.011   ;
    22      OG2D1      1    LIG     O3     22     -0.480     15.999   ;
    23       HGP1      1    LIG     H3     23      0.329      1.008   ;
    24      CG311      1    LIG    C14     24      0.436     12.011   ;
    25     CG2DC1      1    LIG    C15     25     -0.316     12.011   ;
    26     CG2DC1      1    LIG    C16     26     -0.198     12.011   ;
    27     CG2DC2      1    LIG    C17     27      0.029     12.011   ;
    28      CLGA1      1    LIG     CL     28     -0.066     35.453   ;
    29     CG2D2O      1    LIG    C18     29     -0.138     12.011   ;
    30      NG311      1    LIG     N4     30     -0.573     14.007   ;
    31     HGPAM1      1    LIG    HN4     31      0.375      1.008   ;
    32      HGR61      1    LIG     HC     32      0.119      1.008   ;
    33      HGR61      1    LIG    HC1     33      0.119      1.008   ;
    34      HGR61      1    LIG    HC2     34      0.116      1.008   ;
    35      HGR61      1    LIG    HC3     35      0.116      1.008   ;
    36       HGP2      1    LIG    HN2     36      0.467      1.008   ;
    37       HGA1      1    LIG    HC4     37      0.090      1.008   ;
    38       HGA1      1    LIG    HC5     38      0.090      1.008   ;
    39       HGA2      1    LIG    HC6     39      0.090      1.008   ;
    40       HGA2      1    LIG    HC7     40      0.090      1.008   ;
    41       HGA2      1    LIG    HC8     41      0.090      1.008   ;
    42       HGA2      1    LIG    HC9     42      0.090      1.008   ;
    43       HGA2      1    LIG   HC10     43      0.090      1.008   ;
    44       HGA2      1    LIG   HC11     44      0.090      1.008   ;
    45       HGP2      1    LIG    HN1     45      0.307      1.008   ;
    46       HGA4      1    LIG   HC12     46      0.154      1.008   ;
    47       HGA4      1    LIG   HC13     47      0.150      1.008   ;
    48       HGA4      1    LIG   HC14     48      0.162      1.008   ;
    49       HGA1      1    LIG    H23     49      0.090      1.008   ;
    50        LPH      1    LIG    LP1     50      0.050      0.000   ;

[ bonds ]
;	ai	  aj funct			  c0			c1			  c2			c3
    1     6	 1 ;      CG2R61     CG2R61
    1    20	 1 ;      CG2R61      NG2S1
    1     2	 1 ;      CG2R61     CG2R61
    2     3	 1 ;      CG2R61     CG2R61
    2    32	 1 ;      CG2R61      HGR61
    3     4	 1 ;      CG2R61     CG2R61
    3     7	 1 ;      CG2R61     CG3RC1
    4     5	 1 ;      CG2R61     CG2R61
    4    33	 1 ;      CG2R61      HGR61
    5     6	 1 ;      CG2R61     CG2R61
    5    34	 1 ;      CG2R61      HGR61
    6    35	 1 ;      CG2R61      HGR61
    7    12	 1 ;      CG3RC1     CG3RC1
    7     8	 1 ;      CG3RC1      NG3P2
    7    16	 1 ;      CG3RC1      CG321
    8     9	 1 ;       NG3P2     CG3C53
    8    10	 1 ;       NG3P2       HGP2
    8    36	 1 ;       NG3P2       HGP2
    9    11	 1 ;      CG3C53     OG3C51
    9    17	 1 ;      CG3C53      NG3P3
    9    37	 1 ;      CG3C53       HGA1
   11    12	 1 ;      OG3C51     CG3RC1
   12    13	 1 ;      CG3RC1      CG321
   12    38	 1 ;      CG3RC1       HGA1
   13    14	 1 ;       CG321     OG3C61
   13    39	 1 ;       CG321       HGA2
   13    40	 1 ;       CG321       HGA2
   14    15	 1 ;      OG3C61      CG321
   15    16	 1 ;       CG321      CG321
   15    41	 1 ;       CG321       HGA2
   15    42	 1 ;       CG321       HGA2
   16    43	 1 ;       CG321       HGA2
   16    44	 1 ;       CG321       HGA2
   17    19	 1 ;       NG3P3       HGP2
   17    18	 1 ;       NG3P3       HGP2
   17    45	 1 ;       NG3P3       HGP2
   20    21	 1 ;       NG2S1      CG2O1
   20    23	 1 ;       NG2S1       HGP1
   21    22	 1 ;       CG2O1      OG2D1
   21    24	 1 ;       CG2O1      CG311
   24    30	 1 ;       CG311      NG311
   24    25	 1 ;       CG311     CG2DC1
   24    49	 1 ;       CG311       HGA1
   25    26	 1 ;      CG2DC1     CG2DC1
   25    46	 1 ;      CG2DC1       HGA4
   26    27	 1 ;      CG2DC1     CG2DC2
   26    47	 1 ;      CG2DC1       HGA4
   27    29	 1 ;      CG2DC2     CG2D2O
   27    28	 1 ;      CG2DC2      CLGA1
   29    30	 1 ;      CG2D2O      NG311
   29    48	 1 ;      CG2D2O       HGA4
   30    31	 1 ;       NG311     HGPAM1

[ pairs ]
;	ai	  aj funct			  c0			c1			  c2			c3
    1     4	 1
    1     7	 1
    1    34	 1
    1    22	 1
    1    24	 1
    2     5	 1
    2    35	 1
    2    21	 1
    2    23	 1
    2    33	 1
    2    12	 1
    2     8	 1
    2    16	 1
    3     6	 1
    3    20	 1
    3    34	 1
    3    11	 1
    3    13	 1
    3    38	 1
    3     9	 1
    3    10	 1
    3    36	 1
    3    15	 1
    3    43	 1
    3    44	 1
    4    32	 1
    4    12	 1
    4     8	 1
    4    16	 1
    4    35	 1
    5    20	 1
    5     7	 1
    6    21	 1
    6    23	 1
    6    32	 1
    6    33	 1
    7    32	 1
    7    33	 1
    7    17	 1
    7    37	 1
    7    14	 1
    7    39	 1
    7    40	 1
    7    41	 1
    7    42	 1
    8    13	 1
    8    38	 1
    8    15	 1
    8    43	 1
    8    44	 1
    8    19	 1
    8    18	 1
    8    45	 1
    9    16	 1
    9    13	 1
    9    38	 1
   10    12	 1
   10    16	 1
   10    11	 1
   10    17	 1
   10    37	 1
   11    16	 1
   11    36	 1
   11    19	 1
   11    18	 1
   11    45	 1
   11    14	 1
   11    39	 1
   11    40	 1
   12    36	 1
   12    15	 1
   12    43	 1
   12    44	 1
   12    17	 1
   12    37	 1
   13    16	 1
   13    41	 1
   13    42	 1
   14    38	 1
   14    43	 1
   14    44	 1
   15    39	 1
   15    40	 1
   16    38	 1
   16    36	 1
   17    36	 1
   18    37	 1
   19    37	 1
   20    35	 1
   20    32	 1
   20    30	 1
   20    25	 1
   20    49	 1
   21    31	 1
   21    29	 1
   21    26	 1
   21    46	 1
   22    23	 1
   22    30	 1
   22    25	 1
   22    49	 1
   23    24	 1
   24    27	 1
   24    47	 1
   24    48	 1
   25    31	 1
   25    29	 1
   25    28	 1
   50    25	 1
   26    30	 1
   26    49	 1
   26    48	 1
   27    46	 1
   27    31	 1
   28    47	 1
   50    47	 1
   28    30	 1
   50    30	 1
   28    48	 1
   50    48	 1
   29    49	 1
   29    47	 1
   30    46	 1
   31    49	 1
   31    48	 1
   33    34	 1
   34    35	 1
   36    37	 1
   37    45	 1
   38    39	 1
   38    40	 1
   41    43	 1
   41    44	 1
   42    43	 1
   42    44	 1
   46    49	 1
   46    47	 1

[ angles ]
;	ai	  aj	ak funct			c0			  c1			c2			  c3
    6     1    20	5 ;     CG2R61     CG2R61      NG2S1
    6     1     2	5 ;     CG2R61     CG2R61     CG2R61
   20     1     2	5 ;      NG2S1     CG2R61     CG2R61
    1     2     3	5 ;     CG2R61     CG2R61     CG2R61
    1     2    32	5 ;     CG2R61     CG2R61      HGR61
    3     2    32	5 ;     CG2R61     CG2R61      HGR61
    4     3     2	5 ;     CG2R61     CG2R61     CG2R61
    4     3     7	5 ;     CG2R61     CG2R61     CG3RC1
    2     3     7	5 ;     CG2R61     CG2R61     CG3RC1
    5     4     3	5 ;     CG2R61     CG2R61     CG2R61
    5     4    33	5 ;     CG2R61     CG2R61      HGR61
    3     4    33	5 ;     CG2R61     CG2R61      HGR61
    6     5     4	5 ;     CG2R61     CG2R61     CG2R61
    6     5    34	5 ;     CG2R61     CG2R61      HGR61
    4     5    34	5 ;     CG2R61     CG2R61      HGR61
    5     6     1	5 ;     CG2R61     CG2R61     CG2R61
    5     6    35	5 ;     CG2R61     CG2R61      HGR61
    1     6    35	5 ;     CG2R61     CG2R61      HGR61
    3     7    12	5 ;     CG2R61     CG3RC1     CG3RC1
    3     7     8	5 ;     CG2R61     CG3RC1      NG3P2
    3     7    16	5 ;     CG2R61     CG3RC1      CG321
   12     7     8	5 ;     CG3RC1     CG3RC1      NG3P2
   12     7    16	5 ;     CG3RC1     CG3RC1      CG321
    8     7    16	5 ;      NG3P2     CG3RC1      CG321
    7     8     9	5 ;     CG3RC1      NG3P2     CG3C53
    7     8    10	5 ;     CG3RC1      NG3P2       HGP2
    7     8    36	5 ;     CG3RC1      NG3P2       HGP2
    9     8    10	5 ;     CG3C53      NG3P2       HGP2
    9     8    36	5 ;     CG3C53      NG3P2       HGP2
   10     8    36	5 ;       HGP2      NG3P2       HGP2
   11     9    17	5 ;     OG3C51     CG3C53      NG3P3
   11     9     8	5 ;     OG3C51     CG3C53      NG3P2
   11     9    37	5 ;     OG3C51     CG3C53       HGA1
   17     9     8	5 ;      NG3P3     CG3C53      NG3P2
   17     9    37	5 ;      NG3P3     CG3C53       HGA1
    8     9    37	5 ;      NG3P2     CG3C53       HGA1
   12    11     9	5 ;     CG3RC1     OG3C51     CG3C53
   11    12     7	5 ;     OG3C51     CG3RC1     CG3RC1
   11    12    13	5 ;     OG3C51     CG3RC1      CG321
   11    12    38	5 ;     OG3C51     CG3RC1       HGA1
    7    12    13	5 ;     CG3RC1     CG3RC1      CG321
    7    12    38	5 ;     CG3RC1     CG3RC1       HGA1
   13    12    38	5 ;      CG321     CG3RC1       HGA1
   12    13    14	5 ;     CG3RC1      CG321     OG3C61
   12    13    39	5 ;     CG3RC1      CG321       HGA2
   12    13    40	5 ;     CG3RC1      CG321       HGA2
   14    13    39	5 ;     OG3C61      CG321       HGA2
   14    13    40	5 ;     OG3C61      CG321       HGA2
   39    13    40	5 ;       HGA2      CG321       HGA2
   13    14    15	5 ;      CG321     OG3C61      CG321
   16    15    14	5 ;      CG321      CG321     OG3C61
   16    15    41	5 ;      CG321      CG321       HGA2
   16    15    42	5 ;      CG321      CG321       HGA2
   14    15    41	5 ;     OG3C61      CG321       HGA2
   14    15    42	5 ;     OG3C61      CG321       HGA2
   41    15    42	5 ;       HGA2      CG321       HGA2
    7    16    15	5 ;     CG3RC1      CG321      CG321
    7    16    43	5 ;     CG3RC1      CG321       HGA2
    7    16    44	5 ;     CG3RC1      CG321       HGA2
   15    16    43	5 ;      CG321      CG321       HGA2
   15    16    44	5 ;      CG321      CG321       HGA2
   43    16    44	5 ;       HGA2      CG321       HGA2
   19    17     9	5 ;       HGP2      NG3P3     CG3C53
   19    17    18	5 ;       HGP2      NG3P3       HGP2
   19    17    45	5 ;       HGP2      NG3P3       HGP2
    9    17    18	5 ;     CG3C53      NG3P3       HGP2
    9    17    45	5 ;     CG3C53      NG3P3       HGP2
   18    17    45	5 ;       HGP2      NG3P3       HGP2
   21    20     1	5 ;      CG2O1      NG2S1     CG2R61
   21    20    23	5 ;      CG2O1      NG2S1       HGP1
    1    20    23	5 ;     CG2R61      NG2S1       HGP1
   22    21    24	5 ;      OG2D1      CG2O1      CG311
   22    21    20	5 ;      OG2D1      CG2O1      NG2S1
   24    21    20	5 ;      CG311      CG2O1      NG2S1
   30    24    21	5 ;      NG311      CG311      CG2O1
   30    24    25	5 ;      NG311      CG311     CG2DC1
   30    24    49	5 ;      NG311      CG311       HGA1
   21    24    25	5 ;      CG2O1      CG311     CG2DC1
   21    24    49	5 ;      CG2O1      CG311       HGA1
   25    24    49	5 ;     CG2DC1      CG311       HGA1
   24    25    26	5 ;      CG311     CG2DC1     CG2DC1
   24    25    46	5 ;      CG311     CG2DC1       HGA4
   26    25    46	5 ;     CG2DC1     CG2DC1       HGA4
   27    26    25	5 ;     CG2DC2     CG2DC1     CG2DC1
   27    26    47	5 ;     CG2DC2     CG2DC1       HGA4
   25    26    47	5 ;     CG2DC1     CG2DC1       HGA4
   29    27    28	5 ;     CG2D2O     CG2DC2      CLGA1
   29    27    26	5 ;     CG2D2O     CG2DC2     CG2DC1
   28    27    26	5 ;      CLGA1     CG2DC2     CG2DC1
   30    29    27	5 ;      NG311     CG2D2O     CG2DC2
   30    29    48	5 ;      NG311     CG2D2O       HGA4
   27    29    48	5 ;     CG2DC2     CG2D2O       HGA4
   31    30    29	5 ;     HGPAM1      NG311     CG2D2O
   31    30    24	5 ;     HGPAM1      NG311      CG311
   29    30    24	5 ;     CG2D2O      NG311      CG311

[ dihedrals ]
;	ai	  aj	ak	  al funct			  c0			c1			  c2			c3			  c4			c5
   20     1     6     5	 9 ;      NG2S1     CG2R61     CG2R61     CG2R61
   20     1     6    35	 9 ;      NG2S1     CG2R61     CG2R61      HGR61
    2     1     6     5	 9 ;     CG2R61     CG2R61     CG2R61     CG2R61
    2     1     6    35	 9 ;     CG2R61     CG2R61     CG2R61      HGR61
    6     1    20    21	 9 ;     CG2R61     CG2R61      NG2S1      CG2O1
    6     1    20    23	 9 ;     CG2R61     CG2R61      NG2S1       HGP1
    2     1    20    21	 9 ;     CG2R61     CG2R61      NG2S1      CG2O1
    2     1    20    23	 9 ;     CG2R61     CG2R61      NG2S1       HGP1
    6     1     2     3	 9 ;     CG2R61     CG2R61     CG2R61     CG2R61
    6     1     2    32	 9 ;     CG2R61     CG2R61     CG2R61      HGR61
   20     1     2     3	 9 ;      NG2S1     CG2R61     CG2R61     CG2R61
   20     1     2    32	 9 ;      NG2S1     CG2R61     CG2R61      HGR61
    1     2     3     4	 9 ;     CG2R61     CG2R61     CG2R61     CG2R61
    1     2     3     7	 9 ;     CG2R61     CG2R61     CG2R61     CG3RC1
   32     2     3     4	 9 ;      HGR61     CG2R61     CG2R61     CG2R61
   32     2     3     7	 9 ;      HGR61     CG2R61     CG2R61     CG3RC1
    2     3     4     5	 9 ;     CG2R61     CG2R61     CG2R61     CG2R61
    2     3     4    33	 9 ;     CG2R61     CG2R61     CG2R61      HGR61
    7     3     4     5	 9 ;     CG3RC1     CG2R61     CG2R61     CG2R61
    7     3     4    33	 9 ;     CG3RC1     CG2R61     CG2R61      HGR61
    4     3     7    12	 9 ;     CG2R61     CG2R61     CG3RC1     CG3RC1
    4     3     7     8	 9 ;     CG2R61     CG2R61     CG3RC1      NG3P2
    4     3     7    16	 9 ;     CG2R61     CG2R61     CG3RC1      CG321
    2     3     7    12	 9 ;     CG2R61     CG2R61     CG3RC1     CG3RC1
    2     3     7     8	 9 ;     CG2R61     CG2R61     CG3RC1      NG3P2
    2     3     7    16	 9 ;     CG2R61     CG2R61     CG3RC1      CG321
    3     4     5     6	 9 ;     CG2R61     CG2R61     CG2R61     CG2R61
    3     4     5    34	 9 ;     CG2R61     CG2R61     CG2R61      HGR61
   33     4     5     6	 9 ;      HGR61     CG2R61     CG2R61     CG2R61
   33     4     5    34	 9 ;      HGR61     CG2R61     CG2R61      HGR61
    4     5     6     1	 9 ;     CG2R61     CG2R61     CG2R61     CG2R61
    4     5     6    35	 9 ;     CG2R61     CG2R61     CG2R61      HGR61
   34     5     6     1	 9 ;      HGR61     CG2R61     CG2R61     CG2R61
   34     5     6    35	 9 ;      HGR61     CG2R61     CG2R61      HGR61
    3     7    12    11	 9 ;     CG2R61     CG3RC1     CG3RC1     OG3C51
    3     7    12    13	 9 ;     CG2R61     CG3RC1     CG3RC1      CG321
    3     7    12    38	 9 ;     CG2R61     CG3RC1     CG3RC1       HGA1
    8     7    12    11	 9 ;      NG3P2     CG3RC1     CG3RC1     OG3C51
    8     7    12    13	 9 ;      NG3P2     CG3RC1     CG3RC1      CG321
    8     7    12    38	 9 ;      NG3P2     CG3RC1     CG3RC1       HGA1
   16     7    12    11	 9 ;      CG321     CG3RC1     CG3RC1     OG3C51
   16     7    12    13	 9 ;      CG321     CG3RC1     CG3RC1      CG321
   16     7    12    38	 9 ;      CG321     CG3RC1     CG3RC1       HGA1
    3     7     8     9	 9 ;     CG2R61     CG3RC1      NG3P2     CG3C53
    3     7     8    10	 9 ;     CG2R61     CG3RC1      NG3P2       HGP2
    3     7     8    36	 9 ;     CG2R61     CG3RC1      NG3P2       HGP2
   12     7     8     9	 9 ;     CG3RC1     CG3RC1      NG3P2     CG3C53
   12     7     8    10	 9 ;     CG3RC1     CG3RC1      NG3P2       HGP2
   12     7     8    36	 9 ;     CG3RC1     CG3RC1      NG3P2       HGP2
   16     7     8     9	 9 ;      CG321     CG3RC1      NG3P2     CG3C53
   16     7     8    10	 9 ;      CG321     CG3RC1      NG3P2       HGP2
   16     7     8    36	 9 ;      CG321     CG3RC1      NG3P2       HGP2
    3     7    16    15	 9 ;     CG2R61     CG3RC1      CG321      CG321
    3     7    16    43	 9 ;     CG2R61     CG3RC1      CG321       HGA2
    3     7    16    44	 9 ;     CG2R61     CG3RC1      CG321       HGA2
   12     7    16    15	 9 ;     CG3RC1     CG3RC1      CG321      CG321
   12     7    16    43	 9 ;     CG3RC1     CG3RC1      CG321       HGA2
   12     7    16    44	 9 ;     CG3RC1     CG3RC1      CG321       HGA2
    8     7    16    15	 9 ;      NG3P2     CG3RC1      CG321      CG321
    8     7    16    43	 9 ;      NG3P2     CG3RC1      CG321       HGA2
    8     7    16    44	 9 ;      NG3P2     CG3RC1      CG321       HGA2
    7     8     9    11	 9 ;     CG3RC1      NG3P2     CG3C53     OG3C51
    7     8     9    17	 9 ;     CG3RC1      NG3P2     CG3C53      NG3P3
    7     8     9    37	 9 ;     CG3RC1      NG3P2     CG3C53       HGA1
   10     8     9    11	 9 ;       HGP2      NG3P2     CG3C53     OG3C51
   10     8     9    17	 9 ;       HGP2      NG3P2     CG3C53      NG3P3
   10     8     9    37	 9 ;       HGP2      NG3P2     CG3C53       HGA1
   36     8     9    11	 9 ;       HGP2      NG3P2     CG3C53     OG3C51
   36     8     9    17	 9 ;       HGP2      NG3P2     CG3C53      NG3P3
   36     8     9    37	 9 ;       HGP2      NG3P2     CG3C53       HGA1
   17     9    11    12	 9 ;      NG3P3     CG3C53     OG3C51     CG3RC1
    8     9    11    12	 9 ;      NG3P2     CG3C53     OG3C51     CG3RC1
   37     9    11    12	 9 ;       HGA1     CG3C53     OG3C51     CG3RC1
   11     9    17    19	 9 ;     OG3C51     CG3C53      NG3P3       HGP2
   11     9    17    18	 9 ;     OG3C51     CG3C53      NG3P3       HGP2
   11     9    17    45	 9 ;     OG3C51     CG3C53      NG3P3       HGP2
    8     9    17    19	 9 ;      NG3P2     CG3C53      NG3P3       HGP2
    8     9    17    18	 9 ;      NG3P2     CG3C53      NG3P3       HGP2
    8     9    17    45	 9 ;      NG3P2     CG3C53      NG3P3       HGP2
   37     9    17    19	 9 ;       HGA1     CG3C53      NG3P3       HGP2
   37     9    17    18	 9 ;       HGA1     CG3C53      NG3P3       HGP2
   37     9    17    45	 9 ;       HGA1     CG3C53      NG3P3       HGP2
    9    11    12     7	 9 ;     CG3C53     OG3C51     CG3RC1     CG3RC1
    9    11    12    13	 9 ;     CG3C53     OG3C51     CG3RC1      CG321
    9    11    12    38	 9 ;     CG3C53     OG3C51     CG3RC1       HGA1
   11    12    13    14	 9 ;     OG3C51     CG3RC1      CG321     OG3C61
   11    12    13    39	 9 ;     OG3C51     CG3RC1      CG321       HGA2
   11    12    13    40	 9 ;     OG3C51     CG3RC1      CG321       HGA2
    7    12    13    14	 9 ;     CG3RC1     CG3RC1      CG321     OG3C61
    7    12    13    39	 9 ;     CG3RC1     CG3RC1      CG321       HGA2
    7    12    13    40	 9 ;     CG3RC1     CG3RC1      CG321       HGA2
   38    12    13    14	 9 ;       HGA1     CG3RC1      CG321     OG3C61
   38    12    13    39	 9 ;       HGA1     CG3RC1      CG321       HGA2
   38    12    13    40	 9 ;       HGA1     CG3RC1      CG321       HGA2
   12    13    14    15	 9 ;     CG3RC1      CG321     OG3C61      CG321
   39    13    14    15	 9 ;       HGA2      CG321     OG3C61      CG321
   40    13    14    15	 9 ;       HGA2      CG321     OG3C61      CG321
   13    14    15    16	 9 ;      CG321     OG3C61      CG321      CG321
   13    14    15    41	 9 ;      CG321     OG3C61      CG321       HGA2
   13    14    15    42	 9 ;      CG321     OG3C61      CG321       HGA2
   14    15    16     7	 9 ;     OG3C61      CG321      CG321     CG3RC1
   14    15    16    43	 9 ;     OG3C61      CG321      CG321       HGA2
   14    15    16    44	 9 ;     OG3C61      CG321      CG321       HGA2
   41    15    16     7	 9 ;       HGA2      CG321      CG321     CG3RC1
   41    15    16    43	 9 ;       HGA2      CG321      CG321       HGA2
   41    15    16    44	 9 ;       HGA2      CG321      CG321       HGA2
   42    15    16     7	 9 ;       HGA2      CG321      CG321     CG3RC1
   42    15    16    43	 9 ;       HGA2      CG321      CG321       HGA2
   42    15    16    44	 9 ;       HGA2      CG321      CG321       HGA2
    1    20    21    22	 9 ;     CG2R61      NG2S1      CG2O1      OG2D1
    1    20    21    24	 9 ;     CG2R61      NG2S1      CG2O1      CG311
   23    20    21    22	 9 ;       HGP1      NG2S1      CG2O1      OG2D1
   23    20    21    24	 9 ;       HGP1      NG2S1      CG2O1      CG311
   22    21    24    30	 9 ;      OG2D1      CG2O1      CG311      NG311
   22    21    24    25	 9 ;      OG2D1      CG2O1      CG311     CG2DC1
   22    21    24    49	 9 ;      OG2D1      CG2O1      CG311       HGA1
   20    21    24    30	 9 ;      NG2S1      CG2O1      CG311      NG311
   20    21    24    25	 9 ;      NG2S1      CG2O1      CG311     CG2DC1
   20    21    24    49	 9 ;      NG2S1      CG2O1      CG311       HGA1
   21    24    30    31	 9 ;      CG2O1      CG311      NG311     HGPAM1
   21    24    30    29	 9 ;      CG2O1      CG311      NG311     CG2D2O
   25    24    30    31	 9 ;     CG2DC1      CG311      NG311     HGPAM1
   25    24    30    29	 9 ;     CG2DC1      CG311      NG311     CG2D2O
   49    24    30    31	 9 ;       HGA1      CG311      NG311     HGPAM1
   49    24    30    29	 9 ;       HGA1      CG311      NG311     CG2D2O
   30    24    25    26	 9 ;      NG311      CG311     CG2DC1     CG2DC1
   30    24    25    46	 9 ;      NG311      CG311     CG2DC1       HGA4
   21    24    25    26	 9 ;      CG2O1      CG311     CG2DC1     CG2DC1
   21    24    25    46	 9 ;      CG2O1      CG311     CG2DC1       HGA4
   49    24    25    26	 9 ;       HGA1      CG311     CG2DC1     CG2DC1
   49    24    25    46	 9 ;       HGA1      CG311     CG2DC1       HGA4
   24    25    26    27	 9 ;      CG311     CG2DC1     CG2DC1     CG2DC2
   24    25    26    47	 9 ;      CG311     CG2DC1     CG2DC1       HGA4
   46    25    26    27	 9 ;       HGA4     CG2DC1     CG2DC1     CG2DC2
   46    25    26    47	 9 ;       HGA4     CG2DC1     CG2DC1       HGA4
   25    26    27    29	 9 ;     CG2DC1     CG2DC1     CG2DC2     CG2D2O
   25    26    27    28	 9 ;     CG2DC1     CG2DC1     CG2DC2      CLGA1
   47    26    27    29	 9 ;       HGA4     CG2DC1     CG2DC2     CG2D2O
   47    26    27    28	 9 ;       HGA4     CG2DC1     CG2DC2      CLGA1
   28    27    29    30	 9 ;      CLGA1     CG2DC2     CG2D2O      NG311
   28    27    29    48	 9 ;      CLGA1     CG2DC2     CG2D2O       HGA4
   26    27    29    30	 9 ;     CG2DC1     CG2DC2     CG2D2O      NG311
   26    27    29    48	 9 ;     CG2DC1     CG2DC2     CG2D2O       HGA4
   27    29    30    31	 9 ;     CG2DC2     CG2D2O      NG311     HGPAM1
   27    29    30    24	 9 ;     CG2DC2     CG2D2O      NG311      CG311
   48    29    30    31	 9 ;       HGA4     CG2D2O      NG311     HGPAM1
   48    29    30    24	 9 ;       HGA4     CG2D2O      NG311      CG311

[ dihedrals ]
;	ai	  aj	ak	  al funct			  c0			c1			  c2			c3
   21    24    20    22	 2
   29    27    30    48	 2

[ virtual_sites2 ]
; Site   from				funct a
   50    28    27     2   -0.164

[ exclusions ]
;	ai	  aj
   28    50
   50    27
   50    29
   50    26
   50    25
   50    47
   50    30
   50    48

