GRoups of Organic Molecules in ACtion for Science
   56
    1LIG     C1    1  -1.345   0.380  -1.712
    1LIG     N1    2  -1.428   0.291  -1.804
    1LIG    HN1    3  -1.478   0.207  -1.777
    1LIG     C2    4  -1.421   0.343  -1.923
    1LIG     N2    5  -1.485   0.288  -2.030
    1LIG     C3    6  -1.343   0.465  -1.932
    1LIG     C4    7  -1.298   0.491  -1.804
    1LIG     C5    8  -1.224   0.607  -1.780
    1LIG     C6    9  -1.195   0.692  -1.887
    1LIG     C7   10  -1.241   0.663  -2.016
    1LIG     C8   11  -1.316   0.548  -2.039
    1LIG     F1   12  -1.360   0.519  -2.162
    1LIG     H1   13  -1.511   0.190  -2.016
    1LIG     H2   14  -1.448   0.309  -2.122
    1LIG     C9   15  -1.433   0.439  -1.599
    1LIG    C10   16  -1.473   0.361  -1.490
    1LIG    C11   17  -1.554   0.414  -1.390
    1LIG    C12   18  -1.597   0.546  -1.398
    1LIG     F2   19  -1.674   0.594  -1.299
    1LIG    C13   20  -1.560   0.629  -1.505
    1LIG    C14   21  -1.478   0.573  -1.605
    1LIG    C15   22  -1.605   0.769  -1.514
    1LIG    C16   23  -1.517   0.876  -1.518
    1LIG     N3   24  -1.555   1.006  -1.528
    1LIG    C17   25  -1.687   1.028  -1.532
    1LIG    HN2   26  -1.487   1.082  -1.532
    1LIG     N4   27  -1.782   0.934  -1.528
    1LIG    C18   28  -1.738   0.806  -1.518
    1LIG    HN3   29  -1.882   0.956  -1.532
    1LIG    C19   30  -1.233   0.289  -1.656
    1LIG    C20   31  -1.228   0.150  -1.674
    1LIG    C21   32  -1.123   0.076  -1.619
    1LIG     N5   33  -1.023   0.134  -1.547
    1LIG    C22   34  -1.030   0.267  -1.528
    1LIG    HN4   35  -0.946   0.079  -1.509
    1LIG    C23   36  -1.131   0.347  -1.579
    1LIG    C24   37  -1.119  -0.074  -1.641
    1LIG     F3   38  -1.021  -0.135  -1.568
    1LIG     F4   39  -1.235  -0.135  -1.603
    1LIG     H3   40  -1.457   0.299  -2.014
    1LIG     H4   41  -1.191   0.629  -1.684
    1LIG     H5   42  -1.140   0.778  -1.870
    1LIG     H6   43  -1.218   0.726  -2.095
    1LIG     H7   44  -1.442   0.262  -1.483
    1LIG     H8   45  -1.583   0.355  -1.310
    1LIG     H9   46  -1.450   0.631  -1.686
    1LIG    H10   47  -1.459   0.870  -1.429
    1LIG    H11   48  -1.474   0.861  -1.615
    1LIG    H12   49  -1.704   1.081  -1.624
    1LIG    H13   50  -1.701   1.073  -1.436
    1LIG    H14   51  -1.809   0.731  -1.514
    1LIG    H15   52  -1.302   0.102  -1.727
    1LIG    H16   53  -1.138   0.181  -1.607
    1LIG    H17   54  -0.956   0.312  -1.472
    1LIG    H18   55  -1.131   0.449  -1.561
    1LIG    H19   56  -1.101  -0.084  -1.746
   0.00000   0.00000   0.00000
