; Created by cgenff_charmm2gmx.py

[ moleculetype ]
; Name			   nrexcl
LIG				 3

[ atoms ]
;	 nr		  type	resnr residue  atom   cgnr	   charge		mass  typeB    chargeB		massB
; residue	 1 LIG rtp LIG q	qsum
     1     CG3C50      1    LIG     C1      1      1.457     12.011   ;
     2     NG3C51      1    LIG     N1      2     -0.814     14.007   ;
     3       HGP1      1    LIG    HN1      3      0.286      1.008   ;
     4     CG3C51      1    LIG     C2      4      0.296     12.011   ;
     5      NG321      1    LIG     N2      5     -0.998     14.007   ;
     6     CG2RC0      1    LIG     C3      6     -0.166     12.011   ;
     7     CG2RC0      1    LIG     C4      7     -0.703     12.011   ;
     8     CG2R61      1    LIG     C5      8     -0.199     12.011   ;
     9     CG2R61      1    LIG     C6      9     -0.288     12.011   ;
    10     CG2R61      1    LIG     C7     10     -0.088     12.011   ;
    11     CG2R66      1    LIG     C8     11      0.188     12.011   ;
    12       FGR1      1    LIG     F1     12     -0.165     18.998   ;
    13     HGPAM2      1    LIG     H1     13      0.379      1.008   ;
    14     HGPAM2      1    LIG     H2     14      0.379      1.008   ;
    15     CG2R61      1    LIG     C9     15     -0.022     12.011   ;
    16     CG2R61      1    LIG    C10     16     -0.216     12.011   ;
    17     CG2R61      1    LIG    C11     17     -0.075     12.011   ;
    18     CG2R66      1    LIG    C12     18      0.002     12.011   ;
    19       FGR1      1    LIG     F2     19     -0.169     18.998   ;
    20     CG2R61      1    LIG    C13     20      0.172     12.011   ;
    21     CG2R61      1    LIG    C14     21     -0.217     12.011   ;
    22     CG2DC1      1    LIG    C15     22     -0.127     12.011   ;
    23      CG321      1    LIG    C16     23      0.021     12.011   ;
    24      NG311      1    LIG     N3     24     -0.656     14.007   ;
    25      CG321      1    LIG    C17     25      0.131     12.011   ;
    26     HGPAM1      1    LIG    HN2     26      0.367      1.008   ;
    27      NG311      1    LIG     N4     27     -0.598     14.007   ;
    28     CG2D1O      1    LIG    C18     28     -0.097     12.011   ;
    29     HGPAM1      1    LIG    HN3     29      0.406      1.008   ;
    30     CG2DC1      1    LIG    C19     30      0.127     12.011   ;
    31     CG2DC1      1    LIG    C20     31     -0.325     12.011   ;
    32      CG311      1    LIG    C21     32      0.318     12.011   ;
    33      NG311      1    LIG     N5     33     -0.524     14.007   ;
    34     CG2D2O      1    LIG    C22     34     -0.054     12.011   ;
    35     HGPAM1      1    LIG    HN4     35      0.360      1.008   ;
    36     CG2DC2      1    LIG    C23     36     -0.372     12.011   ;
    37      CG312      1    LIG    C24     37      0.111     12.011   ;
    38       FGA2      1    LIG     F3     38     -0.174     18.998   ;
    39       FGA2      1    LIG     F4     39     -0.174     18.998   ;
    40       HGA1      1    LIG     H3     40      0.116      1.008   ;
    41      HGR61      1    LIG     H4     41      0.189      1.008   ;
    42      HGR61      1    LIG     H5     42      0.134      1.008   ;
    43      HGR62      1    LIG     H6     43      0.166      1.008   ;
    44      HGR61      1    LIG     H7     44      0.116      1.008   ;
    45      HGR62      1    LIG     H8     45      0.179      1.008   ;
    46      HGR61      1    LIG     H9     46      0.116      1.008   ;
    47       HGA2      1    LIG    H10     47      0.090      1.008   ;
    48       HGA2      1    LIG    H11     48      0.090      1.008   ;
    49       HGA2      1    LIG    H12     49      0.090      1.008   ;
    50       HGA2      1    LIG    H13     50      0.090      1.008   ;
    51       HGA4      1    LIG    H14     51      0.148      1.008   ;
    52       HGA4      1    LIG    H15     52      0.150      1.008   ;
    53       HGA1      1    LIG    H16     53      0.090      1.008   ;
    54       HGA4      1    LIG    H17     54      0.162      1.008   ;
    55       HGA4      1    LIG    H18     55      0.150      1.008   ;
    56       HGA7      1    LIG    H19     56      0.145      1.008   ;

[ bonds ]
;	ai	  aj funct			  c0			c1			  c2			c3
    1     2	 1 ;      CG3C50     NG3C51
    1     7	 1 ;      CG3C50     CG2RC0
    1    30	 1 ;      CG3C50     CG2DC1
    1    15	 1 ;      CG3C50     CG2R61
    2     4	 1 ;      NG3C51     CG3C51
    2     3	 1 ;      NG3C51       HGP1
    4     5	 1 ;      CG3C51      NG321
    4     6	 1 ;      CG3C51     CG2RC0
    4    40	 1 ;      CG3C51       HGA1
    5    14	 1 ;       NG321     HGPAM2
    5    13	 1 ;       NG321     HGPAM2
    6    11	 1 ;      CG2RC0     CG2R66
    6     7	 1 ;      CG2RC0     CG2RC0
    7     8	 1 ;      CG2RC0     CG2R61
    8     9	 1 ;      CG2R61     CG2R61
    8    41	 1 ;      CG2R61      HGR61
    9    10	 1 ;      CG2R61     CG2R61
    9    42	 1 ;      CG2R61      HGR61
   10    11	 1 ;      CG2R61     CG2R66
   10    43	 1 ;      CG2R61      HGR62
   11    12	 1 ;      CG2R66       FGR1
   15    21	 1 ;      CG2R61     CG2R61
   15    16	 1 ;      CG2R61     CG2R61
   16    17	 1 ;      CG2R61     CG2R61
   16    44	 1 ;      CG2R61      HGR61
   17    18	 1 ;      CG2R61     CG2R66
   17    45	 1 ;      CG2R61      HGR62
   18    20	 1 ;      CG2R66     CG2R61
   18    19	 1 ;      CG2R66       FGR1
   20    21	 1 ;      CG2R61     CG2R61
   20    22	 1 ;      CG2R61     CG2DC1
   21    46	 1 ;      CG2R61      HGR61
   22    23	 1 ;      CG2DC1      CG321
   22    28	 1 ;      CG2DC1     CG2D1O
   23    24	 1 ;       CG321      NG311
   23    47	 1 ;       CG321       HGA2
   23    48	 1 ;       CG321       HGA2
   24    25	 1 ;       NG311      CG321
   24    26	 1 ;       NG311     HGPAM1
   25    27	 1 ;       CG321      NG311
   25    49	 1 ;       CG321       HGA2
   25    50	 1 ;       CG321       HGA2
   27    29	 1 ;       NG311     HGPAM1
   27    28	 1 ;       NG311     CG2D1O
   28    51	 1 ;      CG2D1O       HGA4
   30    31	 1 ;      CG2DC1     CG2DC1
   30    36	 1 ;      CG2DC1     CG2DC2
   31    32	 1 ;      CG2DC1      CG311
   31    52	 1 ;      CG2DC1       HGA4
   32    37	 1 ;       CG311      CG312
   32    33	 1 ;       CG311      NG311
   32    53	 1 ;       CG311       HGA1
   33    34	 1 ;       NG311     CG2D2O
   33    35	 1 ;       NG311     HGPAM1
   34    36	 1 ;      CG2D2O     CG2DC2
   34    54	 1 ;      CG2D2O       HGA4
   36    55	 1 ;      CG2DC2       HGA4
   37    39	 1 ;       CG312       FGA2
   37    38	 1 ;       CG312       FGA2
   37    56	 1 ;       CG312       HGA7

[ pairs ]
;	ai	  aj funct			  c0			c1			  c2			c3
    1     5	 1
    1    40	 1
    1    11	 1
    1     9	 1
    1    41	 1
    1    20	 1
    1    46	 1
    1    17	 1
    1    44	 1
    1    32	 1
    1    52	 1
    1    34	 1
    1    55	 1
    2     8	 1
    2    31	 1
    2    36	 1
    2    21	 1
    2    16	 1
    2    14	 1
    2    13	 1
    2    11	 1
    3     7	 1
    3    30	 1
    3    15	 1
    3     5	 1
    3     6	 1
    3    40	 1
    4    30	 1
    4    15	 1
    4    12	 1
    4    10	 1
    4     8	 1
    5    11	 1
    5     7	 1
    6    30	 1
    6    15	 1
    6    14	 1
    6    13	 1
    6     9	 1
    6    41	 1
    6    43	 1
    7    31	 1
    7    36	 1
    7    21	 1
    7    16	 1
    7    40	 1
    7    12	 1
    7    10	 1
    7    42	 1
    8    30	 1
    8    15	 1
    8    11	 1
    8    43	 1
    9    12	 1
   10    41	 1
   11    40	 1
   11    42	 1
   12    43	 1
   13    40	 1
   14    40	 1
   15    31	 1
   15    36	 1
   15    18	 1
   15    45	 1
   15    22	 1
   16    30	 1
   16    20	 1
   16    46	 1
   16    19	 1
   17    21	 1
   17    22	 1
   18    44	 1
   18    46	 1
   18    23	 1
   18    28	 1
   19    45	 1
   19    21	 1
   19    22	 1
   20    45	 1
   20    24	 1
   20    47	 1
   20    48	 1
   20    27	 1
   20    51	 1
   21    30	 1
   21    44	 1
   21    23	 1
   21    28	 1
   22    46	 1
   22    25	 1
   22    26	 1
   22    29	 1
   23    27	 1
   23    51	 1
   23    49	 1
   23    50	 1
   24    28	 1
   24    29	 1
   25    47	 1
   25    48	 1
   25    51	 1
   26    47	 1
   26    48	 1
   26    27	 1
   26    49	 1
   26    50	 1
   28    47	 1
   28    48	 1
   28    49	 1
   28    50	 1
   29    49	 1
   29    50	 1
   29    51	 1
   30    37	 1
   30    33	 1
   30    53	 1
   30    54	 1
   31    34	 1
   31    55	 1
   31    39	 1
   31    38	 1
   31    56	 1
   31    35	 1
   32    36	 1
   32    54	 1
   33    52	 1
   33    39	 1
   33    38	 1
   33    56	 1
   33    55	 1
   34    37	 1
   34    53	 1
   35    37	 1
   35    53	 1
   35    36	 1
   35    54	 1
   36    52	 1
   37    52	 1
   38    53	 1
   39    53	 1
   41    42	 1
   42    43	 1
   44    45	 1
   52    53	 1
   53    56	 1
   54    55	 1

[ angles ]
;	ai	  aj	ak funct			c0			  c1			c2			  c3
    2     1     7	5 ;     NG3C51     CG3C50     CG2RC0
    2     1    30	5 ;     NG3C51     CG3C50     CG2DC1
    2     1    15	5 ;     NG3C51     CG3C50     CG2R61
    7     1    30	5 ;     CG2RC0     CG3C50     CG2DC1
    7     1    15	5 ;     CG2RC0     CG3C50     CG2R61
   30     1    15	5 ;     CG2DC1     CG3C50     CG2R61
    4     2     3	5 ;     CG3C51     NG3C51       HGP1
    4     2     1	5 ;     CG3C51     NG3C51     CG3C50
    3     2     1	5 ;       HGP1     NG3C51     CG3C50
    5     4     6	5 ;      NG321     CG3C51     CG2RC0
    5     4     2	5 ;      NG321     CG3C51     NG3C51
    5     4    40	5 ;      NG321     CG3C51       HGA1
    6     4     2	5 ;     CG2RC0     CG3C51     NG3C51
    6     4    40	5 ;     CG2RC0     CG3C51       HGA1
    2     4    40	5 ;     NG3C51     CG3C51       HGA1
   14     5    13	5 ;     HGPAM2      NG321     HGPAM2
   14     5     4	5 ;     HGPAM2      NG321     CG3C51
   13     5     4	5 ;     HGPAM2      NG321     CG3C51
   11     6     4	5 ;     CG2R66     CG2RC0     CG3C51
   11     6     7	5 ;     CG2R66     CG2RC0     CG2RC0
    4     6     7	5 ;     CG3C51     CG2RC0     CG2RC0
    6     7     8	5 ;     CG2RC0     CG2RC0     CG2R61
    6     7     1	5 ;     CG2RC0     CG2RC0     CG3C50
    8     7     1	5 ;     CG2R61     CG2RC0     CG3C50
    9     8     7	5 ;     CG2R61     CG2R61     CG2RC0
    9     8    41	5 ;     CG2R61     CG2R61      HGR61
    7     8    41	5 ;     CG2RC0     CG2R61      HGR61
   10     9     8	5 ;     CG2R61     CG2R61     CG2R61
   10     9    42	5 ;     CG2R61     CG2R61      HGR61
    8     9    42	5 ;     CG2R61     CG2R61      HGR61
   11    10     9	5 ;     CG2R66     CG2R61     CG2R61
   11    10    43	5 ;     CG2R66     CG2R61      HGR62
    9    10    43	5 ;     CG2R61     CG2R61      HGR62
   12    11    10	5 ;       FGR1     CG2R66     CG2R61
   12    11     6	5 ;       FGR1     CG2R66     CG2RC0
   10    11     6	5 ;     CG2R61     CG2R66     CG2RC0
    1    15    21	5 ;     CG3C50     CG2R61     CG2R61
    1    15    16	5 ;     CG3C50     CG2R61     CG2R61
   21    15    16	5 ;     CG2R61     CG2R61     CG2R61
   15    16    17	5 ;     CG2R61     CG2R61     CG2R61
   15    16    44	5 ;     CG2R61     CG2R61      HGR61
   17    16    44	5 ;     CG2R61     CG2R61      HGR61
   16    17    18	5 ;     CG2R61     CG2R61     CG2R66
   16    17    45	5 ;     CG2R61     CG2R61      HGR62
   18    17    45	5 ;     CG2R66     CG2R61      HGR62
   20    18    17	5 ;     CG2R61     CG2R66     CG2R61
   20    18    19	5 ;     CG2R61     CG2R66       FGR1
   17    18    19	5 ;     CG2R61     CG2R66       FGR1
   21    20    22	5 ;     CG2R61     CG2R61     CG2DC1
   21    20    18	5 ;     CG2R61     CG2R61     CG2R66
   22    20    18	5 ;     CG2DC1     CG2R61     CG2R66
   15    21    20	5 ;     CG2R61     CG2R61     CG2R61
   15    21    46	5 ;     CG2R61     CG2R61      HGR61
   20    21    46	5 ;     CG2R61     CG2R61      HGR61
   23    22    28	5 ;      CG321     CG2DC1     CG2D1O
   23    22    20	5 ;      CG321     CG2DC1     CG2R61
   28    22    20	5 ;     CG2D1O     CG2DC1     CG2R61
   24    23    22	5 ;      NG311      CG321     CG2DC1
   24    23    47	5 ;      NG311      CG321       HGA2
   24    23    48	5 ;      NG311      CG321       HGA2
   22    23    47	5 ;     CG2DC1      CG321       HGA2
   22    23    48	5 ;     CG2DC1      CG321       HGA2
   47    23    48	5 ;       HGA2      CG321       HGA2
   25    24    26	5 ;      CG321      NG311     HGPAM1
   25    24    23	5 ;      CG321      NG311      CG321
   26    24    23	5 ;     HGPAM1      NG311      CG321
   24    25    27	5 ;      NG311      CG321      NG311
   24    25    49	5 ;      NG311      CG321       HGA2
   24    25    50	5 ;      NG311      CG321       HGA2
   27    25    49	5 ;      NG311      CG321       HGA2
   27    25    50	5 ;      NG311      CG321       HGA2
   49    25    50	5 ;       HGA2      CG321       HGA2
   25    27    29	5 ;      CG321      NG311     HGPAM1
   25    27    28	5 ;      CG321      NG311     CG2D1O
   29    27    28	5 ;     HGPAM1      NG311     CG2D1O
   27    28    22	5 ;      NG311     CG2D1O     CG2DC1
   27    28    51	5 ;      NG311     CG2D1O       HGA4
   22    28    51	5 ;     CG2DC1     CG2D1O       HGA4
    1    30    31	5 ;     CG3C50     CG2DC1     CG2DC1
    1    30    36	5 ;     CG3C50     CG2DC1     CG2DC2
   31    30    36	5 ;     CG2DC1     CG2DC1     CG2DC2
   30    31    32	5 ;     CG2DC1     CG2DC1      CG311
   30    31    52	5 ;     CG2DC1     CG2DC1       HGA4
   32    31    52	5 ;      CG311     CG2DC1       HGA4
   31    32    37	5 ;     CG2DC1      CG311      CG312
   31    32    33	5 ;     CG2DC1      CG311      NG311
   31    32    53	5 ;     CG2DC1      CG311       HGA1
   37    32    33	5 ;      CG312      CG311      NG311
   37    32    53	5 ;      CG312      CG311       HGA1
   33    32    53	5 ;      NG311      CG311       HGA1
   32    33    34	5 ;      CG311      NG311     CG2D2O
   32    33    35	5 ;      CG311      NG311     HGPAM1
   34    33    35	5 ;     CG2D2O      NG311     HGPAM1
   36    34    33	5 ;     CG2DC2     CG2D2O      NG311
   36    34    54	5 ;     CG2DC2     CG2D2O       HGA4
   33    34    54	5 ;      NG311     CG2D2O       HGA4
   30    36    34	5 ;     CG2DC1     CG2DC2     CG2D2O
   30    36    55	5 ;     CG2DC1     CG2DC2       HGA4
   34    36    55	5 ;     CG2D2O     CG2DC2       HGA4
   32    37    39	5 ;      CG311      CG312       FGA2
   32    37    38	5 ;      CG311      CG312       FGA2
   32    37    56	5 ;      CG311      CG312       HGA7
   39    37    38	5 ;       FGA2      CG312       FGA2
   39    37    56	5 ;       FGA2      CG312       HGA7
   38    37    56	5 ;       FGA2      CG312       HGA7

[ dihedrals ]
;	ai	  aj	ak	  al funct			  c0			c1			  c2			c3			  c4			c5
    7     1     2     4	 9 ;     CG2RC0     CG3C50     NG3C51     CG3C51
    7     1     2     3	 9 ;     CG2RC0     CG3C50     NG3C51       HGP1
   30     1     2     4	 9 ;     CG2DC1     CG3C50     NG3C51     CG3C51
   30     1     2     3	 9 ;     CG2DC1     CG3C50     NG3C51       HGP1
   15     1     2     4	 9 ;     CG2R61     CG3C50     NG3C51     CG3C51
   15     1     2     3	 9 ;     CG2R61     CG3C50     NG3C51       HGP1
    2     1     7     6	 9 ;     NG3C51     CG3C50     CG2RC0     CG2RC0
    2     1     7     8	 9 ;     NG3C51     CG3C50     CG2RC0     CG2R61
   30     1     7     6	 9 ;     CG2DC1     CG3C50     CG2RC0     CG2RC0
   30     1     7     8	 9 ;     CG2DC1     CG3C50     CG2RC0     CG2R61
   15     1     7     6	 9 ;     CG2R61     CG3C50     CG2RC0     CG2RC0
   15     1     7     8	 9 ;     CG2R61     CG3C50     CG2RC0     CG2R61
    2     1    30    31	 9 ;     NG3C51     CG3C50     CG2DC1     CG2DC1
    2     1    30    36	 9 ;     NG3C51     CG3C50     CG2DC1     CG2DC2
    7     1    30    31	 9 ;     CG2RC0     CG3C50     CG2DC1     CG2DC1
    7     1    30    36	 9 ;     CG2RC0     CG3C50     CG2DC1     CG2DC2
   15     1    30    31	 9 ;     CG2R61     CG3C50     CG2DC1     CG2DC1
   15     1    30    36	 9 ;     CG2R61     CG3C50     CG2DC1     CG2DC2
    2     1    15    21	 9 ;     NG3C51     CG3C50     CG2R61     CG2R61
    2     1    15    16	 9 ;     NG3C51     CG3C50     CG2R61     CG2R61
    7     1    15    21	 9 ;     CG2RC0     CG3C50     CG2R61     CG2R61
    7     1    15    16	 9 ;     CG2RC0     CG3C50     CG2R61     CG2R61
   30     1    15    21	 9 ;     CG2DC1     CG3C50     CG2R61     CG2R61
   30     1    15    16	 9 ;     CG2DC1     CG3C50     CG2R61     CG2R61
    3     2     4     5	 9 ;       HGP1     NG3C51     CG3C51      NG321
    3     2     4     6	 9 ;       HGP1     NG3C51     CG3C51     CG2RC0
    3     2     4    40	 9 ;       HGP1     NG3C51     CG3C51       HGA1
    1     2     4     5	 9 ;     CG3C50     NG3C51     CG3C51      NG321
    1     2     4     6	 9 ;     CG3C50     NG3C51     CG3C51     CG2RC0
    1     2     4    40	 9 ;     CG3C50     NG3C51     CG3C51       HGA1
    6     4     5    14	 9 ;     CG2RC0     CG3C51      NG321     HGPAM2
    6     4     5    13	 9 ;     CG2RC0     CG3C51      NG321     HGPAM2
    2     4     5    14	 9 ;     NG3C51     CG3C51      NG321     HGPAM2
    2     4     5    13	 9 ;     NG3C51     CG3C51      NG321     HGPAM2
   40     4     5    14	 9 ;       HGA1     CG3C51      NG321     HGPAM2
   40     4     5    13	 9 ;       HGA1     CG3C51      NG321     HGPAM2
    5     4     6    11	 9 ;      NG321     CG3C51     CG2RC0     CG2R66
    5     4     6     7	 9 ;      NG321     CG3C51     CG2RC0     CG2RC0
    2     4     6    11	 9 ;     NG3C51     CG3C51     CG2RC0     CG2R66
    2     4     6     7	 9 ;     NG3C51     CG3C51     CG2RC0     CG2RC0
   40     4     6    11	 9 ;       HGA1     CG3C51     CG2RC0     CG2R66
   40     4     6     7	 9 ;       HGA1     CG3C51     CG2RC0     CG2RC0
    4     6    11    12	 9 ;     CG3C51     CG2RC0     CG2R66       FGR1
    4     6    11    10	 9 ;     CG3C51     CG2RC0     CG2R66     CG2R61
    7     6    11    12	 9 ;     CG2RC0     CG2RC0     CG2R66       FGR1
    7     6    11    10	 9 ;     CG2RC0     CG2RC0     CG2R66     CG2R61
   11     6     7     8	 9 ;     CG2R66     CG2RC0     CG2RC0     CG2R61
   11     6     7     1	 9 ;     CG2R66     CG2RC0     CG2RC0     CG3C50
    4     6     7     8	 9 ;     CG3C51     CG2RC0     CG2RC0     CG2R61
    4     6     7     1	 9 ;     CG3C51     CG2RC0     CG2RC0     CG3C50
    6     7     8     9	 9 ;     CG2RC0     CG2RC0     CG2R61     CG2R61
    6     7     8    41	 9 ;     CG2RC0     CG2RC0     CG2R61      HGR61
    1     7     8     9	 9 ;     CG3C50     CG2RC0     CG2R61     CG2R61
    1     7     8    41	 9 ;     CG3C50     CG2RC0     CG2R61      HGR61
    7     8     9    10	 9 ;     CG2RC0     CG2R61     CG2R61     CG2R61
    7     8     9    42	 9 ;     CG2RC0     CG2R61     CG2R61      HGR61
   41     8     9    10	 9 ;      HGR61     CG2R61     CG2R61     CG2R61
   41     8     9    42	 9 ;      HGR61     CG2R61     CG2R61      HGR61
    8     9    10    11	 9 ;     CG2R61     CG2R61     CG2R61     CG2R66
    8     9    10    43	 9 ;     CG2R61     CG2R61     CG2R61      HGR62
   42     9    10    11	 9 ;      HGR61     CG2R61     CG2R61     CG2R66
   42     9    10    43	 9 ;      HGR61     CG2R61     CG2R61      HGR62
    9    10    11    12	 9 ;     CG2R61     CG2R61     CG2R66       FGR1
    9    10    11     6	 9 ;     CG2R61     CG2R61     CG2R66     CG2RC0
   43    10    11    12	 9 ;      HGR62     CG2R61     CG2R66       FGR1
   43    10    11     6	 9 ;      HGR62     CG2R61     CG2R66     CG2RC0
    1    15    21    20	 9 ;     CG3C50     CG2R61     CG2R61     CG2R61
    1    15    21    46	 9 ;     CG3C50     CG2R61     CG2R61      HGR61
   16    15    21    20	 9 ;     CG2R61     CG2R61     CG2R61     CG2R61
   16    15    21    46	 9 ;     CG2R61     CG2R61     CG2R61      HGR61
    1    15    16    17	 9 ;     CG3C50     CG2R61     CG2R61     CG2R61
    1    15    16    44	 9 ;     CG3C50     CG2R61     CG2R61      HGR61
   21    15    16    17	 9 ;     CG2R61     CG2R61     CG2R61     CG2R61
   21    15    16    44	 9 ;     CG2R61     CG2R61     CG2R61      HGR61
   15    16    17    18	 9 ;     CG2R61     CG2R61     CG2R61     CG2R66
   15    16    17    45	 9 ;     CG2R61     CG2R61     CG2R61      HGR62
   44    16    17    18	 9 ;      HGR61     CG2R61     CG2R61     CG2R66
   44    16    17    45	 9 ;      HGR61     CG2R61     CG2R61      HGR62
   16    17    18    20	 9 ;     CG2R61     CG2R61     CG2R66     CG2R61
   16    17    18    19	 9 ;     CG2R61     CG2R61     CG2R66       FGR1
   45    17    18    20	 9 ;      HGR62     CG2R61     CG2R66     CG2R61
   45    17    18    19	 9 ;      HGR62     CG2R61     CG2R66       FGR1
   17    18    20    21	 9 ;     CG2R61     CG2R66     CG2R61     CG2R61
   17    18    20    22	 9 ;     CG2R61     CG2R66     CG2R61     CG2DC1
   19    18    20    21	 9 ;       FGR1     CG2R66     CG2R61     CG2R61
   19    18    20    22	 9 ;       FGR1     CG2R66     CG2R61     CG2DC1
   22    20    21    15	 9 ;     CG2DC1     CG2R61     CG2R61     CG2R61
   22    20    21    46	 9 ;     CG2DC1     CG2R61     CG2R61      HGR61
   18    20    21    15	 9 ;     CG2R66     CG2R61     CG2R61     CG2R61
   18    20    21    46	 9 ;     CG2R66     CG2R61     CG2R61      HGR61
   21    20    22    23	 9 ;     CG2R61     CG2R61     CG2DC1      CG321
   21    20    22    28	 9 ;     CG2R61     CG2R61     CG2DC1     CG2D1O
   18    20    22    23	 9 ;     CG2R66     CG2R61     CG2DC1      CG321
   18    20    22    28	 9 ;     CG2R66     CG2R61     CG2DC1     CG2D1O
   28    22    23    24	 9 ;     CG2D1O     CG2DC1      CG321      NG311
   28    22    23    47	 9 ;     CG2D1O     CG2DC1      CG321       HGA2
   28    22    23    48	 9 ;     CG2D1O     CG2DC1      CG321       HGA2
   20    22    23    24	 9 ;     CG2R61     CG2DC1      CG321      NG311
   20    22    23    47	 9 ;     CG2R61     CG2DC1      CG321       HGA2
   20    22    23    48	 9 ;     CG2R61     CG2DC1      CG321       HGA2
   23    22    28    27	 9 ;      CG321     CG2DC1     CG2D1O      NG311
   23    22    28    51	 9 ;      CG321     CG2DC1     CG2D1O       HGA4
   20    22    28    27	 9 ;     CG2R61     CG2DC1     CG2D1O      NG311
   20    22    28    51	 9 ;     CG2R61     CG2DC1     CG2D1O       HGA4
   22    23    24    25	 9 ;     CG2DC1      CG321      NG311      CG321
   22    23    24    26	 9 ;     CG2DC1      CG321      NG311     HGPAM1
   47    23    24    25	 9 ;       HGA2      CG321      NG311      CG321
   47    23    24    26	 9 ;       HGA2      CG321      NG311     HGPAM1
   48    23    24    25	 9 ;       HGA2      CG321      NG311      CG321
   48    23    24    26	 9 ;       HGA2      CG321      NG311     HGPAM1
   26    24    25    27	 9 ;     HGPAM1      NG311      CG321      NG311
   26    24    25    49	 9 ;     HGPAM1      NG311      CG321       HGA2
   26    24    25    50	 9 ;     HGPAM1      NG311      CG321       HGA2
   23    24    25    27	 9 ;      CG321      NG311      CG321      NG311
   23    24    25    49	 9 ;      CG321      NG311      CG321       HGA2
   23    24    25    50	 9 ;      CG321      NG311      CG321       HGA2
   24    25    27    29	 9 ;      NG311      CG321      NG311     HGPAM1
   24    25    27    28	 9 ;      NG311      CG321      NG311     CG2D1O
   49    25    27    29	 9 ;       HGA2      CG321      NG311     HGPAM1
   49    25    27    28	 9 ;       HGA2      CG321      NG311     CG2D1O
   50    25    27    29	 9 ;       HGA2      CG321      NG311     HGPAM1
   50    25    27    28	 9 ;       HGA2      CG321      NG311     CG2D1O
   25    27    28    22	 9 ;      CG321      NG311     CG2D1O     CG2DC1
   25    27    28    51	 9 ;      CG321      NG311     CG2D1O       HGA4
   29    27    28    22	 9 ;     HGPAM1      NG311     CG2D1O     CG2DC1
   29    27    28    51	 9 ;     HGPAM1      NG311     CG2D1O       HGA4
    1    30    31    32	 9 ;     CG3C50     CG2DC1     CG2DC1      CG311
    1    30    31    52	 9 ;     CG3C50     CG2DC1     CG2DC1       HGA4
   36    30    31    32	 9 ;     CG2DC2     CG2DC1     CG2DC1      CG311
   36    30    31    52	 9 ;     CG2DC2     CG2DC1     CG2DC1       HGA4
    1    30    36    34	 9 ;     CG3C50     CG2DC1     CG2DC2     CG2D2O
    1    30    36    55	 9 ;     CG3C50     CG2DC1     CG2DC2       HGA4
   31    30    36    34	 9 ;     CG2DC1     CG2DC1     CG2DC2     CG2D2O
   31    30    36    55	 9 ;     CG2DC1     CG2DC1     CG2DC2       HGA4
   30    31    32    37	 9 ;     CG2DC1     CG2DC1      CG311      CG312
   30    31    32    33	 9 ;     CG2DC1     CG2DC1      CG311      NG311
   30    31    32    53	 9 ;     CG2DC1     CG2DC1      CG311       HGA1
   52    31    32    37	 9 ;       HGA4     CG2DC1      CG311      CG312
   52    31    32    33	 9 ;       HGA4     CG2DC1      CG311      NG311
   52    31    32    53	 9 ;       HGA4     CG2DC1      CG311       HGA1
   31    32    37    39	 9 ;     CG2DC1      CG311      CG312       FGA2
   31    32    37    38	 9 ;     CG2DC1      CG311      CG312       FGA2
   31    32    37    56	 9 ;     CG2DC1      CG311      CG312       HGA7
   33    32    37    39	 9 ;      NG311      CG311      CG312       FGA2
   33    32    37    38	 9 ;      NG311      CG311      CG312       FGA2
   33    32    37    56	 9 ;      NG311      CG311      CG312       HGA7
   53    32    37    39	 9 ;       HGA1      CG311      CG312       FGA2
   53    32    37    38	 9 ;       HGA1      CG311      CG312       FGA2
   53    32    37    56	 9 ;       HGA1      CG311      CG312       HGA7
   31    32    33    34	 9 ;     CG2DC1      CG311      NG311     CG2D2O
   31    32    33    35	 9 ;     CG2DC1      CG311      NG311     HGPAM1
   37    32    33    34	 9 ;      CG312      CG311      NG311     CG2D2O
   37    32    33    35	 9 ;      CG312      CG311      NG311     HGPAM1
   53    32    33    34	 9 ;       HGA1      CG311      NG311     CG2D2O
   53    32    33    35	 9 ;       HGA1      CG311      NG311     HGPAM1
   32    33    34    36	 9 ;      CG311      NG311     CG2D2O     CG2DC2
   32    33    34    54	 9 ;      CG311      NG311     CG2D2O       HGA4
   35    33    34    36	 9 ;     HGPAM1      NG311     CG2D2O     CG2DC2
   35    33    34    54	 9 ;     HGPAM1      NG311     CG2D2O       HGA4
   33    34    36    30	 9 ;      NG311     CG2D2O     CG2DC2     CG2DC1
   33    34    36    55	 9 ;      NG311     CG2D2O     CG2DC2       HGA4
   54    34    36    30	 9 ;       HGA4     CG2D2O     CG2DC2     CG2DC1
   54    34    36    55	 9 ;       HGA4     CG2D2O     CG2DC2       HGA4

[ dihedrals ]
;	ai	  aj	ak	  al funct			  c0			c1			  c2			c3
   28    22    27    51	 2
   34    36    33    54	 2

