Georgetown Riga Oslo Madrid Amsterdam Chisinau Stockholm
   48
    1LIG     C1    1  -1.334   0.294  -1.526
    1LIG     C2    2  -1.472   0.322  -1.528
    1LIG     C3    3  -1.525   0.437  -1.590
    1LIG     C4    4  -1.437   0.528  -1.648
    1LIG     O1    5  -1.475   0.644  -1.709
    1LIG     C5    6  -1.608   0.678  -1.708
    1LIG     C6    7  -1.709   0.598  -1.654
    1LIG     C7    8  -1.842   0.645  -1.659
    1LIG     C8    9  -1.873   0.767  -1.717
    1LIG     C9   10  -1.771   0.846  -1.770
    1LIG    C10   11  -1.639   0.801  -1.766
    1LIG    C11   12  -1.675   0.463  -1.592
    1LIG     N1   13  -1.728   0.459  -1.453
    1LIG    HN1   14  -1.698   0.516  -1.373
    1LIG    C12   15  -1.820   0.369  -1.454
    1LIG     O2   16  -1.843   0.299  -1.567
    1LIG    C13   17  -1.750   0.349  -1.663
    1LIG     N2   18  -1.898   0.334  -1.351
    1LIG    C14   19  -1.300   0.503  -1.646
    1LIG    C15   20  -1.249   0.388  -1.586
    1LIG     H1   21  -1.937   0.241  -1.356
    1LIG     H2   22  -1.863   0.363  -1.261
    1LIG    C16   23  -1.282   0.171  -1.462
    1LIG    C17   24  -1.274   0.157  -1.323
    1LIG     N3   25  -1.226   0.048  -1.258
    1LIG    C18   26  -1.184  -0.054  -1.335
    1LIG    HN2   27  -1.222   0.044  -1.156
    1LIG      F   28  -1.136  -0.163  -1.273
    1LIG    C19   29  -1.187  -0.052  -1.473
    1LIG    C20   30  -1.236   0.061  -1.537
    1LIG     O3   31  -1.999   0.821  -1.727
    1LIG    C21   32  -2.100   0.736  -1.779
    1LIG     HC   33  -1.540   0.252  -1.481
    1LIG    HC1   34  -1.921   0.584  -1.617
    1LIG    HC2   35  -1.794   0.941  -1.815
    1LIG    HC3   36  -1.560   0.863  -1.807
    1LIG    HC4   37  -1.803   0.387  -1.751
    1LIG    HC5   38  -1.681   0.271  -1.692
    1LIG    HC6   39  -1.232   0.575  -1.691
    1LIG    HC7   40  -1.143   0.370  -1.587
    1LIG    HC8   41  -1.309   0.239  -1.263
    1LIG    HC9   42  -1.153  -0.137  -1.530
    1LIG   HC10   43  -1.239   0.065  -1.645
    1LIG   HC11   44  -2.195   0.790  -1.782
    1LIG   HC12   45  -2.111   0.649  -1.715
    1LIG   HC13   46  -2.073   0.705  -1.880
    1LIG    H19   47  -1.893   0.444  -1.485
    1LIG    H20   48  -1.174   0.200  -1.324
   0.00000   0.00000   0.00000
