; Created by cgenff_charmm2gmx.py

[ moleculetype ]
; Name			   nrexcl
LIG				 3

[ atoms ]
;	 nr		  type	resnr residue  atom   cgnr	   charge		mass  typeB    chargeB		massB
; residue	 1 LIG rtp LIG q	qsum
     1      CG2O1      1    LIG     C1      1      0.282     12.011   ;
     2      OG2D1      1    LIG     O1      2     -0.463     15.999   ;
     3      NG2S1      1    LIG     N1      3     -0.226     14.007   ;
     4       HGP1      1    LIG     H1      4      0.262      1.008   ;
     5     CG2R61      1    LIG     C2      5     -0.155     12.011   ;
     6     CG2R61      1    LIG     C3      6     -0.131     12.011   ;
     7     CG2R61      1    LIG     C4      7      0.244     12.011   ;
     8      NG311      1    LIG     N2      8     -0.539     14.007   ;
     9     CG2RC0      1    LIG     C5      9      0.281     12.011   ;
    10      SG3O2      1    LIG      S     10      0.472     32.060   ;
    11       HGP1      1    LIG     H2     11      0.358      1.008   ;
    12      OG2P1      1    LIG     O2     12     -0.370     15.999   ;
    13      OG2P1      1    LIG     O3     13     -0.370     15.999   ;
    14      CG321      1    LIG     C6     14      0.010     12.011   ;
    15      CG321      1    LIG     C7     15     -0.137     12.011   ;
    16      CG321      1    LIG     C8     16     -0.115     12.011   ;
    17     NG2R51      1    LIG     N3     17     -0.104     14.007   ;
    18     CG2R51      1    LIG     C9     18     -0.194     12.011   ;
    19     CG2R51      1    LIG    C10     19     -0.060     12.011   ;
    20     CG2RC0      1    LIG    C11     20      0.002     12.011   ;
    21     CG2R61      1    LIG    C12     21     -0.202     12.011   ;
    22      CG321      1    LIG    C13     22     -0.169     12.011   ;
    23      CG331      1    LIG    C14     23     -0.267     12.011   ;
    24      CG311      1    LIG    C15     24      0.010     12.011   ;
    25      CG321      1    LIG    C16     25     -0.111     12.011   ;
    26     CG2R61      1    LIG    C17     26     -0.019     12.011   ;
    27     CG2R61      1    LIG    C18     27     -0.123     12.011   ;
    28     CG2R61      1    LIG    C19     28     -0.112     12.011   ;
    29     CG2R61      1    LIG    C20     29     -0.116     12.011   ;
    30     CG2R61      1    LIG    C21     30     -0.112     12.011   ;
    31     CG2R61      1    LIG    C22     31     -0.123     12.011   ;
    32      CG311      1    LIG    C23     32      0.093     12.011   ;
    33      CG324      1    LIG    C24     33      0.183     12.011   ;
    34      NG3P2      1    LIG     N4     34     -0.409     14.007   ;
    35       HGP2      1    LIG     H3     35      0.335      1.008   ;
    36       HGP2      1    LIG     H4     36      0.335      1.008   ;
    37     CG3C31      1    LIG    C25     37      0.283     12.011   ;
    38     CG3C31      1    LIG    C26     38     -0.179     12.011   ;
    39     CG3C31      1    LIG    C27     39     -0.179     12.011   ;
    40      OG311      1    LIG     O4     40     -0.625     15.999   ;
    41       HGP1      1    LIG     H5     41      0.415      1.008   ;
    42      HGR61      1    LIG     HC     42      0.134      1.008   ;
    43       HGA2      1    LIG    HC2     43      0.090      1.008   ;
    44       HGA2      1    LIG    HC3     44      0.090      1.008   ;
    45       HGA2      1    LIG    HC4     45      0.090      1.008   ;
    46       HGA2      1    LIG    HC5     46      0.090      1.008   ;
    47       HGA2      1    LIG    HC6     47      0.090      1.008   ;
    48       HGA2      1    LIG    HC7     48      0.090      1.008   ;
    49      HGR52      1    LIG    HC1     49      0.154      1.008   ;
    50      HGR61      1    LIG    HC8     50      0.197      1.008   ;
    51       HGA2      1    LIG    HC9     51      0.090      1.008   ;
    52       HGA2      1    LIG   HC10     52      0.090      1.008   ;
    53       HGA1      1    LIG   HC11     53      0.090      1.008   ;
    54       HGA2      1    LIG   HC12     54      0.090      1.008   ;
    55       HGA2      1    LIG   HC13     55      0.090      1.008   ;
    56      HGR61      1    LIG   HC14     56      0.116      1.008   ;
    57      HGR61      1    LIG   HC15     57      0.116      1.008   ;
    58      HGR61      1    LIG   HC16     58      0.116      1.008   ;
    59      HGR61      1    LIG   HC17     59      0.116      1.008   ;
    60      HGR61      1    LIG   HC18     60      0.116      1.008   ;
    61       HGA1      1    LIG   HC19     61      0.090      1.008   ;
    62       HGA2      1    LIG   HC20     62      0.090      1.008   ;
    63       HGA2      1    LIG   HC21     63      0.090      1.008   ;
    64       HGA1      1    LIG   HC22     64      0.090      1.008   ;
    65       HGA2      1    LIG   HC23     65      0.090      1.008   ;
    66       HGA2      1    LIG   HC24     66      0.090      1.008   ;
    67       HGA2      1    LIG   HC25     67      0.090      1.008   ;
    68       HGA2      1    LIG   HC26     68      0.090      1.008   ;
    69       HGA3      1    LIG   HC27     69      0.090      1.008   ;
    70       HGA3      1    LIG   HC28     70      0.090      1.008   ;
    71       HGA3      1    LIG   HC29     71      0.090      1.008   ;

[ bonds ]
;	ai	  aj funct			  c0			c1			  c2			c3
    1     3	 1 ;       CG2O1      NG2S1
    1     2	 1 ;       CG2O1      OG2D1
    1     5	 1 ;       CG2O1     CG2R61
    3    24	 1 ;       NG2S1      CG311
    3     4	 1 ;       NG2S1       HGP1
    5    21	 1 ;      CG2R61     CG2R61
    5     6	 1 ;      CG2R61     CG2R61
    6     7	 1 ;      CG2R61     CG2R61
    6    42	 1 ;      CG2R61      HGR61
    7     9	 1 ;      CG2R61     CG2RC0
    7     8	 1 ;      CG2R61      NG311
    8    11	 1 ;       NG311       HGP1
    8    10	 1 ;       NG311      SG3O2
    9    20	 1 ;      CG2RC0     CG2RC0
    9    17	 1 ;      CG2RC0     NG2R51
   10    14	 1 ;       SG3O2      CG321
   10    13	 1 ;       SG3O2      OG2P1
   10    12	 1 ;       SG3O2      OG2P1
   14    15	 1 ;       CG321      CG321
   14    43	 1 ;       CG321       HGA2
   14    44	 1 ;       CG321       HGA2
   15    16	 1 ;       CG321      CG321
   15    45	 1 ;       CG321       HGA2
   15    46	 1 ;       CG321       HGA2
   16    17	 1 ;       CG321     NG2R51
   16    47	 1 ;       CG321       HGA2
   16    48	 1 ;       CG321       HGA2
   17    18	 1 ;      NG2R51     CG2R51
   18    19	 1 ;      CG2R51     CG2R51
   18    49	 1 ;      CG2R51      HGR52
   19    22	 1 ;      CG2R51      CG321
   19    20	 1 ;      CG2R51     CG2RC0
   20    21	 1 ;      CG2RC0     CG2R61
   21    50	 1 ;      CG2R61      HGR61
   22    23	 1 ;       CG321      CG331
   22    51	 1 ;       CG321       HGA2
   22    52	 1 ;       CG321       HGA2
   23    69	 1 ;       CG331       HGA3
   23    70	 1 ;       CG331       HGA3
   23    71	 1 ;       CG331       HGA3
   24    32	 1 ;       CG311      CG311
   24    25	 1 ;       CG311      CG321
   24    53	 1 ;       CG311       HGA1
   25    26	 1 ;       CG321     CG2R61
   25    54	 1 ;       CG321       HGA2
   25    55	 1 ;       CG321       HGA2
   26    27	 1 ;      CG2R61     CG2R61
   26    31	 1 ;      CG2R61     CG2R61
   27    28	 1 ;      CG2R61     CG2R61
   27    56	 1 ;      CG2R61      HGR61
   28    29	 1 ;      CG2R61     CG2R61
   28    57	 1 ;      CG2R61      HGR61
   29    30	 1 ;      CG2R61     CG2R61
   29    58	 1 ;      CG2R61      HGR61
   30    31	 1 ;      CG2R61     CG2R61
   30    59	 1 ;      CG2R61      HGR61
   31    60	 1 ;      CG2R61      HGR61
   32    40	 1 ;       CG311      OG311
   32    33	 1 ;       CG311      CG324
   32    61	 1 ;       CG311       HGA1
   33    34	 1 ;       CG324      NG3P2
   33    62	 1 ;       CG324       HGA2
   33    63	 1 ;       CG324       HGA2
   34    35	 1 ;       NG3P2       HGP2
   34    37	 1 ;       NG3P2     CG3C31
   34    36	 1 ;       NG3P2       HGP2
   37    39	 1 ;      CG3C31     CG3C31
   37    38	 1 ;      CG3C31     CG3C31
   37    64	 1 ;      CG3C31       HGA1
   38    39	 1 ;      CG3C31     CG3C31
   38    65	 1 ;      CG3C31       HGA2
   38    66	 1 ;      CG3C31       HGA2
   39    67	 1 ;      CG3C31       HGA2
   39    68	 1 ;      CG3C31       HGA2
   40    41	 1 ;       OG311       HGP1

[ pairs ]
;	ai	  aj funct			  c0			c1			  c2			c3
    1    32	 1
    1    25	 1
    1    53	 1
    1    20	 1
    1    50	 1
    1     7	 1
    1    42	 1
    2    24	 1
    2     4	 1
    2    21	 1
    2     6	 1
    3    21	 1
    3     6	 1
    3    40	 1
    3    33	 1
    3    61	 1
    3    26	 1
    3    54	 1
    3    55	 1
    4     5	 1
    4    32	 1
    4    25	 1
    4    53	 1
    5    24	 1
    5     9	 1
    5     8	 1
    5    19	 1
    6    20	 1
    6    50	 1
    6    17	 1
    6    11	 1
    6    10	 1
    7    21	 1
    7    14	 1
    7    13	 1
    7    12	 1
    7    19	 1
    7    18	 1
    7    16	 1
    8    42	 1
    8    20	 1
    8    17	 1
    8    15	 1
    8    43	 1
    8    44	 1
    9    42	 1
    9    11	 1
    9    10	 1
    9    15	 1
    9    47	 1
    9    48	 1
    9    49	 1
    9    22	 1
    9    50	 1
   10    16	 1
   10    45	 1
   10    46	 1
   11    14	 1
   11    13	 1
   11    12	 1
   12    15	 1
   12    43	 1
   12    44	 1
   13    15	 1
   13    43	 1
   13    44	 1
   14    17	 1
   14    47	 1
   14    48	 1
   15    18	 1
   16    20	 1
   16    43	 1
   16    44	 1
   16    19	 1
   16    49	 1
   17    21	 1
   17    45	 1
   17    46	 1
   17    22	 1
   18    47	 1
   18    48	 1
   18    23	 1
   18    51	 1
   18    52	 1
   18    21	 1
   19    50	 1
   19    69	 1
   19    70	 1
   19    71	 1
   20    49	 1
   20    23	 1
   20    51	 1
   20    52	 1
   21    42	 1
   21    22	 1
   22    49	 1
   24    27	 1
   24    31	 1
   24    41	 1
   24    34	 1
   24    62	 1
   24    63	 1
   25    40	 1
   25    33	 1
   25    61	 1
   25    28	 1
   25    56	 1
   25    30	 1
   25    60	 1
   26    32	 1
   26    53	 1
   26    29	 1
   26    57	 1
   26    59	 1
   27    54	 1
   27    55	 1
   27    30	 1
   27    60	 1
   27    58	 1
   28    31	 1
   28    59	 1
   29    56	 1
   29    60	 1
   30    57	 1
   31    54	 1
   31    55	 1
   31    56	 1
   31    58	 1
   32    54	 1
   32    55	 1
   32    35	 1
   32    37	 1
   32    36	 1
   33    53	 1
   33    41	 1
   33    39	 1
   33    38	 1
   33    64	 1
   34    40	 1
   34    61	 1
   34    67	 1
   34    68	 1
   34    65	 1
   34    66	 1
   35    62	 1
   35    63	 1
   35    39	 1
   35    38	 1
   35    64	 1
   36    62	 1
   36    63	 1
   36    39	 1
   36    38	 1
   36    64	 1
   37    62	 1
   37    63	 1
   40    53	 1
   40    62	 1
   40    63	 1
   41    61	 1
   43    45	 1
   43    46	 1
   44    45	 1
   44    46	 1
   45    47	 1
   45    48	 1
   46    47	 1
   46    48	 1
   51    69	 1
   51    70	 1
   51    71	 1
   52    69	 1
   52    70	 1
   52    71	 1
   53    61	 1
   53    54	 1
   53    55	 1
   56    57	 1
   57    58	 1
   58    59	 1
   59    60	 1
   61    62	 1
   61    63	 1
   64    67	 1
   64    68	 1
   64    65	 1
   64    66	 1
   65    67	 1
   65    68	 1
   66    67	 1
   66    68	 1

[ angles ]
;	ai	  aj	ak funct			c0			  c1			c2			  c3
    3     1     2	5 ;      NG2S1      CG2O1      OG2D1
    3     1     5	5 ;      NG2S1      CG2O1     CG2R61
    2     1     5	5 ;      OG2D1      CG2O1     CG2R61
   24     3     4	5 ;      CG311      NG2S1       HGP1
   24     3     1	5 ;      CG311      NG2S1      CG2O1
    4     3     1	5 ;       HGP1      NG2S1      CG2O1
    1     5    21	5 ;      CG2O1     CG2R61     CG2R61
    1     5     6	5 ;      CG2O1     CG2R61     CG2R61
   21     5     6	5 ;     CG2R61     CG2R61     CG2R61
    5     6     7	5 ;     CG2R61     CG2R61     CG2R61
    5     6    42	5 ;     CG2R61     CG2R61      HGR61
    7     6    42	5 ;     CG2R61     CG2R61      HGR61
    6     7     9	5 ;     CG2R61     CG2R61     CG2RC0
    6     7     8	5 ;     CG2R61     CG2R61      NG311
    9     7     8	5 ;     CG2RC0     CG2R61      NG311
    7     8    11	5 ;     CG2R61      NG311       HGP1
    7     8    10	5 ;     CG2R61      NG311      SG3O2
   11     8    10	5 ;       HGP1      NG311      SG3O2
   20     9     7	5 ;     CG2RC0     CG2RC0     CG2R61
   20     9    17	5 ;     CG2RC0     CG2RC0     NG2R51
    7     9    17	5 ;     CG2R61     CG2RC0     NG2R51
    8    10    14	5 ;      NG311      SG3O2      CG321
    8    10    13	5 ;      NG311      SG3O2      OG2P1
    8    10    12	5 ;      NG311      SG3O2      OG2P1
   14    10    13	5 ;      CG321      SG3O2      OG2P1
   14    10    12	5 ;      CG321      SG3O2      OG2P1
   13    10    12	5 ;      OG2P1      SG3O2      OG2P1
   15    14    10	5 ;      CG321      CG321      SG3O2
   15    14    43	5 ;      CG321      CG321       HGA2
   15    14    44	5 ;      CG321      CG321       HGA2
   10    14    43	5 ;      SG3O2      CG321       HGA2
   10    14    44	5 ;      SG3O2      CG321       HGA2
   43    14    44	5 ;       HGA2      CG321       HGA2
   16    15    14	5 ;      CG321      CG321      CG321
   16    15    45	5 ;      CG321      CG321       HGA2
   16    15    46	5 ;      CG321      CG321       HGA2
   14    15    45	5 ;      CG321      CG321       HGA2
   14    15    46	5 ;      CG321      CG321       HGA2
   45    15    46	5 ;       HGA2      CG321       HGA2
   17    16    15	5 ;     NG2R51      CG321      CG321
   17    16    47	5 ;     NG2R51      CG321       HGA2
   17    16    48	5 ;     NG2R51      CG321       HGA2
   15    16    47	5 ;      CG321      CG321       HGA2
   15    16    48	5 ;      CG321      CG321       HGA2
   47    16    48	5 ;       HGA2      CG321       HGA2
   18    17     9	5 ;     CG2R51     NG2R51     CG2RC0
   18    17    16	5 ;     CG2R51     NG2R51      CG321
    9    17    16	5 ;     CG2RC0     NG2R51      CG321
   19    18    17	5 ;     CG2R51     CG2R51     NG2R51
   19    18    49	5 ;     CG2R51     CG2R51      HGR52
   17    18    49	5 ;     NG2R51     CG2R51      HGR52
   22    19    20	5 ;      CG321     CG2R51     CG2RC0
   22    19    18	5 ;      CG321     CG2R51     CG2R51
   20    19    18	5 ;     CG2RC0     CG2R51     CG2R51
   21    20    19	5 ;     CG2R61     CG2RC0     CG2R51
   21    20     9	5 ;     CG2R61     CG2RC0     CG2RC0
   19    20     9	5 ;     CG2R51     CG2RC0     CG2RC0
    5    21    20	5 ;     CG2R61     CG2R61     CG2RC0
    5    21    50	5 ;     CG2R61     CG2R61      HGR61
   20    21    50	5 ;     CG2RC0     CG2R61      HGR61
   23    22    19	5 ;      CG331      CG321     CG2R51
   23    22    51	5 ;      CG331      CG321       HGA2
   23    22    52	5 ;      CG331      CG321       HGA2
   19    22    51	5 ;     CG2R51      CG321       HGA2
   19    22    52	5 ;     CG2R51      CG321       HGA2
   51    22    52	5 ;       HGA2      CG321       HGA2
   22    23    69	5 ;      CG321      CG331       HGA3
   22    23    70	5 ;      CG321      CG331       HGA3
   22    23    71	5 ;      CG321      CG331       HGA3
   69    23    70	5 ;       HGA3      CG331       HGA3
   69    23    71	5 ;       HGA3      CG331       HGA3
   70    23    71	5 ;       HGA3      CG331       HGA3
   32    24    25	5 ;      CG311      CG311      CG321
   32    24     3	5 ;      CG311      CG311      NG2S1
   32    24    53	5 ;      CG311      CG311       HGA1
   25    24     3	5 ;      CG321      CG311      NG2S1
   25    24    53	5 ;      CG321      CG311       HGA1
    3    24    53	5 ;      NG2S1      CG311       HGA1
   24    25    26	5 ;      CG311      CG321     CG2R61
   24    25    54	5 ;      CG311      CG321       HGA2
   24    25    55	5 ;      CG311      CG321       HGA2
   26    25    54	5 ;     CG2R61      CG321       HGA2
   26    25    55	5 ;     CG2R61      CG321       HGA2
   54    25    55	5 ;       HGA2      CG321       HGA2
   25    26    27	5 ;      CG321     CG2R61     CG2R61
   25    26    31	5 ;      CG321     CG2R61     CG2R61
   27    26    31	5 ;     CG2R61     CG2R61     CG2R61
   26    27    28	5 ;     CG2R61     CG2R61     CG2R61
   26    27    56	5 ;     CG2R61     CG2R61      HGR61
   28    27    56	5 ;     CG2R61     CG2R61      HGR61
   27    28    29	5 ;     CG2R61     CG2R61     CG2R61
   27    28    57	5 ;     CG2R61     CG2R61      HGR61
   29    28    57	5 ;     CG2R61     CG2R61      HGR61
   28    29    30	5 ;     CG2R61     CG2R61     CG2R61
   28    29    58	5 ;     CG2R61     CG2R61      HGR61
   30    29    58	5 ;     CG2R61     CG2R61      HGR61
   31    30    29	5 ;     CG2R61     CG2R61     CG2R61
   31    30    59	5 ;     CG2R61     CG2R61      HGR61
   29    30    59	5 ;     CG2R61     CG2R61      HGR61
   26    31    30	5 ;     CG2R61     CG2R61     CG2R61
   26    31    60	5 ;     CG2R61     CG2R61      HGR61
   30    31    60	5 ;     CG2R61     CG2R61      HGR61
   40    32    33	5 ;      OG311      CG311      CG324
   40    32    24	5 ;      OG311      CG311      CG311
   40    32    61	5 ;      OG311      CG311       HGA1
   33    32    24	5 ;      CG324      CG311      CG311
   33    32    61	5 ;      CG324      CG311       HGA1
   24    32    61	5 ;      CG311      CG311       HGA1
   34    33    32	5 ;      NG3P2      CG324      CG311
   34    33    62	5 ;      NG3P2      CG324       HGA2
   34    33    63	5 ;      NG3P2      CG324       HGA2
   32    33    62	5 ;      CG311      CG324       HGA2
   32    33    63	5 ;      CG311      CG324       HGA2
   62    33    63	5 ;       HGA2      CG324       HGA2
   33    34    35	5 ;      CG324      NG3P2       HGP2
   33    34    37	5 ;      CG324      NG3P2     CG3C31
   33    34    36	5 ;      CG324      NG3P2       HGP2
   35    34    37	5 ;       HGP2      NG3P2     CG3C31
   35    34    36	5 ;       HGP2      NG3P2       HGP2
   37    34    36	5 ;     CG3C31      NG3P2       HGP2
   34    37    39	5 ;      NG3P2     CG3C31     CG3C31
   34    37    38	5 ;      NG3P2     CG3C31     CG3C31
   34    37    64	5 ;      NG3P2     CG3C31       HGA1
   39    37    38	5 ;     CG3C31     CG3C31     CG3C31
   39    37    64	5 ;     CG3C31     CG3C31       HGA1
   38    37    64	5 ;     CG3C31     CG3C31       HGA1
   37    38    39	5 ;     CG3C31     CG3C31     CG3C31
   37    38    65	5 ;     CG3C31     CG3C31       HGA2
   37    38    66	5 ;     CG3C31     CG3C31       HGA2
   39    38    65	5 ;     CG3C31     CG3C31       HGA2
   39    38    66	5 ;     CG3C31     CG3C31       HGA2
   65    38    66	5 ;       HGA2     CG3C31       HGA2
   37    39    38	5 ;     CG3C31     CG3C31     CG3C31
   37    39    67	5 ;     CG3C31     CG3C31       HGA2
   37    39    68	5 ;     CG3C31     CG3C31       HGA2
   38    39    67	5 ;     CG3C31     CG3C31       HGA2
   38    39    68	5 ;     CG3C31     CG3C31       HGA2
   67    39    68	5 ;       HGA2     CG3C31       HGA2
   41    40    32	5 ;       HGP1      OG311      CG311

[ dihedrals ]
;	ai	  aj	ak	  al funct			  c0			c1			  c2			c3			  c4			c5
    2     1     3    24	 9 ;      OG2D1      CG2O1      NG2S1      CG311
    2     1     3     4	 9 ;      OG2D1      CG2O1      NG2S1       HGP1
    5     1     3    24	 9 ;     CG2R61      CG2O1      NG2S1      CG311
    5     1     3     4	 9 ;     CG2R61      CG2O1      NG2S1       HGP1
    3     1     5    21	 9 ;      NG2S1      CG2O1     CG2R61     CG2R61
    3     1     5     6	 9 ;      NG2S1      CG2O1     CG2R61     CG2R61
    2     1     5    21	 9 ;      OG2D1      CG2O1     CG2R61     CG2R61
    2     1     5     6	 9 ;      OG2D1      CG2O1     CG2R61     CG2R61
    4     3    24    32	 9 ;       HGP1      NG2S1      CG311      CG311
    4     3    24    25	 9 ;       HGP1      NG2S1      CG311      CG321
    4     3    24    53	 9 ;       HGP1      NG2S1      CG311       HGA1
    1     3    24    32	 9 ;      CG2O1      NG2S1      CG311      CG311
    1     3    24    25	 9 ;      CG2O1      NG2S1      CG311      CG321
    1     3    24    53	 9 ;      CG2O1      NG2S1      CG311       HGA1
    1     5    21    20	 9 ;      CG2O1     CG2R61     CG2R61     CG2RC0
    1     5    21    50	 9 ;      CG2O1     CG2R61     CG2R61      HGR61
    6     5    21    20	 9 ;     CG2R61     CG2R61     CG2R61     CG2RC0
    6     5    21    50	 9 ;     CG2R61     CG2R61     CG2R61      HGR61
    1     5     6     7	 9 ;      CG2O1     CG2R61     CG2R61     CG2R61
    1     5     6    42	 9 ;      CG2O1     CG2R61     CG2R61      HGR61
   21     5     6     7	 9 ;     CG2R61     CG2R61     CG2R61     CG2R61
   21     5     6    42	 9 ;     CG2R61     CG2R61     CG2R61      HGR61
    5     6     7     9	 9 ;     CG2R61     CG2R61     CG2R61     CG2RC0
    5     6     7     8	 9 ;     CG2R61     CG2R61     CG2R61      NG311
   42     6     7     9	 9 ;      HGR61     CG2R61     CG2R61     CG2RC0
   42     6     7     8	 9 ;      HGR61     CG2R61     CG2R61      NG311
    6     7     9    20	 9 ;     CG2R61     CG2R61     CG2RC0     CG2RC0
    6     7     9    17	 9 ;     CG2R61     CG2R61     CG2RC0     NG2R51
    8     7     9    20	 9 ;      NG311     CG2R61     CG2RC0     CG2RC0
    8     7     9    17	 9 ;      NG311     CG2R61     CG2RC0     NG2R51
    6     7     8    11	 9 ;     CG2R61     CG2R61      NG311       HGP1
    6     7     8    10	 9 ;     CG2R61     CG2R61      NG311      SG3O2
    9     7     8    11	 9 ;     CG2RC0     CG2R61      NG311       HGP1
    9     7     8    10	 9 ;     CG2RC0     CG2R61      NG311      SG3O2
    7     8    10    14	 9 ;     CG2R61      NG311      SG3O2      CG321
    7     8    10    13	 9 ;     CG2R61      NG311      SG3O2      OG2P1
    7     8    10    12	 9 ;     CG2R61      NG311      SG3O2      OG2P1
   11     8    10    14	 9 ;       HGP1      NG311      SG3O2      CG321
   11     8    10    13	 9 ;       HGP1      NG311      SG3O2      OG2P1
   11     8    10    12	 9 ;       HGP1      NG311      SG3O2      OG2P1
    7     9    20    21	 9 ;     CG2R61     CG2RC0     CG2RC0     CG2R61
    7     9    20    19	 9 ;     CG2R61     CG2RC0     CG2RC0     CG2R51
   17     9    20    21	 9 ;     NG2R51     CG2RC0     CG2RC0     CG2R61
   17     9    20    19	 9 ;     NG2R51     CG2RC0     CG2RC0     CG2R51
   20     9    17    18	 9 ;     CG2RC0     CG2RC0     NG2R51     CG2R51
   20     9    17    16	 9 ;     CG2RC0     CG2RC0     NG2R51      CG321
    7     9    17    18	 9 ;     CG2R61     CG2RC0     NG2R51     CG2R51
    7     9    17    16	 9 ;     CG2R61     CG2RC0     NG2R51      CG321
    8    10    14    15	 9 ;      NG311      SG3O2      CG321      CG321
    8    10    14    43	 9 ;      NG311      SG3O2      CG321       HGA2
    8    10    14    44	 9 ;      NG311      SG3O2      CG321       HGA2
   13    10    14    15	 9 ;      OG2P1      SG3O2      CG321      CG321
   13    10    14    43	 9 ;      OG2P1      SG3O2      CG321       HGA2
   13    10    14    44	 9 ;      OG2P1      SG3O2      CG321       HGA2
   12    10    14    15	 9 ;      OG2P1      SG3O2      CG321      CG321
   12    10    14    43	 9 ;      OG2P1      SG3O2      CG321       HGA2
   12    10    14    44	 9 ;      OG2P1      SG3O2      CG321       HGA2
   10    14    15    16	 9 ;      SG3O2      CG321      CG321      CG321
   10    14    15    45	 9 ;      SG3O2      CG321      CG321       HGA2
   10    14    15    46	 9 ;      SG3O2      CG321      CG321       HGA2
   43    14    15    16	 9 ;       HGA2      CG321      CG321      CG321
   43    14    15    45	 9 ;       HGA2      CG321      CG321       HGA2
   43    14    15    46	 9 ;       HGA2      CG321      CG321       HGA2
   44    14    15    16	 9 ;       HGA2      CG321      CG321      CG321
   44    14    15    45	 9 ;       HGA2      CG321      CG321       HGA2
   44    14    15    46	 9 ;       HGA2      CG321      CG321       HGA2
   14    15    16    17	 9 ;      CG321      CG321      CG321     NG2R51
   14    15    16    47	 9 ;      CG321      CG321      CG321       HGA2
   14    15    16    48	 9 ;      CG321      CG321      CG321       HGA2
   45    15    16    17	 9 ;       HGA2      CG321      CG321     NG2R51
   45    15    16    47	 9 ;       HGA2      CG321      CG321       HGA2
   45    15    16    48	 9 ;       HGA2      CG321      CG321       HGA2
   46    15    16    17	 9 ;       HGA2      CG321      CG321     NG2R51
   46    15    16    47	 9 ;       HGA2      CG321      CG321       HGA2
   46    15    16    48	 9 ;       HGA2      CG321      CG321       HGA2
   15    16    17    18	 9 ;      CG321      CG321     NG2R51     CG2R51
   15    16    17     9	 9 ;      CG321      CG321     NG2R51     CG2RC0
   47    16    17    18	 9 ;       HGA2      CG321     NG2R51     CG2R51
   47    16    17     9	 9 ;       HGA2      CG321     NG2R51     CG2RC0
   48    16    17    18	 9 ;       HGA2      CG321     NG2R51     CG2R51
   48    16    17     9	 9 ;       HGA2      CG321     NG2R51     CG2RC0
    9    17    18    19	 9 ;     CG2RC0     NG2R51     CG2R51     CG2R51
    9    17    18    49	 9 ;     CG2RC0     NG2R51     CG2R51      HGR52
   16    17    18    19	 9 ;      CG321     NG2R51     CG2R51     CG2R51
   16    17    18    49	 9 ;      CG321     NG2R51     CG2R51      HGR52
   17    18    19    22	 9 ;     NG2R51     CG2R51     CG2R51      CG321
   17    18    19    20	 9 ;     NG2R51     CG2R51     CG2R51     CG2RC0
   49    18    19    22	 9 ;      HGR52     CG2R51     CG2R51      CG321
   49    18    19    20	 9 ;      HGR52     CG2R51     CG2R51     CG2RC0
   20    19    22    23	 9 ;     CG2RC0     CG2R51      CG321      CG331
   20    19    22    51	 9 ;     CG2RC0     CG2R51      CG321       HGA2
   20    19    22    52	 9 ;     CG2RC0     CG2R51      CG321       HGA2
   18    19    22    23	 9 ;     CG2R51     CG2R51      CG321      CG331
   18    19    22    51	 9 ;     CG2R51     CG2R51      CG321       HGA2
   18    19    22    52	 9 ;     CG2R51     CG2R51      CG321       HGA2
   22    19    20    21	 9 ;      CG321     CG2R51     CG2RC0     CG2R61
   22    19    20     9	 9 ;      CG321     CG2R51     CG2RC0     CG2RC0
   18    19    20    21	 9 ;     CG2R51     CG2R51     CG2RC0     CG2R61
   18    19    20     9	 9 ;     CG2R51     CG2R51     CG2RC0     CG2RC0
   19    20    21     5	 9 ;     CG2R51     CG2RC0     CG2R61     CG2R61
   19    20    21    50	 9 ;     CG2R51     CG2RC0     CG2R61      HGR61
    9    20    21     5	 9 ;     CG2RC0     CG2RC0     CG2R61     CG2R61
    9    20    21    50	 9 ;     CG2RC0     CG2RC0     CG2R61      HGR61
   19    22    23    69	 9 ;     CG2R51      CG321      CG331       HGA3
   19    22    23    70	 9 ;     CG2R51      CG321      CG331       HGA3
   19    22    23    71	 9 ;     CG2R51      CG321      CG331       HGA3
   51    22    23    69	 9 ;       HGA2      CG321      CG331       HGA3
   51    22    23    70	 9 ;       HGA2      CG321      CG331       HGA3
   51    22    23    71	 9 ;       HGA2      CG321      CG331       HGA3
   52    22    23    69	 9 ;       HGA2      CG321      CG331       HGA3
   52    22    23    70	 9 ;       HGA2      CG321      CG331       HGA3
   52    22    23    71	 9 ;       HGA2      CG321      CG331       HGA3
   25    24    32    40	 9 ;      CG321      CG311      CG311      OG311
   25    24    32    33	 9 ;      CG321      CG311      CG311      CG324
   25    24    32    61	 9 ;      CG321      CG311      CG311       HGA1
    3    24    32    40	 9 ;      NG2S1      CG311      CG311      OG311
    3    24    32    33	 9 ;      NG2S1      CG311      CG311      CG324
    3    24    32    61	 9 ;      NG2S1      CG311      CG311       HGA1
   53    24    32    40	 9 ;       HGA1      CG311      CG311      OG311
   53    24    32    33	 9 ;       HGA1      CG311      CG311      CG324
   53    24    32    61	 9 ;       HGA1      CG311      CG311       HGA1
   32    24    25    26	 9 ;      CG311      CG311      CG321     CG2R61
   32    24    25    54	 9 ;      CG311      CG311      CG321       HGA2
   32    24    25    55	 9 ;      CG311      CG311      CG321       HGA2
    3    24    25    26	 9 ;      NG2S1      CG311      CG321     CG2R61
    3    24    25    54	 9 ;      NG2S1      CG311      CG321       HGA2
    3    24    25    55	 9 ;      NG2S1      CG311      CG321       HGA2
   53    24    25    26	 9 ;       HGA1      CG311      CG321     CG2R61
   53    24    25    54	 9 ;       HGA1      CG311      CG321       HGA2
   53    24    25    55	 9 ;       HGA1      CG311      CG321       HGA2
   24    25    26    27	 9 ;      CG311      CG321     CG2R61     CG2R61
   24    25    26    31	 9 ;      CG311      CG321     CG2R61     CG2R61
   54    25    26    27	 9 ;       HGA2      CG321     CG2R61     CG2R61
   54    25    26    31	 9 ;       HGA2      CG321     CG2R61     CG2R61
   55    25    26    27	 9 ;       HGA2      CG321     CG2R61     CG2R61
   55    25    26    31	 9 ;       HGA2      CG321     CG2R61     CG2R61
   25    26    27    28	 9 ;      CG321     CG2R61     CG2R61     CG2R61
   25    26    27    56	 9 ;      CG321     CG2R61     CG2R61      HGR61
   31    26    27    28	 9 ;     CG2R61     CG2R61     CG2R61     CG2R61
   31    26    27    56	 9 ;     CG2R61     CG2R61     CG2R61      HGR61
   25    26    31    30	 9 ;      CG321     CG2R61     CG2R61     CG2R61
   25    26    31    60	 9 ;      CG321     CG2R61     CG2R61      HGR61
   27    26    31    30	 9 ;     CG2R61     CG2R61     CG2R61     CG2R61
   27    26    31    60	 9 ;     CG2R61     CG2R61     CG2R61      HGR61
   26    27    28    29	 9 ;     CG2R61     CG2R61     CG2R61     CG2R61
   26    27    28    57	 9 ;     CG2R61     CG2R61     CG2R61      HGR61
   56    27    28    29	 9 ;      HGR61     CG2R61     CG2R61     CG2R61
   56    27    28    57	 9 ;      HGR61     CG2R61     CG2R61      HGR61
   27    28    29    30	 9 ;     CG2R61     CG2R61     CG2R61     CG2R61
   27    28    29    58	 9 ;     CG2R61     CG2R61     CG2R61      HGR61
   57    28    29    30	 9 ;      HGR61     CG2R61     CG2R61     CG2R61
   57    28    29    58	 9 ;      HGR61     CG2R61     CG2R61      HGR61
   28    29    30    31	 9 ;     CG2R61     CG2R61     CG2R61     CG2R61
   28    29    30    59	 9 ;     CG2R61     CG2R61     CG2R61      HGR61
   58    29    30    31	 9 ;      HGR61     CG2R61     CG2R61     CG2R61
   58    29    30    59	 9 ;      HGR61     CG2R61     CG2R61      HGR61
   29    30    31    26	 9 ;     CG2R61     CG2R61     CG2R61     CG2R61
   29    30    31    60	 9 ;     CG2R61     CG2R61     CG2R61      HGR61
   59    30    31    26	 9 ;      HGR61     CG2R61     CG2R61     CG2R61
   59    30    31    60	 9 ;      HGR61     CG2R61     CG2R61      HGR61
   33    32    40    41	 9 ;      CG324      CG311      OG311       HGP1
   24    32    40    41	 9 ;      CG311      CG311      OG311       HGP1
   61    32    40    41	 9 ;       HGA1      CG311      OG311       HGP1
   40    32    33    34	 9 ;      OG311      CG311      CG324      NG3P2
   40    32    33    62	 9 ;      OG311      CG311      CG324       HGA2
   40    32    33    63	 9 ;      OG311      CG311      CG324       HGA2
   24    32    33    34	 9 ;      CG311      CG311      CG324      NG3P2
   24    32    33    62	 9 ;      CG311      CG311      CG324       HGA2
   24    32    33    63	 9 ;      CG311      CG311      CG324       HGA2
   61    32    33    34	 9 ;       HGA1      CG311      CG324      NG3P2
   61    32    33    62	 9 ;       HGA1      CG311      CG324       HGA2
   61    32    33    63	 9 ;       HGA1      CG311      CG324       HGA2
   32    33    34    35	 9 ;      CG311      CG324      NG3P2       HGP2
   32    33    34    37	 9 ;      CG311      CG324      NG3P2     CG3C31
   32    33    34    36	 9 ;      CG311      CG324      NG3P2       HGP2
   62    33    34    35	 9 ;       HGA2      CG324      NG3P2       HGP2
   62    33    34    37	 9 ;       HGA2      CG324      NG3P2     CG3C31
   62    33    34    36	 9 ;       HGA2      CG324      NG3P2       HGP2
   63    33    34    35	 9 ;       HGA2      CG324      NG3P2       HGP2
   63    33    34    37	 9 ;       HGA2      CG324      NG3P2     CG3C31
   63    33    34    36	 9 ;       HGA2      CG324      NG3P2       HGP2
   33    34    37    39	 9 ;      CG324      NG3P2     CG3C31     CG3C31
   33    34    37    38	 9 ;      CG324      NG3P2     CG3C31     CG3C31
   33    34    37    64	 9 ;      CG324      NG3P2     CG3C31       HGA1
   35    34    37    39	 9 ;       HGP2      NG3P2     CG3C31     CG3C31
   35    34    37    38	 9 ;       HGP2      NG3P2     CG3C31     CG3C31
   35    34    37    64	 9 ;       HGP2      NG3P2     CG3C31       HGA1
   36    34    37    39	 9 ;       HGP2      NG3P2     CG3C31     CG3C31
   36    34    37    38	 9 ;       HGP2      NG3P2     CG3C31     CG3C31
   36    34    37    64	 9 ;       HGP2      NG3P2     CG3C31       HGA1
   34    37    39    38	 9 ;      NG3P2     CG3C31     CG3C31     CG3C31
   34    37    39    67	 9 ;      NG3P2     CG3C31     CG3C31       HGA2
   34    37    39    68	 9 ;      NG3P2     CG3C31     CG3C31       HGA2
   38    37    39    67	 9 ;     CG3C31     CG3C31     CG3C31       HGA2
   38    37    39    68	 9 ;     CG3C31     CG3C31     CG3C31       HGA2
   64    37    39    38	 9 ;       HGA1     CG3C31     CG3C31     CG3C31
   64    37    39    67	 9 ;       HGA1     CG3C31     CG3C31       HGA2
   64    37    39    68	 9 ;       HGA1     CG3C31     CG3C31       HGA2
   34    37    38    39	 9 ;      NG3P2     CG3C31     CG3C31     CG3C31
   34    37    38    65	 9 ;      NG3P2     CG3C31     CG3C31       HGA2
   34    37    38    66	 9 ;      NG3P2     CG3C31     CG3C31       HGA2
   39    37    38    65	 9 ;     CG3C31     CG3C31     CG3C31       HGA2
   39    37    38    66	 9 ;     CG3C31     CG3C31     CG3C31       HGA2
   64    37    38    39	 9 ;       HGA1     CG3C31     CG3C31     CG3C31
   64    37    38    65	 9 ;       HGA1     CG3C31     CG3C31       HGA2
   64    37    38    66	 9 ;       HGA1     CG3C31     CG3C31       HGA2
   37    38    39    67	 9 ;     CG3C31     CG3C31     CG3C31       HGA2
   37    38    39    68	 9 ;     CG3C31     CG3C31     CG3C31       HGA2
   65    38    39    37	 9 ;       HGA2     CG3C31     CG3C31     CG3C31
   65    38    39    67	 9 ;       HGA2     CG3C31     CG3C31       HGA2
   65    38    39    68	 9 ;       HGA2     CG3C31     CG3C31       HGA2
   66    38    39    37	 9 ;       HGA2     CG3C31     CG3C31     CG3C31
   66    38    39    67	 9 ;       HGA2     CG3C31     CG3C31       HGA2
   66    38    39    68	 9 ;       HGA2     CG3C31     CG3C31       HGA2

[ dihedrals ]
;	ai	  aj	ak	  al funct			  c0			c1			  c2			c3
    1     5     3     2	 2

