GROup of MAchos and Cynical Suckers
   71
    1LIG     C1    1  -1.466   0.383  -1.468
    1LIG     O1    2  -1.426   0.365  -1.353
    1LIG     N1    3  -1.402   0.324  -1.575
    1LIG     H1    4  -1.438   0.341  -1.668
    1LIG     C2    5  -1.579   0.477  -1.491
    1LIG     C3    6  -1.694   0.453  -1.416
    1LIG     C4    7  -1.812   0.529  -1.426
    1LIG     N2    8  -1.915   0.472  -1.347
    1LIG     C5    9  -1.815   0.636  -1.522
    1LIG      S   10  -2.062   0.536  -1.310
    1LIG     H2   11  -1.895   0.390  -1.289
    1LIG     O2   12  -2.127   0.435  -1.230
    1LIG     O3   13  -2.042   0.668  -1.256
    1LIG     C6   14  -2.135   0.534  -1.472
    1LIG     C7   15  -2.154   0.669  -1.535
    1LIG     C8   16  -2.039   0.768  -1.518
    1LIG     N3   17  -1.908   0.730  -1.567
    1LIG     C9   18  -1.852   0.808  -1.665
    1LIG    C10   19  -1.720   0.774  -1.683
    1LIG    C11   20  -1.697   0.662  -1.597
    1LIG    C12   21  -1.580   0.582  -1.581
    1LIG    C13   22  -1.626   0.844  -1.775
    1LIG    C14   23  -1.523   0.928  -1.701
    1LIG    C15   24  -1.285   0.234  -1.564
    1LIG    C16   25  -1.208   0.249  -1.431
    1LIG    C17   26  -1.201   0.123  -1.347
    1LIG    C18   27  -1.097   0.104  -1.255
    1LIG    C19   28  -1.095  -0.008  -1.171
    1LIG    C20   29  -1.197  -0.103  -1.179
    1LIG    C21   30  -1.299  -0.087  -1.273
    1LIG    C22   31  -1.301   0.025  -1.356
    1LIG    C23   32  -1.194   0.230  -1.691
    1LIG    C24   33  -1.094   0.347  -1.717
    1LIG     N4   34  -1.179   0.473  -1.729
    1LIG     H3   35  -1.188   0.492  -1.830
    1LIG     H4   36  -1.273   0.452  -1.695
    1LIG    C25   37  -1.129   0.590  -1.656
    1LIG    C26   38  -1.176   0.606  -1.514
    1LIG    C27   39  -1.228   0.698  -1.622
    1LIG     O4   40  -1.110   0.112  -1.691
    1LIG     H5   41  -1.108   0.076  -1.601
    1LIG     HC   42  -1.693   0.371  -1.346
    1LIG    HC2   43  -2.071   0.475  -1.537
    1LIG    HC3   44  -2.232   0.484  -1.466
    1LIG    HC4   45  -2.169   0.655  -1.642
    1LIG    HC5   46  -2.244   0.714  -1.493
    1LIG    HC6   47  -2.030   0.788  -1.411
    1LIG    HC7   48  -2.068   0.862  -1.566
    1LIG    HC1   49  -1.904   0.886  -1.720
    1LIG    HC8   50  -1.492   0.604  -1.639
    1LIG    HC9   51  -1.573   0.769  -1.834
    1LIG   HC10   52  -1.683   0.908  -1.842
    1LIG   HC11   53  -1.329   0.133  -1.559
    1LIG   HC12   54  -1.106   0.280  -1.455
    1LIG   HC13   55  -1.256   0.328  -1.372
    1LIG   HC14   56  -1.017   0.176  -1.249
    1LIG   HC15   57  -1.015  -0.021  -1.100
    1LIG   HC16   58  -1.197  -0.189  -1.113
    1LIG   HC17   59  -1.378  -0.161  -1.280
    1LIG   HC18   60  -1.380   0.036  -1.429
    1LIG   HC19   61  -1.259   0.224  -1.778
    1LIG   HC20   62  -1.025   0.355  -1.633
    1LIG   HC21   63  -1.040   0.329  -1.809
    1LIG   HC22   64  -1.027   0.622  -1.678
    1LIG   HC23   65  -1.109   0.645  -1.438
    1LIG   HC24   66  -1.247   0.530  -1.480
    1LIG   HC25   67  -1.197   0.802  -1.623
    1LIG   HC26   68  -1.330   0.679  -1.654
    1LIG   HC27   69  -1.457   0.976  -1.773
    1LIG   HC28   70  -1.574   1.004  -1.641
    1LIG   HC29   71  -1.464   0.864  -1.635
   0.00000   0.00000   0.00000
