GROup of MAchos and Cynical Suckers
   55
    1LIG     N1    1  -1.311   0.751  -1.667
    1LIG     C1    2  -1.443   0.770  -1.643
    1LIG     N2    3  -1.478   0.888  -1.586
    1LIG     N3    4  -1.547   0.686  -1.666
    1LIG     C2    5  -1.575   0.614  -1.787
    1LIG     O1    6  -1.495   0.624  -1.879
    1LIG     H1    7  -1.254   0.834  -1.663
    1LIG     H2    8  -1.574   0.916  -1.572
    1LIG     H3    9  -1.408   0.957  -1.561
    1LIG     H4   10  -1.625   0.694  -1.603
    1LIG     C3   11  -1.235   0.626  -1.689
    1LIG     C4   12  -1.252   0.531  -1.569
    1LIG     C5   13  -1.330   0.417  -1.579
    1LIG     C6   14  -1.342   0.323  -1.474
    1LIG    CL1   15  -1.440   0.183  -1.505
    1LIG     C7   16  -1.277   0.337  -1.349
    1LIG     C8   17  -1.202   0.456  -1.335
    1LIG     C9   18  -1.188   0.549  -1.444
    1LIG    CL2   19  -1.135   0.510  -1.185
    1LIG     N4   20  -1.297   0.230  -1.255
    1LIG    C10   21  -1.214   0.128  -1.215
    1LIG     O2   22  -1.097   0.111  -1.245
    1LIG    C11   23  -1.286   0.024  -1.130
    1LIG     H5   24  -1.395   0.215  -1.233
    1LIG    C12   25  -1.714   0.550  -1.800
    1LIG     N5   26  -1.761   0.472  -1.686
    1LIG    C13   27  -1.842   0.513  -1.582
    1LIG    C14   28  -1.890   0.639  -1.543
    1LIG    C15   29  -1.878   0.398  -1.510
    1LIG    C16   30  -1.986   0.649  -1.442
    1LIG    C17   31  -2.026   0.535  -1.373
    1LIG    C18   32  -1.971   0.410  -1.405
    1LIG    C19   33  -1.804   0.290  -1.564
    1LIG    C20   34  -1.728   0.339  -1.668
    1LIG     O3   35  -2.032   0.776  -1.422
    1LIG    C21   36  -2.152   0.813  -1.488
    1LIG    HC2   37  -1.129   0.650  -1.701
    1LIG    HC3   38  -1.271   0.576  -1.779
    1LIG     HC   39  -1.384   0.398  -1.671
    1LIG    HC1   40  -1.126   0.636  -1.429
    1LIG    HC4   41  -1.785   0.630  -1.817
    1LIG    HC5   42  -1.713   0.485  -1.887
    1LIG    HC6   43  -1.853   0.728  -1.591
    1LIG    HC7   44  -2.100   0.543  -1.294
    1LIG    HC8   45  -1.999   0.322  -1.348
    1LIG    HC9   46  -1.806   0.188  -1.529
    1LIG   HC10   47  -1.656   0.283  -1.726
    1LIG   HC11   48  -1.217  -0.054  -1.101
    1LIG   HC12   49  -1.327   0.072  -1.040
    1LIG   HC13   50  -1.368  -0.020  -1.187
    1LIG   HC14   51  -2.176   0.917  -1.464
    1LIG   HC15   52  -2.233   0.748  -1.455
    1LIG   HC16   53  -2.139   0.803  -1.596
    1LIG    LP1   54  -1.532   0.050  -1.535
    1LIG    LP2   55  -1.071   0.561  -1.043
   0.00000   0.00000   0.00000
