Gyas ROwers Mature At Cryogenic Speed
   50
    1LIG     C1    1  -1.323   0.419  -1.510
    1LIG     C2    2  -1.434   0.447  -1.593
    1LIG     C3    3  -1.476   0.579  -1.627
    1LIG     C4    4  -1.378   0.681  -1.602
    1LIG     C5    5  -1.385   0.822  -1.660
    1LIG     C6    6  -1.529   0.844  -1.694
    1LIG     C7    7  -1.560   0.715  -1.802
    1LIG     C8    8  -1.612   0.604  -1.707
    1LIG     N1    9  -1.721   0.700  -1.681
    1LIG    HN3   10  -1.710   0.800  -1.699
    1LIG     C9   11  -1.827   0.653  -1.635
    1LIG      O   12  -1.827   0.523  -1.615
    1LIG    C10   13  -1.710   0.481  -1.692
    1LIG    C11   14  -1.569   0.977  -1.756
    1LIG    C12   15  -1.598   0.850  -1.546
    1LIG    C13   16  -1.266   0.654  -1.523
    1LIG    C14   17  -1.242   0.525  -1.471
    1LIG    C15   18  -1.290   0.283  -1.461
    1LIG    C16   19  -1.258   0.179  -1.552
    1LIG    C17   20  -1.212   0.055  -1.507
    1LIG    C18   21  -1.202   0.035  -1.371
    1LIG     N2   22  -1.236   0.128  -1.280
    1LIG    C19   23  -1.278   0.249  -1.326
    1LIG    HN4   24  -1.230   0.109  -1.179
    1LIG      F   25  -1.304   0.341  -1.233
    1LIG     N3   26  -1.937   0.727  -1.610
    1LIG     H1   27  -1.982   0.754  -1.697
    1LIG     H2   28  -2.004   0.667  -1.561
    1LIG     HC   29  -1.491   0.364  -1.631
    1LIG    HC2   30  -1.323   0.830  -1.749
    1LIG    HC3   31  -1.352   0.894  -1.585
    1LIG    HC4   32  -1.469   0.684  -1.853
    1LIG    HC5   33  -1.636   0.743  -1.875
    1LIG    HN2   34  -1.756   0.687  -1.775
    1LIG    HC1   35  -1.792   0.670  -1.533
    1LIG    HC6   36  -1.659   0.400  -1.641
    1LIG    HC7   37  -1.742   0.448  -1.791
    1LIG    HC8   38  -1.527   0.984  -1.857
    1LIG    HC9   39  -1.677   0.984  -1.761
    1LIG   HC10   40  -1.529   1.059  -1.696
    1LIG   HC11   41  -1.542   0.919  -1.483
    1LIG   HC12   42  -1.701   0.885  -1.555
    1LIG   HC13   43  -1.597   0.751  -1.501
    1LIG   HC14   44  -1.196   0.733  -1.501
    1LIG   HC15   45  -1.161   0.508  -1.401
    1LIG   HC16   46  -1.270   0.196  -1.658
    1LIG   HC17   47  -1.185  -0.023  -1.577
    1LIG   HC18   48  -1.166  -0.060  -1.336
    1LIG    HN1   49  -1.914   0.809  -1.555
    1LIG    H26   50  -1.100   0.073  -1.372
   0.00000   0.00000   0.00000
