GROningen MAchine for Chemical Simulation
   92
    1LIG     C1    1  -1.844   0.377  -1.484
    1LIG     O1    2  -1.825   0.397  -1.363
    1LIG     N1    3  -1.971   0.369  -1.536
    1LIG     H1    4  -1.987   0.355  -1.635
    1LIG     C2    5  -1.723   0.363  -1.571
    1LIG     C3    6  -1.593   0.355  -1.523
    1LIG     C4    7  -1.483   0.365  -1.611
    1LIG     C5    8  -1.505   0.367  -1.750
    1LIG     C6    9  -1.637   0.366  -1.799
    1LIG     C7   10  -1.743   0.368  -1.710
    1LIG     C8   11  -1.348   0.383  -1.550
    1LIG     O2   12  -1.254   0.415  -1.622
    1LIG     N2   13  -1.333   0.353  -1.416
    1LIG     H2   14  -1.410   0.310  -1.365
    1LIG     C9   15  -1.201   0.338  -1.356
    1LIG    C10   16  -1.190   0.414  -1.224
    1LIG    C11   17  -1.167   0.190  -1.344
    1LIG    C12   18  -1.038   0.146  -1.377
    1LIG    C13   19  -1.004   0.010  -1.369
    1LIG    C14   20  -1.099  -0.083  -1.329
    1LIG    C15   21  -1.228  -0.042  -1.297
    1LIG    C16   22  -1.262   0.094  -1.305
    1LIG     N3   23  -1.660   0.380  -1.941
    1LIG    C17   24  -1.784   0.321  -1.997
    1LIG      S   25  -1.598   0.519  -2.017
    1LIG     O3   26  -1.470   0.485  -2.074
    1LIG     O4   27  -1.612   0.632  -1.929
    1LIG    C18   28  -1.712   0.542  -2.154
    1LIG    C19   29  -2.091   0.377  -1.446
    1LIG    C20   30  -2.185   0.492  -1.493
    1LIG     O5   31  -2.132   0.617  -1.444
    1LIG     H3   32  -2.078   0.652  -1.518
    1LIG    C21   33  -2.207   0.510  -1.645
    1LIG    C22   34  -2.198   0.655  -1.694
    1LIG     O6   35  -2.254   0.747  -1.600
    1LIG    C23   36  -2.388   0.788  -1.624
    1LIG    C24   37  -2.055   0.697  -1.737
    1LIG     O7   38  -1.970   0.733  -1.628
    1LIG    C25   39  -1.833   0.709  -1.664
    1LIG    C26   40  -1.735   0.737  -1.554
    1LIG    C27   41  -1.653   0.863  -1.554
    1LIG    C28   42  -1.585   0.730  -1.569
    1LIG    C29   43  -2.168   0.242  -1.438
    1LIG     O8   44  -2.110   0.155  -1.340
    1LIG    C30   45  -2.157   0.028  -1.327
    1LIG    C31   46  -2.133  -0.030  -1.202
    1LIG    C32   47  -2.163  -0.163  -1.178
    1LIG     F1   48  -2.133  -0.218  -1.060
    1LIG    C33   49  -2.223  -0.241  -1.276
    1LIG    C34   50  -2.257  -0.180  -1.397
    1LIG     F2   51  -2.320  -0.252  -1.491
    1LIG    C35   52  -2.225  -0.047  -1.423
    1LIG     HC   53  -1.575   0.342  -1.417
    1LIG    HC1   54  -1.422   0.369  -1.819
    1LIG    HC2   55  -1.844   0.374  -1.748
    1LIG    HC3   56  -1.129   0.382  -1.424
    1LIG    HC4   57  -1.091   0.401  -1.182
    1LIG    HC5   58  -1.208   0.520  -1.242
    1LIG    HC6   59  -1.265   0.376  -1.154
    1LIG    HC7   60  -0.963   0.217  -1.409
    1LIG    HC8   61  -0.904  -0.022  -1.394
    1LIG    HC9   62  -1.073  -0.188  -1.322
    1LIG   HC10   63  -1.302  -0.114  -1.266
    1LIG   HC11   64  -1.363   0.125  -1.281
    1LIG   HC12   65  -1.813   0.235  -1.937
    1LIG   HC13   66  -1.863   0.396  -1.995
    1LIG   HC14   67  -1.766   0.290  -2.099
    1LIG   HC15   68  -1.681   0.628  -2.213
    1LIG   HC16   69  -1.813   0.558  -2.116
    1LIG   HC17   70  -1.711   0.452  -2.217
    1LIG   HC18   71  -2.056   0.401  -1.346
    1LIG   HC19   72  -2.283   0.477  -1.446
    1LIG   HC20   73  -2.307   0.472  -1.669
    1LIG   HC21   74  -2.134   0.449  -1.698
    1LIG   HC22   75  -2.260   0.661  -1.784
    1LIG   HC23   76  -2.420   0.858  -1.546
    1LIG   HC24   77  -2.454   0.701  -1.624
    1LIG   HC25   78  -2.394   0.838  -1.721
    1LIG   HC26   79  -2.064   0.783  -1.803
    1LIG   HC27   80  -2.009   0.615  -1.792
    1LIG   HC28   81  -1.808   0.772  -1.749
    1LIG   HC29   82  -1.823   0.604  -1.694
    1LIG   HC30   83  -1.770   0.707  -1.455
    1LIG   HC31   84  -1.641   0.920  -1.461
    1LIG   HC32   85  -1.660   0.923  -1.645
    1LIG   HC33   86  -1.524   0.690  -1.489
    1LIG   HC34   87  -1.550   0.708  -1.670
    1LIG   HC35   88  -2.163   0.193  -1.536
    1LIG   HC36   89  -2.272   0.261  -1.413
    1LIG   HC37   90  -2.090   0.030  -1.123
    1LIG   HC38   91  -2.243  -0.345  -1.260
    1LIG   HC39   92  -2.253  -0.002  -1.517
   0.00000   0.00000   0.00000
