; Created by cgenff_charmm2gmx.py

[ moleculetype ]
; Name			   nrexcl
LIG				 3

[ atoms ]
;	 nr		  type	resnr residue  atom   cgnr	   charge		mass  typeB    chargeB		massB
; residue	 1 LIG rtp LIG q	qsum
     1      CG2O1      1    LIG     C1      1      0.302     12.011   ;
     2      OG2D1      1    LIG     O1      2     -0.463     15.999   ;
     3      NG2S1      1    LIG     N1      3     -0.238     14.007   ;
     4       HGP1      1    LIG     H1      4      0.262      1.008   ;
     5     CG2R61      1    LIG     C2      5     -0.101     12.011   ;
     6     CG2R61      1    LIG     C3      6     -0.004     12.011   ;
     7     CG2R61      1    LIG     C4      7     -0.101     12.011   ;
     8     CG2R61      1    LIG     C5      8     -0.064     12.011   ;
     9     CG2R61      1    LIG     C6      9      0.138     12.011   ;
    10     CG2R61      1    LIG     C7     10     -0.064     12.011   ;
    11      CG2O1      1    LIG     C8     11      0.320     12.011   ;
    12      OG2D1      1    LIG     O2     12     -0.463     15.999   ;
    13      NG2S1      1    LIG     N2     13     -0.366     14.007   ;
    14       HGP1      1    LIG     H2     14      0.314      1.008   ;
    15      CG311      1    LIG     C9     15      0.138     12.011   ;
    16      CG331      1    LIG    C10     16     -0.265     12.011   ;
    17     CG2R61      1    LIG    C11     17     -0.111     12.011   ;
    18     CG2R61      1    LIG    C12     18     -0.086     12.011   ;
    19     CG2R61      1    LIG    C13     19     -0.114     12.011   ;
    20     CG2R61      1    LIG    C14     20     -0.116     12.011   ;
    21     CG2R61      1    LIG    C15     21     -0.114     12.011   ;
    22     CG2R61      1    LIG    C16     22     -0.086     12.011   ;
    23      NG301      1    LIG     N3     23     -0.228     14.007   ;
    24      CG331      1    LIG    C17     24     -0.103     12.011   ;
    25      SG3O2      1    LIG      S     25      0.397     32.060   ;
    26      OG2P1      1    LIG     O3     26     -0.388     15.999   ;
    27      OG2P1      1    LIG     O4     27     -0.388     15.999   ;
    28      CG331      1    LIG    C18     28      0.036     12.011   ;
    29      CG311      1    LIG    C19     29      0.001     12.011   ;
    30      CG311      1    LIG    C20     30      0.124     12.011   ;
    31      OG311      1    LIG     O5     31     -0.648     15.999   ;
    32       HGP1      1    LIG     H3     32      0.421      1.008   ;
    33      CG321      1    LIG    C21     33     -0.131     12.011   ;
    34      CG311      1    LIG    C22     34      0.097     12.011   ;
    35      OG301      1    LIG     O6     35     -0.392     15.999   ;
    36      CG331      1    LIG    C23     36     -0.091     12.011   ;
    37      CG321      1    LIG    C24     37     -0.022     12.011   ;
    38      OG301      1    LIG     O7     38     -0.334     15.999   ;
    39      CG321      1    LIG    C25     39      0.002     12.011   ;
    40     CG3C31      1    LIG    C26     40     -0.063     12.011   ;
    41     CG3C31      1    LIG    C27     41     -0.196     12.011   ;
    42     CG3C31      1    LIG    C28     42     -0.196     12.011   ;
    43      CG321      1    LIG    C29     43      0.009     12.011   ;
    44      OG301      1    LIG     O8     44     -0.177     15.999   ;
    45     CG2R61      1    LIG    C30     45      0.384     12.011   ;
    46     CG2R61      1    LIG    C31     46     -0.410     12.011   ;
    47     CG2R66      1    LIG    C32     47      0.283     12.011   ;
    48       FGR1      1    LIG     F1     48     -0.210     18.998   ;
    49     CG2R61      1    LIG    C33     49     -0.240     12.011   ;
    50     CG2R66      1    LIG    C34     50      0.283     12.011   ;
    51       FGR1      1    LIG     F2     51     -0.210     18.998   ;
    52     CG2R61      1    LIG    C35     52     -0.410     12.011   ;
    53      HGR61      1    LIG     HC     53      0.116      1.008   ;
    54      HGR61      1    LIG    HC1     54      0.116      1.008   ;
    55      HGR61      1    LIG    HC2     55      0.116      1.008   ;
    56       HGA1      1    LIG    HC3     56      0.090      1.008   ;
    57       HGA3      1    LIG    HC4     57      0.090      1.008   ;
    58       HGA3      1    LIG    HC5     58      0.090      1.008   ;
    59       HGA3      1    LIG    HC6     59      0.090      1.008   ;
    60      HGR61      1    LIG    HC7     60      0.116      1.008   ;
    61      HGR61      1    LIG    HC8     61      0.116      1.008   ;
    62      HGR61      1    LIG    HC9     62      0.116      1.008   ;
    63      HGR61      1    LIG   HC10     63      0.116      1.008   ;
    64      HGR61      1    LIG   HC11     64      0.116      1.008   ;
    65       HGA3      1    LIG   HC12     65      0.090      1.008   ;
    66       HGA3      1    LIG   HC13     66      0.090      1.008   ;
    67       HGA3      1    LIG   HC14     67      0.090      1.008   ;
    68       HGA3      1    LIG   HC15     68      0.090      1.008   ;
    69       HGA3      1    LIG   HC16     69      0.090      1.008   ;
    70       HGA3      1    LIG   HC17     70      0.090      1.008   ;
    71       HGA1      1    LIG   HC18     71      0.090      1.008   ;
    72       HGA1      1    LIG   HC19     72      0.090      1.008   ;
    73       HGA2      1    LIG   HC20     73      0.090      1.008   ;
    74       HGA2      1    LIG   HC21     74      0.090      1.008   ;
    75       HGA1      1    LIG   HC22     75      0.090      1.008   ;
    76       HGA3      1    LIG   HC23     76      0.090      1.008   ;
    77       HGA3      1    LIG   HC24     77      0.090      1.008   ;
    78       HGA3      1    LIG   HC25     78      0.090      1.008   ;
    79       HGA2      1    LIG   HC26     79      0.090      1.008   ;
    80       HGA2      1    LIG   HC27     80      0.090      1.008   ;
    81       HGA2      1    LIG   HC28     81      0.090      1.008   ;
    82       HGA2      1    LIG   HC29     82      0.090      1.008   ;
    83       HGA1      1    LIG   HC30     83      0.090      1.008   ;
    84       HGA2      1    LIG   HC31     84      0.090      1.008   ;
    85       HGA2      1    LIG   HC32     85      0.090      1.008   ;
    86       HGA2      1    LIG   HC33     86      0.090      1.008   ;
    87       HGA2      1    LIG   HC34     87      0.090      1.008   ;
    88       HGA2      1    LIG   HC35     88      0.090      1.008   ;
    89       HGA2      1    LIG   HC36     89      0.090      1.008   ;
    90      HGR62      1    LIG   HC37     90      0.179      1.008   ;
    91      HGR62      1    LIG   HC38     91      0.186      1.008   ;
    92      HGR62      1    LIG   HC39     92      0.179      1.008   ;

[ bonds ]
;	ai	  aj funct			  c0			c1			  c2			c3
    1     5	 1 ;       CG2O1     CG2R61
    1     2	 1 ;       CG2O1      OG2D1
    1     3	 1 ;       CG2O1      NG2S1
    3     4	 1 ;       NG2S1       HGP1
    3    29	 1 ;       NG2S1      CG311
    5     6	 1 ;      CG2R61     CG2R61
    5    10	 1 ;      CG2R61     CG2R61
    6     7	 1 ;      CG2R61     CG2R61
    6    53	 1 ;      CG2R61      HGR61
    7    11	 1 ;      CG2R61      CG2O1
    7     8	 1 ;      CG2R61     CG2R61
    8     9	 1 ;      CG2R61     CG2R61
    8    54	 1 ;      CG2R61      HGR61
    9    23	 1 ;      CG2R61      NG301
    9    10	 1 ;      CG2R61     CG2R61
   10    55	 1 ;      CG2R61      HGR61
   11    12	 1 ;       CG2O1      OG2D1
   11    13	 1 ;       CG2O1      NG2S1
   13    15	 1 ;       NG2S1      CG311
   13    14	 1 ;       NG2S1       HGP1
   15    17	 1 ;       CG311     CG2R61
   15    16	 1 ;       CG311      CG331
   15    56	 1 ;       CG311       HGA1
   16    57	 1 ;       CG331       HGA3
   16    58	 1 ;       CG331       HGA3
   16    59	 1 ;       CG331       HGA3
   17    18	 1 ;      CG2R61     CG2R61
   17    22	 1 ;      CG2R61     CG2R61
   18    19	 1 ;      CG2R61     CG2R61
   18    60	 1 ;      CG2R61      HGR61
   19    20	 1 ;      CG2R61     CG2R61
   19    61	 1 ;      CG2R61      HGR61
   20    21	 1 ;      CG2R61     CG2R61
   20    62	 1 ;      CG2R61      HGR61
   21    22	 1 ;      CG2R61     CG2R61
   21    63	 1 ;      CG2R61      HGR61
   22    64	 1 ;      CG2R61      HGR61
   23    25	 1 ;       NG301      SG3O2
   23    24	 1 ;       NG301      CG331
   24    65	 1 ;       CG331       HGA3
   24    66	 1 ;       CG331       HGA3
   24    67	 1 ;       CG331       HGA3
   25    26	 1 ;       SG3O2      OG2P1
   25    28	 1 ;       SG3O2      CG331
   25    27	 1 ;       SG3O2      OG2P1
   28    68	 1 ;       CG331       HGA3
   28    69	 1 ;       CG331       HGA3
   28    70	 1 ;       CG331       HGA3
   29    30	 1 ;       CG311      CG311
   29    43	 1 ;       CG311      CG321
   29    71	 1 ;       CG311       HGA1
   30    33	 1 ;       CG311      CG321
   30    31	 1 ;       CG311      OG311
   30    72	 1 ;       CG311       HGA1
   31    32	 1 ;       OG311       HGP1
   33    34	 1 ;       CG321      CG311
   33    73	 1 ;       CG321       HGA2
   33    74	 1 ;       CG321       HGA2
   34    37	 1 ;       CG311      CG321
   34    35	 1 ;       CG311      OG301
   34    75	 1 ;       CG311       HGA1
   35    36	 1 ;       OG301      CG331
   36    76	 1 ;       CG331       HGA3
   36    77	 1 ;       CG331       HGA3
   36    78	 1 ;       CG331       HGA3
   37    38	 1 ;       CG321      OG301
   37    79	 1 ;       CG321       HGA2
   37    80	 1 ;       CG321       HGA2
   38    39	 1 ;       OG301      CG321
   39    40	 1 ;       CG321     CG3C31
   39    81	 1 ;       CG321       HGA2
   39    82	 1 ;       CG321       HGA2
   40    42	 1 ;      CG3C31     CG3C31
   40    41	 1 ;      CG3C31     CG3C31
   40    83	 1 ;      CG3C31       HGA1
   41    42	 1 ;      CG3C31     CG3C31
   41    84	 1 ;      CG3C31       HGA2
   41    85	 1 ;      CG3C31       HGA2
   42    86	 1 ;      CG3C31       HGA2
   42    87	 1 ;      CG3C31       HGA2
   43    44	 1 ;       CG321      OG301
   43    88	 1 ;       CG321       HGA2
   43    89	 1 ;       CG321       HGA2
   44    45	 1 ;       OG301     CG2R61
   45    52	 1 ;      CG2R61     CG2R61
   45    46	 1 ;      CG2R61     CG2R61
   46    47	 1 ;      CG2R61     CG2R66
   46    90	 1 ;      CG2R61      HGR62
   47    49	 1 ;      CG2R66     CG2R61
   47    48	 1 ;      CG2R66       FGR1
   49    50	 1 ;      CG2R61     CG2R66
   49    91	 1 ;      CG2R61      HGR62
   50    52	 1 ;      CG2R66     CG2R61
   50    51	 1 ;      CG2R66       FGR1
   52    92	 1 ;      CG2R61      HGR62

[ pairs ]
;	ai	  aj funct			  c0			c1			  c2			c3
    1    30	 1
    1    43	 1
    1    71	 1
    1     7	 1
    1    53	 1
    1     9	 1
    1    55	 1
    2     6	 1
    2    10	 1
    2     4	 1
    2    29	 1
    3     6	 1
    3    10	 1
    3    33	 1
    3    31	 1
    3    72	 1
    3    44	 1
    3    88	 1
    3    89	 1
    4     5	 1
    4    30	 1
    4    43	 1
    4    71	 1
    5    29	 1
    5    11	 1
    5     8	 1
    5    23	 1
    6     9	 1
    6    55	 1
    6    12	 1
    6    13	 1
    6    54	 1
    7    10	 1
    7    23	 1
    7    15	 1
    7    14	 1
    8    53	 1
    8    12	 1
    8    13	 1
    8    25	 1
    8    24	 1
    8    55	 1
    9    11	 1
    9    26	 1
    9    28	 1
    9    27	 1
    9    65	 1
    9    66	 1
    9    67	 1
   10    53	 1
   10    54	 1
   10    25	 1
   10    24	 1
   11    53	 1
   11    54	 1
   11    17	 1
   11    16	 1
   11    56	 1
   12    15	 1
   12    14	 1
   13    18	 1
   13    22	 1
   13    57	 1
   13    58	 1
   13    59	 1
   14    17	 1
   14    16	 1
   14    56	 1
   15    19	 1
   15    60	 1
   15    21	 1
   15    64	 1
   16    18	 1
   16    22	 1
   17    57	 1
   17    58	 1
   17    59	 1
   17    20	 1
   17    61	 1
   17    63	 1
   18    56	 1
   18    21	 1
   18    64	 1
   18    62	 1
   19    22	 1
   19    63	 1
   20    60	 1
   20    64	 1
   21    61	 1
   22    56	 1
   22    60	 1
   22    62	 1
   23    54	 1
   23    55	 1
   23    68	 1
   23    69	 1
   23    70	 1
   24    26	 1
   24    28	 1
   24    27	 1
   25    65	 1
   25    66	 1
   25    67	 1
   26    68	 1
   26    69	 1
   26    70	 1
   27    68	 1
   27    69	 1
   27    70	 1
   29    34	 1
   29    73	 1
   29    74	 1
   29    32	 1
   29    45	 1
   30    44	 1
   30    88	 1
   30    89	 1
   30    37	 1
   30    35	 1
   30    75	 1
   31    43	 1
   31    71	 1
   31    34	 1
   31    73	 1
   31    74	 1
   32    33	 1
   32    72	 1
   33    43	 1
   33    71	 1
   33    38	 1
   33    79	 1
   33    80	 1
   33    36	 1
   34    72	 1
   34    76	 1
   34    77	 1
   34    78	 1
   34    39	 1
   35    73	 1
   35    74	 1
   35    38	 1
   35    79	 1
   35    80	 1
   36    37	 1
   36    75	 1
   37    73	 1
   37    74	 1
   37    40	 1
   37    81	 1
   37    82	 1
   38    75	 1
   38    42	 1
   38    41	 1
   38    83	 1
   39    79	 1
   39    80	 1
   39    86	 1
   39    87	 1
   39    84	 1
   39    85	 1
   41    81	 1
   41    82	 1
   42    81	 1
   42    82	 1
   43    72	 1
   43    52	 1
   43    46	 1
   44    71	 1
   44    50	 1
   44    92	 1
   44    47	 1
   44    90	 1
   45    88	 1
   45    89	 1
   45    49	 1
   45    48	 1
   45    51	 1
   46    50	 1
   46    92	 1
   46    91	 1
   47    52	 1
   47    51	 1
   48    90	 1
   48    50	 1
   48    91	 1
   49    90	 1
   49    92	 1
   51    91	 1
   51    92	 1
   52    90	 1
   52    91	 1
   56    57	 1
   56    58	 1
   56    59	 1
   60    61	 1
   61    62	 1
   62    63	 1
   63    64	 1
   71    72	 1
   71    88	 1
   71    89	 1
   72    73	 1
   72    74	 1
   73    75	 1
   74    75	 1
   75    79	 1
   75    80	 1
   81    83	 1
   82    83	 1
   83    86	 1
   83    87	 1
   83    84	 1
   83    85	 1
   84    86	 1
   84    87	 1
   85    86	 1
   85    87	 1

[ angles ]
;	ai	  aj	ak funct			c0			  c1			c2			  c3
    5     1     2	5 ;     CG2R61      CG2O1      OG2D1
    5     1     3	5 ;     CG2R61      CG2O1      NG2S1
    2     1     3	5 ;      OG2D1      CG2O1      NG2S1
    1     3     4	5 ;      CG2O1      NG2S1       HGP1
    1     3    29	5 ;      CG2O1      NG2S1      CG311
    4     3    29	5 ;       HGP1      NG2S1      CG311
    6     5    10	5 ;     CG2R61     CG2R61     CG2R61
    6     5     1	5 ;     CG2R61     CG2R61      CG2O1
   10     5     1	5 ;     CG2R61     CG2R61      CG2O1
    7     6     5	5 ;     CG2R61     CG2R61     CG2R61
    7     6    53	5 ;     CG2R61     CG2R61      HGR61
    5     6    53	5 ;     CG2R61     CG2R61      HGR61
   11     7     8	5 ;      CG2O1     CG2R61     CG2R61
   11     7     6	5 ;      CG2O1     CG2R61     CG2R61
    8     7     6	5 ;     CG2R61     CG2R61     CG2R61
    7     8     9	5 ;     CG2R61     CG2R61     CG2R61
    7     8    54	5 ;     CG2R61     CG2R61      HGR61
    9     8    54	5 ;     CG2R61     CG2R61      HGR61
    8     9    23	5 ;     CG2R61     CG2R61      NG301
    8     9    10	5 ;     CG2R61     CG2R61     CG2R61
   23     9    10	5 ;      NG301     CG2R61     CG2R61
    9    10     5	5 ;     CG2R61     CG2R61     CG2R61
    9    10    55	5 ;     CG2R61     CG2R61      HGR61
    5    10    55	5 ;     CG2R61     CG2R61      HGR61
   12    11    13	5 ;      OG2D1      CG2O1      NG2S1
   12    11     7	5 ;      OG2D1      CG2O1     CG2R61
   13    11     7	5 ;      NG2S1      CG2O1     CG2R61
   15    13    11	5 ;      CG311      NG2S1      CG2O1
   15    13    14	5 ;      CG311      NG2S1       HGP1
   11    13    14	5 ;      CG2O1      NG2S1       HGP1
   17    15    16	5 ;     CG2R61      CG311      CG331
   17    15    13	5 ;     CG2R61      CG311      NG2S1
   17    15    56	5 ;     CG2R61      CG311       HGA1
   16    15    13	5 ;      CG331      CG311      NG2S1
   16    15    56	5 ;      CG331      CG311       HGA1
   13    15    56	5 ;      NG2S1      CG311       HGA1
   15    16    57	5 ;      CG311      CG331       HGA3
   15    16    58	5 ;      CG311      CG331       HGA3
   15    16    59	5 ;      CG311      CG331       HGA3
   57    16    58	5 ;       HGA3      CG331       HGA3
   57    16    59	5 ;       HGA3      CG331       HGA3
   58    16    59	5 ;       HGA3      CG331       HGA3
   18    17    15	5 ;     CG2R61     CG2R61      CG311
   18    17    22	5 ;     CG2R61     CG2R61     CG2R61
   15    17    22	5 ;      CG311     CG2R61     CG2R61
   19    18    17	5 ;     CG2R61     CG2R61     CG2R61
   19    18    60	5 ;     CG2R61     CG2R61      HGR61
   17    18    60	5 ;     CG2R61     CG2R61      HGR61
   18    19    20	5 ;     CG2R61     CG2R61     CG2R61
   18    19    61	5 ;     CG2R61     CG2R61      HGR61
   20    19    61	5 ;     CG2R61     CG2R61      HGR61
   19    20    21	5 ;     CG2R61     CG2R61     CG2R61
   19    20    62	5 ;     CG2R61     CG2R61      HGR61
   21    20    62	5 ;     CG2R61     CG2R61      HGR61
   20    21    22	5 ;     CG2R61     CG2R61     CG2R61
   20    21    63	5 ;     CG2R61     CG2R61      HGR61
   22    21    63	5 ;     CG2R61     CG2R61      HGR61
   17    22    21	5 ;     CG2R61     CG2R61     CG2R61
   17    22    64	5 ;     CG2R61     CG2R61      HGR61
   21    22    64	5 ;     CG2R61     CG2R61      HGR61
   25    23     9	5 ;      SG3O2      NG301     CG2R61
   25    23    24	5 ;      SG3O2      NG301      CG331
    9    23    24	5 ;     CG2R61      NG301      CG331
   23    24    65	5 ;      NG301      CG331       HGA3
   23    24    66	5 ;      NG301      CG331       HGA3
   23    24    67	5 ;      NG301      CG331       HGA3
   65    24    66	5 ;       HGA3      CG331       HGA3
   65    24    67	5 ;       HGA3      CG331       HGA3
   66    24    67	5 ;       HGA3      CG331       HGA3
   26    25    28	5 ;      OG2P1      SG3O2      CG331
   26    25    27	5 ;      OG2P1      SG3O2      OG2P1
   26    25    23	5 ;      OG2P1      SG3O2      NG301
   28    25    27	5 ;      CG331      SG3O2      OG2P1
   28    25    23	5 ;      CG331      SG3O2      NG301
   27    25    23	5 ;      OG2P1      SG3O2      NG301
   25    28    68	5 ;      SG3O2      CG331       HGA3
   25    28    69	5 ;      SG3O2      CG331       HGA3
   25    28    70	5 ;      SG3O2      CG331       HGA3
   68    28    69	5 ;       HGA3      CG331       HGA3
   68    28    70	5 ;       HGA3      CG331       HGA3
   69    28    70	5 ;       HGA3      CG331       HGA3
    3    29    30	5 ;      NG2S1      CG311      CG311
    3    29    43	5 ;      NG2S1      CG311      CG321
    3    29    71	5 ;      NG2S1      CG311       HGA1
   30    29    43	5 ;      CG311      CG311      CG321
   30    29    71	5 ;      CG311      CG311       HGA1
   43    29    71	5 ;      CG321      CG311       HGA1
   33    30    31	5 ;      CG321      CG311      OG311
   33    30    29	5 ;      CG321      CG311      CG311
   33    30    72	5 ;      CG321      CG311       HGA1
   31    30    29	5 ;      OG311      CG311      CG311
   31    30    72	5 ;      OG311      CG311       HGA1
   29    30    72	5 ;      CG311      CG311       HGA1
   32    31    30	5 ;       HGP1      OG311      CG311
   34    33    30	5 ;      CG311      CG321      CG311
   34    33    73	5 ;      CG311      CG321       HGA2
   34    33    74	5 ;      CG311      CG321       HGA2
   30    33    73	5 ;      CG311      CG321       HGA2
   30    33    74	5 ;      CG311      CG321       HGA2
   73    33    74	5 ;       HGA2      CG321       HGA2
   37    34    33	5 ;      CG321      CG311      CG321
   37    34    35	5 ;      CG321      CG311      OG301
   37    34    75	5 ;      CG321      CG311       HGA1
   33    34    35	5 ;      CG321      CG311      OG301
   33    34    75	5 ;      CG321      CG311       HGA1
   35    34    75	5 ;      OG301      CG311       HGA1
   34    35    36	5 ;      CG311      OG301      CG331
   35    36    76	5 ;      OG301      CG331       HGA3
   35    36    77	5 ;      OG301      CG331       HGA3
   35    36    78	5 ;      OG301      CG331       HGA3
   76    36    77	5 ;       HGA3      CG331       HGA3
   76    36    78	5 ;       HGA3      CG331       HGA3
   77    36    78	5 ;       HGA3      CG331       HGA3
   38    37    34	5 ;      OG301      CG321      CG311
   38    37    79	5 ;      OG301      CG321       HGA2
   38    37    80	5 ;      OG301      CG321       HGA2
   34    37    79	5 ;      CG311      CG321       HGA2
   34    37    80	5 ;      CG311      CG321       HGA2
   79    37    80	5 ;       HGA2      CG321       HGA2
   39    38    37	5 ;      CG321      OG301      CG321
   40    39    38	5 ;     CG3C31      CG321      OG301
   40    39    81	5 ;     CG3C31      CG321       HGA2
   40    39    82	5 ;     CG3C31      CG321       HGA2
   38    39    81	5 ;      OG301      CG321       HGA2
   38    39    82	5 ;      OG301      CG321       HGA2
   81    39    82	5 ;       HGA2      CG321       HGA2
   42    40    41	5 ;     CG3C31     CG3C31     CG3C31
   42    40    39	5 ;     CG3C31     CG3C31      CG321
   42    40    83	5 ;     CG3C31     CG3C31       HGA1
   41    40    39	5 ;     CG3C31     CG3C31      CG321
   41    40    83	5 ;     CG3C31     CG3C31       HGA1
   39    40    83	5 ;      CG321     CG3C31       HGA1
   42    41    40	5 ;     CG3C31     CG3C31     CG3C31
   42    41    84	5 ;     CG3C31     CG3C31       HGA2
   42    41    85	5 ;     CG3C31     CG3C31       HGA2
   40    41    84	5 ;     CG3C31     CG3C31       HGA2
   40    41    85	5 ;     CG3C31     CG3C31       HGA2
   84    41    85	5 ;       HGA2     CG3C31       HGA2
   41    42    40	5 ;     CG3C31     CG3C31     CG3C31
   41    42    86	5 ;     CG3C31     CG3C31       HGA2
   41    42    87	5 ;     CG3C31     CG3C31       HGA2
   40    42    86	5 ;     CG3C31     CG3C31       HGA2
   40    42    87	5 ;     CG3C31     CG3C31       HGA2
   86    42    87	5 ;       HGA2     CG3C31       HGA2
   29    43    44	5 ;      CG311      CG321      OG301
   29    43    88	5 ;      CG311      CG321       HGA2
   29    43    89	5 ;      CG311      CG321       HGA2
   44    43    88	5 ;      OG301      CG321       HGA2
   44    43    89	5 ;      OG301      CG321       HGA2
   88    43    89	5 ;       HGA2      CG321       HGA2
   43    44    45	5 ;      CG321      OG301     CG2R61
   44    45    52	5 ;      OG301     CG2R61     CG2R61
   44    45    46	5 ;      OG301     CG2R61     CG2R61
   52    45    46	5 ;     CG2R61     CG2R61     CG2R61
   45    46    47	5 ;     CG2R61     CG2R61     CG2R66
   45    46    90	5 ;     CG2R61     CG2R61      HGR62
   47    46    90	5 ;     CG2R66     CG2R61      HGR62
   46    47    49	5 ;     CG2R61     CG2R66     CG2R61
   46    47    48	5 ;     CG2R61     CG2R66       FGR1
   49    47    48	5 ;     CG2R61     CG2R66       FGR1
   50    49    47	5 ;     CG2R66     CG2R61     CG2R66
   50    49    91	5 ;     CG2R66     CG2R61      HGR62
   47    49    91	5 ;     CG2R66     CG2R61      HGR62
   52    50    51	5 ;     CG2R61     CG2R66       FGR1
   52    50    49	5 ;     CG2R61     CG2R66     CG2R61
   51    50    49	5 ;       FGR1     CG2R66     CG2R61
   45    52    50	5 ;     CG2R61     CG2R61     CG2R66
   45    52    92	5 ;     CG2R61     CG2R61      HGR62
   50    52    92	5 ;     CG2R66     CG2R61      HGR62

[ dihedrals ]
;	ai	  aj	ak	  al funct			  c0			c1			  c2			c3			  c4			c5
    2     1     5     6	 9 ;      OG2D1      CG2O1     CG2R61     CG2R61
    2     1     5    10	 9 ;      OG2D1      CG2O1     CG2R61     CG2R61
    3     1     5     6	 9 ;      NG2S1      CG2O1     CG2R61     CG2R61
    3     1     5    10	 9 ;      NG2S1      CG2O1     CG2R61     CG2R61
    5     1     3     4	 9 ;     CG2R61      CG2O1      NG2S1       HGP1
    5     1     3    29	 9 ;     CG2R61      CG2O1      NG2S1      CG311
    2     1     3     4	 9 ;      OG2D1      CG2O1      NG2S1       HGP1
    2     1     3    29	 9 ;      OG2D1      CG2O1      NG2S1      CG311
    1     3    29    30	 9 ;      CG2O1      NG2S1      CG311      CG311
    1     3    29    43	 9 ;      CG2O1      NG2S1      CG311      CG321
    1     3    29    71	 9 ;      CG2O1      NG2S1      CG311       HGA1
    4     3    29    30	 9 ;       HGP1      NG2S1      CG311      CG311
    4     3    29    43	 9 ;       HGP1      NG2S1      CG311      CG321
    4     3    29    71	 9 ;       HGP1      NG2S1      CG311       HGA1
   10     5     6     7	 9 ;     CG2R61     CG2R61     CG2R61     CG2R61
   10     5     6    53	 9 ;     CG2R61     CG2R61     CG2R61      HGR61
    1     5     6     7	 9 ;      CG2O1     CG2R61     CG2R61     CG2R61
    1     5     6    53	 9 ;      CG2O1     CG2R61     CG2R61      HGR61
    6     5    10     9	 9 ;     CG2R61     CG2R61     CG2R61     CG2R61
    6     5    10    55	 9 ;     CG2R61     CG2R61     CG2R61      HGR61
    1     5    10     9	 9 ;      CG2O1     CG2R61     CG2R61     CG2R61
    1     5    10    55	 9 ;      CG2O1     CG2R61     CG2R61      HGR61
    5     6     7    11	 9 ;     CG2R61     CG2R61     CG2R61      CG2O1
    5     6     7     8	 9 ;     CG2R61     CG2R61     CG2R61     CG2R61
   53     6     7    11	 9 ;      HGR61     CG2R61     CG2R61      CG2O1
   53     6     7     8	 9 ;      HGR61     CG2R61     CG2R61     CG2R61
    8     7    11    12	 9 ;     CG2R61     CG2R61      CG2O1      OG2D1
    8     7    11    13	 9 ;     CG2R61     CG2R61      CG2O1      NG2S1
    6     7    11    12	 9 ;     CG2R61     CG2R61      CG2O1      OG2D1
    6     7    11    13	 9 ;     CG2R61     CG2R61      CG2O1      NG2S1
   11     7     8     9	 9 ;      CG2O1     CG2R61     CG2R61     CG2R61
   11     7     8    54	 9 ;      CG2O1     CG2R61     CG2R61      HGR61
    6     7     8     9	 9 ;     CG2R61     CG2R61     CG2R61     CG2R61
    6     7     8    54	 9 ;     CG2R61     CG2R61     CG2R61      HGR61
    7     8     9    23	 9 ;     CG2R61     CG2R61     CG2R61      NG301
    7     8     9    10	 9 ;     CG2R61     CG2R61     CG2R61     CG2R61
   54     8     9    23	 9 ;      HGR61     CG2R61     CG2R61      NG301
   54     8     9    10	 9 ;      HGR61     CG2R61     CG2R61     CG2R61
    8     9    23    25	 9 ;     CG2R61     CG2R61      NG301      SG3O2
    8     9    23    24	 9 ;     CG2R61     CG2R61      NG301      CG331
   10     9    23    25	 9 ;     CG2R61     CG2R61      NG301      SG3O2
   10     9    23    24	 9 ;     CG2R61     CG2R61      NG301      CG331
    8     9    10     5	 9 ;     CG2R61     CG2R61     CG2R61     CG2R61
    8     9    10    55	 9 ;     CG2R61     CG2R61     CG2R61      HGR61
   23     9    10     5	 9 ;      NG301     CG2R61     CG2R61     CG2R61
   23     9    10    55	 9 ;      NG301     CG2R61     CG2R61      HGR61
   12    11    13    15	 9 ;      OG2D1      CG2O1      NG2S1      CG311
   12    11    13    14	 9 ;      OG2D1      CG2O1      NG2S1       HGP1
    7    11    13    15	 9 ;     CG2R61      CG2O1      NG2S1      CG311
    7    11    13    14	 9 ;     CG2R61      CG2O1      NG2S1       HGP1
   11    13    15    17	 9 ;      CG2O1      NG2S1      CG311     CG2R61
   11    13    15    16	 9 ;      CG2O1      NG2S1      CG311      CG331
   11    13    15    56	 9 ;      CG2O1      NG2S1      CG311       HGA1
   14    13    15    17	 9 ;       HGP1      NG2S1      CG311     CG2R61
   14    13    15    16	 9 ;       HGP1      NG2S1      CG311      CG331
   14    13    15    56	 9 ;       HGP1      NG2S1      CG311       HGA1
   16    15    17    18	 9 ;      CG331      CG311     CG2R61     CG2R61
   16    15    17    22	 9 ;      CG331      CG311     CG2R61     CG2R61
   13    15    17    18	 9 ;      NG2S1      CG311     CG2R61     CG2R61
   13    15    17    22	 9 ;      NG2S1      CG311     CG2R61     CG2R61
   56    15    17    18	 9 ;       HGA1      CG311     CG2R61     CG2R61
   56    15    17    22	 9 ;       HGA1      CG311     CG2R61     CG2R61
   17    15    16    57	 9 ;     CG2R61      CG311      CG331       HGA3
   17    15    16    58	 9 ;     CG2R61      CG311      CG331       HGA3
   17    15    16    59	 9 ;     CG2R61      CG311      CG331       HGA3
   13    15    16    57	 9 ;      NG2S1      CG311      CG331       HGA3
   13    15    16    58	 9 ;      NG2S1      CG311      CG331       HGA3
   13    15    16    59	 9 ;      NG2S1      CG311      CG331       HGA3
   56    15    16    57	 9 ;       HGA1      CG311      CG331       HGA3
   56    15    16    58	 9 ;       HGA1      CG311      CG331       HGA3
   56    15    16    59	 9 ;       HGA1      CG311      CG331       HGA3
   15    17    18    19	 9 ;      CG311     CG2R61     CG2R61     CG2R61
   15    17    18    60	 9 ;      CG311     CG2R61     CG2R61      HGR61
   22    17    18    19	 9 ;     CG2R61     CG2R61     CG2R61     CG2R61
   22    17    18    60	 9 ;     CG2R61     CG2R61     CG2R61      HGR61
   18    17    22    21	 9 ;     CG2R61     CG2R61     CG2R61     CG2R61
   18    17    22    64	 9 ;     CG2R61     CG2R61     CG2R61      HGR61
   15    17    22    21	 9 ;      CG311     CG2R61     CG2R61     CG2R61
   15    17    22    64	 9 ;      CG311     CG2R61     CG2R61      HGR61
   17    18    19    20	 9 ;     CG2R61     CG2R61     CG2R61     CG2R61
   17    18    19    61	 9 ;     CG2R61     CG2R61     CG2R61      HGR61
   60    18    19    20	 9 ;      HGR61     CG2R61     CG2R61     CG2R61
   60    18    19    61	 9 ;      HGR61     CG2R61     CG2R61      HGR61
   18    19    20    21	 9 ;     CG2R61     CG2R61     CG2R61     CG2R61
   18    19    20    62	 9 ;     CG2R61     CG2R61     CG2R61      HGR61
   61    19    20    21	 9 ;      HGR61     CG2R61     CG2R61     CG2R61
   61    19    20    62	 9 ;      HGR61     CG2R61     CG2R61      HGR61
   19    20    21    22	 9 ;     CG2R61     CG2R61     CG2R61     CG2R61
   19    20    21    63	 9 ;     CG2R61     CG2R61     CG2R61      HGR61
   62    20    21    22	 9 ;      HGR61     CG2R61     CG2R61     CG2R61
   62    20    21    63	 9 ;      HGR61     CG2R61     CG2R61      HGR61
   20    21    22    17	 9 ;     CG2R61     CG2R61     CG2R61     CG2R61
   20    21    22    64	 9 ;     CG2R61     CG2R61     CG2R61      HGR61
   63    21    22    17	 9 ;      HGR61     CG2R61     CG2R61     CG2R61
   63    21    22    64	 9 ;      HGR61     CG2R61     CG2R61      HGR61
    9    23    25    26	 9 ;     CG2R61      NG301      SG3O2      OG2P1
    9    23    25    28	 9 ;     CG2R61      NG301      SG3O2      CG331
    9    23    25    27	 9 ;     CG2R61      NG301      SG3O2      OG2P1
   24    23    25    26	 9 ;      CG331      NG301      SG3O2      OG2P1
   24    23    25    28	 9 ;      CG331      NG301      SG3O2      CG331
   24    23    25    27	 9 ;      CG331      NG301      SG3O2      OG2P1
   25    23    24    65	 9 ;      SG3O2      NG301      CG331       HGA3
   25    23    24    66	 9 ;      SG3O2      NG301      CG331       HGA3
   25    23    24    67	 9 ;      SG3O2      NG301      CG331       HGA3
    9    23    24    65	 9 ;     CG2R61      NG301      CG331       HGA3
    9    23    24    66	 9 ;     CG2R61      NG301      CG331       HGA3
    9    23    24    67	 9 ;     CG2R61      NG301      CG331       HGA3
   26    25    28    68	 9 ;      OG2P1      SG3O2      CG331       HGA3
   26    25    28    69	 9 ;      OG2P1      SG3O2      CG331       HGA3
   26    25    28    70	 9 ;      OG2P1      SG3O2      CG331       HGA3
   27    25    28    68	 9 ;      OG2P1      SG3O2      CG331       HGA3
   27    25    28    69	 9 ;      OG2P1      SG3O2      CG331       HGA3
   27    25    28    70	 9 ;      OG2P1      SG3O2      CG331       HGA3
   23    25    28    68	 9 ;      NG301      SG3O2      CG331       HGA3
   23    25    28    69	 9 ;      NG301      SG3O2      CG331       HGA3
   23    25    28    70	 9 ;      NG301      SG3O2      CG331       HGA3
    3    29    30    33	 9 ;      NG2S1      CG311      CG311      CG321
    3    29    30    31	 9 ;      NG2S1      CG311      CG311      OG311
    3    29    30    72	 9 ;      NG2S1      CG311      CG311       HGA1
   43    29    30    33	 9 ;      CG321      CG311      CG311      CG321
   43    29    30    31	 9 ;      CG321      CG311      CG311      OG311
   43    29    30    72	 9 ;      CG321      CG311      CG311       HGA1
   71    29    30    33	 9 ;       HGA1      CG311      CG311      CG321
   71    29    30    31	 9 ;       HGA1      CG311      CG311      OG311
   71    29    30    72	 9 ;       HGA1      CG311      CG311       HGA1
    3    29    43    44	 9 ;      NG2S1      CG311      CG321      OG301
    3    29    43    88	 9 ;      NG2S1      CG311      CG321       HGA2
    3    29    43    89	 9 ;      NG2S1      CG311      CG321       HGA2
   30    29    43    44	 9 ;      CG311      CG311      CG321      OG301
   30    29    43    88	 9 ;      CG311      CG311      CG321       HGA2
   30    29    43    89	 9 ;      CG311      CG311      CG321       HGA2
   71    29    43    44	 9 ;       HGA1      CG311      CG321      OG301
   71    29    43    88	 9 ;       HGA1      CG311      CG321       HGA2
   71    29    43    89	 9 ;       HGA1      CG311      CG321       HGA2
   31    30    33    34	 9 ;      OG311      CG311      CG321      CG311
   31    30    33    73	 9 ;      OG311      CG311      CG321       HGA2
   31    30    33    74	 9 ;      OG311      CG311      CG321       HGA2
   29    30    33    34	 9 ;      CG311      CG311      CG321      CG311
   29    30    33    73	 9 ;      CG311      CG311      CG321       HGA2
   29    30    33    74	 9 ;      CG311      CG311      CG321       HGA2
   72    30    33    34	 9 ;       HGA1      CG311      CG321      CG311
   72    30    33    73	 9 ;       HGA1      CG311      CG321       HGA2
   72    30    33    74	 9 ;       HGA1      CG311      CG321       HGA2
   33    30    31    32	 9 ;      CG321      CG311      OG311       HGP1
   29    30    31    32	 9 ;      CG311      CG311      OG311       HGP1
   72    30    31    32	 9 ;       HGA1      CG311      OG311       HGP1
   30    33    34    37	 9 ;      CG311      CG321      CG311      CG321
   30    33    34    35	 9 ;      CG311      CG321      CG311      OG301
   30    33    34    75	 9 ;      CG311      CG321      CG311       HGA1
   73    33    34    37	 9 ;       HGA2      CG321      CG311      CG321
   73    33    34    35	 9 ;       HGA2      CG321      CG311      OG301
   73    33    34    75	 9 ;       HGA2      CG321      CG311       HGA1
   74    33    34    37	 9 ;       HGA2      CG321      CG311      CG321
   74    33    34    35	 9 ;       HGA2      CG321      CG311      OG301
   74    33    34    75	 9 ;       HGA2      CG321      CG311       HGA1
   33    34    37    38	 9 ;      CG321      CG311      CG321      OG301
   33    34    37    79	 9 ;      CG321      CG311      CG321       HGA2
   33    34    37    80	 9 ;      CG321      CG311      CG321       HGA2
   35    34    37    38	 9 ;      OG301      CG311      CG321      OG301
   35    34    37    79	 9 ;      OG301      CG311      CG321       HGA2
   35    34    37    80	 9 ;      OG301      CG311      CG321       HGA2
   75    34    37    38	 9 ;       HGA1      CG311      CG321      OG301
   75    34    37    79	 9 ;       HGA1      CG311      CG321       HGA2
   75    34    37    80	 9 ;       HGA1      CG311      CG321       HGA2
   37    34    35    36	 9 ;      CG321      CG311      OG301      CG331
   33    34    35    36	 9 ;      CG321      CG311      OG301      CG331
   75    34    35    36	 9 ;       HGA1      CG311      OG301      CG331
   34    35    36    76	 9 ;      CG311      OG301      CG331       HGA3
   34    35    36    77	 9 ;      CG311      OG301      CG331       HGA3
   34    35    36    78	 9 ;      CG311      OG301      CG331       HGA3
   34    37    38    39	 9 ;      CG311      CG321      OG301      CG321
   79    37    38    39	 9 ;       HGA2      CG321      OG301      CG321
   80    37    38    39	 9 ;       HGA2      CG321      OG301      CG321
   37    38    39    40	 9 ;      CG321      OG301      CG321     CG3C31
   37    38    39    81	 9 ;      CG321      OG301      CG321       HGA2
   37    38    39    82	 9 ;      CG321      OG301      CG321       HGA2
   38    39    40    42	 9 ;      OG301      CG321     CG3C31     CG3C31
   38    39    40    41	 9 ;      OG301      CG321     CG3C31     CG3C31
   38    39    40    83	 9 ;      OG301      CG321     CG3C31       HGA1
   81    39    40    42	 9 ;       HGA2      CG321     CG3C31     CG3C31
   81    39    40    41	 9 ;       HGA2      CG321     CG3C31     CG3C31
   81    39    40    83	 9 ;       HGA2      CG321     CG3C31       HGA1
   82    39    40    42	 9 ;       HGA2      CG321     CG3C31     CG3C31
   82    39    40    41	 9 ;       HGA2      CG321     CG3C31     CG3C31
   82    39    40    83	 9 ;       HGA2      CG321     CG3C31       HGA1
   41    40    42    86	 9 ;     CG3C31     CG3C31     CG3C31       HGA2
   41    40    42    87	 9 ;     CG3C31     CG3C31     CG3C31       HGA2
   39    40    42    41	 9 ;      CG321     CG3C31     CG3C31     CG3C31
   39    40    42    86	 9 ;      CG321     CG3C31     CG3C31       HGA2
   39    40    42    87	 9 ;      CG321     CG3C31     CG3C31       HGA2
   83    40    42    41	 9 ;       HGA1     CG3C31     CG3C31     CG3C31
   83    40    42    86	 9 ;       HGA1     CG3C31     CG3C31       HGA2
   83    40    42    87	 9 ;       HGA1     CG3C31     CG3C31       HGA2
   42    40    41    84	 9 ;     CG3C31     CG3C31     CG3C31       HGA2
   42    40    41    85	 9 ;     CG3C31     CG3C31     CG3C31       HGA2
   39    40    41    42	 9 ;      CG321     CG3C31     CG3C31     CG3C31
   39    40    41    84	 9 ;      CG321     CG3C31     CG3C31       HGA2
   39    40    41    85	 9 ;      CG321     CG3C31     CG3C31       HGA2
   83    40    41    42	 9 ;       HGA1     CG3C31     CG3C31     CG3C31
   83    40    41    84	 9 ;       HGA1     CG3C31     CG3C31       HGA2
   83    40    41    85	 9 ;       HGA1     CG3C31     CG3C31       HGA2
   40    41    42    86	 9 ;     CG3C31     CG3C31     CG3C31       HGA2
   40    41    42    87	 9 ;     CG3C31     CG3C31     CG3C31       HGA2
   84    41    42    40	 9 ;       HGA2     CG3C31     CG3C31     CG3C31
   84    41    42    86	 9 ;       HGA2     CG3C31     CG3C31       HGA2
   84    41    42    87	 9 ;       HGA2     CG3C31     CG3C31       HGA2
   85    41    42    40	 9 ;       HGA2     CG3C31     CG3C31     CG3C31
   85    41    42    86	 9 ;       HGA2     CG3C31     CG3C31       HGA2
   85    41    42    87	 9 ;       HGA2     CG3C31     CG3C31       HGA2
   29    43    44    45	 9 ;      CG311      CG321      OG301     CG2R61
   88    43    44    45	 9 ;       HGA2      CG321      OG301     CG2R61
   89    43    44    45	 9 ;       HGA2      CG321      OG301     CG2R61
   43    44    45    52	 9 ;      CG321      OG301     CG2R61     CG2R61
   43    44    45    46	 9 ;      CG321      OG301     CG2R61     CG2R61
   44    45    52    50	 9 ;      OG301     CG2R61     CG2R61     CG2R66
   44    45    52    92	 9 ;      OG301     CG2R61     CG2R61      HGR62
   46    45    52    50	 9 ;     CG2R61     CG2R61     CG2R61     CG2R66
   46    45    52    92	 9 ;     CG2R61     CG2R61     CG2R61      HGR62
   44    45    46    47	 9 ;      OG301     CG2R61     CG2R61     CG2R66
   44    45    46    90	 9 ;      OG301     CG2R61     CG2R61      HGR62
   52    45    46    47	 9 ;     CG2R61     CG2R61     CG2R61     CG2R66
   52    45    46    90	 9 ;     CG2R61     CG2R61     CG2R61      HGR62
   45    46    47    49	 9 ;     CG2R61     CG2R61     CG2R66     CG2R61
   45    46    47    48	 9 ;     CG2R61     CG2R61     CG2R66       FGR1
   90    46    47    49	 9 ;      HGR62     CG2R61     CG2R66     CG2R61
   90    46    47    48	 9 ;      HGR62     CG2R61     CG2R66       FGR1
   46    47    49    50	 9 ;     CG2R61     CG2R66     CG2R61     CG2R66
   46    47    49    91	 9 ;     CG2R61     CG2R66     CG2R61      HGR62
   48    47    49    50	 9 ;       FGR1     CG2R66     CG2R61     CG2R66
   48    47    49    91	 9 ;       FGR1     CG2R66     CG2R61      HGR62
   47    49    50    52	 9 ;     CG2R66     CG2R61     CG2R66     CG2R61
   47    49    50    51	 9 ;     CG2R66     CG2R61     CG2R66       FGR1
   91    49    50    52	 9 ;      HGR62     CG2R61     CG2R66     CG2R61
   91    49    50    51	 9 ;      HGR62     CG2R61     CG2R66       FGR1
   51    50    52    45	 9 ;       FGR1     CG2R66     CG2R61     CG2R61
   51    50    52    92	 9 ;       FGR1     CG2R66     CG2R61      HGR62
   49    50    52    45	 9 ;     CG2R61     CG2R66     CG2R61     CG2R61
   49    50    52    92	 9 ;     CG2R61     CG2R66     CG2R61      HGR62

[ dihedrals ]
;	ai	  aj	ak	  al funct			  c0			c1			  c2			c3
    1     5     3     2	 2
   11     7    13    12	 2

