; Created by cgenff_charmm2gmx.py

[ moleculetype ]
; Name			   nrexcl
LIG				 3

[ atoms ]
;	 nr		  type	resnr residue  atom   cgnr	   charge		mass  typeB    chargeB		massB
; residue	 1 LIG rtp LIG q	qsum
     1     CG2R61      1    LIG     C1      1      0.140     12.011   ;
     2     CG2R61      1    LIG     C2      2     -0.064     12.011   ;
     3     CG2R61      1    LIG     C3      3     -0.099     12.011   ;
     4     CG2R61      1    LIG     C4      4     -0.067     12.011   ;
     5     CG2R61      1    LIG     C5      5      0.013     12.011   ;
     6     CG2R61      1    LIG     C6      6     -0.127     12.011   ;
     7      CG321      1    LIG     C7      7      0.079     12.011   ;
     8      OG302      1    LIG     O1      8     -0.531     15.999   ;
     9      CG2O2      1    LIG     C8      9      0.776     12.011   ;
    10      OG2D1      1    LIG     O2     10     -0.559     15.999   ;
    11      CG301      1    LIG     C9     11      0.694     12.011   ;
    12      CG321      1    LIG    C10     12     -0.171     12.011   ;
    13     CG2R61      1    LIG    C11     13     -0.054     12.011   ;
    14     CG2R61      1    LIG    C12     14     -0.123     12.011   ;
    15     CG2R61      1    LIG    C13     15     -0.112     12.011   ;
    16     CG2R61      1    LIG    C14     16     -0.116     12.011   ;
    17     CG2R61      1    LIG    C15     17     -0.112     12.011   ;
    18     CG2R61      1    LIG    C16     18     -0.123     12.011   ;
    19      CG321      1    LIG    C17     19     -0.084     12.011   ;
    20      OG311      1    LIG     O3     20     -0.560     15.999   ;
    21       HGP1      1    LIG     H1     21      0.417      1.008   ;
    22      NG3P3      1    LIG     N1     22     -0.586     14.007   ;
    23       HGP2      1    LIG     H2     23      0.348      1.008   ;
    24       HGP2      1    LIG     H3     24      0.348      1.008   ;
    25       HGP2      1    LIG     H4     25      0.348      1.008   ;
    26      CG2O1      1    LIG    C18     26      0.320     12.011   ;
    27      OG2D1      1    LIG     O4     27     -0.463     15.999   ;
    28      NG2S1      1    LIG     N2     28     -0.366     14.007   ;
    29       HGP1      1    LIG     H5     29      0.314      1.008   ;
    30      CG311      1    LIG    C19     30      0.138     12.011   ;
    31      CG331      1    LIG    C20     31     -0.265     12.011   ;
    32     CG2R61      1    LIG    C21     32     -0.081     12.011   ;
    33     CG2R61      1    LIG    C22     33     -0.121     12.011   ;
    34     CG2R61      1    LIG    C23     34     -0.105     12.011   ;
    35     CG2R66      1    LIG    C24     35      0.107     12.011   ;
    36       FGR1      1    LIG      F     36     -0.211     18.998   ;
    37     CG2R61      1    LIG    C25     37     -0.105     12.011   ;
    38     CG2R61      1    LIG    C26     38     -0.121     12.011   ;
    39      NG301      1    LIG     N3     39     -0.228     14.007   ;
    40      CG331      1    LIG    C27     40     -0.103     12.011   ;
    41      SG3O2      1    LIG      S     41      0.397     32.060   ;
    42      OG2P1      1    LIG     O5     42     -0.388     15.999   ;
    43      OG2P1      1    LIG     O6     43     -0.388     15.999   ;
    44      CG331      1    LIG    C28     44      0.036     12.011   ;
    45      HGR61      1    LIG     HC     45      0.116      1.008   ;
    46      HGR61      1    LIG    HC1     46      0.116      1.008   ;
    47      HGR61      1    LIG    HC2     47      0.116      1.008   ;
    48       HGA2      1    LIG    HC3     48      0.090      1.008   ;
    49       HGA2      1    LIG    HC4     49      0.090      1.008   ;
    50       HGA2      1    LIG    HC5     50      0.090      1.008   ;
    51       HGA2      1    LIG    HC6     51      0.090      1.008   ;
    52      HGR61      1    LIG    HC7     52      0.116      1.008   ;
    53      HGR61      1    LIG    HC8     53      0.116      1.008   ;
    54      HGR61      1    LIG    HC9     54      0.116      1.008   ;
    55      HGR61      1    LIG   HC10     55      0.116      1.008   ;
    56      HGR61      1    LIG   HC11     56      0.116      1.008   ;
    57       HGA2      1    LIG   HC12     57      0.090      1.008   ;
    58       HGA2      1    LIG   HC13     58      0.090      1.008   ;
    59       HGA1      1    LIG   HC14     59      0.090      1.008   ;
    60      HGR61      1    LIG   HC15     60      0.116      1.008   ;
    61      HGR62      1    LIG   HC16     61      0.179      1.008   ;
    62      HGR62      1    LIG   HC17     62      0.179      1.008   ;
    63      HGR61      1    LIG   HC18     63      0.116      1.008   ;
    64       HGA3      1    LIG   HC19     64      0.090      1.008   ;
    65       HGA3      1    LIG   HC20     65      0.090      1.008   ;
    66       HGA3      1    LIG   HC21     66      0.090      1.008   ;
    67       HGA3      1    LIG   HC22     67      0.090      1.008   ;
    68       HGA3      1    LIG   HC23     68      0.090      1.008   ;
    69       HGA3      1    LIG   HC24     69      0.090      1.008   ;
    70       HGA3      1    LIG   HC25     70      0.090      1.008   ;
    71       HGA3      1    LIG   HC26     71      0.090      1.008   ;
    72       HGA3      1    LIG   HC27     72      0.090      1.008   ;

[ bonds ]
;	ai	  aj funct			  c0			c1			  c2			c3
    1     2	 1 ;      CG2R61     CG2R61
    1    39	 1 ;      CG2R61      NG301
    1     6	 1 ;      CG2R61     CG2R61
    2     3	 1 ;      CG2R61     CG2R61
    2    45	 1 ;      CG2R61      HGR61
    3    26	 1 ;      CG2R61      CG2O1
    3     4	 1 ;      CG2R61     CG2R61
    4     5	 1 ;      CG2R61     CG2R61
    4    46	 1 ;      CG2R61      HGR61
    5     6	 1 ;      CG2R61     CG2R61
    5     7	 1 ;      CG2R61      CG321
    6    47	 1 ;      CG2R61      HGR61
    7     8	 1 ;       CG321      OG302
    7    48	 1 ;       CG321       HGA2
    7    49	 1 ;       CG321       HGA2
    8     9	 1 ;       OG302      CG2O2
    9    10	 1 ;       CG2O2      OG2D1
    9    11	 1 ;       CG2O2      CG301
   11    12	 1 ;       CG301      CG321
   11    19	 1 ;       CG301      CG321
   11    22	 1 ;       CG301      NG3P3
   12    13	 1 ;       CG321     CG2R61
   12    50	 1 ;       CG321       HGA2
   12    51	 1 ;       CG321       HGA2
   13    14	 1 ;      CG2R61     CG2R61
   13    18	 1 ;      CG2R61     CG2R61
   14    15	 1 ;      CG2R61     CG2R61
   14    52	 1 ;      CG2R61      HGR61
   15    16	 1 ;      CG2R61     CG2R61
   15    53	 1 ;      CG2R61      HGR61
   16    17	 1 ;      CG2R61     CG2R61
   16    54	 1 ;      CG2R61      HGR61
   17    18	 1 ;      CG2R61     CG2R61
   17    55	 1 ;      CG2R61      HGR61
   18    56	 1 ;      CG2R61      HGR61
   19    20	 1 ;       CG321      OG311
   19    57	 1 ;       CG321       HGA2
   19    58	 1 ;       CG321       HGA2
   20    21	 1 ;       OG311       HGP1
   22    24	 1 ;       NG3P3       HGP2
   22    23	 1 ;       NG3P3       HGP2
   22    25	 1 ;       NG3P3       HGP2
   26    28	 1 ;       CG2O1      NG2S1
   26    27	 1 ;       CG2O1      OG2D1
   28    30	 1 ;       NG2S1      CG311
   28    29	 1 ;       NG2S1       HGP1
   30    31	 1 ;       CG311      CG331
   30    32	 1 ;       CG311     CG2R61
   30    59	 1 ;       CG311       HGA1
   31    70	 1 ;       CG331       HGA3
   31    71	 1 ;       CG331       HGA3
   31    72	 1 ;       CG331       HGA3
   32    33	 1 ;      CG2R61     CG2R61
   32    38	 1 ;      CG2R61     CG2R61
   33    34	 1 ;      CG2R61     CG2R61
   33    60	 1 ;      CG2R61      HGR61
   34    35	 1 ;      CG2R61     CG2R66
   34    61	 1 ;      CG2R61      HGR62
   35    37	 1 ;      CG2R66     CG2R61
   35    36	 1 ;      CG2R66       FGR1
   37    38	 1 ;      CG2R61     CG2R61
   37    62	 1 ;      CG2R61      HGR62
   38    63	 1 ;      CG2R61      HGR61
   39    40	 1 ;       NG301      CG331
   39    41	 1 ;       NG301      SG3O2
   40    64	 1 ;       CG331       HGA3
   40    65	 1 ;       CG331       HGA3
   40    66	 1 ;       CG331       HGA3
   41    43	 1 ;       SG3O2      OG2P1
   41    44	 1 ;       SG3O2      CG331
   41    42	 1 ;       SG3O2      OG2P1
   44    67	 1 ;       CG331       HGA3
   44    68	 1 ;       CG331       HGA3
   44    69	 1 ;       CG331       HGA3

[ pairs ]
;	ai	  aj funct			  c0			c1			  c2			c3
    1    26	 1
    1     4	 1
    1     7	 1
    1    64	 1
    1    65	 1
    1    66	 1
    1    43	 1
    1    44	 1
    1    42	 1
    2    40	 1
    2    41	 1
    2     5	 1
    2    47	 1
    2    28	 1
    2    27	 1
    2    46	 1
    3    39	 1
    3     6	 1
    3     7	 1
    3    30	 1
    3    29	 1
    4    45	 1
    4    28	 1
    4    27	 1
    4    47	 1
    4     8	 1
    4    48	 1
    4    49	 1
    5    39	 1
    5    26	 1
    5     9	 1
    6    45	 1
    6    40	 1
    6    41	 1
    6    46	 1
    6     8	 1
    6    48	 1
    6    49	 1
    7    46	 1
    7    47	 1
    7    10	 1
    7    11	 1
    8    12	 1
    8    19	 1
    8    22	 1
    9    48	 1
    9    49	 1
    9    13	 1
    9    50	 1
    9    51	 1
    9    20	 1
    9    57	 1
    9    58	 1
    9    24	 1
    9    23	 1
    9    25	 1
   10    12	 1
   10    19	 1
   10    22	 1
   11    14	 1
   11    18	 1
   11    21	 1
   12    20	 1
   12    57	 1
   12    58	 1
   12    24	 1
   12    23	 1
   12    25	 1
   12    15	 1
   12    52	 1
   12    17	 1
   12    56	 1
   13    19	 1
   13    22	 1
   13    16	 1
   13    53	 1
   13    55	 1
   14    50	 1
   14    51	 1
   14    17	 1
   14    56	 1
   14    54	 1
   15    18	 1
   15    55	 1
   16    52	 1
   16    56	 1
   17    53	 1
   18    50	 1
   18    51	 1
   18    52	 1
   18    54	 1
   19    50	 1
   19    51	 1
   19    24	 1
   19    23	 1
   19    25	 1
   20    22	 1
   21    57	 1
   21    58	 1
   22    50	 1
   22    51	 1
   22    57	 1
   22    58	 1
   26    45	 1
   26    46	 1
   26    31	 1
   26    32	 1
   26    59	 1
   27    30	 1
   27    29	 1
   28    70	 1
   28    71	 1
   28    72	 1
   28    33	 1
   28    38	 1
   29    31	 1
   29    32	 1
   29    59	 1
   30    34	 1
   30    60	 1
   30    37	 1
   30    63	 1
   31    33	 1
   31    38	 1
   32    70	 1
   32    71	 1
   32    72	 1
   32    35	 1
   32    61	 1
   32    62	 1
   33    59	 1
   33    37	 1
   33    63	 1
   33    36	 1
   34    38	 1
   34    62	 1
   35    60	 1
   35    63	 1
   36    61	 1
   36    38	 1
   36    62	 1
   37    61	 1
   38    59	 1
   38    60	 1
   39    45	 1
   39    47	 1
   39    67	 1
   39    68	 1
   39    69	 1
   40    43	 1
   40    44	 1
   40    42	 1
   41    64	 1
   41    65	 1
   41    66	 1
   42    67	 1
   42    68	 1
   42    69	 1
   43    67	 1
   43    68	 1
   43    69	 1
   52    53	 1
   53    54	 1
   54    55	 1
   55    56	 1
   59    70	 1
   59    71	 1
   59    72	 1
   60    61	 1
   62    63	 1

[ angles ]
;	ai	  aj	ak funct			c0			  c1			c2			  c3
    2     1    39	5 ;     CG2R61     CG2R61      NG301
    2     1     6	5 ;     CG2R61     CG2R61     CG2R61
   39     1     6	5 ;      NG301     CG2R61     CG2R61
    3     2     1	5 ;     CG2R61     CG2R61     CG2R61
    3     2    45	5 ;     CG2R61     CG2R61      HGR61
    1     2    45	5 ;     CG2R61     CG2R61      HGR61
   26     3     2	5 ;      CG2O1     CG2R61     CG2R61
   26     3     4	5 ;      CG2O1     CG2R61     CG2R61
    2     3     4	5 ;     CG2R61     CG2R61     CG2R61
    3     4     5	5 ;     CG2R61     CG2R61     CG2R61
    3     4    46	5 ;     CG2R61     CG2R61      HGR61
    5     4    46	5 ;     CG2R61     CG2R61      HGR61
    4     5     6	5 ;     CG2R61     CG2R61     CG2R61
    4     5     7	5 ;     CG2R61     CG2R61      CG321
    6     5     7	5 ;     CG2R61     CG2R61      CG321
    1     6     5	5 ;     CG2R61     CG2R61     CG2R61
    1     6    47	5 ;     CG2R61     CG2R61      HGR61
    5     6    47	5 ;     CG2R61     CG2R61      HGR61
    5     7     8	5 ;     CG2R61      CG321      OG302
    5     7    48	5 ;     CG2R61      CG321       HGA2
    5     7    49	5 ;     CG2R61      CG321       HGA2
    8     7    48	5 ;      OG302      CG321       HGA2
    8     7    49	5 ;      OG302      CG321       HGA2
   48     7    49	5 ;       HGA2      CG321       HGA2
    7     8     9	5 ;      CG321      OG302      CG2O2
    8     9    10	5 ;      OG302      CG2O2      OG2D1
    8     9    11	5 ;      OG302      CG2O2      CG301
   10     9    11	5 ;      OG2D1      CG2O2      CG301
    9    11    12	5 ;      CG2O2      CG301      CG321
    9    11    19	5 ;      CG2O2      CG301      CG321
    9    11    22	5 ;      CG2O2      CG301      NG3P3
   12    11    19	5 ;      CG321      CG301      CG321
   12    11    22	5 ;      CG321      CG301      NG3P3
   19    11    22	5 ;      CG321      CG301      NG3P3
   11    12    13	5 ;      CG301      CG321     CG2R61
   11    12    50	5 ;      CG301      CG321       HGA2
   11    12    51	5 ;      CG301      CG321       HGA2
   13    12    50	5 ;     CG2R61      CG321       HGA2
   13    12    51	5 ;     CG2R61      CG321       HGA2
   50    12    51	5 ;       HGA2      CG321       HGA2
   12    13    14	5 ;      CG321     CG2R61     CG2R61
   12    13    18	5 ;      CG321     CG2R61     CG2R61
   14    13    18	5 ;     CG2R61     CG2R61     CG2R61
   13    14    15	5 ;     CG2R61     CG2R61     CG2R61
   13    14    52	5 ;     CG2R61     CG2R61      HGR61
   15    14    52	5 ;     CG2R61     CG2R61      HGR61
   14    15    16	5 ;     CG2R61     CG2R61     CG2R61
   14    15    53	5 ;     CG2R61     CG2R61      HGR61
   16    15    53	5 ;     CG2R61     CG2R61      HGR61
   15    16    17	5 ;     CG2R61     CG2R61     CG2R61
   15    16    54	5 ;     CG2R61     CG2R61      HGR61
   17    16    54	5 ;     CG2R61     CG2R61      HGR61
   18    17    16	5 ;     CG2R61     CG2R61     CG2R61
   18    17    55	5 ;     CG2R61     CG2R61      HGR61
   16    17    55	5 ;     CG2R61     CG2R61      HGR61
   13    18    17	5 ;     CG2R61     CG2R61     CG2R61
   13    18    56	5 ;     CG2R61     CG2R61      HGR61
   17    18    56	5 ;     CG2R61     CG2R61      HGR61
   20    19    11	5 ;      OG311      CG321      CG301
   20    19    57	5 ;      OG311      CG321       HGA2
   20    19    58	5 ;      OG311      CG321       HGA2
   11    19    57	5 ;      CG301      CG321       HGA2
   11    19    58	5 ;      CG301      CG321       HGA2
   57    19    58	5 ;       HGA2      CG321       HGA2
   21    20    19	5 ;       HGP1      OG311      CG321
   11    22    24	5 ;      CG301      NG3P3       HGP2
   11    22    23	5 ;      CG301      NG3P3       HGP2
   11    22    25	5 ;      CG301      NG3P3       HGP2
   24    22    23	5 ;       HGP2      NG3P3       HGP2
   24    22    25	5 ;       HGP2      NG3P3       HGP2
   23    22    25	5 ;       HGP2      NG3P3       HGP2
   28    26    27	5 ;      NG2S1      CG2O1      OG2D1
   28    26     3	5 ;      NG2S1      CG2O1     CG2R61
   27    26     3	5 ;      OG2D1      CG2O1     CG2R61
   30    28    29	5 ;      CG311      NG2S1       HGP1
   30    28    26	5 ;      CG311      NG2S1      CG2O1
   29    28    26	5 ;       HGP1      NG2S1      CG2O1
   31    30    32	5 ;      CG331      CG311     CG2R61
   31    30    28	5 ;      CG331      CG311      NG2S1
   31    30    59	5 ;      CG331      CG311       HGA1
   32    30    28	5 ;     CG2R61      CG311      NG2S1
   32    30    59	5 ;     CG2R61      CG311       HGA1
   28    30    59	5 ;      NG2S1      CG311       HGA1
   30    31    70	5 ;      CG311      CG331       HGA3
   30    31    71	5 ;      CG311      CG331       HGA3
   30    31    72	5 ;      CG311      CG331       HGA3
   70    31    71	5 ;       HGA3      CG331       HGA3
   70    31    72	5 ;       HGA3      CG331       HGA3
   71    31    72	5 ;       HGA3      CG331       HGA3
   30    32    33	5 ;      CG311     CG2R61     CG2R61
   30    32    38	5 ;      CG311     CG2R61     CG2R61
   33    32    38	5 ;     CG2R61     CG2R61     CG2R61
   32    33    34	5 ;     CG2R61     CG2R61     CG2R61
   32    33    60	5 ;     CG2R61     CG2R61      HGR61
   34    33    60	5 ;     CG2R61     CG2R61      HGR61
   33    34    35	5 ;     CG2R61     CG2R61     CG2R66
   33    34    61	5 ;     CG2R61     CG2R61      HGR62
   35    34    61	5 ;     CG2R66     CG2R61      HGR62
   34    35    37	5 ;     CG2R61     CG2R66     CG2R61
   34    35    36	5 ;     CG2R61     CG2R66       FGR1
   37    35    36	5 ;     CG2R61     CG2R66       FGR1
   38    37    35	5 ;     CG2R61     CG2R61     CG2R66
   38    37    62	5 ;     CG2R61     CG2R61      HGR62
   35    37    62	5 ;     CG2R66     CG2R61      HGR62
   32    38    37	5 ;     CG2R61     CG2R61     CG2R61
   32    38    63	5 ;     CG2R61     CG2R61      HGR61
   37    38    63	5 ;     CG2R61     CG2R61      HGR61
   40    39    41	5 ;      CG331      NG301      SG3O2
   40    39     1	5 ;      CG331      NG301     CG2R61
   41    39     1	5 ;      SG3O2      NG301     CG2R61
   39    40    64	5 ;      NG301      CG331       HGA3
   39    40    65	5 ;      NG301      CG331       HGA3
   39    40    66	5 ;      NG301      CG331       HGA3
   64    40    65	5 ;       HGA3      CG331       HGA3
   64    40    66	5 ;       HGA3      CG331       HGA3
   65    40    66	5 ;       HGA3      CG331       HGA3
   43    41    44	5 ;      OG2P1      SG3O2      CG331
   43    41    39	5 ;      OG2P1      SG3O2      NG301
   43    41    42	5 ;      OG2P1      SG3O2      OG2P1
   44    41    39	5 ;      CG331      SG3O2      NG301
   44    41    42	5 ;      CG331      SG3O2      OG2P1
   39    41    42	5 ;      NG301      SG3O2      OG2P1
   41    44    67	5 ;      SG3O2      CG331       HGA3
   41    44    68	5 ;      SG3O2      CG331       HGA3
   41    44    69	5 ;      SG3O2      CG331       HGA3
   67    44    68	5 ;       HGA3      CG331       HGA3
   67    44    69	5 ;       HGA3      CG331       HGA3
   68    44    69	5 ;       HGA3      CG331       HGA3

[ dihedrals ]
;	ai	  aj	ak	  al funct			  c0			c1			  c2			c3			  c4			c5
   39     1     2     3	 9 ;      NG301     CG2R61     CG2R61     CG2R61
   39     1     2    45	 9 ;      NG301     CG2R61     CG2R61      HGR61
    6     1     2     3	 9 ;     CG2R61     CG2R61     CG2R61     CG2R61
    6     1     2    45	 9 ;     CG2R61     CG2R61     CG2R61      HGR61
    2     1    39    40	 9 ;     CG2R61     CG2R61      NG301      CG331
    2     1    39    41	 9 ;     CG2R61     CG2R61      NG301      SG3O2
    6     1    39    40	 9 ;     CG2R61     CG2R61      NG301      CG331
    6     1    39    41	 9 ;     CG2R61     CG2R61      NG301      SG3O2
    2     1     6     5	 9 ;     CG2R61     CG2R61     CG2R61     CG2R61
    2     1     6    47	 9 ;     CG2R61     CG2R61     CG2R61      HGR61
   39     1     6     5	 9 ;      NG301     CG2R61     CG2R61     CG2R61
   39     1     6    47	 9 ;      NG301     CG2R61     CG2R61      HGR61
    1     2     3    26	 9 ;     CG2R61     CG2R61     CG2R61      CG2O1
    1     2     3     4	 9 ;     CG2R61     CG2R61     CG2R61     CG2R61
   45     2     3    26	 9 ;      HGR61     CG2R61     CG2R61      CG2O1
   45     2     3     4	 9 ;      HGR61     CG2R61     CG2R61     CG2R61
    2     3    26    28	 9 ;     CG2R61     CG2R61      CG2O1      NG2S1
    2     3    26    27	 9 ;     CG2R61     CG2R61      CG2O1      OG2D1
    4     3    26    28	 9 ;     CG2R61     CG2R61      CG2O1      NG2S1
    4     3    26    27	 9 ;     CG2R61     CG2R61      CG2O1      OG2D1
   26     3     4     5	 9 ;      CG2O1     CG2R61     CG2R61     CG2R61
   26     3     4    46	 9 ;      CG2O1     CG2R61     CG2R61      HGR61
    2     3     4     5	 9 ;     CG2R61     CG2R61     CG2R61     CG2R61
    2     3     4    46	 9 ;     CG2R61     CG2R61     CG2R61      HGR61
    3     4     5     6	 9 ;     CG2R61     CG2R61     CG2R61     CG2R61
    3     4     5     7	 9 ;     CG2R61     CG2R61     CG2R61      CG321
   46     4     5     6	 9 ;      HGR61     CG2R61     CG2R61     CG2R61
   46     4     5     7	 9 ;      HGR61     CG2R61     CG2R61      CG321
    4     5     6     1	 9 ;     CG2R61     CG2R61     CG2R61     CG2R61
    4     5     6    47	 9 ;     CG2R61     CG2R61     CG2R61      HGR61
    7     5     6     1	 9 ;      CG321     CG2R61     CG2R61     CG2R61
    7     5     6    47	 9 ;      CG321     CG2R61     CG2R61      HGR61
    4     5     7     8	 9 ;     CG2R61     CG2R61      CG321      OG302
    4     5     7    48	 9 ;     CG2R61     CG2R61      CG321       HGA2
    4     5     7    49	 9 ;     CG2R61     CG2R61      CG321       HGA2
    6     5     7     8	 9 ;     CG2R61     CG2R61      CG321      OG302
    6     5     7    48	 9 ;     CG2R61     CG2R61      CG321       HGA2
    6     5     7    49	 9 ;     CG2R61     CG2R61      CG321       HGA2
    5     7     8     9	 9 ;     CG2R61      CG321      OG302      CG2O2
   48     7     8     9	 9 ;       HGA2      CG321      OG302      CG2O2
   49     7     8     9	 9 ;       HGA2      CG321      OG302      CG2O2
    7     8     9    10	 9 ;      CG321      OG302      CG2O2      OG2D1
    7     8     9    11	 9 ;      CG321      OG302      CG2O2      CG301
    8     9    11    12	 9 ;      OG302      CG2O2      CG301      CG321
    8     9    11    19	 9 ;      OG302      CG2O2      CG301      CG321
    8     9    11    22	 9 ;      OG302      CG2O2      CG301      NG3P3
   10     9    11    12	 9 ;      OG2D1      CG2O2      CG301      CG321
   10     9    11    19	 9 ;      OG2D1      CG2O2      CG301      CG321
   10     9    11    22	 9 ;      OG2D1      CG2O2      CG301      NG3P3
    9    11    12    13	 9 ;      CG2O2      CG301      CG321     CG2R61
    9    11    12    50	 9 ;      CG2O2      CG301      CG321       HGA2
    9    11    12    51	 9 ;      CG2O2      CG301      CG321       HGA2
   19    11    12    13	 9 ;      CG321      CG301      CG321     CG2R61
   19    11    12    50	 9 ;      CG321      CG301      CG321       HGA2
   19    11    12    51	 9 ;      CG321      CG301      CG321       HGA2
   22    11    12    13	 9 ;      NG3P3      CG301      CG321     CG2R61
   22    11    12    50	 9 ;      NG3P3      CG301      CG321       HGA2
   22    11    12    51	 9 ;      NG3P3      CG301      CG321       HGA2
    9    11    19    20	 9 ;      CG2O2      CG301      CG321      OG311
    9    11    19    57	 9 ;      CG2O2      CG301      CG321       HGA2
    9    11    19    58	 9 ;      CG2O2      CG301      CG321       HGA2
   12    11    19    20	 9 ;      CG321      CG301      CG321      OG311
   12    11    19    57	 9 ;      CG321      CG301      CG321       HGA2
   12    11    19    58	 9 ;      CG321      CG301      CG321       HGA2
   22    11    19    20	 9 ;      NG3P3      CG301      CG321      OG311
   22    11    19    57	 9 ;      NG3P3      CG301      CG321       HGA2
   22    11    19    58	 9 ;      NG3P3      CG301      CG321       HGA2
    9    11    22    24	 9 ;      CG2O2      CG301      NG3P3       HGP2
    9    11    22    23	 9 ;      CG2O2      CG301      NG3P3       HGP2
    9    11    22    25	 9 ;      CG2O2      CG301      NG3P3       HGP2
   12    11    22    24	 9 ;      CG321      CG301      NG3P3       HGP2
   12    11    22    23	 9 ;      CG321      CG301      NG3P3       HGP2
   12    11    22    25	 9 ;      CG321      CG301      NG3P3       HGP2
   19    11    22    24	 9 ;      CG321      CG301      NG3P3       HGP2
   19    11    22    23	 9 ;      CG321      CG301      NG3P3       HGP2
   19    11    22    25	 9 ;      CG321      CG301      NG3P3       HGP2
   11    12    13    14	 9 ;      CG301      CG321     CG2R61     CG2R61
   11    12    13    18	 9 ;      CG301      CG321     CG2R61     CG2R61
   50    12    13    14	 9 ;       HGA2      CG321     CG2R61     CG2R61
   50    12    13    18	 9 ;       HGA2      CG321     CG2R61     CG2R61
   51    12    13    14	 9 ;       HGA2      CG321     CG2R61     CG2R61
   51    12    13    18	 9 ;       HGA2      CG321     CG2R61     CG2R61
   12    13    14    15	 9 ;      CG321     CG2R61     CG2R61     CG2R61
   12    13    14    52	 9 ;      CG321     CG2R61     CG2R61      HGR61
   18    13    14    15	 9 ;     CG2R61     CG2R61     CG2R61     CG2R61
   18    13    14    52	 9 ;     CG2R61     CG2R61     CG2R61      HGR61
   12    13    18    17	 9 ;      CG321     CG2R61     CG2R61     CG2R61
   12    13    18    56	 9 ;      CG321     CG2R61     CG2R61      HGR61
   14    13    18    17	 9 ;     CG2R61     CG2R61     CG2R61     CG2R61
   14    13    18    56	 9 ;     CG2R61     CG2R61     CG2R61      HGR61
   13    14    15    16	 9 ;     CG2R61     CG2R61     CG2R61     CG2R61
   13    14    15    53	 9 ;     CG2R61     CG2R61     CG2R61      HGR61
   52    14    15    16	 9 ;      HGR61     CG2R61     CG2R61     CG2R61
   52    14    15    53	 9 ;      HGR61     CG2R61     CG2R61      HGR61
   14    15    16    17	 9 ;     CG2R61     CG2R61     CG2R61     CG2R61
   14    15    16    54	 9 ;     CG2R61     CG2R61     CG2R61      HGR61
   53    15    16    17	 9 ;      HGR61     CG2R61     CG2R61     CG2R61
   53    15    16    54	 9 ;      HGR61     CG2R61     CG2R61      HGR61
   15    16    17    18	 9 ;     CG2R61     CG2R61     CG2R61     CG2R61
   15    16    17    55	 9 ;     CG2R61     CG2R61     CG2R61      HGR61
   54    16    17    18	 9 ;      HGR61     CG2R61     CG2R61     CG2R61
   54    16    17    55	 9 ;      HGR61     CG2R61     CG2R61      HGR61
   16    17    18    13	 9 ;     CG2R61     CG2R61     CG2R61     CG2R61
   16    17    18    56	 9 ;     CG2R61     CG2R61     CG2R61      HGR61
   55    17    18    13	 9 ;      HGR61     CG2R61     CG2R61     CG2R61
   55    17    18    56	 9 ;      HGR61     CG2R61     CG2R61      HGR61
   11    19    20    21	 9 ;      CG301      CG321      OG311       HGP1
   57    19    20    21	 9 ;       HGA2      CG321      OG311       HGP1
   58    19    20    21	 9 ;       HGA2      CG321      OG311       HGP1
   27    26    28    30	 9 ;      OG2D1      CG2O1      NG2S1      CG311
   27    26    28    29	 9 ;      OG2D1      CG2O1      NG2S1       HGP1
    3    26    28    30	 9 ;     CG2R61      CG2O1      NG2S1      CG311
    3    26    28    29	 9 ;     CG2R61      CG2O1      NG2S1       HGP1
   29    28    30    31	 9 ;       HGP1      NG2S1      CG311      CG331
   29    28    30    32	 9 ;       HGP1      NG2S1      CG311     CG2R61
   29    28    30    59	 9 ;       HGP1      NG2S1      CG311       HGA1
   26    28    30    31	 9 ;      CG2O1      NG2S1      CG311      CG331
   26    28    30    32	 9 ;      CG2O1      NG2S1      CG311     CG2R61
   26    28    30    59	 9 ;      CG2O1      NG2S1      CG311       HGA1
   32    30    31    70	 9 ;     CG2R61      CG311      CG331       HGA3
   32    30    31    71	 9 ;     CG2R61      CG311      CG331       HGA3
   32    30    31    72	 9 ;     CG2R61      CG311      CG331       HGA3
   28    30    31    70	 9 ;      NG2S1      CG311      CG331       HGA3
   28    30    31    71	 9 ;      NG2S1      CG311      CG331       HGA3
   28    30    31    72	 9 ;      NG2S1      CG311      CG331       HGA3
   59    30    31    70	 9 ;       HGA1      CG311      CG331       HGA3
   59    30    31    71	 9 ;       HGA1      CG311      CG331       HGA3
   59    30    31    72	 9 ;       HGA1      CG311      CG331       HGA3
   31    30    32    33	 9 ;      CG331      CG311     CG2R61     CG2R61
   31    30    32    38	 9 ;      CG331      CG311     CG2R61     CG2R61
   28    30    32    33	 9 ;      NG2S1      CG311     CG2R61     CG2R61
   28    30    32    38	 9 ;      NG2S1      CG311     CG2R61     CG2R61
   59    30    32    33	 9 ;       HGA1      CG311     CG2R61     CG2R61
   59    30    32    38	 9 ;       HGA1      CG311     CG2R61     CG2R61
   30    32    33    34	 9 ;      CG311     CG2R61     CG2R61     CG2R61
   30    32    33    60	 9 ;      CG311     CG2R61     CG2R61      HGR61
   38    32    33    34	 9 ;     CG2R61     CG2R61     CG2R61     CG2R61
   38    32    33    60	 9 ;     CG2R61     CG2R61     CG2R61      HGR61
   30    32    38    37	 9 ;      CG311     CG2R61     CG2R61     CG2R61
   30    32    38    63	 9 ;      CG311     CG2R61     CG2R61      HGR61
   33    32    38    37	 9 ;     CG2R61     CG2R61     CG2R61     CG2R61
   33    32    38    63	 9 ;     CG2R61     CG2R61     CG2R61      HGR61
   32    33    34    35	 9 ;     CG2R61     CG2R61     CG2R61     CG2R66
   32    33    34    61	 9 ;     CG2R61     CG2R61     CG2R61      HGR62
   60    33    34    35	 9 ;      HGR61     CG2R61     CG2R61     CG2R66
   60    33    34    61	 9 ;      HGR61     CG2R61     CG2R61      HGR62
   33    34    35    37	 9 ;     CG2R61     CG2R61     CG2R66     CG2R61
   33    34    35    36	 9 ;     CG2R61     CG2R61     CG2R66       FGR1
   61    34    35    37	 9 ;      HGR62     CG2R61     CG2R66     CG2R61
   61    34    35    36	 9 ;      HGR62     CG2R61     CG2R66       FGR1
   34    35    37    38	 9 ;     CG2R61     CG2R66     CG2R61     CG2R61
   34    35    37    62	 9 ;     CG2R61     CG2R66     CG2R61      HGR62
   36    35    37    38	 9 ;       FGR1     CG2R66     CG2R61     CG2R61
   36    35    37    62	 9 ;       FGR1     CG2R66     CG2R61      HGR62
   35    37    38    32	 9 ;     CG2R66     CG2R61     CG2R61     CG2R61
   35    37    38    63	 9 ;     CG2R66     CG2R61     CG2R61      HGR61
   62    37    38    32	 9 ;      HGR62     CG2R61     CG2R61     CG2R61
   62    37    38    63	 9 ;      HGR62     CG2R61     CG2R61      HGR61
   41    39    40    64	 9 ;      SG3O2      NG301      CG331       HGA3
   41    39    40    65	 9 ;      SG3O2      NG301      CG331       HGA3
   41    39    40    66	 9 ;      SG3O2      NG301      CG331       HGA3
    1    39    40    64	 9 ;     CG2R61      NG301      CG331       HGA3
    1    39    40    65	 9 ;     CG2R61      NG301      CG331       HGA3
    1    39    40    66	 9 ;     CG2R61      NG301      CG331       HGA3
   40    39    41    43	 9 ;      CG331      NG301      SG3O2      OG2P1
   40    39    41    44	 9 ;      CG331      NG301      SG3O2      CG331
   40    39    41    42	 9 ;      CG331      NG301      SG3O2      OG2P1
    1    39    41    43	 9 ;     CG2R61      NG301      SG3O2      OG2P1
    1    39    41    44	 9 ;     CG2R61      NG301      SG3O2      CG331
    1    39    41    42	 9 ;     CG2R61      NG301      SG3O2      OG2P1
   43    41    44    67	 9 ;      OG2P1      SG3O2      CG331       HGA3
   43    41    44    68	 9 ;      OG2P1      SG3O2      CG331       HGA3
   43    41    44    69	 9 ;      OG2P1      SG3O2      CG331       HGA3
   39    41    44    67	 9 ;      NG301      SG3O2      CG331       HGA3
   39    41    44    68	 9 ;      NG301      SG3O2      CG331       HGA3
   39    41    44    69	 9 ;      NG301      SG3O2      CG331       HGA3
   42    41    44    67	 9 ;      OG2P1      SG3O2      CG331       HGA3
   42    41    44    68	 9 ;      OG2P1      SG3O2      CG331       HGA3
   42    41    44    69	 9 ;      OG2P1      SG3O2      CG331       HGA3

[ dihedrals ]
;	ai	  aj	ak	  al funct			  c0			c1			  c2			c3
    9    11    10     8	 2
   26     3    28    27	 2

