Great Red Oystrich Makes All Chemists Sane
   72
    1LIG     C1    1  -1.655   0.685  -1.555
    1LIG     C2    2  -1.589   0.569  -1.597
    1LIG     C3    3  -1.608   0.449  -1.527
    1LIG     C4    4  -1.700   0.444  -1.421
    1LIG     C5    5  -1.770   0.559  -1.382
    1LIG     C6    6  -1.748   0.679  -1.452
    1LIG     C7    7  -1.864   0.554  -1.265
    1LIG     O1    8  -1.983   0.486  -1.305
    1LIG     C8    9  -2.099   0.552  -1.282
    1LIG     O2   10  -2.108   0.668  -1.243
    1LIG     C9   11  -2.219   0.458  -1.299
    1LIG    C10   12  -2.181   0.309  -1.280
    1LIG    C11   13  -2.216   0.244  -1.148
    1LIG    C12   14  -2.294   0.127  -1.146
    1LIG    C13   15  -2.313   0.058  -1.026
    1LIG    C14   16  -2.257   0.105  -0.908
    1LIG    C15   17  -2.183   0.223  -0.909
    1LIG    C16   18  -2.163   0.293  -1.028
    1LIG    C17   19  -2.286   0.485  -1.435
    1LIG     O3   20  -2.191   0.552  -1.519
    1LIG     H1   21  -2.154   0.484  -1.580
    1LIG     N1   22  -2.328   0.488  -1.194
    1LIG     H2   23  -2.329   0.418  -1.118
    1LIG     H3   24  -2.307   0.580  -1.152
    1LIG     H4   25  -2.422   0.490  -1.235
    1LIG    C18   26  -1.530   0.326  -1.557
    1LIG     O4   27  -1.591   0.223  -1.584
    1LIG     N2   28  -1.393   0.336  -1.545
    1LIG     H5   29  -1.352   0.421  -1.509
    1LIG    C19   30  -1.305   0.219  -1.553
    1LIG    C20   31  -1.168   0.259  -1.610
    1LIG    C21   32  -1.295   0.150  -1.417
    1LIG    C22   33  -1.295   0.010  -1.412
    1LIG    C23   34  -1.280  -0.058  -1.290
    1LIG    C24   35  -1.266   0.015  -1.173
    1LIG      F   36  -1.250  -0.049  -1.056
    1LIG    C25   37  -1.268   0.154  -1.174
    1LIG    C26   38  -1.284   0.221  -1.296
    1LIG     N3   39  -1.625   0.814  -1.612
    1LIG    C27   40  -1.481   0.843  -1.629
    1LIG      S   41  -1.729   0.864  -1.739
    1LIG     O5   42  -1.861   0.883  -1.683
    1LIG     O6   43  -1.707   0.775  -1.850
    1LIG    C28   44  -1.664   1.026  -1.779
    1LIG     HC   45  -1.524   0.572  -1.684
    1LIG    HC1   46  -1.717   0.351  -1.370
    1LIG    HC2   47  -1.804   0.767  -1.425
    1LIG    HC3   48  -1.888   0.655  -1.233
    1LIG    HC4   49  -1.816   0.500  -1.183
    1LIG    HC5   50  -2.231   0.252  -1.358
    1LIG    HC6   51  -2.074   0.299  -1.295
    1LIG    HC7   52  -2.338   0.091  -1.237
    1LIG    HC8   53  -2.372  -0.032  -1.025
    1LIG    HC9   54  -2.271   0.051  -0.816
    1LIG   HC10   55  -2.141   0.261  -0.816
    1LIG   HC11   56  -2.105   0.384  -1.028
    1LIG   HC12   57  -2.373   0.549  -1.421
    1LIG   HC13   58  -2.316   0.391  -1.481
    1LIG   HC14   59  -1.350   0.149  -1.622
    1LIG   HC15   60  -1.307  -0.047  -1.503
    1LIG   HC16   61  -1.279  -0.165  -1.288
    1LIG   HC17   62  -1.258   0.210  -1.082
    1LIG   HC18   63  -1.288   0.329  -1.297
    1LIG   HC19   64  -1.422   0.772  -1.571
    1LIG   HC20   65  -1.460   0.944  -1.594
    1LIG   HC21   66  -1.454   0.835  -1.735
    1LIG   HC22   67  -1.739   1.083  -1.833
    1LIG   HC23   68  -1.637   1.078  -1.687
    1LIG   HC24   69  -1.575   1.015  -1.841
    1LIG   HC25   70  -1.104   0.171  -1.615
    1LIG   HC26   71  -1.122   0.333  -1.545
    1LIG   HC27   72  -1.181   0.301  -1.710
   0.00000   0.00000   0.00000
