S  C  A  M  O  R  G
   39
    1LIG      O    1  -1.178   0.360  -1.747
    1LIG     C1    2  -1.197   0.410  -1.636
    1LIG     N1    3  -1.174   0.540  -1.605
    1LIG     C2    4  -1.143   0.642  -1.702
    1LIG     C3    5  -1.192   0.556  -1.473
    1LIG     N2    6  -1.232   0.453  -1.406
    1LIG     HN    7  -1.245   0.446  -1.306
    1LIG     C4    8  -1.254   0.343  -1.509
    1LIG     C5    9  -1.405   0.316  -1.525
    1LIG     C6   10  -1.455   0.231  -1.626
    1LIG     C7   11  -1.592   0.205  -1.637
    1LIG     C8   12  -1.681   0.260  -1.546
    1LIG     C9   13  -1.634   0.343  -1.445
    1LIG    C10   14  -1.498   0.370  -1.434
    1LIG    C11   15  -1.182   0.214  -1.467
    1LIG    C12   16  -1.148   0.117  -1.563
    1LIG    C13   17  -1.074   0.003  -1.529
    1LIG    C14   18  -1.033  -0.016  -1.398
    1LIG    C15   19  -1.064   0.079  -1.301
    1LIG    C16   20  -1.137   0.193  -1.335
    1LIG     N3   21  -1.165   0.674  -1.411
    1LIG     H1   22  -1.234   0.696  -1.339
    1LIG     H2   23  -1.070   0.689  -1.380
    1LIG    HC1   24  -1.135   0.597  -1.801
    1LIG    HC2   25  -1.222   0.717  -1.703
    1LIG    HC3   26  -1.048   0.689  -1.676
    1LIG     HC   27  -1.295   0.587  -1.489
    1LIG    HN2   28  -1.136   0.423  -1.395
    1LIG    HC4   29  -1.386   0.186  -1.696
    1LIG    HC5   30  -1.628   0.141  -1.716
    1LIG    HC6   31  -1.787   0.239  -1.554
    1LIG    HC7   32  -1.704   0.387  -1.374
    1LIG    HC8   33  -1.463   0.435  -1.354
    1LIG    HC9   34  -1.179   0.131  -1.665
    1LIG   HC10   35  -1.050  -0.070  -1.604
    1LIG   HC11   36  -0.976  -0.104  -1.371
    1LIG   HC12   37  -1.031   0.064  -1.199
    1LIG   HC13   38  -1.159   0.266  -1.259
    1LIG    HN1   39  -1.180   0.744  -1.482
   0.00000   0.00000   0.00000
