; Created by cgenff_charmm2gmx.py

[ moleculetype ]
; Name			   nrexcl
LIG				 3

[ atoms ]
;	 nr		  type	resnr residue  atom   cgnr	   charge		mass  typeB    chargeB		massB
; residue	 1 LIG rtp LIG q	qsum
     1      OG2D1      1    LIG      O      1     -0.342     15.999   ;
     2     CG2R53      1    LIG     C1      2     -0.361     12.011   ;
     3     NG2R53      1    LIG     N1      3     -0.171     14.007   ;
     4      CG331      1    LIG     C2      4     -0.169     12.011   ;
     5     CG3C53      1    LIG     C3      5      0.784     12.011   ;
     6      NG3P2      1    LIG     N2      6     -0.701     14.007   ;
     7       HGP2      1    LIG     HN      7      0.353      1.008   ;
     8     CG3C50      1    LIG     C4      8      1.599     12.011   ;
     9     CG2R61      1    LIG     C5      9     -0.154     12.011   ;
    10     CG2R61      1    LIG     C6     10     -0.131     12.011   ;
    11     CG2R61      1    LIG     C7     11     -0.105     12.011   ;
    12     CG2R61      1    LIG     C8     12     -0.116     12.011   ;
    13     CG2R61      1    LIG     C9     13     -0.105     12.011   ;
    14     CG2R61      1    LIG    C10     14     -0.131     12.011   ;
    15     CG2R61      1    LIG    C11     15     -0.154     12.011   ;
    16     CG2R61      1    LIG    C12     16     -0.131     12.011   ;
    17     CG2R61      1    LIG    C13     17     -0.105     12.011   ;
    18     CG2R61      1    LIG    C14     18     -0.116     12.011   ;
    19     CG2R61      1    LIG    C15     19     -0.105     12.011   ;
    20     CG2R61      1    LIG    C16     20     -0.131     12.011   ;
    21      NG3P3      1    LIG     N3     21     -0.267     14.007   ;
    22       HGP2      1    LIG     H1     22      0.301      1.008   ;
    23       HGP2      1    LIG     H2     23      0.301      1.008   ;
    24       HGA3      1    LIG    HC1     24      0.090      1.008   ;
    25       HGA3      1    LIG    HC2     25      0.090      1.008   ;
    26       HGA3      1    LIG    HC3     26      0.090      1.008   ;
    27       HGA1      1    LIG     HC     27      0.073      1.008   ;
    28       HGP2      1    LIG    HN2     28      0.353      1.008   ;
    29      HGR61      1    LIG    HC4     29      0.116      1.008   ;
    30      HGR61      1    LIG    HC5     30      0.116      1.008   ;
    31      HGR61      1    LIG    HC6     31      0.116      1.008   ;
    32      HGR61      1    LIG    HC7     32      0.116      1.008   ;
    33      HGR61      1    LIG    HC8     33      0.116      1.008   ;
    34      HGR61      1    LIG    HC9     34      0.116      1.008   ;
    35      HGR61      1    LIG   HC10     35      0.116      1.008   ;
    36      HGR61      1    LIG   HC11     36      0.116      1.008   ;
    37      HGR61      1    LIG   HC12     37      0.116      1.008   ;
    38      HGR61      1    LIG   HC13     38      0.116      1.008   ;
    39       HGP2      1    LIG    HN1     39      0.301      1.008   ;

[ bonds ]
;	ai	  aj funct			  c0			c1			  c2			c3
    1     2	 1 ;       OG2D1     CG2R53
    2     3	 1 ;      CG2R53     NG2R53
    2     8	 1 ;      CG2R53     CG3C50
    3     4	 1 ;      NG2R53      CG331
    3     5	 1 ;      NG2R53     CG3C53
    4    24	 1 ;       CG331       HGA3
    4    25	 1 ;       CG331       HGA3
    4    26	 1 ;       CG331       HGA3
    5    21	 1 ;      CG3C53      NG3P3
    5     6	 1 ;      CG3C53      NG3P2
    5    27	 1 ;      CG3C53       HGA1
    6     8	 1 ;       NG3P2     CG3C50
    6     7	 1 ;       NG3P2       HGP2
    6    28	 1 ;       NG3P2       HGP2
    8    15	 1 ;      CG3C50     CG2R61
    8     9	 1 ;      CG3C50     CG2R61
    9    10	 1 ;      CG2R61     CG2R61
    9    14	 1 ;      CG2R61     CG2R61
   10    11	 1 ;      CG2R61     CG2R61
   10    29	 1 ;      CG2R61      HGR61
   11    12	 1 ;      CG2R61     CG2R61
   11    30	 1 ;      CG2R61      HGR61
   12    13	 1 ;      CG2R61     CG2R61
   12    31	 1 ;      CG2R61      HGR61
   13    14	 1 ;      CG2R61     CG2R61
   13    32	 1 ;      CG2R61      HGR61
   14    33	 1 ;      CG2R61      HGR61
   15    16	 1 ;      CG2R61     CG2R61
   15    20	 1 ;      CG2R61     CG2R61
   16    17	 1 ;      CG2R61     CG2R61
   16    34	 1 ;      CG2R61      HGR61
   17    18	 1 ;      CG2R61     CG2R61
   17    35	 1 ;      CG2R61      HGR61
   18    19	 1 ;      CG2R61     CG2R61
   18    36	 1 ;      CG2R61      HGR61
   19    20	 1 ;      CG2R61     CG2R61
   19    37	 1 ;      CG2R61      HGR61
   20    38	 1 ;      CG2R61      HGR61
   21    23	 1 ;       NG3P3       HGP2
   21    22	 1 ;       NG3P3       HGP2
   21    39	 1 ;       NG3P3       HGP2

[ pairs ]
;	ai	  aj funct			  c0			c1			  c2			c3
    1     4	 1
    1     5	 1
    1     6	 1
    1    15	 1
    1     9	 1
    2    24	 1
    2    25	 1
    2    26	 1
    2    21	 1
    2    27	 1
    2     7	 1
    2    28	 1
    2    16	 1
    2    20	 1
    2    10	 1
    2    14	 1
    3    15	 1
    3     9	 1
    3    23	 1
    3    22	 1
    3    39	 1
    3     7	 1
    3    28	 1
    4     8	 1
    4    21	 1
    4     6	 1
    4    27	 1
    5    24	 1
    5    25	 1
    5    26	 1
    5    15	 1
    5     9	 1
    6    23	 1
    6    22	 1
    6    39	 1
    6    16	 1
    6    20	 1
    6    10	 1
    6    14	 1
    7    21	 1
    7    27	 1
    7    15	 1
    7     9	 1
    8    21	 1
    8    27	 1
    8    11	 1
    8    29	 1
    8    13	 1
    8    33	 1
    8    17	 1
    8    34	 1
    8    19	 1
    8    38	 1
    9    28	 1
    9    16	 1
    9    20	 1
    9    12	 1
    9    30	 1
    9    32	 1
   10    15	 1
   10    13	 1
   10    33	 1
   10    31	 1
   11    14	 1
   11    32	 1
   12    29	 1
   12    33	 1
   13    30	 1
   14    15	 1
   14    29	 1
   14    31	 1
   15    28	 1
   15    18	 1
   15    35	 1
   15    37	 1
   16    19	 1
   16    38	 1
   16    36	 1
   17    20	 1
   17    37	 1
   18    34	 1
   18    38	 1
   19    35	 1
   20    34	 1
   20    36	 1
   21    28	 1
   22    27	 1
   23    27	 1
   27    39	 1
   27    28	 1
   29    30	 1
   30    31	 1
   31    32	 1
   32    33	 1
   34    35	 1
   35    36	 1
   36    37	 1
   37    38	 1

[ angles ]
;	ai	  aj	ak funct			c0			  c1			c2			  c3
    1     2     3	5 ;      OG2D1     CG2R53     NG2R53
    1     2     8	5 ;      OG2D1     CG2R53     CG3C50
    3     2     8	5 ;     NG2R53     CG2R53     CG3C50
    4     3     2	5 ;      CG331     NG2R53     CG2R53
    4     3     5	5 ;      CG331     NG2R53     CG3C53
    2     3     5	5 ;     CG2R53     NG2R53     CG3C53
    3     4    24	5 ;     NG2R53      CG331       HGA3
    3     4    25	5 ;     NG2R53      CG331       HGA3
    3     4    26	5 ;     NG2R53      CG331       HGA3
   24     4    25	5 ;       HGA3      CG331       HGA3
   24     4    26	5 ;       HGA3      CG331       HGA3
   25     4    26	5 ;       HGA3      CG331       HGA3
    3     5    21	5 ;     NG2R53     CG3C53      NG3P3
    3     5     6	5 ;     NG2R53     CG3C53      NG3P2
    3     5    27	5 ;     NG2R53     CG3C53       HGA1
   21     5     6	5 ;      NG3P3     CG3C53      NG3P2
   21     5    27	5 ;      NG3P3     CG3C53       HGA1
    6     5    27	5 ;      NG3P2     CG3C53       HGA1
    5     6     8	5 ;     CG3C53      NG3P2     CG3C50
    5     6     7	5 ;     CG3C53      NG3P2       HGP2
    5     6    28	5 ;     CG3C53      NG3P2       HGP2
    8     6     7	5 ;     CG3C50      NG3P2       HGP2
    8     6    28	5 ;     CG3C50      NG3P2       HGP2
    7     6    28	5 ;       HGP2      NG3P2       HGP2
    2     8     6	5 ;     CG2R53     CG3C50      NG3P2
    2     8    15	5 ;     CG2R53     CG3C50     CG2R61
    2     8     9	5 ;     CG2R53     CG3C50     CG2R61
    6     8    15	5 ;      NG3P2     CG3C50     CG2R61
    6     8     9	5 ;      NG3P2     CG3C50     CG2R61
   15     8     9	5 ;     CG2R61     CG3C50     CG2R61
    8     9    10	5 ;     CG3C50     CG2R61     CG2R61
    8     9    14	5 ;     CG3C50     CG2R61     CG2R61
   10     9    14	5 ;     CG2R61     CG2R61     CG2R61
    9    10    11	5 ;     CG2R61     CG2R61     CG2R61
    9    10    29	5 ;     CG2R61     CG2R61      HGR61
   11    10    29	5 ;     CG2R61     CG2R61      HGR61
   10    11    12	5 ;     CG2R61     CG2R61     CG2R61
   10    11    30	5 ;     CG2R61     CG2R61      HGR61
   12    11    30	5 ;     CG2R61     CG2R61      HGR61
   11    12    13	5 ;     CG2R61     CG2R61     CG2R61
   11    12    31	5 ;     CG2R61     CG2R61      HGR61
   13    12    31	5 ;     CG2R61     CG2R61      HGR61
   14    13    12	5 ;     CG2R61     CG2R61     CG2R61
   14    13    32	5 ;     CG2R61     CG2R61      HGR61
   12    13    32	5 ;     CG2R61     CG2R61      HGR61
    9    14    13	5 ;     CG2R61     CG2R61     CG2R61
    9    14    33	5 ;     CG2R61     CG2R61      HGR61
   13    14    33	5 ;     CG2R61     CG2R61      HGR61
   16    15     8	5 ;     CG2R61     CG2R61     CG3C50
   16    15    20	5 ;     CG2R61     CG2R61     CG2R61
    8    15    20	5 ;     CG3C50     CG2R61     CG2R61
   17    16    15	5 ;     CG2R61     CG2R61     CG2R61
   17    16    34	5 ;     CG2R61     CG2R61      HGR61
   15    16    34	5 ;     CG2R61     CG2R61      HGR61
   16    17    18	5 ;     CG2R61     CG2R61     CG2R61
   16    17    35	5 ;     CG2R61     CG2R61      HGR61
   18    17    35	5 ;     CG2R61     CG2R61      HGR61
   17    18    19	5 ;     CG2R61     CG2R61     CG2R61
   17    18    36	5 ;     CG2R61     CG2R61      HGR61
   19    18    36	5 ;     CG2R61     CG2R61      HGR61
   18    19    20	5 ;     CG2R61     CG2R61     CG2R61
   18    19    37	5 ;     CG2R61     CG2R61      HGR61
   20    19    37	5 ;     CG2R61     CG2R61      HGR61
   15    20    19	5 ;     CG2R61     CG2R61     CG2R61
   15    20    38	5 ;     CG2R61     CG2R61      HGR61
   19    20    38	5 ;     CG2R61     CG2R61      HGR61
   23    21     5	5 ;       HGP2      NG3P3     CG3C53
   23    21    22	5 ;       HGP2      NG3P3       HGP2
   23    21    39	5 ;       HGP2      NG3P3       HGP2
    5    21    22	5 ;     CG3C53      NG3P3       HGP2
    5    21    39	5 ;     CG3C53      NG3P3       HGP2
   22    21    39	5 ;       HGP2      NG3P3       HGP2

[ dihedrals ]
;	ai	  aj	ak	  al funct			  c0			c1			  c2			c3			  c4			c5
    1     2     3     4	 9 ;      OG2D1     CG2R53     NG2R53      CG331
    1     2     3     5	 9 ;      OG2D1     CG2R53     NG2R53     CG3C53
    8     2     3     4	 9 ;     CG3C50     CG2R53     NG2R53      CG331
    8     2     3     5	 9 ;     CG3C50     CG2R53     NG2R53     CG3C53
    1     2     8     6	 9 ;      OG2D1     CG2R53     CG3C50      NG3P2
    1     2     8    15	 9 ;      OG2D1     CG2R53     CG3C50     CG2R61
    1     2     8     9	 9 ;      OG2D1     CG2R53     CG3C50     CG2R61
    3     2     8     6	 9 ;     NG2R53     CG2R53     CG3C50      NG3P2
    3     2     8    15	 9 ;     NG2R53     CG2R53     CG3C50     CG2R61
    3     2     8     9	 9 ;     NG2R53     CG2R53     CG3C50     CG2R61
    2     3     4    24	 9 ;     CG2R53     NG2R53      CG331       HGA3
    2     3     4    25	 9 ;     CG2R53     NG2R53      CG331       HGA3
    2     3     4    26	 9 ;     CG2R53     NG2R53      CG331       HGA3
    5     3     4    24	 9 ;     CG3C53     NG2R53      CG331       HGA3
    5     3     4    25	 9 ;     CG3C53     NG2R53      CG331       HGA3
    5     3     4    26	 9 ;     CG3C53     NG2R53      CG331       HGA3
    4     3     5    21	 9 ;      CG331     NG2R53     CG3C53      NG3P3
    4     3     5     6	 9 ;      CG331     NG2R53     CG3C53      NG3P2
    4     3     5    27	 9 ;      CG331     NG2R53     CG3C53       HGA1
    2     3     5    21	 9 ;     CG2R53     NG2R53     CG3C53      NG3P3
    2     3     5     6	 9 ;     CG2R53     NG2R53     CG3C53      NG3P2
    2     3     5    27	 9 ;     CG2R53     NG2R53     CG3C53       HGA1
    3     5    21    23	 9 ;     NG2R53     CG3C53      NG3P3       HGP2
    3     5    21    22	 9 ;     NG2R53     CG3C53      NG3P3       HGP2
    3     5    21    39	 9 ;     NG2R53     CG3C53      NG3P3       HGP2
    6     5    21    23	 9 ;      NG3P2     CG3C53      NG3P3       HGP2
    6     5    21    22	 9 ;      NG3P2     CG3C53      NG3P3       HGP2
    6     5    21    39	 9 ;      NG3P2     CG3C53      NG3P3       HGP2
   27     5    21    23	 9 ;       HGA1     CG3C53      NG3P3       HGP2
   27     5    21    22	 9 ;       HGA1     CG3C53      NG3P3       HGP2
   27     5    21    39	 9 ;       HGA1     CG3C53      NG3P3       HGP2
    3     5     6     8	 9 ;     NG2R53     CG3C53      NG3P2     CG3C50
    3     5     6     7	 9 ;     NG2R53     CG3C53      NG3P2       HGP2
    3     5     6    28	 9 ;     NG2R53     CG3C53      NG3P2       HGP2
   21     5     6     8	 9 ;      NG3P3     CG3C53      NG3P2     CG3C50
   21     5     6     7	 9 ;      NG3P3     CG3C53      NG3P2       HGP2
   21     5     6    28	 9 ;      NG3P3     CG3C53      NG3P2       HGP2
   27     5     6     8	 9 ;       HGA1     CG3C53      NG3P2     CG3C50
   27     5     6     7	 9 ;       HGA1     CG3C53      NG3P2       HGP2
   27     5     6    28	 9 ;       HGA1     CG3C53      NG3P2       HGP2
    5     6     8     2	 9 ;     CG3C53      NG3P2     CG3C50     CG2R53
    5     6     8    15	 9 ;     CG3C53      NG3P2     CG3C50     CG2R61
    5     6     8     9	 9 ;     CG3C53      NG3P2     CG3C50     CG2R61
    7     6     8     2	 9 ;       HGP2      NG3P2     CG3C50     CG2R53
    7     6     8    15	 9 ;       HGP2      NG3P2     CG3C50     CG2R61
    7     6     8     9	 9 ;       HGP2      NG3P2     CG3C50     CG2R61
   28     6     8     2	 9 ;       HGP2      NG3P2     CG3C50     CG2R53
   28     6     8    15	 9 ;       HGP2      NG3P2     CG3C50     CG2R61
   28     6     8     9	 9 ;       HGP2      NG3P2     CG3C50     CG2R61
    2     8    15    16	 9 ;     CG2R53     CG3C50     CG2R61     CG2R61
    2     8    15    20	 9 ;     CG2R53     CG3C50     CG2R61     CG2R61
    6     8    15    16	 9 ;      NG3P2     CG3C50     CG2R61     CG2R61
    6     8    15    20	 9 ;      NG3P2     CG3C50     CG2R61     CG2R61
    9     8    15    16	 9 ;     CG2R61     CG3C50     CG2R61     CG2R61
    9     8    15    20	 9 ;     CG2R61     CG3C50     CG2R61     CG2R61
    2     8     9    10	 9 ;     CG2R53     CG3C50     CG2R61     CG2R61
    2     8     9    14	 9 ;     CG2R53     CG3C50     CG2R61     CG2R61
    6     8     9    10	 9 ;      NG3P2     CG3C50     CG2R61     CG2R61
    6     8     9    14	 9 ;      NG3P2     CG3C50     CG2R61     CG2R61
   15     8     9    10	 9 ;     CG2R61     CG3C50     CG2R61     CG2R61
   15     8     9    14	 9 ;     CG2R61     CG3C50     CG2R61     CG2R61
    8     9    10    11	 9 ;     CG3C50     CG2R61     CG2R61     CG2R61
    8     9    10    29	 9 ;     CG3C50     CG2R61     CG2R61      HGR61
   14     9    10    11	 9 ;     CG2R61     CG2R61     CG2R61     CG2R61
   14     9    10    29	 9 ;     CG2R61     CG2R61     CG2R61      HGR61
    8     9    14    13	 9 ;     CG3C50     CG2R61     CG2R61     CG2R61
    8     9    14    33	 9 ;     CG3C50     CG2R61     CG2R61      HGR61
   10     9    14    13	 9 ;     CG2R61     CG2R61     CG2R61     CG2R61
   10     9    14    33	 9 ;     CG2R61     CG2R61     CG2R61      HGR61
    9    10    11    12	 9 ;     CG2R61     CG2R61     CG2R61     CG2R61
    9    10    11    30	 9 ;     CG2R61     CG2R61     CG2R61      HGR61
   29    10    11    12	 9 ;      HGR61     CG2R61     CG2R61     CG2R61
   29    10    11    30	 9 ;      HGR61     CG2R61     CG2R61      HGR61
   10    11    12    13	 9 ;     CG2R61     CG2R61     CG2R61     CG2R61
   10    11    12    31	 9 ;     CG2R61     CG2R61     CG2R61      HGR61
   30    11    12    13	 9 ;      HGR61     CG2R61     CG2R61     CG2R61
   30    11    12    31	 9 ;      HGR61     CG2R61     CG2R61      HGR61
   11    12    13    14	 9 ;     CG2R61     CG2R61     CG2R61     CG2R61
   11    12    13    32	 9 ;     CG2R61     CG2R61     CG2R61      HGR61
   31    12    13    14	 9 ;      HGR61     CG2R61     CG2R61     CG2R61
   31    12    13    32	 9 ;      HGR61     CG2R61     CG2R61      HGR61
   12    13    14     9	 9 ;     CG2R61     CG2R61     CG2R61     CG2R61
   12    13    14    33	 9 ;     CG2R61     CG2R61     CG2R61      HGR61
   32    13    14     9	 9 ;      HGR61     CG2R61     CG2R61     CG2R61
   32    13    14    33	 9 ;      HGR61     CG2R61     CG2R61      HGR61
    8    15    16    17	 9 ;     CG3C50     CG2R61     CG2R61     CG2R61
    8    15    16    34	 9 ;     CG3C50     CG2R61     CG2R61      HGR61
   20    15    16    17	 9 ;     CG2R61     CG2R61     CG2R61     CG2R61
   20    15    16    34	 9 ;     CG2R61     CG2R61     CG2R61      HGR61
   16    15    20    19	 9 ;     CG2R61     CG2R61     CG2R61     CG2R61
   16    15    20    38	 9 ;     CG2R61     CG2R61     CG2R61      HGR61
    8    15    20    19	 9 ;     CG3C50     CG2R61     CG2R61     CG2R61
    8    15    20    38	 9 ;     CG3C50     CG2R61     CG2R61      HGR61
   15    16    17    18	 9 ;     CG2R61     CG2R61     CG2R61     CG2R61
   15    16    17    35	 9 ;     CG2R61     CG2R61     CG2R61      HGR61
   34    16    17    18	 9 ;      HGR61     CG2R61     CG2R61     CG2R61
   34    16    17    35	 9 ;      HGR61     CG2R61     CG2R61      HGR61
   16    17    18    19	 9 ;     CG2R61     CG2R61     CG2R61     CG2R61
   16    17    18    36	 9 ;     CG2R61     CG2R61     CG2R61      HGR61
   35    17    18    19	 9 ;      HGR61     CG2R61     CG2R61     CG2R61
   35    17    18    36	 9 ;      HGR61     CG2R61     CG2R61      HGR61
   17    18    19    20	 9 ;     CG2R61     CG2R61     CG2R61     CG2R61
   17    18    19    37	 9 ;     CG2R61     CG2R61     CG2R61      HGR61
   36    18    19    20	 9 ;      HGR61     CG2R61     CG2R61     CG2R61
   36    18    19    37	 9 ;      HGR61     CG2R61     CG2R61      HGR61
   18    19    20    15	 9 ;     CG2R61     CG2R61     CG2R61     CG2R61
   18    19    20    38	 9 ;     CG2R61     CG2R61     CG2R61      HGR61
   37    19    20    15	 9 ;      HGR61     CG2R61     CG2R61     CG2R61
   37    19    20    38	 9 ;      HGR61     CG2R61     CG2R61      HGR61

[ dihedrals ]
;	ai	  aj	ak	  al funct			  c0			c1			  c2			c3
    2     8     3     1	 2

