; Created by cgenff_charmm2gmx.py

[ moleculetype ]
; Name			   nrexcl
LIG				 3

[ atoms ]
;	 nr		  type	resnr residue  atom   cgnr	   charge		mass  typeB    chargeB		massB
; residue	 1 LIG rtp LIG q	qsum
     1      CG301      1    LIG     C1      1      0.289     12.011   ;
     2      CG321      1    LIG     C2      2     -0.155     12.011   ;
     3      CG321      1    LIG     C3      3     -0.170     12.011   ;
     4      CG311      1    LIG     C4      4     -0.010     12.011   ;
     5      CG321      1    LIG     C5      5     -0.170     12.011   ;
     6      CG321      1    LIG     C6      6     -0.155     12.011   ;
     7     CG2R61      1    LIG     C7      7      0.085     12.011   ;
     8     CG2R61      1    LIG     C8      8     -0.134     12.011   ;
     9     CG2R61      1    LIG     C9      9      0.082     12.011   ;
    10     CG2R61      1    LIG    C10     10     -0.121     12.011   ;
    11     CG2R61      1    LIG    C11     11     -0.110     12.011   ;
    12     CG2R61      1    LIG    C12     12     -0.129     12.011   ;
    13      CG301      1    LIG    C13     13     -0.018     12.011   ;
    14      CG331      1    LIG    C14     14     -0.289     12.011   ;
    15      CG331      1    LIG    C15     15     -0.289     12.011   ;
    16      CG331      1    LIG    C16     16     -0.289     12.011   ;
    17      NG3P2      1    LIG     N1     17     -0.450     14.007   ;
    18       HGP2      1    LIG     H1     18      0.341      1.008   ;
    19       HGP2      1    LIG     H2     19      0.341      1.008   ;
    20      CG324      1    LIG    C17     20      0.208     12.011   ;
    21      CG311      1    LIG    C18     21      0.089     12.011   ;
    22      OG311      1    LIG     O1     22     -0.625     15.999   ;
    23       HGP1      1    LIG     H3     23      0.415      1.008   ;
    24      CG311      1    LIG    C19     24     -0.007     12.011   ;
    25      CG321      1    LIG    C20     25     -0.153     12.011   ;
    26     CG2R61      1    LIG    C21     26      0.057     12.011   ;
    27     CG2R61      1    LIG    C22     27     -0.218     12.011   ;
    28     CG2R66      1    LIG    C23     28      0.261     12.011   ;
    29       FGR1      1    LIG     F1     29     -0.210     18.998   ;
    30     CG2R61      1    LIG    C24     30     -0.240     12.011   ;
    31     CG2R66      1    LIG    C25     31      0.261     12.011   ;
    32     CG2R61      1    LIG    C26     32     -0.218     12.011   ;
    33       FGR1      1    LIG     F2     33     -0.210     18.998   ;
    34      NG2S1      1    LIG     N2     34     -0.339     14.007   ;
    35      CG2O1      1    LIG    C27     35      0.488     12.011   ;
    36      OG2D1      1    LIG     O2     36     -0.509     15.999   ;
    37      CG331      1    LIG    C28     37     -0.270     12.011   ;
    38       HGP1      1    LIG     H4     38      0.261      1.008   ;
    39      NG2S1      1    LIG     N3     39     -0.256     14.007   ;
    40      CG2O6      1    LIG    C29     40      0.178     12.011   ;
    41      OG2D1      1    LIG     O3     41     -0.390     15.999   ;
    42       HGP1      1    LIG     H5     42      0.329      1.008   ;
    43      OG302      1    LIG     O4     43     -0.321     15.999   ;
    44      CG331      1    LIG    C30     44      0.072     12.011   ;
    45       HGA2      1    LIG    HC2     45      0.090      1.008   ;
    46       HGA2      1    LIG    HC3     46      0.090      1.008   ;
    47       HGA2      1    LIG    HC4     47      0.090      1.008   ;
    48       HGA2      1    LIG    HC5     48      0.090      1.008   ;
    49       HGA1      1    LIG     HC     49      0.090      1.008   ;
    50       HGA2      1    LIG    HC6     50      0.090      1.008   ;
    51       HGA2      1    LIG    HC7     51      0.090      1.008   ;
    52       HGA2      1    LIG    HC8     52      0.090      1.008   ;
    53       HGA2      1    LIG    HC9     53      0.090      1.008   ;
    54      HGR61      1    LIG    HC1     54      0.116      1.008   ;
    55      HGR61      1    LIG   HC10     55      0.116      1.008   ;
    56      HGR61      1    LIG   HC11     56      0.116      1.008   ;
    57      HGR61      1    LIG   HC12     57      0.116      1.008   ;
    58       HGA2      1    LIG   HC13     58      0.090      1.008   ;
    59       HGA2      1    LIG   HC14     59      0.090      1.008   ;
    60       HGA1      1    LIG   HC15     60      0.090      1.008   ;
    61       HGA1      1    LIG   HC16     61      0.090      1.008   ;
    62       HGA2      1    LIG   HC17     62      0.090      1.008   ;
    63       HGA2      1    LIG   HC18     63      0.090      1.008   ;
    64      HGR62      1    LIG   HC19     64      0.174      1.008   ;
    65      HGR62      1    LIG   HC20     65      0.186      1.008   ;
    66      HGR62      1    LIG   HC21     66      0.174      1.008   ;
    67       HGA3      1    LIG   HC22     67      0.090      1.008   ;
    68       HGA3      1    LIG   HC23     68      0.090      1.008   ;
    69       HGA3      1    LIG   HC24     69      0.090      1.008   ;
    70       HGA3      1    LIG   HC25     70      0.090      1.008   ;
    71       HGA3      1    LIG   HC26     71      0.090      1.008   ;
    72       HGA3      1    LIG   HC27     72      0.090      1.008   ;
    73       HGA3      1    LIG   HC28     73      0.090      1.008   ;
    74       HGA3      1    LIG   HC29     74      0.090      1.008   ;
    75       HGA3      1    LIG   HC30     75      0.090      1.008   ;
    76       HGA3      1    LIG   HC31     76      0.090      1.008   ;
    77       HGA3      1    LIG   HC32     77      0.090      1.008   ;
    78       HGA3      1    LIG   HC33     78      0.090      1.008   ;
    79       HGA3      1    LIG   HC34     79      0.090      1.008   ;
    80       HGA3      1    LIG   HC35     80      0.090      1.008   ;
    81       HGA3      1    LIG   HC36     81      0.090      1.008   ;

[ bonds ]
;	ai	  aj funct			  c0			c1			  c2			c3
    1     7	 1 ;       CG301     CG2R61
    1    17	 1 ;       CG301      NG3P2
    1     6	 1 ;       CG301      CG321
    1     2	 1 ;       CG301      CG321
    2     3	 1 ;       CG321      CG321
    2    45	 1 ;       CG321       HGA2
    2    46	 1 ;       CG321       HGA2
    3     4	 1 ;       CG321      CG311
    3    47	 1 ;       CG321       HGA2
    3    48	 1 ;       CG321       HGA2
    4     5	 1 ;       CG311      CG321
    4    39	 1 ;       CG311      NG2S1
    4    49	 1 ;       CG311       HGA1
    5     6	 1 ;       CG321      CG321
    5    50	 1 ;       CG321       HGA2
    5    51	 1 ;       CG321       HGA2
    6    52	 1 ;       CG321       HGA2
    6    53	 1 ;       CG321       HGA2
    7    12	 1 ;      CG2R61     CG2R61
    7     8	 1 ;      CG2R61     CG2R61
    8     9	 1 ;      CG2R61     CG2R61
    8    54	 1 ;      CG2R61      HGR61
    9    10	 1 ;      CG2R61     CG2R61
    9    13	 1 ;      CG2R61      CG301
   10    11	 1 ;      CG2R61     CG2R61
   10    55	 1 ;      CG2R61      HGR61
   11    12	 1 ;      CG2R61     CG2R61
   11    56	 1 ;      CG2R61      HGR61
   12    57	 1 ;      CG2R61      HGR61
   13    14	 1 ;       CG301      CG331
   13    15	 1 ;       CG301      CG331
   13    16	 1 ;       CG301      CG331
   14    76	 1 ;       CG331       HGA3
   14    77	 1 ;       CG331       HGA3
   14    78	 1 ;       CG331       HGA3
   15    67	 1 ;       CG331       HGA3
   15    68	 1 ;       CG331       HGA3
   15    69	 1 ;       CG331       HGA3
   16    73	 1 ;       CG331       HGA3
   16    74	 1 ;       CG331       HGA3
   16    75	 1 ;       CG331       HGA3
   17    20	 1 ;       NG3P2      CG324
   17    18	 1 ;       NG3P2       HGP2
   17    19	 1 ;       NG3P2       HGP2
   20    21	 1 ;       CG324      CG311
   20    58	 1 ;       CG324       HGA2
   20    59	 1 ;       CG324       HGA2
   21    24	 1 ;       CG311      CG311
   21    22	 1 ;       CG311      OG311
   21    60	 1 ;       CG311       HGA1
   22    23	 1 ;       OG311       HGP1
   24    25	 1 ;       CG311      CG321
   24    34	 1 ;       CG311      NG2S1
   24    61	 1 ;       CG311       HGA1
   25    26	 1 ;       CG321     CG2R61
   25    62	 1 ;       CG321       HGA2
   25    63	 1 ;       CG321       HGA2
   26    32	 1 ;      CG2R61     CG2R61
   26    27	 1 ;      CG2R61     CG2R61
   27    28	 1 ;      CG2R61     CG2R66
   27    64	 1 ;      CG2R61      HGR62
   28    30	 1 ;      CG2R66     CG2R61
   28    29	 1 ;      CG2R66       FGR1
   30    31	 1 ;      CG2R61     CG2R66
   30    65	 1 ;      CG2R61      HGR62
   31    33	 1 ;      CG2R66       FGR1
   31    32	 1 ;      CG2R66     CG2R61
   32    66	 1 ;      CG2R61      HGR62
   34    38	 1 ;       NG2S1       HGP1
   34    35	 1 ;       NG2S1      CG2O1
   35    37	 1 ;       CG2O1      CG331
   35    36	 1 ;       CG2O1      OG2D1
   37    79	 1 ;       CG331       HGA3
   37    80	 1 ;       CG331       HGA3
   37    81	 1 ;       CG331       HGA3
   39    42	 1 ;       NG2S1       HGP1
   39    40	 1 ;       NG2S1      CG2O6
   40    41	 1 ;       CG2O6      OG2D1
   40    43	 1 ;       CG2O6      OG302
   43    44	 1 ;       OG302      CG331
   44    70	 1 ;       CG331       HGA3
   44    71	 1 ;       CG331       HGA3
   44    72	 1 ;       CG331       HGA3

[ pairs ]
;	ai	  aj funct			  c0			c1			  c2			c3
    1     4	 1
    1    47	 1
    1    48	 1
    1    50	 1
    1    51	 1
    1    11	 1
    1    57	 1
    1     9	 1
    1    54	 1
    1    21	 1
    1    58	 1
    1    59	 1
    2    12	 1
    2     8	 1
    2    20	 1
    2    18	 1
    2    19	 1
    2     5	 1
    2    52	 1
    2    53	 1
    2    39	 1
    2    49	 1
    3     7	 1
    3    17	 1
    3     6	 1
    3    50	 1
    3    51	 1
    3    42	 1
    3    40	 1
    4    45	 1
    4    46	 1
    4    52	 1
    4    53	 1
    4    41	 1
    4    43	 1
    5     7	 1
    5    17	 1
    5    47	 1
    5    48	 1
    5    42	 1
    5    40	 1
    6    12	 1
    6     8	 1
    6    20	 1
    6    18	 1
    6    19	 1
    6    45	 1
    6    46	 1
    6    39	 1
    6    49	 1
    7    20	 1
    7    18	 1
    7    19	 1
    7    52	 1
    7    53	 1
    7    45	 1
    7    46	 1
    7    10	 1
    7    13	 1
    7    56	 1
    8    17	 1
    8    11	 1
    8    57	 1
    8    55	 1
    8    14	 1
    8    15	 1
    8    16	 1
    9    12	 1
    9    56	 1
    9    76	 1
    9    77	 1
    9    78	 1
    9    67	 1
    9    68	 1
    9    69	 1
    9    73	 1
    9    74	 1
    9    75	 1
   10    54	 1
   10    14	 1
   10    15	 1
   10    16	 1
   10    57	 1
   11    13	 1
   12    17	 1
   12    54	 1
   12    55	 1
   13    54	 1
   13    55	 1
   14    67	 1
   14    68	 1
   14    69	 1
   14    73	 1
   14    74	 1
   14    75	 1
   15    76	 1
   15    77	 1
   15    78	 1
   15    73	 1
   15    74	 1
   15    75	 1
   16    76	 1
   16    77	 1
   16    78	 1
   16    67	 1
   16    68	 1
   16    69	 1
   17    52	 1
   17    53	 1
   17    45	 1
   17    46	 1
   17    24	 1
   17    22	 1
   17    60	 1
   18    21	 1
   18    58	 1
   18    59	 1
   19    21	 1
   19    58	 1
   19    59	 1
   20    25	 1
   20    34	 1
   20    61	 1
   20    23	 1
   21    26	 1
   21    62	 1
   21    63	 1
   21    38	 1
   21    35	 1
   22    58	 1
   22    59	 1
   22    25	 1
   22    34	 1
   22    61	 1
   23    24	 1
   23    60	 1
   24    58	 1
   24    59	 1
   24    32	 1
   24    27	 1
   24    37	 1
   24    36	 1
   25    60	 1
   25    38	 1
   25    35	 1
   25    31	 1
   25    66	 1
   25    28	 1
   25    64	 1
   26    34	 1
   26    61	 1
   26    30	 1
   26    29	 1
   26    33	 1
   27    62	 1
   27    63	 1
   27    31	 1
   27    66	 1
   27    65	 1
   28    32	 1
   28    33	 1
   29    64	 1
   29    31	 1
   29    65	 1
   30    64	 1
   30    66	 1
   32    62	 1
   32    63	 1
   32    64	 1
   32    65	 1
   33    65	 1
   33    66	 1
   34    60	 1
   34    62	 1
   34    63	 1
   34    79	 1
   34    80	 1
   34    81	 1
   35    61	 1
   36    38	 1
   36    79	 1
   36    80	 1
   36    81	 1
   37    38	 1
   38    61	 1
   39    47	 1
   39    48	 1
   39    50	 1
   39    51	 1
   39    44	 1
   40    49	 1
   40    70	 1
   40    71	 1
   40    72	 1
   41    42	 1
   41    44	 1
   42    49	 1
   42    43	 1
   45    47	 1
   45    48	 1
   46    47	 1
   46    48	 1
   47    49	 1
   48    49	 1
   49    50	 1
   49    51	 1
   50    52	 1
   50    53	 1
   51    52	 1
   51    53	 1
   55    56	 1
   56    57	 1
   58    60	 1
   59    60	 1
   60    61	 1
   61    62	 1
   61    63	 1

[ angles ]
;	ai	  aj	ak funct			c0			  c1			c2			  c3
    7     1    17	5 ;     CG2R61      CG301      NG3P2
    7     1     6	5 ;     CG2R61      CG301      CG321
    7     1     2	5 ;     CG2R61      CG301      CG321
   17     1     6	5 ;      NG3P2      CG301      CG321
   17     1     2	5 ;      NG3P2      CG301      CG321
    6     1     2	5 ;      CG321      CG301      CG321
    1     2     3	5 ;      CG301      CG321      CG321
    1     2    45	5 ;      CG301      CG321       HGA2
    1     2    46	5 ;      CG301      CG321       HGA2
    3     2    45	5 ;      CG321      CG321       HGA2
    3     2    46	5 ;      CG321      CG321       HGA2
   45     2    46	5 ;       HGA2      CG321       HGA2
    2     3     4	5 ;      CG321      CG321      CG311
    2     3    47	5 ;      CG321      CG321       HGA2
    2     3    48	5 ;      CG321      CG321       HGA2
    4     3    47	5 ;      CG311      CG321       HGA2
    4     3    48	5 ;      CG311      CG321       HGA2
   47     3    48	5 ;       HGA2      CG321       HGA2
    5     4     3	5 ;      CG321      CG311      CG321
    5     4    39	5 ;      CG321      CG311      NG2S1
    5     4    49	5 ;      CG321      CG311       HGA1
    3     4    39	5 ;      CG321      CG311      NG2S1
    3     4    49	5 ;      CG321      CG311       HGA1
   39     4    49	5 ;      NG2S1      CG311       HGA1
    6     5     4	5 ;      CG321      CG321      CG311
    6     5    50	5 ;      CG321      CG321       HGA2
    6     5    51	5 ;      CG321      CG321       HGA2
    4     5    50	5 ;      CG311      CG321       HGA2
    4     5    51	5 ;      CG311      CG321       HGA2
   50     5    51	5 ;       HGA2      CG321       HGA2
    1     6     5	5 ;      CG301      CG321      CG321
    1     6    52	5 ;      CG301      CG321       HGA2
    1     6    53	5 ;      CG301      CG321       HGA2
    5     6    52	5 ;      CG321      CG321       HGA2
    5     6    53	5 ;      CG321      CG321       HGA2
   52     6    53	5 ;       HGA2      CG321       HGA2
   12     7     8	5 ;     CG2R61     CG2R61     CG2R61
   12     7     1	5 ;     CG2R61     CG2R61      CG301
    8     7     1	5 ;     CG2R61     CG2R61      CG301
    9     8     7	5 ;     CG2R61     CG2R61     CG2R61
    9     8    54	5 ;     CG2R61     CG2R61      HGR61
    7     8    54	5 ;     CG2R61     CG2R61      HGR61
   10     9    13	5 ;     CG2R61     CG2R61      CG301
   10     9     8	5 ;     CG2R61     CG2R61     CG2R61
   13     9     8	5 ;      CG301     CG2R61     CG2R61
   11    10     9	5 ;     CG2R61     CG2R61     CG2R61
   11    10    55	5 ;     CG2R61     CG2R61      HGR61
    9    10    55	5 ;     CG2R61     CG2R61      HGR61
   10    11    12	5 ;     CG2R61     CG2R61     CG2R61
   10    11    56	5 ;     CG2R61     CG2R61      HGR61
   12    11    56	5 ;     CG2R61     CG2R61      HGR61
   11    12     7	5 ;     CG2R61     CG2R61     CG2R61
   11    12    57	5 ;     CG2R61     CG2R61      HGR61
    7    12    57	5 ;     CG2R61     CG2R61      HGR61
   14    13     9	5 ;      CG331      CG301     CG2R61
   14    13    15	5 ;      CG331      CG301      CG331
   14    13    16	5 ;      CG331      CG301      CG331
    9    13    15	5 ;     CG2R61      CG301      CG331
    9    13    16	5 ;     CG2R61      CG301      CG331
   15    13    16	5 ;      CG331      CG301      CG331
   13    14    76	5 ;      CG301      CG331       HGA3
   13    14    77	5 ;      CG301      CG331       HGA3
   13    14    78	5 ;      CG301      CG331       HGA3
   76    14    77	5 ;       HGA3      CG331       HGA3
   76    14    78	5 ;       HGA3      CG331       HGA3
   77    14    78	5 ;       HGA3      CG331       HGA3
   13    15    67	5 ;      CG301      CG331       HGA3
   13    15    68	5 ;      CG301      CG331       HGA3
   13    15    69	5 ;      CG301      CG331       HGA3
   67    15    68	5 ;       HGA3      CG331       HGA3
   67    15    69	5 ;       HGA3      CG331       HGA3
   68    15    69	5 ;       HGA3      CG331       HGA3
   13    16    73	5 ;      CG301      CG331       HGA3
   13    16    74	5 ;      CG301      CG331       HGA3
   13    16    75	5 ;      CG301      CG331       HGA3
   73    16    74	5 ;       HGA3      CG331       HGA3
   73    16    75	5 ;       HGA3      CG331       HGA3
   74    16    75	5 ;       HGA3      CG331       HGA3
   20    17    18	5 ;      CG324      NG3P2       HGP2
   20    17     1	5 ;      CG324      NG3P2      CG301
   20    17    19	5 ;      CG324      NG3P2       HGP2
   18    17     1	5 ;       HGP2      NG3P2      CG301
   18    17    19	5 ;       HGP2      NG3P2       HGP2
    1    17    19	5 ;      CG301      NG3P2       HGP2
   21    20    17	5 ;      CG311      CG324      NG3P2
   21    20    58	5 ;      CG311      CG324       HGA2
   21    20    59	5 ;      CG311      CG324       HGA2
   17    20    58	5 ;      NG3P2      CG324       HGA2
   17    20    59	5 ;      NG3P2      CG324       HGA2
   58    20    59	5 ;       HGA2      CG324       HGA2
   24    21    22	5 ;      CG311      CG311      OG311
   24    21    20	5 ;      CG311      CG311      CG324
   24    21    60	5 ;      CG311      CG311       HGA1
   22    21    20	5 ;      OG311      CG311      CG324
   22    21    60	5 ;      OG311      CG311       HGA1
   20    21    60	5 ;      CG324      CG311       HGA1
   23    22    21	5 ;       HGP1      OG311      CG311
   25    24    21	5 ;      CG321      CG311      CG311
   25    24    34	5 ;      CG321      CG311      NG2S1
   25    24    61	5 ;      CG321      CG311       HGA1
   21    24    34	5 ;      CG311      CG311      NG2S1
   21    24    61	5 ;      CG311      CG311       HGA1
   34    24    61	5 ;      NG2S1      CG311       HGA1
   26    25    24	5 ;     CG2R61      CG321      CG311
   26    25    62	5 ;     CG2R61      CG321       HGA2
   26    25    63	5 ;     CG2R61      CG321       HGA2
   24    25    62	5 ;      CG311      CG321       HGA2
   24    25    63	5 ;      CG311      CG321       HGA2
   62    25    63	5 ;       HGA2      CG321       HGA2
   32    26    25	5 ;     CG2R61     CG2R61      CG321
   32    26    27	5 ;     CG2R61     CG2R61     CG2R61
   25    26    27	5 ;      CG321     CG2R61     CG2R61
   26    27    28	5 ;     CG2R61     CG2R61     CG2R66
   26    27    64	5 ;     CG2R61     CG2R61      HGR62
   28    27    64	5 ;     CG2R66     CG2R61      HGR62
   30    28    27	5 ;     CG2R61     CG2R66     CG2R61
   30    28    29	5 ;     CG2R61     CG2R66       FGR1
   27    28    29	5 ;     CG2R61     CG2R66       FGR1
   31    30    28	5 ;     CG2R66     CG2R61     CG2R66
   31    30    65	5 ;     CG2R66     CG2R61      HGR62
   28    30    65	5 ;     CG2R66     CG2R61      HGR62
   33    31    32	5 ;       FGR1     CG2R66     CG2R61
   33    31    30	5 ;       FGR1     CG2R66     CG2R61
   32    31    30	5 ;     CG2R61     CG2R66     CG2R61
   31    32    26	5 ;     CG2R66     CG2R61     CG2R61
   31    32    66	5 ;     CG2R66     CG2R61      HGR62
   26    32    66	5 ;     CG2R61     CG2R61      HGR62
   38    34    24	5 ;       HGP1      NG2S1      CG311
   38    34    35	5 ;       HGP1      NG2S1      CG2O1
   24    34    35	5 ;      CG311      NG2S1      CG2O1
   34    35    37	5 ;      NG2S1      CG2O1      CG331
   34    35    36	5 ;      NG2S1      CG2O1      OG2D1
   37    35    36	5 ;      CG331      CG2O1      OG2D1
   35    37    79	5 ;      CG2O1      CG331       HGA3
   35    37    80	5 ;      CG2O1      CG331       HGA3
   35    37    81	5 ;      CG2O1      CG331       HGA3
   79    37    80	5 ;       HGA3      CG331       HGA3
   79    37    81	5 ;       HGA3      CG331       HGA3
   80    37    81	5 ;       HGA3      CG331       HGA3
    4    39    42	5 ;      CG311      NG2S1       HGP1
    4    39    40	5 ;      CG311      NG2S1      CG2O6
   42    39    40	5 ;       HGP1      NG2S1      CG2O6
   39    40    41	5 ;      NG2S1      CG2O6      OG2D1
   39    40    43	5 ;      NG2S1      CG2O6      OG302
   41    40    43	5 ;      OG2D1      CG2O6      OG302
   40    43    44	5 ;      CG2O6      OG302      CG331
   43    44    70	5 ;      OG302      CG331       HGA3
   43    44    71	5 ;      OG302      CG331       HGA3
   43    44    72	5 ;      OG302      CG331       HGA3
   70    44    71	5 ;       HGA3      CG331       HGA3
   70    44    72	5 ;       HGA3      CG331       HGA3
   71    44    72	5 ;       HGA3      CG331       HGA3

[ dihedrals ]
;	ai	  aj	ak	  al funct			  c0			c1			  c2			c3			  c4			c5
   17     1     7    12	 9 ;      NG3P2      CG301     CG2R61     CG2R61
   17     1     7     8	 9 ;      NG3P2      CG301     CG2R61     CG2R61
    6     1     7    12	 9 ;      CG321      CG301     CG2R61     CG2R61
    6     1     7     8	 9 ;      CG321      CG301     CG2R61     CG2R61
    2     1     7    12	 9 ;      CG321      CG301     CG2R61     CG2R61
    2     1     7     8	 9 ;      CG321      CG301     CG2R61     CG2R61
    7     1    17    20	 9 ;     CG2R61      CG301      NG3P2      CG324
    7     1    17    18	 9 ;     CG2R61      CG301      NG3P2       HGP2
    7     1    17    19	 9 ;     CG2R61      CG301      NG3P2       HGP2
    6     1    17    20	 9 ;      CG321      CG301      NG3P2      CG324
    6     1    17    18	 9 ;      CG321      CG301      NG3P2       HGP2
    6     1    17    19	 9 ;      CG321      CG301      NG3P2       HGP2
    2     1    17    20	 9 ;      CG321      CG301      NG3P2      CG324
    2     1    17    18	 9 ;      CG321      CG301      NG3P2       HGP2
    2     1    17    19	 9 ;      CG321      CG301      NG3P2       HGP2
    7     1     6     5	 9 ;     CG2R61      CG301      CG321      CG321
    7     1     6    52	 9 ;     CG2R61      CG301      CG321       HGA2
    7     1     6    53	 9 ;     CG2R61      CG301      CG321       HGA2
   17     1     6     5	 9 ;      NG3P2      CG301      CG321      CG321
   17     1     6    52	 9 ;      NG3P2      CG301      CG321       HGA2
   17     1     6    53	 9 ;      NG3P2      CG301      CG321       HGA2
    2     1     6     5	 9 ;      CG321      CG301      CG321      CG321
    2     1     6    52	 9 ;      CG321      CG301      CG321       HGA2
    2     1     6    53	 9 ;      CG321      CG301      CG321       HGA2
    7     1     2     3	 9 ;     CG2R61      CG301      CG321      CG321
    7     1     2    45	 9 ;     CG2R61      CG301      CG321       HGA2
    7     1     2    46	 9 ;     CG2R61      CG301      CG321       HGA2
   17     1     2     3	 9 ;      NG3P2      CG301      CG321      CG321
   17     1     2    45	 9 ;      NG3P2      CG301      CG321       HGA2
   17     1     2    46	 9 ;      NG3P2      CG301      CG321       HGA2
    6     1     2     3	 9 ;      CG321      CG301      CG321      CG321
    6     1     2    45	 9 ;      CG321      CG301      CG321       HGA2
    6     1     2    46	 9 ;      CG321      CG301      CG321       HGA2
    1     2     3     4	 9 ;      CG301      CG321      CG321      CG311
    1     2     3    47	 9 ;      CG301      CG321      CG321       HGA2
    1     2     3    48	 9 ;      CG301      CG321      CG321       HGA2
   45     2     3     4	 9 ;       HGA2      CG321      CG321      CG311
   45     2     3    47	 9 ;       HGA2      CG321      CG321       HGA2
   45     2     3    48	 9 ;       HGA2      CG321      CG321       HGA2
   46     2     3     4	 9 ;       HGA2      CG321      CG321      CG311
   46     2     3    47	 9 ;       HGA2      CG321      CG321       HGA2
   46     2     3    48	 9 ;       HGA2      CG321      CG321       HGA2
    2     3     4     5	 9 ;      CG321      CG321      CG311      CG321
    2     3     4    39	 9 ;      CG321      CG321      CG311      NG2S1
    2     3     4    49	 9 ;      CG321      CG321      CG311       HGA1
   47     3     4     5	 9 ;       HGA2      CG321      CG311      CG321
   47     3     4    39	 9 ;       HGA2      CG321      CG311      NG2S1
   47     3     4    49	 9 ;       HGA2      CG321      CG311       HGA1
   48     3     4     5	 9 ;       HGA2      CG321      CG311      CG321
   48     3     4    39	 9 ;       HGA2      CG321      CG311      NG2S1
   48     3     4    49	 9 ;       HGA2      CG321      CG311       HGA1
    3     4     5     6	 9 ;      CG321      CG311      CG321      CG321
    3     4     5    50	 9 ;      CG321      CG311      CG321       HGA2
    3     4     5    51	 9 ;      CG321      CG311      CG321       HGA2
   39     4     5     6	 9 ;      NG2S1      CG311      CG321      CG321
   39     4     5    50	 9 ;      NG2S1      CG311      CG321       HGA2
   39     4     5    51	 9 ;      NG2S1      CG311      CG321       HGA2
   49     4     5     6	 9 ;       HGA1      CG311      CG321      CG321
   49     4     5    50	 9 ;       HGA1      CG311      CG321       HGA2
   49     4     5    51	 9 ;       HGA1      CG311      CG321       HGA2
    5     4    39    42	 9 ;      CG321      CG311      NG2S1       HGP1
    5     4    39    40	 9 ;      CG321      CG311      NG2S1      CG2O6
    3     4    39    42	 9 ;      CG321      CG311      NG2S1       HGP1
    3     4    39    40	 9 ;      CG321      CG311      NG2S1      CG2O6
   49     4    39    42	 9 ;       HGA1      CG311      NG2S1       HGP1
   49     4    39    40	 9 ;       HGA1      CG311      NG2S1      CG2O6
    4     5     6     1	 9 ;      CG311      CG321      CG321      CG301
    4     5     6    52	 9 ;      CG311      CG321      CG321       HGA2
    4     5     6    53	 9 ;      CG311      CG321      CG321       HGA2
   50     5     6     1	 9 ;       HGA2      CG321      CG321      CG301
   50     5     6    52	 9 ;       HGA2      CG321      CG321       HGA2
   50     5     6    53	 9 ;       HGA2      CG321      CG321       HGA2
   51     5     6     1	 9 ;       HGA2      CG321      CG321      CG301
   51     5     6    52	 9 ;       HGA2      CG321      CG321       HGA2
   51     5     6    53	 9 ;       HGA2      CG321      CG321       HGA2
    8     7    12    11	 9 ;     CG2R61     CG2R61     CG2R61     CG2R61
    8     7    12    57	 9 ;     CG2R61     CG2R61     CG2R61      HGR61
    1     7    12    11	 9 ;      CG301     CG2R61     CG2R61     CG2R61
    1     7    12    57	 9 ;      CG301     CG2R61     CG2R61      HGR61
   12     7     8     9	 9 ;     CG2R61     CG2R61     CG2R61     CG2R61
   12     7     8    54	 9 ;     CG2R61     CG2R61     CG2R61      HGR61
    1     7     8     9	 9 ;      CG301     CG2R61     CG2R61     CG2R61
    1     7     8    54	 9 ;      CG301     CG2R61     CG2R61      HGR61
    7     8     9    10	 9 ;     CG2R61     CG2R61     CG2R61     CG2R61
    7     8     9    13	 9 ;     CG2R61     CG2R61     CG2R61      CG301
   54     8     9    10	 9 ;      HGR61     CG2R61     CG2R61     CG2R61
   54     8     9    13	 9 ;      HGR61     CG2R61     CG2R61      CG301
   13     9    10    11	 9 ;      CG301     CG2R61     CG2R61     CG2R61
   13     9    10    55	 9 ;      CG301     CG2R61     CG2R61      HGR61
    8     9    10    11	 9 ;     CG2R61     CG2R61     CG2R61     CG2R61
    8     9    10    55	 9 ;     CG2R61     CG2R61     CG2R61      HGR61
   10     9    13    14	 9 ;     CG2R61     CG2R61      CG301      CG331
   10     9    13    15	 9 ;     CG2R61     CG2R61      CG301      CG331
   10     9    13    16	 9 ;     CG2R61     CG2R61      CG301      CG331
    8     9    13    14	 9 ;     CG2R61     CG2R61      CG301      CG331
    8     9    13    15	 9 ;     CG2R61     CG2R61      CG301      CG331
    8     9    13    16	 9 ;     CG2R61     CG2R61      CG301      CG331
    9    10    11    12	 9 ;     CG2R61     CG2R61     CG2R61     CG2R61
    9    10    11    56	 9 ;     CG2R61     CG2R61     CG2R61      HGR61
   55    10    11    12	 9 ;      HGR61     CG2R61     CG2R61     CG2R61
   55    10    11    56	 9 ;      HGR61     CG2R61     CG2R61      HGR61
   10    11    12     7	 9 ;     CG2R61     CG2R61     CG2R61     CG2R61
   10    11    12    57	 9 ;     CG2R61     CG2R61     CG2R61      HGR61
   56    11    12     7	 9 ;      HGR61     CG2R61     CG2R61     CG2R61
   56    11    12    57	 9 ;      HGR61     CG2R61     CG2R61      HGR61
    9    13    14    76	 9 ;     CG2R61      CG301      CG331       HGA3
    9    13    14    77	 9 ;     CG2R61      CG301      CG331       HGA3
    9    13    14    78	 9 ;     CG2R61      CG301      CG331       HGA3
   15    13    14    76	 9 ;      CG331      CG301      CG331       HGA3
   15    13    14    77	 9 ;      CG331      CG301      CG331       HGA3
   15    13    14    78	 9 ;      CG331      CG301      CG331       HGA3
   16    13    14    76	 9 ;      CG331      CG301      CG331       HGA3
   16    13    14    77	 9 ;      CG331      CG301      CG331       HGA3
   16    13    14    78	 9 ;      CG331      CG301      CG331       HGA3
   14    13    15    67	 9 ;      CG331      CG301      CG331       HGA3
   14    13    15    68	 9 ;      CG331      CG301      CG331       HGA3
   14    13    15    69	 9 ;      CG331      CG301      CG331       HGA3
    9    13    15    67	 9 ;     CG2R61      CG301      CG331       HGA3
    9    13    15    68	 9 ;     CG2R61      CG301      CG331       HGA3
    9    13    15    69	 9 ;     CG2R61      CG301      CG331       HGA3
   16    13    15    67	 9 ;      CG331      CG301      CG331       HGA3
   16    13    15    68	 9 ;      CG331      CG301      CG331       HGA3
   16    13    15    69	 9 ;      CG331      CG301      CG331       HGA3
   14    13    16    73	 9 ;      CG331      CG301      CG331       HGA3
   14    13    16    74	 9 ;      CG331      CG301      CG331       HGA3
   14    13    16    75	 9 ;      CG331      CG301      CG331       HGA3
    9    13    16    73	 9 ;     CG2R61      CG301      CG331       HGA3
    9    13    16    74	 9 ;     CG2R61      CG301      CG331       HGA3
    9    13    16    75	 9 ;     CG2R61      CG301      CG331       HGA3
   15    13    16    73	 9 ;      CG331      CG301      CG331       HGA3
   15    13    16    74	 9 ;      CG331      CG301      CG331       HGA3
   15    13    16    75	 9 ;      CG331      CG301      CG331       HGA3
   18    17    20    21	 9 ;       HGP2      NG3P2      CG324      CG311
   18    17    20    58	 9 ;       HGP2      NG3P2      CG324       HGA2
   18    17    20    59	 9 ;       HGP2      NG3P2      CG324       HGA2
    1    17    20    21	 9 ;      CG301      NG3P2      CG324      CG311
    1    17    20    58	 9 ;      CG301      NG3P2      CG324       HGA2
    1    17    20    59	 9 ;      CG301      NG3P2      CG324       HGA2
   19    17    20    21	 9 ;       HGP2      NG3P2      CG324      CG311
   19    17    20    58	 9 ;       HGP2      NG3P2      CG324       HGA2
   19    17    20    59	 9 ;       HGP2      NG3P2      CG324       HGA2
   17    20    21    24	 9 ;      NG3P2      CG324      CG311      CG311
   17    20    21    22	 9 ;      NG3P2      CG324      CG311      OG311
   17    20    21    60	 9 ;      NG3P2      CG324      CG311       HGA1
   58    20    21    24	 9 ;       HGA2      CG324      CG311      CG311
   58    20    21    22	 9 ;       HGA2      CG324      CG311      OG311
   58    20    21    60	 9 ;       HGA2      CG324      CG311       HGA1
   59    20    21    24	 9 ;       HGA2      CG324      CG311      CG311
   59    20    21    22	 9 ;       HGA2      CG324      CG311      OG311
   59    20    21    60	 9 ;       HGA2      CG324      CG311       HGA1
   22    21    24    25	 9 ;      OG311      CG311      CG311      CG321
   22    21    24    34	 9 ;      OG311      CG311      CG311      NG2S1
   22    21    24    61	 9 ;      OG311      CG311      CG311       HGA1
   20    21    24    25	 9 ;      CG324      CG311      CG311      CG321
   20    21    24    34	 9 ;      CG324      CG311      CG311      NG2S1
   20    21    24    61	 9 ;      CG324      CG311      CG311       HGA1
   60    21    24    25	 9 ;       HGA1      CG311      CG311      CG321
   60    21    24    34	 9 ;       HGA1      CG311      CG311      NG2S1
   60    21    24    61	 9 ;       HGA1      CG311      CG311       HGA1
   24    21    22    23	 9 ;      CG311      CG311      OG311       HGP1
   20    21    22    23	 9 ;      CG324      CG311      OG311       HGP1
   60    21    22    23	 9 ;       HGA1      CG311      OG311       HGP1
   21    24    25    26	 9 ;      CG311      CG311      CG321     CG2R61
   21    24    25    62	 9 ;      CG311      CG311      CG321       HGA2
   21    24    25    63	 9 ;      CG311      CG311      CG321       HGA2
   34    24    25    26	 9 ;      NG2S1      CG311      CG321     CG2R61
   34    24    25    62	 9 ;      NG2S1      CG311      CG321       HGA2
   34    24    25    63	 9 ;      NG2S1      CG311      CG321       HGA2
   61    24    25    26	 9 ;       HGA1      CG311      CG321     CG2R61
   61    24    25    62	 9 ;       HGA1      CG311      CG321       HGA2
   61    24    25    63	 9 ;       HGA1      CG311      CG321       HGA2
   25    24    34    38	 9 ;      CG321      CG311      NG2S1       HGP1
   25    24    34    35	 9 ;      CG321      CG311      NG2S1      CG2O1
   21    24    34    38	 9 ;      CG311      CG311      NG2S1       HGP1
   21    24    34    35	 9 ;      CG311      CG311      NG2S1      CG2O1
   61    24    34    38	 9 ;       HGA1      CG311      NG2S1       HGP1
   61    24    34    35	 9 ;       HGA1      CG311      NG2S1      CG2O1
   24    25    26    32	 9 ;      CG311      CG321     CG2R61     CG2R61
   24    25    26    27	 9 ;      CG311      CG321     CG2R61     CG2R61
   62    25    26    32	 9 ;       HGA2      CG321     CG2R61     CG2R61
   62    25    26    27	 9 ;       HGA2      CG321     CG2R61     CG2R61
   63    25    26    32	 9 ;       HGA2      CG321     CG2R61     CG2R61
   63    25    26    27	 9 ;       HGA2      CG321     CG2R61     CG2R61
   25    26    32    31	 9 ;      CG321     CG2R61     CG2R61     CG2R66
   25    26    32    66	 9 ;      CG321     CG2R61     CG2R61      HGR62
   27    26    32    31	 9 ;     CG2R61     CG2R61     CG2R61     CG2R66
   27    26    32    66	 9 ;     CG2R61     CG2R61     CG2R61      HGR62
   32    26    27    28	 9 ;     CG2R61     CG2R61     CG2R61     CG2R66
   32    26    27    64	 9 ;     CG2R61     CG2R61     CG2R61      HGR62
   25    26    27    28	 9 ;      CG321     CG2R61     CG2R61     CG2R66
   25    26    27    64	 9 ;      CG321     CG2R61     CG2R61      HGR62
   26    27    28    30	 9 ;     CG2R61     CG2R61     CG2R66     CG2R61
   26    27    28    29	 9 ;     CG2R61     CG2R61     CG2R66       FGR1
   64    27    28    30	 9 ;      HGR62     CG2R61     CG2R66     CG2R61
   64    27    28    29	 9 ;      HGR62     CG2R61     CG2R66       FGR1
   27    28    30    31	 9 ;     CG2R61     CG2R66     CG2R61     CG2R66
   27    28    30    65	 9 ;     CG2R61     CG2R66     CG2R61      HGR62
   29    28    30    31	 9 ;       FGR1     CG2R66     CG2R61     CG2R66
   29    28    30    65	 9 ;       FGR1     CG2R66     CG2R61      HGR62
   28    30    31    33	 9 ;     CG2R66     CG2R61     CG2R66       FGR1
   28    30    31    32	 9 ;     CG2R66     CG2R61     CG2R66     CG2R61
   65    30    31    33	 9 ;      HGR62     CG2R61     CG2R66       FGR1
   65    30    31    32	 9 ;      HGR62     CG2R61     CG2R66     CG2R61
   33    31    32    26	 9 ;       FGR1     CG2R66     CG2R61     CG2R61
   33    31    32    66	 9 ;       FGR1     CG2R66     CG2R61      HGR62
   30    31    32    26	 9 ;     CG2R61     CG2R66     CG2R61     CG2R61
   30    31    32    66	 9 ;     CG2R61     CG2R66     CG2R61      HGR62
   38    34    35    37	 9 ;       HGP1      NG2S1      CG2O1      CG331
   38    34    35    36	 9 ;       HGP1      NG2S1      CG2O1      OG2D1
   24    34    35    37	 9 ;      CG311      NG2S1      CG2O1      CG331
   24    34    35    36	 9 ;      CG311      NG2S1      CG2O1      OG2D1
   34    35    37    79	 9 ;      NG2S1      CG2O1      CG331       HGA3
   34    35    37    80	 9 ;      NG2S1      CG2O1      CG331       HGA3
   34    35    37    81	 9 ;      NG2S1      CG2O1      CG331       HGA3
   36    35    37    79	 9 ;      OG2D1      CG2O1      CG331       HGA3
   36    35    37    80	 9 ;      OG2D1      CG2O1      CG331       HGA3
   36    35    37    81	 9 ;      OG2D1      CG2O1      CG331       HGA3
    4    39    40    41	 9 ;      CG311      NG2S1      CG2O6      OG2D1
    4    39    40    43	 9 ;      CG311      NG2S1      CG2O6      OG302
   42    39    40    41	 9 ;       HGP1      NG2S1      CG2O6      OG2D1
   42    39    40    43	 9 ;       HGP1      NG2S1      CG2O6      OG302
   39    40    43    44	 9 ;      NG2S1      CG2O6      OG302      CG331
   41    40    43    44	 9 ;      OG2D1      CG2O6      OG302      CG331
   40    43    44    70	 9 ;      CG2O6      OG302      CG331       HGA3
   40    43    44    71	 9 ;      CG2O6      OG302      CG331       HGA3
   40    43    44    72	 9 ;      CG2O6      OG302      CG331       HGA3

[ dihedrals ]
;	ai	  aj	ak	  al funct			  c0			c1			  c2			c3
   35    37    34    36	 2
   40    39    41    43	 2

