Great Red Oystrich Makes All Chemists Sane
   81
    1LIG     C1    1  -1.691   0.482  -1.518
    1LIG     C2    2  -1.717   0.515  -1.368
    1LIG     C3    3  -1.860   0.528  -1.318
    1LIG     C4    4  -1.960   0.428  -1.377
    1LIG     C5    5  -1.943   0.410  -1.527
    1LIG     C6    6  -1.798   0.377  -1.564
    1LIG     C7    7  -1.550   0.422  -1.535
    1LIG     C8    8  -1.468   0.406  -1.422
    1LIG     C9    9  -1.350   0.329  -1.423
    1LIG    C10   10  -1.313   0.271  -1.544
    1LIG    C11   11  -1.386   0.294  -1.661
    1LIG    C12   12  -1.503   0.370  -1.657
    1LIG    C13   13  -1.275   0.301  -1.291
    1LIG    C14   14  -1.130   0.261  -1.326
    1LIG    C15   15  -1.273   0.424  -1.199
    1LIG    C16   16  -1.337   0.185  -1.209
    1LIG     N1   17  -1.711   0.602  -1.607
    1LIG     H1   18  -1.630   0.667  -1.600
    1LIG     H2   19  -1.788   0.655  -1.564
    1LIG    C17   20  -1.744   0.600  -1.758
    1LIG    C18   21  -1.626   0.680  -1.820
    1LIG     O1   22  -1.686   0.767  -1.919
    1LIG     H3   23  -1.736   0.708  -1.981
    1LIG    C19   24  -1.513   0.752  -1.738
    1LIG    C20   25  -1.377   0.706  -1.802
    1LIG    C21   26  -1.262   0.656  -1.719
    1LIG    C22   27  -1.251   0.675  -1.581
    1LIG    C23   28  -1.146   0.614  -1.509
    1LIG     F1   29  -1.139   0.633  -1.377
    1LIG    C24   30  -1.053   0.533  -1.572
    1LIG    C25   31  -1.064   0.513  -1.708
    1LIG    C26   32  -1.167   0.573  -1.781
    1LIG     F2   33  -0.977   0.434  -1.771
    1LIG     N2   34  -1.517   0.899  -1.724
    1LIG    C27   35  -1.610   0.970  -1.652
    1LIG     O2   36  -1.690   0.916  -1.578
    1LIG    C28   37  -1.601   1.120  -1.669
    1LIG     H4   38  -1.469   0.951  -1.796
    1LIG     N3   39  -2.097   0.462  -1.343
    1LIG    C29   40  -2.162   0.420  -1.231
    1LIG     O3   41  -2.112   0.351  -1.143
    1LIG     H5   42  -2.152   0.522  -1.404
    1LIG     O4   43  -2.290   0.463  -1.235
    1LIG    C30   44  -2.309   0.604  -1.229
    1LIG    HC2   45  -1.668   0.610  -1.348
    1LIG    HC3   46  -1.668   0.439  -1.309
    1LIG    HC4   47  -1.859   0.515  -1.210
    1LIG    HC5   48  -1.896   0.629  -1.340
    1LIG     HC   49  -1.939   0.331  -1.331
    1LIG    HC6   50  -1.971   0.503  -1.577
    1LIG    HC7   51  -2.008   0.330  -1.562
    1LIG    HC8   52  -1.773   0.281  -1.518
    1LIG    HC9   53  -1.792   0.366  -1.672
    1LIG    HC1   54  -1.496   0.455  -1.330
    1LIG   HC10   55  -1.226   0.207  -1.548
    1LIG   HC11   56  -1.352   0.253  -1.755
    1LIG   HC12   57  -1.558   0.389  -1.748
    1LIG   HC13   58  -1.840   0.649  -1.778
    1LIG   HC14   59  -1.745   0.498  -1.796
    1LIG   HC15   60  -1.573   0.606  -1.880
    1LIG   HC16   61  -1.515   0.711  -1.638
    1LIG   HC17   62  -1.340   0.792  -1.858
    1LIG   HC18   63  -1.401   0.628  -1.875
    1LIG   HC19   64  -1.322   0.737  -1.529
    1LIG   HC20   65  -0.973   0.486  -1.516
    1LIG   HC21   66  -1.174   0.555  -1.888
    1LIG   HC22   67  -1.229   0.509  -1.253
    1LIG   HC23   68  -1.213   0.403  -1.111
    1LIG   HC24   69  -1.375   0.449  -1.169
    1LIG   HC25   70  -2.415   0.627  -1.234
    1LIG   HC26   71  -2.268   0.642  -1.136
    1LIG   HC27   72  -2.258   0.651  -1.313
    1LIG   HC28   73  -1.341   0.095  -1.270
    1LIG   HC29   74  -1.277   0.167  -1.121
    1LIG   HC30   75  -1.438   0.213  -1.179
    1LIG   HC31   76  -1.069   0.260  -1.236
    1LIG   HC32   77  -1.129   0.161  -1.371
    1LIG   HC33   78  -1.088   0.332  -1.397
    1LIG   HC34   79  -1.678   1.168  -1.609
    1LIG   HC35   80  -1.503   1.155  -1.638
    1LIG   HC36   81  -1.617   1.145  -1.774
   0.00000   0.00000   0.00000
