Georgetown Riga Oslo Madrid Amsterdam Chisinau Stockholm
   72
    1LIG     C1    1  -1.792   0.576  -1.653
    1LIG     C2    2  -1.929   0.558  -1.628
    1LIG     C3    3  -1.974   0.441  -1.566
    1LIG     C4    4  -1.881   0.340  -1.536
    1LIG     C5    5  -1.748   0.349  -1.582
    1LIG     C6    6  -1.702   0.472  -1.631
    1LIG     C7    7  -1.662   0.225  -1.592
    1LIG     O1    8  -1.544   0.237  -1.508
    1LIG     C8    9  -1.424   0.269  -1.583
    1LIG     C9   10  -1.312   0.309  -1.484
    1LIG    C10   11  -1.367   0.343  -1.345
    1LIG    C11   12  -1.199   0.204  -1.479
    1LIG    C12   13  -1.206   0.105  -1.365
    1LIG    C13   14  -1.307   0.008  -1.359
    1LIG    C14   15  -1.305  -0.091  -1.262
    1LIG    C15   16  -1.202  -0.095  -1.169
    1LIG    C16   17  -1.104   0.004  -1.169
    1LIG    C17   18  -1.107   0.105  -1.266
    1LIG     N1   19  -1.251   0.439  -1.536
    1LIG     H1   20  -1.322   0.506  -1.568
    1LIG     H2   21  -1.196   0.483  -1.461
    1LIG     H3   22  -1.186   0.422  -1.613
    1LIG    C18   23  -2.118   0.419  -1.531
    1LIG     O2   24  -2.202   0.427  -1.620
    1LIG     N2   25  -2.148   0.394  -1.399
    1LIG     H4   26  -2.075   0.395  -1.329
    1LIG    C19   27  -2.279   0.343  -1.355
    1LIG    C20   28  -2.388   0.450  -1.345
    1LIG    C21   29  -2.263   0.266  -1.225
    1LIG    C22   30  -2.204   0.327  -1.113
    1LIG    C23   31  -2.190   0.258  -0.992
    1LIG    C24   32  -2.235   0.127  -0.983
    1LIG      F   33  -2.222   0.060  -0.867
    1LIG    C25   34  -2.294   0.064  -1.091
    1LIG    C26   35  -2.309   0.133  -1.211
    1LIG     N3   36  -1.746   0.700  -1.707
    1LIG    C27   37  -1.743   0.713  -1.853
    1LIG      S   38  -1.687   0.812  -1.598
    1LIG     O3   39  -1.727   0.769  -1.466
    1LIG     O4   40  -1.727   0.943  -1.647
    1LIG    C28   41  -1.509   0.801  -1.607
    1LIG     HC   42  -1.999   0.635  -1.656
    1LIG    HC1   43  -1.913   0.255  -1.478
    1LIG    HC2   44  -1.597   0.486  -1.651
    1LIG    HC3   45  -1.631   0.212  -1.695
    1LIG    HC4   46  -1.720   0.139  -1.560
    1LIG    HC5   47  -1.445   0.351  -1.651
    1LIG    HC6   48  -1.393   0.181  -1.640
    1LIG    HC7   49  -1.104   0.257  -1.472
    1LIG    HC8   50  -1.200   0.148  -1.573
    1LIG    HC9   51  -1.387   0.011  -1.432
    1LIG   HC10   52  -1.383  -0.165  -1.258
    1LIG   HC11   53  -1.197  -0.175  -1.096
    1LIG   HC12   54  -1.025   0.003  -1.095
    1LIG   HC13   55  -1.032   0.183  -1.264
    1LIG   HC14   56  -2.311   0.271  -1.431
    1LIG   HC15   57  -2.169   0.429  -1.120
    1LIG   HC16   58  -2.145   0.306  -0.907
    1LIG   HC17   59  -2.328  -0.039  -1.082
    1LIG   HC18   60  -2.356   0.084  -1.295
    1LIG   HC19   61  -1.707   0.812  -1.879
    1LIG   HC20   62  -1.844   0.700  -1.892
    1LIG   HC21   63  -1.677   0.637  -1.895
    1LIG   HC22   64  -1.288   0.387  -1.284
    1LIG   HC23   65  -1.404   0.252  -1.297
    1LIG   HC24   66  -1.449   0.415  -1.355
    1LIG   HC25   67  -1.465   0.872  -1.538
    1LIG   HC26   68  -1.477   0.823  -1.709
    1LIG   HC27   69  -1.478   0.700  -1.580
    1LIG   HC28   70  -2.397   0.502  -1.440
    1LIG   HC29   71  -2.363   0.520  -1.266
    1LIG   HC30   72  -2.484   0.402  -1.321
   0.00000   0.00000   0.00000
