; Created by cgenff_charmm2gmx.py

[ moleculetype ]
; Name			   nrexcl
LIG				 3

[ atoms ]
;	 nr		  type	resnr residue  atom   cgnr	   charge		mass  typeB    chargeB		massB
; residue	 1 LIG rtp LIG q	qsum
     1     CG2R61      1    LIG     C1      1      0.140     12.011   ;
     2     CG2R61      1    LIG     C2      2     -0.064     12.011   ;
     3     CG2R61      1    LIG     C3      3     -0.099     12.011   ;
     4     CG2R61      1    LIG     C4      4     -0.067     12.011   ;
     5     CG2R61      1    LIG     C5      5     -0.002     12.011   ;
     6     CG2R61      1    LIG     C6      6     -0.127     12.011   ;
     7      CG321      1    LIG     C7      7      0.063     12.011   ;
     8      OG301      1    LIG     O1      8     -0.341     15.999   ;
     9      CG321      1    LIG     C8      9     -0.075     12.011   ;
    10      CG301      1    LIG     C9     10      0.534     12.011   ;
    11      CG331      1    LIG    C10     11     -0.220     12.011   ;
    12      CG321      1    LIG    C11     12     -0.111     12.011   ;
    13     CG2R61      1    LIG    C12     13     -0.057     12.011   ;
    14     CG2R61      1    LIG    C13     14     -0.123     12.011   ;
    15     CG2R61      1    LIG    C14     15     -0.112     12.011   ;
    16     CG2R61      1    LIG    C15     16     -0.116     12.011   ;
    17     CG2R61      1    LIG    C16     17     -0.112     12.011   ;
    18     CG2R61      1    LIG    C17     18     -0.123     12.011   ;
    19      NG3P3      1    LIG     N1     19     -0.627     14.007   ;
    20       HGP2      1    LIG     H1     20      0.348      1.008   ;
    21       HGP2      1    LIG     H2     21      0.348      1.008   ;
    22       HGP2      1    LIG     H3     22      0.348      1.008   ;
    23      CG2O1      1    LIG    C18     23      0.320     12.011   ;
    24      OG2D1      1    LIG     O2     24     -0.463     15.999   ;
    25      NG2S1      1    LIG     N2     25     -0.366     14.007   ;
    26       HGP1      1    LIG     H4     26      0.314      1.008   ;
    27      CG311      1    LIG    C19     27      0.138     12.011   ;
    28      CG331      1    LIG    C20     28     -0.265     12.011   ;
    29     CG2R61      1    LIG    C21     29     -0.081     12.011   ;
    30     CG2R61      1    LIG    C22     30     -0.121     12.011   ;
    31     CG2R61      1    LIG    C23     31     -0.105     12.011   ;
    32     CG2R66      1    LIG    C24     32      0.107     12.011   ;
    33       FGR1      1    LIG      F     33     -0.211     18.998   ;
    34     CG2R61      1    LIG    C25     34     -0.105     12.011   ;
    35     CG2R61      1    LIG    C26     35     -0.121     12.011   ;
    36      NG301      1    LIG     N3     36     -0.228     14.007   ;
    37      CG331      1    LIG    C27     37     -0.103     12.011   ;
    38      SG3O2      1    LIG      S     38      0.397     32.060   ;
    39      OG2P1      1    LIG     O3     39     -0.388     15.999   ;
    40      OG2P1      1    LIG     O4     40     -0.388     15.999   ;
    41      CG331      1    LIG    C28     41      0.036     12.011   ;
    42      HGR61      1    LIG     HC     42      0.116      1.008   ;
    43      HGR61      1    LIG    HC1     43      0.116      1.008   ;
    44      HGR61      1    LIG    HC2     44      0.116      1.008   ;
    45       HGA2      1    LIG    HC3     45      0.090      1.008   ;
    46       HGA2      1    LIG    HC4     46      0.090      1.008   ;
    47       HGA2      1    LIG    HC5     47      0.090      1.008   ;
    48       HGA2      1    LIG    HC6     48      0.090      1.008   ;
    49       HGA2      1    LIG    HC7     49      0.090      1.008   ;
    50       HGA2      1    LIG    HC8     50      0.090      1.008   ;
    51      HGR61      1    LIG    HC9     51      0.116      1.008   ;
    52      HGR61      1    LIG   HC10     52      0.116      1.008   ;
    53      HGR61      1    LIG   HC11     53      0.116      1.008   ;
    54      HGR61      1    LIG   HC12     54      0.116      1.008   ;
    55      HGR61      1    LIG   HC13     55      0.116      1.008   ;
    56       HGA1      1    LIG   HC14     56      0.090      1.008   ;
    57      HGR61      1    LIG   HC15     57      0.116      1.008   ;
    58      HGR62      1    LIG   HC16     58      0.179      1.008   ;
    59      HGR62      1    LIG   HC17     59      0.179      1.008   ;
    60      HGR61      1    LIG   HC18     60      0.116      1.008   ;
    61       HGA3      1    LIG   HC19     61      0.090      1.008   ;
    62       HGA3      1    LIG   HC20     62      0.090      1.008   ;
    63       HGA3      1    LIG   HC21     63      0.090      1.008   ;
    64       HGA3      1    LIG   HC22     64      0.090      1.008   ;
    65       HGA3      1    LIG   HC23     65      0.090      1.008   ;
    66       HGA3      1    LIG   HC24     66      0.090      1.008   ;
    67       HGA3      1    LIG   HC25     67      0.090      1.008   ;
    68       HGA3      1    LIG   HC26     68      0.090      1.008   ;
    69       HGA3      1    LIG   HC27     69      0.090      1.008   ;
    70       HGA3      1    LIG   HC28     70      0.090      1.008   ;
    71       HGA3      1    LIG   HC29     71      0.090      1.008   ;
    72       HGA3      1    LIG   HC30     72      0.090      1.008   ;

[ bonds ]
;	ai	  aj funct			  c0			c1			  c2			c3
    1     6	 1 ;      CG2R61     CG2R61
    1    36	 1 ;      CG2R61      NG301
    1     2	 1 ;      CG2R61     CG2R61
    2     3	 1 ;      CG2R61     CG2R61
    2    42	 1 ;      CG2R61      HGR61
    3     4	 1 ;      CG2R61     CG2R61
    3    23	 1 ;      CG2R61      CG2O1
    4     5	 1 ;      CG2R61     CG2R61
    4    43	 1 ;      CG2R61      HGR61
    5     7	 1 ;      CG2R61      CG321
    5     6	 1 ;      CG2R61     CG2R61
    6    44	 1 ;      CG2R61      HGR61
    7     8	 1 ;       CG321      OG301
    7    45	 1 ;       CG321       HGA2
    7    46	 1 ;       CG321       HGA2
    8     9	 1 ;       OG301      CG321
    9    10	 1 ;       CG321      CG301
    9    47	 1 ;       CG321       HGA2
    9    48	 1 ;       CG321       HGA2
   10    12	 1 ;       CG301      CG321
   10    19	 1 ;       CG301      NG3P3
   10    11	 1 ;       CG301      CG331
   11    64	 1 ;       CG331       HGA3
   11    65	 1 ;       CG331       HGA3
   11    66	 1 ;       CG331       HGA3
   12    13	 1 ;       CG321     CG2R61
   12    49	 1 ;       CG321       HGA2
   12    50	 1 ;       CG321       HGA2
   13    18	 1 ;      CG2R61     CG2R61
   13    14	 1 ;      CG2R61     CG2R61
   14    15	 1 ;      CG2R61     CG2R61
   14    51	 1 ;      CG2R61      HGR61
   15    16	 1 ;      CG2R61     CG2R61
   15    52	 1 ;      CG2R61      HGR61
   16    17	 1 ;      CG2R61     CG2R61
   16    53	 1 ;      CG2R61      HGR61
   17    18	 1 ;      CG2R61     CG2R61
   17    54	 1 ;      CG2R61      HGR61
   18    55	 1 ;      CG2R61      HGR61
   19    22	 1 ;       NG3P3       HGP2
   19    21	 1 ;       NG3P3       HGP2
   19    20	 1 ;       NG3P3       HGP2
   23    24	 1 ;       CG2O1      OG2D1
   23    25	 1 ;       CG2O1      NG2S1
   25    26	 1 ;       NG2S1       HGP1
   25    27	 1 ;       NG2S1      CG311
   27    29	 1 ;       CG311     CG2R61
   27    28	 1 ;       CG311      CG331
   27    56	 1 ;       CG311       HGA1
   28    70	 1 ;       CG331       HGA3
   28    71	 1 ;       CG331       HGA3
   28    72	 1 ;       CG331       HGA3
   29    35	 1 ;      CG2R61     CG2R61
   29    30	 1 ;      CG2R61     CG2R61
   30    31	 1 ;      CG2R61     CG2R61
   30    57	 1 ;      CG2R61      HGR61
   31    32	 1 ;      CG2R61     CG2R66
   31    58	 1 ;      CG2R61      HGR62
   32    34	 1 ;      CG2R66     CG2R61
   32    33	 1 ;      CG2R66       FGR1
   34    35	 1 ;      CG2R61     CG2R61
   34    59	 1 ;      CG2R61      HGR62
   35    60	 1 ;      CG2R61      HGR61
   36    37	 1 ;       NG301      CG331
   36    38	 1 ;       NG301      SG3O2
   37    61	 1 ;       CG331       HGA3
   37    62	 1 ;       CG331       HGA3
   37    63	 1 ;       CG331       HGA3
   38    41	 1 ;       SG3O2      CG331
   38    40	 1 ;       SG3O2      OG2P1
   38    39	 1 ;       SG3O2      OG2P1
   41    67	 1 ;       CG331       HGA3
   41    68	 1 ;       CG331       HGA3
   41    69	 1 ;       CG331       HGA3

[ pairs ]
;	ai	  aj funct			  c0			c1			  c2			c3
    1     4	 1
    1    23	 1
    1     7	 1
    1    61	 1
    1    62	 1
    1    63	 1
    1    41	 1
    1    40	 1
    1    39	 1
    2     5	 1
    2    44	 1
    2    37	 1
    2    38	 1
    2    43	 1
    2    24	 1
    2    25	 1
    3     6	 1
    3    36	 1
    3     7	 1
    3    26	 1
    3    27	 1
    4    42	 1
    4    24	 1
    4    25	 1
    4     8	 1
    4    45	 1
    4    46	 1
    4    44	 1
    5    36	 1
    5    23	 1
    5     9	 1
    6    37	 1
    6    38	 1
    6    42	 1
    6    43	 1
    6     8	 1
    6    45	 1
    6    46	 1
    7    43	 1
    7    44	 1
    7    10	 1
    7    47	 1
    7    48	 1
    8    12	 1
    8    19	 1
    8    11	 1
    9    45	 1
    9    46	 1
    9    13	 1
    9    49	 1
    9    50	 1
    9    22	 1
    9    21	 1
    9    20	 1
    9    64	 1
    9    65	 1
    9    66	 1
   10    18	 1
   10    14	 1
   11    47	 1
   11    48	 1
   11    13	 1
   11    49	 1
   11    50	 1
   11    22	 1
   11    21	 1
   11    20	 1
   12    47	 1
   12    48	 1
   12    22	 1
   12    21	 1
   12    20	 1
   12    64	 1
   12    65	 1
   12    66	 1
   12    17	 1
   12    55	 1
   12    15	 1
   12    51	 1
   13    19	 1
   13    16	 1
   13    52	 1
   13    54	 1
   14    49	 1
   14    50	 1
   14    17	 1
   14    55	 1
   14    53	 1
   15    18	 1
   15    54	 1
   16    51	 1
   16    55	 1
   17    52	 1
   18    49	 1
   18    50	 1
   18    51	 1
   18    53	 1
   19    47	 1
   19    48	 1
   19    49	 1
   19    50	 1
   19    64	 1
   19    65	 1
   19    66	 1
   23    42	 1
   23    43	 1
   23    29	 1
   23    28	 1
   23    56	 1
   24    26	 1
   24    27	 1
   25    35	 1
   25    30	 1
   25    70	 1
   25    71	 1
   25    72	 1
   26    29	 1
   26    28	 1
   26    56	 1
   27    34	 1
   27    60	 1
   27    31	 1
   27    57	 1
   28    35	 1
   28    30	 1
   29    70	 1
   29    71	 1
   29    72	 1
   29    32	 1
   29    58	 1
   29    59	 1
   30    56	 1
   30    34	 1
   30    60	 1
   30    33	 1
   31    35	 1
   31    59	 1
   32    57	 1
   32    60	 1
   33    58	 1
   33    35	 1
   33    59	 1
   34    58	 1
   35    56	 1
   35    57	 1
   36    44	 1
   36    42	 1
   36    67	 1
   36    68	 1
   36    69	 1
   37    41	 1
   37    40	 1
   37    39	 1
   38    61	 1
   38    62	 1
   38    63	 1
   39    67	 1
   39    68	 1
   39    69	 1
   40    67	 1
   40    68	 1
   40    69	 1
   51    52	 1
   52    53	 1
   53    54	 1
   54    55	 1
   56    70	 1
   56    71	 1
   56    72	 1
   57    58	 1
   59    60	 1

[ angles ]
;	ai	  aj	ak funct			c0			  c1			c2			  c3
    6     1    36	5 ;     CG2R61     CG2R61      NG301
    6     1     2	5 ;     CG2R61     CG2R61     CG2R61
   36     1     2	5 ;      NG301     CG2R61     CG2R61
    1     2     3	5 ;     CG2R61     CG2R61     CG2R61
    1     2    42	5 ;     CG2R61     CG2R61      HGR61
    3     2    42	5 ;     CG2R61     CG2R61      HGR61
    4     3     2	5 ;     CG2R61     CG2R61     CG2R61
    4     3    23	5 ;     CG2R61     CG2R61      CG2O1
    2     3    23	5 ;     CG2R61     CG2R61      CG2O1
    5     4     3	5 ;     CG2R61     CG2R61     CG2R61
    5     4    43	5 ;     CG2R61     CG2R61      HGR61
    3     4    43	5 ;     CG2R61     CG2R61      HGR61
    7     5     6	5 ;      CG321     CG2R61     CG2R61
    7     5     4	5 ;      CG321     CG2R61     CG2R61
    6     5     4	5 ;     CG2R61     CG2R61     CG2R61
    5     6     1	5 ;     CG2R61     CG2R61     CG2R61
    5     6    44	5 ;     CG2R61     CG2R61      HGR61
    1     6    44	5 ;     CG2R61     CG2R61      HGR61
    8     7     5	5 ;      OG301      CG321     CG2R61
    8     7    45	5 ;      OG301      CG321       HGA2
    8     7    46	5 ;      OG301      CG321       HGA2
    5     7    45	5 ;     CG2R61      CG321       HGA2
    5     7    46	5 ;     CG2R61      CG321       HGA2
   45     7    46	5 ;       HGA2      CG321       HGA2
    9     8     7	5 ;      CG321      OG301      CG321
   10     9     8	5 ;      CG301      CG321      OG301
   10     9    47	5 ;      CG301      CG321       HGA2
   10     9    48	5 ;      CG301      CG321       HGA2
    8     9    47	5 ;      OG301      CG321       HGA2
    8     9    48	5 ;      OG301      CG321       HGA2
   47     9    48	5 ;       HGA2      CG321       HGA2
   12    10    19	5 ;      CG321      CG301      NG3P3
   12    10     9	5 ;      CG321      CG301      CG321
   12    10    11	5 ;      CG321      CG301      CG331
   19    10     9	5 ;      NG3P3      CG301      CG321
   19    10    11	5 ;      NG3P3      CG301      CG331
    9    10    11	5 ;      CG321      CG301      CG331
   10    11    64	5 ;      CG301      CG331       HGA3
   10    11    65	5 ;      CG301      CG331       HGA3
   10    11    66	5 ;      CG301      CG331       HGA3
   64    11    65	5 ;       HGA3      CG331       HGA3
   64    11    66	5 ;       HGA3      CG331       HGA3
   65    11    66	5 ;       HGA3      CG331       HGA3
   13    12    10	5 ;     CG2R61      CG321      CG301
   13    12    49	5 ;     CG2R61      CG321       HGA2
   13    12    50	5 ;     CG2R61      CG321       HGA2
   10    12    49	5 ;      CG301      CG321       HGA2
   10    12    50	5 ;      CG301      CG321       HGA2
   49    12    50	5 ;       HGA2      CG321       HGA2
   12    13    18	5 ;      CG321     CG2R61     CG2R61
   12    13    14	5 ;      CG321     CG2R61     CG2R61
   18    13    14	5 ;     CG2R61     CG2R61     CG2R61
   13    14    15	5 ;     CG2R61     CG2R61     CG2R61
   13    14    51	5 ;     CG2R61     CG2R61      HGR61
   15    14    51	5 ;     CG2R61     CG2R61      HGR61
   14    15    16	5 ;     CG2R61     CG2R61     CG2R61
   14    15    52	5 ;     CG2R61     CG2R61      HGR61
   16    15    52	5 ;     CG2R61     CG2R61      HGR61
   17    16    15	5 ;     CG2R61     CG2R61     CG2R61
   17    16    53	5 ;     CG2R61     CG2R61      HGR61
   15    16    53	5 ;     CG2R61     CG2R61      HGR61
   18    17    16	5 ;     CG2R61     CG2R61     CG2R61
   18    17    54	5 ;     CG2R61     CG2R61      HGR61
   16    17    54	5 ;     CG2R61     CG2R61      HGR61
   13    18    17	5 ;     CG2R61     CG2R61     CG2R61
   13    18    55	5 ;     CG2R61     CG2R61      HGR61
   17    18    55	5 ;     CG2R61     CG2R61      HGR61
   22    19    21	5 ;       HGP2      NG3P3       HGP2
   22    19    20	5 ;       HGP2      NG3P3       HGP2
   22    19    10	5 ;       HGP2      NG3P3      CG301
   21    19    20	5 ;       HGP2      NG3P3       HGP2
   21    19    10	5 ;       HGP2      NG3P3      CG301
   20    19    10	5 ;       HGP2      NG3P3      CG301
    3    23    24	5 ;     CG2R61      CG2O1      OG2D1
    3    23    25	5 ;     CG2R61      CG2O1      NG2S1
   24    23    25	5 ;      OG2D1      CG2O1      NG2S1
   23    25    26	5 ;      CG2O1      NG2S1       HGP1
   23    25    27	5 ;      CG2O1      NG2S1      CG311
   26    25    27	5 ;       HGP1      NG2S1      CG311
   25    27    29	5 ;      NG2S1      CG311     CG2R61
   25    27    28	5 ;      NG2S1      CG311      CG331
   25    27    56	5 ;      NG2S1      CG311       HGA1
   29    27    28	5 ;     CG2R61      CG311      CG331
   29    27    56	5 ;     CG2R61      CG311       HGA1
   28    27    56	5 ;      CG331      CG311       HGA1
   27    28    70	5 ;      CG311      CG331       HGA3
   27    28    71	5 ;      CG311      CG331       HGA3
   27    28    72	5 ;      CG311      CG331       HGA3
   70    28    71	5 ;       HGA3      CG331       HGA3
   70    28    72	5 ;       HGA3      CG331       HGA3
   71    28    72	5 ;       HGA3      CG331       HGA3
   27    29    35	5 ;      CG311     CG2R61     CG2R61
   27    29    30	5 ;      CG311     CG2R61     CG2R61
   35    29    30	5 ;     CG2R61     CG2R61     CG2R61
   29    30    31	5 ;     CG2R61     CG2R61     CG2R61
   29    30    57	5 ;     CG2R61     CG2R61      HGR61
   31    30    57	5 ;     CG2R61     CG2R61      HGR61
   30    31    32	5 ;     CG2R61     CG2R61     CG2R66
   30    31    58	5 ;     CG2R61     CG2R61      HGR62
   32    31    58	5 ;     CG2R66     CG2R61      HGR62
   34    32    31	5 ;     CG2R61     CG2R66     CG2R61
   34    32    33	5 ;     CG2R61     CG2R66       FGR1
   31    32    33	5 ;     CG2R61     CG2R66       FGR1
   35    34    32	5 ;     CG2R61     CG2R61     CG2R66
   35    34    59	5 ;     CG2R61     CG2R61      HGR62
   32    34    59	5 ;     CG2R66     CG2R61      HGR62
   29    35    34	5 ;     CG2R61     CG2R61     CG2R61
   29    35    60	5 ;     CG2R61     CG2R61      HGR61
   34    35    60	5 ;     CG2R61     CG2R61      HGR61
   37    36    38	5 ;      CG331      NG301      SG3O2
   37    36     1	5 ;      CG331      NG301     CG2R61
   38    36     1	5 ;      SG3O2      NG301     CG2R61
   36    37    61	5 ;      NG301      CG331       HGA3
   36    37    62	5 ;      NG301      CG331       HGA3
   36    37    63	5 ;      NG301      CG331       HGA3
   61    37    62	5 ;       HGA3      CG331       HGA3
   61    37    63	5 ;       HGA3      CG331       HGA3
   62    37    63	5 ;       HGA3      CG331       HGA3
   41    38    36	5 ;      CG331      SG3O2      NG301
   41    38    40	5 ;      CG331      SG3O2      OG2P1
   41    38    39	5 ;      CG331      SG3O2      OG2P1
   36    38    40	5 ;      NG301      SG3O2      OG2P1
   36    38    39	5 ;      NG301      SG3O2      OG2P1
   40    38    39	5 ;      OG2P1      SG3O2      OG2P1
   38    41    67	5 ;      SG3O2      CG331       HGA3
   38    41    68	5 ;      SG3O2      CG331       HGA3
   38    41    69	5 ;      SG3O2      CG331       HGA3
   67    41    68	5 ;       HGA3      CG331       HGA3
   67    41    69	5 ;       HGA3      CG331       HGA3
   68    41    69	5 ;       HGA3      CG331       HGA3

[ dihedrals ]
;	ai	  aj	ak	  al funct			  c0			c1			  c2			c3			  c4			c5
   36     1     6     5	 9 ;      NG301     CG2R61     CG2R61     CG2R61
   36     1     6    44	 9 ;      NG301     CG2R61     CG2R61      HGR61
    2     1     6     5	 9 ;     CG2R61     CG2R61     CG2R61     CG2R61
    2     1     6    44	 9 ;     CG2R61     CG2R61     CG2R61      HGR61
    6     1    36    37	 9 ;     CG2R61     CG2R61      NG301      CG331
    6     1    36    38	 9 ;     CG2R61     CG2R61      NG301      SG3O2
    2     1    36    37	 9 ;     CG2R61     CG2R61      NG301      CG331
    2     1    36    38	 9 ;     CG2R61     CG2R61      NG301      SG3O2
    6     1     2     3	 9 ;     CG2R61     CG2R61     CG2R61     CG2R61
    6     1     2    42	 9 ;     CG2R61     CG2R61     CG2R61      HGR61
   36     1     2     3	 9 ;      NG301     CG2R61     CG2R61     CG2R61
   36     1     2    42	 9 ;      NG301     CG2R61     CG2R61      HGR61
    1     2     3     4	 9 ;     CG2R61     CG2R61     CG2R61     CG2R61
    1     2     3    23	 9 ;     CG2R61     CG2R61     CG2R61      CG2O1
   42     2     3     4	 9 ;      HGR61     CG2R61     CG2R61     CG2R61
   42     2     3    23	 9 ;      HGR61     CG2R61     CG2R61      CG2O1
    2     3     4     5	 9 ;     CG2R61     CG2R61     CG2R61     CG2R61
    2     3     4    43	 9 ;     CG2R61     CG2R61     CG2R61      HGR61
   23     3     4     5	 9 ;      CG2O1     CG2R61     CG2R61     CG2R61
   23     3     4    43	 9 ;      CG2O1     CG2R61     CG2R61      HGR61
    4     3    23    24	 9 ;     CG2R61     CG2R61      CG2O1      OG2D1
    4     3    23    25	 9 ;     CG2R61     CG2R61      CG2O1      NG2S1
    2     3    23    24	 9 ;     CG2R61     CG2R61      CG2O1      OG2D1
    2     3    23    25	 9 ;     CG2R61     CG2R61      CG2O1      NG2S1
    3     4     5     7	 9 ;     CG2R61     CG2R61     CG2R61      CG321
    3     4     5     6	 9 ;     CG2R61     CG2R61     CG2R61     CG2R61
   43     4     5     7	 9 ;      HGR61     CG2R61     CG2R61      CG321
   43     4     5     6	 9 ;      HGR61     CG2R61     CG2R61     CG2R61
    6     5     7     8	 9 ;     CG2R61     CG2R61      CG321      OG301
    6     5     7    45	 9 ;     CG2R61     CG2R61      CG321       HGA2
    6     5     7    46	 9 ;     CG2R61     CG2R61      CG321       HGA2
    4     5     7     8	 9 ;     CG2R61     CG2R61      CG321      OG301
    4     5     7    45	 9 ;     CG2R61     CG2R61      CG321       HGA2
    4     5     7    46	 9 ;     CG2R61     CG2R61      CG321       HGA2
    7     5     6     1	 9 ;      CG321     CG2R61     CG2R61     CG2R61
    7     5     6    44	 9 ;      CG321     CG2R61     CG2R61      HGR61
    4     5     6     1	 9 ;     CG2R61     CG2R61     CG2R61     CG2R61
    4     5     6    44	 9 ;     CG2R61     CG2R61     CG2R61      HGR61
    5     7     8     9	 9 ;     CG2R61      CG321      OG301      CG321
   45     7     8     9	 9 ;       HGA2      CG321      OG301      CG321
   46     7     8     9	 9 ;       HGA2      CG321      OG301      CG321
    7     8     9    10	 9 ;      CG321      OG301      CG321      CG301
    7     8     9    47	 9 ;      CG321      OG301      CG321       HGA2
    7     8     9    48	 9 ;      CG321      OG301      CG321       HGA2
    8     9    10    12	 9 ;      OG301      CG321      CG301      CG321
    8     9    10    19	 9 ;      OG301      CG321      CG301      NG3P3
    8     9    10    11	 9 ;      OG301      CG321      CG301      CG331
   47     9    10    12	 9 ;       HGA2      CG321      CG301      CG321
   47     9    10    19	 9 ;       HGA2      CG321      CG301      NG3P3
   47     9    10    11	 9 ;       HGA2      CG321      CG301      CG331
   48     9    10    12	 9 ;       HGA2      CG321      CG301      CG321
   48     9    10    19	 9 ;       HGA2      CG321      CG301      NG3P3
   48     9    10    11	 9 ;       HGA2      CG321      CG301      CG331
   19    10    12    13	 9 ;      NG3P3      CG301      CG321     CG2R61
   19    10    12    49	 9 ;      NG3P3      CG301      CG321       HGA2
   19    10    12    50	 9 ;      NG3P3      CG301      CG321       HGA2
    9    10    12    13	 9 ;      CG321      CG301      CG321     CG2R61
    9    10    12    49	 9 ;      CG321      CG301      CG321       HGA2
    9    10    12    50	 9 ;      CG321      CG301      CG321       HGA2
   11    10    12    13	 9 ;      CG331      CG301      CG321     CG2R61
   11    10    12    49	 9 ;      CG331      CG301      CG321       HGA2
   11    10    12    50	 9 ;      CG331      CG301      CG321       HGA2
   12    10    19    22	 9 ;      CG321      CG301      NG3P3       HGP2
   12    10    19    21	 9 ;      CG321      CG301      NG3P3       HGP2
   12    10    19    20	 9 ;      CG321      CG301      NG3P3       HGP2
    9    10    19    22	 9 ;      CG321      CG301      NG3P3       HGP2
    9    10    19    21	 9 ;      CG321      CG301      NG3P3       HGP2
    9    10    19    20	 9 ;      CG321      CG301      NG3P3       HGP2
   11    10    19    22	 9 ;      CG331      CG301      NG3P3       HGP2
   11    10    19    21	 9 ;      CG331      CG301      NG3P3       HGP2
   11    10    19    20	 9 ;      CG331      CG301      NG3P3       HGP2
   12    10    11    64	 9 ;      CG321      CG301      CG331       HGA3
   12    10    11    65	 9 ;      CG321      CG301      CG331       HGA3
   12    10    11    66	 9 ;      CG321      CG301      CG331       HGA3
   19    10    11    64	 9 ;      NG3P3      CG301      CG331       HGA3
   19    10    11    65	 9 ;      NG3P3      CG301      CG331       HGA3
   19    10    11    66	 9 ;      NG3P3      CG301      CG331       HGA3
    9    10    11    64	 9 ;      CG321      CG301      CG331       HGA3
    9    10    11    65	 9 ;      CG321      CG301      CG331       HGA3
    9    10    11    66	 9 ;      CG321      CG301      CG331       HGA3
   10    12    13    18	 9 ;      CG301      CG321     CG2R61     CG2R61
   10    12    13    14	 9 ;      CG301      CG321     CG2R61     CG2R61
   49    12    13    18	 9 ;       HGA2      CG321     CG2R61     CG2R61
   49    12    13    14	 9 ;       HGA2      CG321     CG2R61     CG2R61
   50    12    13    18	 9 ;       HGA2      CG321     CG2R61     CG2R61
   50    12    13    14	 9 ;       HGA2      CG321     CG2R61     CG2R61
   12    13    18    17	 9 ;      CG321     CG2R61     CG2R61     CG2R61
   12    13    18    55	 9 ;      CG321     CG2R61     CG2R61      HGR61
   14    13    18    17	 9 ;     CG2R61     CG2R61     CG2R61     CG2R61
   14    13    18    55	 9 ;     CG2R61     CG2R61     CG2R61      HGR61
   12    13    14    15	 9 ;      CG321     CG2R61     CG2R61     CG2R61
   12    13    14    51	 9 ;      CG321     CG2R61     CG2R61      HGR61
   18    13    14    15	 9 ;     CG2R61     CG2R61     CG2R61     CG2R61
   18    13    14    51	 9 ;     CG2R61     CG2R61     CG2R61      HGR61
   13    14    15    16	 9 ;     CG2R61     CG2R61     CG2R61     CG2R61
   13    14    15    52	 9 ;     CG2R61     CG2R61     CG2R61      HGR61
   51    14    15    16	 9 ;      HGR61     CG2R61     CG2R61     CG2R61
   51    14    15    52	 9 ;      HGR61     CG2R61     CG2R61      HGR61
   14    15    16    17	 9 ;     CG2R61     CG2R61     CG2R61     CG2R61
   14    15    16    53	 9 ;     CG2R61     CG2R61     CG2R61      HGR61
   52    15    16    17	 9 ;      HGR61     CG2R61     CG2R61     CG2R61
   52    15    16    53	 9 ;      HGR61     CG2R61     CG2R61      HGR61
   15    16    17    18	 9 ;     CG2R61     CG2R61     CG2R61     CG2R61
   15    16    17    54	 9 ;     CG2R61     CG2R61     CG2R61      HGR61
   53    16    17    18	 9 ;      HGR61     CG2R61     CG2R61     CG2R61
   53    16    17    54	 9 ;      HGR61     CG2R61     CG2R61      HGR61
   16    17    18    13	 9 ;     CG2R61     CG2R61     CG2R61     CG2R61
   16    17    18    55	 9 ;     CG2R61     CG2R61     CG2R61      HGR61
   54    17    18    13	 9 ;      HGR61     CG2R61     CG2R61     CG2R61
   54    17    18    55	 9 ;      HGR61     CG2R61     CG2R61      HGR61
    3    23    25    26	 9 ;     CG2R61      CG2O1      NG2S1       HGP1
    3    23    25    27	 9 ;     CG2R61      CG2O1      NG2S1      CG311
   24    23    25    26	 9 ;      OG2D1      CG2O1      NG2S1       HGP1
   24    23    25    27	 9 ;      OG2D1      CG2O1      NG2S1      CG311
   23    25    27    29	 9 ;      CG2O1      NG2S1      CG311     CG2R61
   23    25    27    28	 9 ;      CG2O1      NG2S1      CG311      CG331
   23    25    27    56	 9 ;      CG2O1      NG2S1      CG311       HGA1
   26    25    27    29	 9 ;       HGP1      NG2S1      CG311     CG2R61
   26    25    27    28	 9 ;       HGP1      NG2S1      CG311      CG331
   26    25    27    56	 9 ;       HGP1      NG2S1      CG311       HGA1
   25    27    29    35	 9 ;      NG2S1      CG311     CG2R61     CG2R61
   25    27    29    30	 9 ;      NG2S1      CG311     CG2R61     CG2R61
   28    27    29    35	 9 ;      CG331      CG311     CG2R61     CG2R61
   28    27    29    30	 9 ;      CG331      CG311     CG2R61     CG2R61
   56    27    29    35	 9 ;       HGA1      CG311     CG2R61     CG2R61
   56    27    29    30	 9 ;       HGA1      CG311     CG2R61     CG2R61
   25    27    28    70	 9 ;      NG2S1      CG311      CG331       HGA3
   25    27    28    71	 9 ;      NG2S1      CG311      CG331       HGA3
   25    27    28    72	 9 ;      NG2S1      CG311      CG331       HGA3
   29    27    28    70	 9 ;     CG2R61      CG311      CG331       HGA3
   29    27    28    71	 9 ;     CG2R61      CG311      CG331       HGA3
   29    27    28    72	 9 ;     CG2R61      CG311      CG331       HGA3
   56    27    28    70	 9 ;       HGA1      CG311      CG331       HGA3
   56    27    28    71	 9 ;       HGA1      CG311      CG331       HGA3
   56    27    28    72	 9 ;       HGA1      CG311      CG331       HGA3
   27    29    35    34	 9 ;      CG311     CG2R61     CG2R61     CG2R61
   27    29    35    60	 9 ;      CG311     CG2R61     CG2R61      HGR61
   30    29    35    34	 9 ;     CG2R61     CG2R61     CG2R61     CG2R61
   30    29    35    60	 9 ;     CG2R61     CG2R61     CG2R61      HGR61
   27    29    30    31	 9 ;      CG311     CG2R61     CG2R61     CG2R61
   27    29    30    57	 9 ;      CG311     CG2R61     CG2R61      HGR61
   35    29    30    31	 9 ;     CG2R61     CG2R61     CG2R61     CG2R61
   35    29    30    57	 9 ;     CG2R61     CG2R61     CG2R61      HGR61
   29    30    31    32	 9 ;     CG2R61     CG2R61     CG2R61     CG2R66
   29    30    31    58	 9 ;     CG2R61     CG2R61     CG2R61      HGR62
   57    30    31    32	 9 ;      HGR61     CG2R61     CG2R61     CG2R66
   57    30    31    58	 9 ;      HGR61     CG2R61     CG2R61      HGR62
   30    31    32    34	 9 ;     CG2R61     CG2R61     CG2R66     CG2R61
   30    31    32    33	 9 ;     CG2R61     CG2R61     CG2R66       FGR1
   58    31    32    34	 9 ;      HGR62     CG2R61     CG2R66     CG2R61
   58    31    32    33	 9 ;      HGR62     CG2R61     CG2R66       FGR1
   31    32    34    35	 9 ;     CG2R61     CG2R66     CG2R61     CG2R61
   31    32    34    59	 9 ;     CG2R61     CG2R66     CG2R61      HGR62
   33    32    34    35	 9 ;       FGR1     CG2R66     CG2R61     CG2R61
   33    32    34    59	 9 ;       FGR1     CG2R66     CG2R61      HGR62
   32    34    35    29	 9 ;     CG2R66     CG2R61     CG2R61     CG2R61
   32    34    35    60	 9 ;     CG2R66     CG2R61     CG2R61      HGR61
   59    34    35    29	 9 ;      HGR62     CG2R61     CG2R61     CG2R61
   59    34    35    60	 9 ;      HGR62     CG2R61     CG2R61      HGR61
   38    36    37    61	 9 ;      SG3O2      NG301      CG331       HGA3
   38    36    37    62	 9 ;      SG3O2      NG301      CG331       HGA3
   38    36    37    63	 9 ;      SG3O2      NG301      CG331       HGA3
    1    36    37    61	 9 ;     CG2R61      NG301      CG331       HGA3
    1    36    37    62	 9 ;     CG2R61      NG301      CG331       HGA3
    1    36    37    63	 9 ;     CG2R61      NG301      CG331       HGA3
   37    36    38    41	 9 ;      CG331      NG301      SG3O2      CG331
   37    36    38    40	 9 ;      CG331      NG301      SG3O2      OG2P1
   37    36    38    39	 9 ;      CG331      NG301      SG3O2      OG2P1
    1    36    38    41	 9 ;     CG2R61      NG301      SG3O2      CG331
    1    36    38    40	 9 ;     CG2R61      NG301      SG3O2      OG2P1
    1    36    38    39	 9 ;     CG2R61      NG301      SG3O2      OG2P1
   36    38    41    67	 9 ;      NG301      SG3O2      CG331       HGA3
   36    38    41    68	 9 ;      NG301      SG3O2      CG331       HGA3
   36    38    41    69	 9 ;      NG301      SG3O2      CG331       HGA3
   40    38    41    67	 9 ;      OG2P1      SG3O2      CG331       HGA3
   40    38    41    68	 9 ;      OG2P1      SG3O2      CG331       HGA3
   40    38    41    69	 9 ;      OG2P1      SG3O2      CG331       HGA3
   39    38    41    67	 9 ;      OG2P1      SG3O2      CG331       HGA3
   39    38    41    68	 9 ;      OG2P1      SG3O2      CG331       HGA3
   39    38    41    69	 9 ;      OG2P1      SG3O2      CG331       HGA3

[ dihedrals ]
;	ai	  aj	ak	  al funct			  c0			c1			  c2			c3
   23     3    25    24	 2

