Getting the Right Output Means no Artefacts in Calculating Stuff
   91
    1LIG     C1    1  -1.310   0.525  -1.729
    1LIG     N1    2  -1.322   0.610  -1.605
    1LIG     C2    3  -1.226   0.648  -1.514
    1LIG     O1    4  -1.213   0.766  -1.485
    1LIG     H1    5  -1.379   0.692  -1.625
    1LIG     C3    6  -1.166   0.540  -1.432
    1LIG     C4    7  -1.246   0.449  -1.374
    1LIG     C5    8  -1.198   0.311  -1.357
    1LIG     C6    9  -1.066   0.269  -1.373
    1LIG     C7   10  -1.036   0.132  -1.372
    1LIG     C8   11  -1.138   0.036  -1.355
    1LIG     C9   12  -1.269   0.080  -1.333
    1LIG    C10   13  -1.298   0.216  -1.333
    1LIG    C11   14  -1.112  -0.112  -1.366
    1LIG     F1   15  -0.994  -0.144  -1.427
    1LIG     F2   16  -1.209  -0.176  -1.438
    1LIG     F3   17  -1.109  -0.174  -1.245
    1LIG    C12   18  -1.394   0.391  -1.720
    1LIG    C13   19  -1.533   0.368  -1.656
    1LIG    C14   20  -1.627   0.294  -1.734
    1LIG    C15   21  -1.757   0.265  -1.689
    1LIG    C16   22  -1.798   0.310  -1.563
    1LIG    C17   23  -1.705   0.379  -1.482
    1LIG    C18   24  -1.575   0.406  -1.528
    1LIG     N2   25  -1.935   0.285  -1.516
    1LIG     O2   26  -2.008   0.218  -1.591
    1LIG     O3   27  -1.970   0.335  -1.408
    1LIG    C19   28  -1.384   0.614  -1.844
    1LIG     O4   29  -1.328   0.629  -1.953
    1LIG     N3   30  -1.507   0.677  -1.819
    1LIG     H2   31  -1.569   0.629  -1.755
    1LIG    C20   32  -1.577   0.764  -1.923
    1LIG    C21   33  -1.716   0.697  -1.963
    1LIG    C22   34  -1.722   0.541  -1.975
    1LIG    C23   35  -1.867   0.494  -1.999
    1LIG    C24   36  -1.631   0.476  -2.079
    1LIG    C25   37  -1.606   0.914  -1.877
    1LIG     O5   38  -1.749   0.935  -1.887
    1LIG     H3   39  -1.782   0.957  -1.798
    1LIG    C26   40  -1.561   0.985  -1.746
    1LIG    C27   41  -1.633   0.980  -1.608
    1LIG    C28   42  -1.748   1.077  -1.584
    1LIG    C29   43  -1.680   0.832  -1.582
    1LIG     O6   44  -1.601   0.743  -1.551
    1LIG     N4   45  -1.816   0.808  -1.597
    1LIG     H4   46  -1.863   0.852  -1.519
    1LIG    C30   47  -1.878   0.676  -1.620
    1LIG    C31   48  -2.023   0.683  -1.674
    1LIG    C32   49  -2.039   0.772  -1.798
    1LIG    C33   50  -2.076   0.543  -1.710
    1LIG     HC   51  -1.205   0.506  -1.754
    1LIG    HC1   52  -1.058   0.534  -1.420
    1LIG    HC2   53  -1.345   0.478  -1.339
    1LIG    HC3   54  -0.987   0.342  -1.386
    1LIG    HC4   55  -0.934   0.100  -1.385
    1LIG    HC5   56  -1.347   0.008  -1.315
    1LIG    HC6   57  -1.400   0.248  -1.315
    1LIG    HC7   58  -1.329   0.322  -1.667
    1LIG    HC8   59  -1.402   0.354  -1.822
    1LIG    HC9   60  -1.597   0.258  -1.831
    1LIG   HC10   61  -1.825   0.208  -1.751
    1LIG   HC11   62  -1.734   0.411  -1.383
    1LIG   HC12   63  -1.506   0.458  -1.464
    1LIG   HC13   64  -1.514   0.768  -2.012
    1LIG   HC14   65  -1.744   0.738  -2.060
    1LIG   HC15   66  -1.790   0.729  -1.890
    1LIG   HC16   67  -1.692   0.502  -1.878
    1LIG   HC17   68  -1.933   0.540  -1.925
    1LIG   HC18   69  -1.898   0.523  -2.099
    1LIG   HC19   70  -1.871   0.386  -1.989
    1LIG   HC20   71  -1.528   0.508  -2.063
    1LIG   HC21   72  -1.664   0.505  -2.179
    1LIG   HC22   73  -1.637   0.367  -2.069
    1LIG   HC23   74  -1.564   0.975  -1.957
    1LIG   HC24   75  -1.461   0.947  -1.727
    1LIG   HC25   76  -1.551   1.090  -1.771
    1LIG   HC26   77  -1.557   1.002  -1.533
    1LIG   HC27   78  -1.710   1.179  -1.581
    1LIG   HC28   79  -1.821   1.067  -1.665
    1LIG   HC29   80  -1.797   1.053  -1.490
    1LIG   HC30   81  -1.878   0.621  -1.526
    1LIG   HC31   82  -1.816   0.621  -1.692
    1LIG   HC32   83  -2.086   0.724  -1.596
    1LIG   HC33   84  -2.003   0.872  -1.776
    1LIG   HC34   85  -1.982   0.729  -1.881
    1LIG   HC35   86  -2.145   0.777  -1.826
    1LIG   HC36   87  -2.066   0.477  -1.623
    1LIG   HC37   88  -2.181   0.550  -1.738
    1LIG   HC38   89  -2.019   0.502  -1.793
    1LIG    H44   90  -1.172   0.603  -1.344
    1LIG    H45   91  -1.205   0.476  -1.276
   0.00000   0.00000   0.00000
