; Created by cgenff_charmm2gmx.py

[ moleculetype ]
; Name			   nrexcl
LIG				 3

[ atoms ]
;	 nr		  type	resnr residue  atom   cgnr	   charge		mass  typeB    chargeB		massB
; residue	 1 LIG rtp LIG q	qsum
     1      CG311      1    LIG     C1      1      0.065     12.011   ;
     2      NG2S1      1    LIG     N1      2     -0.455     14.007   ;
     3      CG2O1      1    LIG     C2      3      0.496     12.011   ;
     4      OG2D1      1    LIG     O1      4     -0.517     15.999   ;
     5       HGP1      1    LIG     H1      5      0.328      1.008   ;
     6      CG321      1    LIG     C3      6     -0.189     12.011   ;
     7      CG321      1    LIG     C4      7     -0.145     12.011   ;
     8     CG2R61      1    LIG     C5      8      0.009     12.011   ;
     9     CG2R61      1    LIG     C6      9     -0.101     12.011   ;
    10     CG2R61      1    LIG     C7     10     -0.031     12.011   ;
    11     CG2R61      1    LIG     C8     11     -0.283     12.011   ;
    12     CG2R61      1    LIG     C9     12     -0.031     12.011   ;
    13     CG2R61      1    LIG    C10     13     -0.101     12.011   ;
    14      CG302      1    LIG    C11     14      0.605     12.011   ;
    15       FGA3      1    LIG     F1     15     -0.176     18.998   ;
    16       FGA3      1    LIG     F2     16     -0.176     18.998   ;
    17       FGA3      1    LIG     F3     17     -0.176     18.998   ;
    18      CG321      1    LIG    C12     18     -0.180     12.011   ;
    19     CG2R61      1    LIG    C13     19     -0.003     12.011   ;
    20     CG2R61      1    LIG    C14     20     -0.104     12.011   ;
    21     CG2R61      1    LIG    C15     21     -0.221     12.011   ;
    22     CG2R61      1    LIG    C16     22      0.324     12.011   ;
    23     CG2R61      1    LIG    C17     23     -0.221     12.011   ;
    24     CG2R61      1    LIG    C18     24     -0.104     12.011   ;
    25      NG2O1      1    LIG     N2     25      0.386     14.007   ;
    26      OG2N1      1    LIG     O2     26     -0.311     15.999   ;
    27      OG2N1      1    LIG     O3     27     -0.311     15.999   ;
    28      CG2O1      1    LIG    C19     28      0.495     12.011   ;
    29      OG2D1      1    LIG     O4     29     -0.509     15.999   ;
    30      NG2S1      1    LIG     N3     30     -0.401     14.007   ;
    31       HGP1      1    LIG     H2     31      0.269      1.008   ;
    32      CG311      1    LIG    C20     32     -0.042     12.011   ;
    33      CG321      1    LIG    C21     33     -0.101     12.011   ;
    34      CG311      1    LIG    C22     34     -0.109     12.011   ;
    35      CG331      1    LIG    C23     35     -0.268     12.011   ;
    36      CG331      1    LIG    C24     36     -0.268     12.011   ;
    37      CG311      1    LIG    C25     37      0.119     12.011   ;
    38      OG311      1    LIG     O5     38     -0.648     15.999   ;
    39       HGP1      1    LIG     H3     39      0.421      1.008   ;
    40      CG321      1    LIG    C26     40     -0.187     12.011   ;
    41      CG311      1    LIG    C27     41     -0.033     12.011   ;
    42      CG331      1    LIG    C28     42     -0.266     12.011   ;
    43      CG2O1      1    LIG    C29     43      0.492     12.011   ;
    44      OG2D1      1    LIG     O6     44     -0.514     15.999   ;
    45      NG2S1      1    LIG     N4     45     -0.471     14.007   ;
    46       HGP1      1    LIG     H4     46      0.310      1.008   ;
    47      CG321      1    LIG    C30     47     -0.007     12.011   ;
    48      CG311      1    LIG    C31     48     -0.133     12.011   ;
    49      CG331      1    LIG    C32     49     -0.258     12.011   ;
    50      CG331      1    LIG    C33     50     -0.258     12.011   ;
    51       HGA1      1    LIG     HC     51      0.090      1.008   ;
    52       HGA2      1    LIG    HC1     52      0.090      1.008   ;
    53       HGA2      1    LIG    HC2     53      0.090      1.008   ;
    54      HGR61      1    LIG    HC3     54      0.116      1.008   ;
    55      HGR61      1    LIG    HC4     55      0.116      1.008   ;
    56      HGR61      1    LIG    HC5     56      0.116      1.008   ;
    57      HGR61      1    LIG    HC6     57      0.116      1.008   ;
    58       HGA2      1    LIG    HC7     58      0.090      1.008   ;
    59       HGA2      1    LIG    HC8     59      0.090      1.008   ;
    60      HGR61      1    LIG    HC9     60      0.116      1.008   ;
    61      HGR61      1    LIG   HC10     61      0.162      1.008   ;
    62      HGR61      1    LIG   HC11     62      0.162      1.008   ;
    63      HGR61      1    LIG   HC12     63      0.116      1.008   ;
    64       HGA1      1    LIG   HC13     64      0.090      1.008   ;
    65       HGA2      1    LIG   HC14     65      0.090      1.008   ;
    66       HGA2      1    LIG   HC15     66      0.090      1.008   ;
    67       HGA1      1    LIG   HC16     67      0.090      1.008   ;
    68       HGA3      1    LIG   HC17     68      0.090      1.008   ;
    69       HGA3      1    LIG   HC18     69      0.090      1.008   ;
    70       HGA3      1    LIG   HC19     70      0.090      1.008   ;
    71       HGA3      1    LIG   HC20     71      0.090      1.008   ;
    72       HGA3      1    LIG   HC21     72      0.090      1.008   ;
    73       HGA3      1    LIG   HC22     73      0.090      1.008   ;
    74       HGA1      1    LIG   HC23     74      0.090      1.008   ;
    75       HGA2      1    LIG   HC24     75      0.090      1.008   ;
    76       HGA2      1    LIG   HC25     76      0.090      1.008   ;
    77       HGA1      1    LIG   HC26     77      0.090      1.008   ;
    78       HGA3      1    LIG   HC27     78      0.090      1.008   ;
    79       HGA3      1    LIG   HC28     79      0.090      1.008   ;
    80       HGA3      1    LIG   HC29     80      0.090      1.008   ;
    81       HGA2      1    LIG   HC30     81      0.090      1.008   ;
    82       HGA2      1    LIG   HC31     82      0.090      1.008   ;
    83       HGA1      1    LIG   HC32     83      0.090      1.008   ;
    84       HGA3      1    LIG   HC33     84      0.090      1.008   ;
    85       HGA3      1    LIG   HC34     85      0.090      1.008   ;
    86       HGA3      1    LIG   HC35     86      0.090      1.008   ;
    87       HGA3      1    LIG   HC36     87      0.090      1.008   ;
    88       HGA3      1    LIG   HC37     88      0.090      1.008   ;
    89       HGA3      1    LIG   HC38     89      0.090      1.008   ;
    90       HGA2      1    LIG    H44     90      0.090      1.008   ;
    91       HGA2      1    LIG    H45     91      0.090      1.008   ;

[ bonds ]
;	ai	  aj funct			  c0			c1			  c2			c3
    1    28	 1 ;       CG311      CG2O1
    1     2	 1 ;       CG311      NG2S1
    1    18	 1 ;       CG311      CG321
    1    51	 1 ;       CG311       HGA1
    2     3	 1 ;       NG2S1      CG2O1
    2     5	 1 ;       NG2S1       HGP1
    3     4	 1 ;       CG2O1      OG2D1
    3     6	 1 ;       CG2O1      CG321
    6     7	 1 ;       CG321      CG321
    6    52	 1 ;       CG321       HGA2
    6    90	 1 ;       CG321       HGA2
    7     8	 1 ;       CG321     CG2R61
    7    53	 1 ;       CG321       HGA2
    7    91	 1 ;       CG321       HGA2
    8     9	 1 ;      CG2R61     CG2R61
    8    13	 1 ;      CG2R61     CG2R61
    9    10	 1 ;      CG2R61     CG2R61
    9    54	 1 ;      CG2R61      HGR61
   10    11	 1 ;      CG2R61     CG2R61
   10    55	 1 ;      CG2R61      HGR61
   11    14	 1 ;      CG2R61      CG302
   11    12	 1 ;      CG2R61     CG2R61
   12    13	 1 ;      CG2R61     CG2R61
   12    56	 1 ;      CG2R61      HGR61
   13    57	 1 ;      CG2R61      HGR61
   14    15	 1 ;       CG302       FGA3
   14    16	 1 ;       CG302       FGA3
   14    17	 1 ;       CG302       FGA3
   18    19	 1 ;       CG321     CG2R61
   18    58	 1 ;       CG321       HGA2
   18    59	 1 ;       CG321       HGA2
   19    20	 1 ;      CG2R61     CG2R61
   19    24	 1 ;      CG2R61     CG2R61
   20    21	 1 ;      CG2R61     CG2R61
   20    60	 1 ;      CG2R61      HGR61
   21    22	 1 ;      CG2R61     CG2R61
   21    61	 1 ;      CG2R61      HGR61
   22    23	 1 ;      CG2R61     CG2R61
   22    25	 1 ;      CG2R61      NG2O1
   23    24	 1 ;      CG2R61     CG2R61
   23    62	 1 ;      CG2R61      HGR61
   24    63	 1 ;      CG2R61      HGR61
   25    26	 1 ;       NG2O1      OG2N1
   25    27	 1 ;       NG2O1      OG2N1
   28    29	 1 ;       CG2O1      OG2D1
   28    30	 1 ;       CG2O1      NG2S1
   30    32	 1 ;       NG2S1      CG311
   30    31	 1 ;       NG2S1       HGP1
   32    37	 1 ;       CG311      CG311
   32    33	 1 ;       CG311      CG321
   32    64	 1 ;       CG311       HGA1
   33    34	 1 ;       CG321      CG311
   33    65	 1 ;       CG321       HGA2
   33    66	 1 ;       CG321       HGA2
   34    36	 1 ;       CG311      CG331
   34    35	 1 ;       CG311      CG331
   34    67	 1 ;       CG311       HGA1
   35    68	 1 ;       CG331       HGA3
   35    69	 1 ;       CG331       HGA3
   35    70	 1 ;       CG331       HGA3
   36    71	 1 ;       CG331       HGA3
   36    72	 1 ;       CG331       HGA3
   36    73	 1 ;       CG331       HGA3
   37    40	 1 ;       CG311      CG321
   37    38	 1 ;       CG311      OG311
   37    74	 1 ;       CG311       HGA1
   38    39	 1 ;       OG311       HGP1
   40    41	 1 ;       CG321      CG311
   40    75	 1 ;       CG321       HGA2
   40    76	 1 ;       CG321       HGA2
   41    43	 1 ;       CG311      CG2O1
   41    42	 1 ;       CG311      CG331
   41    77	 1 ;       CG311       HGA1
   42    78	 1 ;       CG331       HGA3
   42    79	 1 ;       CG331       HGA3
   42    80	 1 ;       CG331       HGA3
   43    44	 1 ;       CG2O1      OG2D1
   43    45	 1 ;       CG2O1      NG2S1
   45    47	 1 ;       NG2S1      CG321
   45    46	 1 ;       NG2S1       HGP1
   47    48	 1 ;       CG321      CG311
   47    81	 1 ;       CG321       HGA2
   47    82	 1 ;       CG321       HGA2
   48    49	 1 ;       CG311      CG331
   48    50	 1 ;       CG311      CG331
   48    83	 1 ;       CG311       HGA1
   49    84	 1 ;       CG331       HGA3
   49    85	 1 ;       CG331       HGA3
   49    86	 1 ;       CG331       HGA3
   50    87	 1 ;       CG331       HGA3
   50    88	 1 ;       CG331       HGA3
   50    89	 1 ;       CG331       HGA3

[ pairs ]
;	ai	  aj funct			  c0			c1			  c2			c3
    1     4	 1
    1     6	 1
    1    20	 1
    1    24	 1
    1    32	 1
    1    31	 1
    2    29	 1
    2    30	 1
    2    19	 1
    2    58	 1
    2    59	 1
    2     7	 1
    2    52	 1
    2    90	 1
    3    28	 1
    3    18	 1
    3    51	 1
    3     8	 1
    3    53	 1
    3    91	 1
    4     5	 1
    4     7	 1
    4    52	 1
    4    90	 1
    5    28	 1
    5    18	 1
    5    51	 1
    5     6	 1
    6     9	 1
    6    13	 1
    7    10	 1
    7    54	 1
    7    12	 1
    7    57	 1
    8    52	 1
    8    90	 1
    8    11	 1
    8    55	 1
    8    56	 1
    9    53	 1
    9    91	 1
    9    12	 1
    9    57	 1
    9    14	 1
   10    13	 1
   10    15	 1
   10    16	 1
   10    17	 1
   10    56	 1
   11    54	 1
   11    57	 1
   12    55	 1
   12    15	 1
   12    16	 1
   12    17	 1
   13    53	 1
   13    91	 1
   13    54	 1
   13    14	 1
   14    55	 1
   14    56	 1
   18    29	 1
   18    30	 1
   18    21	 1
   18    60	 1
   18    23	 1
   18    63	 1
   19    28	 1
   19    51	 1
   19    22	 1
   19    61	 1
   19    62	 1
   20    58	 1
   20    59	 1
   20    23	 1
   20    63	 1
   20    25	 1
   21    24	 1
   21    62	 1
   21    26	 1
   21    27	 1
   22    60	 1
   22    63	 1
   23    61	 1
   23    26	 1
   23    27	 1
   24    58	 1
   24    59	 1
   24    60	 1
   24    25	 1
   25    61	 1
   25    62	 1
   28    58	 1
   28    59	 1
   28    37	 1
   28    33	 1
   28    64	 1
   29    51	 1
   29    32	 1
   29    31	 1
   30    51	 1
   30    40	 1
   30    38	 1
   30    74	 1
   30    34	 1
   30    65	 1
   30    66	 1
   31    37	 1
   31    33	 1
   31    64	 1
   32    36	 1
   32    35	 1
   32    67	 1
   32    41	 1
   32    75	 1
   32    76	 1
   32    39	 1
   33    40	 1
   33    38	 1
   33    74	 1
   33    71	 1
   33    72	 1
   33    73	 1
   33    68	 1
   33    69	 1
   33    70	 1
   34    37	 1
   34    64	 1
   35    65	 1
   35    66	 1
   35    71	 1
   35    72	 1
   35    73	 1
   36    65	 1
   36    66	 1
   36    68	 1
   36    69	 1
   36    70	 1
   37    65	 1
   37    66	 1
   37    43	 1
   37    42	 1
   37    77	 1
   38    64	 1
   38    41	 1
   38    75	 1
   38    76	 1
   39    40	 1
   39    74	 1
   40    64	 1
   40    44	 1
   40    45	 1
   40    78	 1
   40    79	 1
   40    80	 1
   41    74	 1
   41    47	 1
   41    46	 1
   42    75	 1
   42    76	 1
   42    44	 1
   42    45	 1
   43    75	 1
   43    76	 1
   43    78	 1
   43    79	 1
   43    80	 1
   43    48	 1
   43    81	 1
   43    82	 1
   44    77	 1
   44    47	 1
   44    46	 1
   45    77	 1
   45    49	 1
   45    50	 1
   45    83	 1
   46    48	 1
   46    81	 1
   46    82	 1
   47    84	 1
   47    85	 1
   47    86	 1
   47    87	 1
   47    88	 1
   47    89	 1
   49    81	 1
   49    82	 1
   49    87	 1
   49    88	 1
   49    89	 1
   50    81	 1
   50    82	 1
   50    84	 1
   50    85	 1
   50    86	 1
   51    58	 1
   51    59	 1
   52    53	 1
   52    91	 1
   53    90	 1
   54    55	 1
   56    57	 1
   60    61	 1
   62    63	 1
   64    74	 1
   64    65	 1
   64    66	 1
   65    67	 1
   66    67	 1
   67    71	 1
   67    72	 1
   67    73	 1
   67    68	 1
   67    69	 1
   67    70	 1
   74    75	 1
   74    76	 1
   75    77	 1
   76    77	 1
   77    78	 1
   77    79	 1
   77    80	 1
   81    83	 1
   82    83	 1
   83    84	 1
   83    85	 1
   83    86	 1
   83    87	 1
   83    88	 1
   83    89	 1
   90    91	 1

[ angles ]
;	ai	  aj	ak funct			c0			  c1			c2			  c3
   28     1     2	5 ;      CG2O1      CG311      NG2S1
   28     1    18	5 ;      CG2O1      CG311      CG321
   28     1    51	5 ;      CG2O1      CG311       HGA1
    2     1    18	5 ;      NG2S1      CG311      CG321
    2     1    51	5 ;      NG2S1      CG311       HGA1
   18     1    51	5 ;      CG321      CG311       HGA1
    1     2     3	5 ;      CG311      NG2S1      CG2O1
    1     2     5	5 ;      CG311      NG2S1       HGP1
    3     2     5	5 ;      CG2O1      NG2S1       HGP1
    4     3     6	5 ;      OG2D1      CG2O1      CG321
    4     3     2	5 ;      OG2D1      CG2O1      NG2S1
    6     3     2	5 ;      CG321      CG2O1      NG2S1
    3     6     7	5 ;      CG2O1      CG321      CG321
    3     6    52	5 ;      CG2O1      CG321       HGA2
    3     6    90	5 ;      CG2O1      CG321       HGA2
    7     6    52	5 ;      CG321      CG321       HGA2
    7     6    90	5 ;      CG321      CG321       HGA2
   52     6    90	5 ;       HGA2      CG321       HGA2
    6     7     8	5 ;      CG321      CG321     CG2R61
    6     7    53	5 ;      CG321      CG321       HGA2
    6     7    91	5 ;      CG321      CG321       HGA2
    8     7    53	5 ;     CG2R61      CG321       HGA2
    8     7    91	5 ;     CG2R61      CG321       HGA2
   53     7    91	5 ;       HGA2      CG321       HGA2
    9     8     7	5 ;     CG2R61     CG2R61      CG321
    9     8    13	5 ;     CG2R61     CG2R61     CG2R61
    7     8    13	5 ;      CG321     CG2R61     CG2R61
   10     9     8	5 ;     CG2R61     CG2R61     CG2R61
   10     9    54	5 ;     CG2R61     CG2R61      HGR61
    8     9    54	5 ;     CG2R61     CG2R61      HGR61
    9    10    11	5 ;     CG2R61     CG2R61     CG2R61
    9    10    55	5 ;     CG2R61     CG2R61      HGR61
   11    10    55	5 ;     CG2R61     CG2R61      HGR61
   10    11    14	5 ;     CG2R61     CG2R61      CG302
   10    11    12	5 ;     CG2R61     CG2R61     CG2R61
   14    11    12	5 ;      CG302     CG2R61     CG2R61
   11    12    13	5 ;     CG2R61     CG2R61     CG2R61
   11    12    56	5 ;     CG2R61     CG2R61      HGR61
   13    12    56	5 ;     CG2R61     CG2R61      HGR61
    8    13    12	5 ;     CG2R61     CG2R61     CG2R61
    8    13    57	5 ;     CG2R61     CG2R61      HGR61
   12    13    57	5 ;     CG2R61     CG2R61      HGR61
   15    14    11	5 ;       FGA3      CG302     CG2R61
   15    14    16	5 ;       FGA3      CG302       FGA3
   15    14    17	5 ;       FGA3      CG302       FGA3
   11    14    16	5 ;     CG2R61      CG302       FGA3
   11    14    17	5 ;     CG2R61      CG302       FGA3
   16    14    17	5 ;       FGA3      CG302       FGA3
    1    18    19	5 ;      CG311      CG321     CG2R61
    1    18    58	5 ;      CG311      CG321       HGA2
    1    18    59	5 ;      CG311      CG321       HGA2
   19    18    58	5 ;     CG2R61      CG321       HGA2
   19    18    59	5 ;     CG2R61      CG321       HGA2
   58    18    59	5 ;       HGA2      CG321       HGA2
   18    19    20	5 ;      CG321     CG2R61     CG2R61
   18    19    24	5 ;      CG321     CG2R61     CG2R61
   20    19    24	5 ;     CG2R61     CG2R61     CG2R61
   19    20    21	5 ;     CG2R61     CG2R61     CG2R61
   19    20    60	5 ;     CG2R61     CG2R61      HGR61
   21    20    60	5 ;     CG2R61     CG2R61      HGR61
   20    21    22	5 ;     CG2R61     CG2R61     CG2R61
   20    21    61	5 ;     CG2R61     CG2R61      HGR61
   22    21    61	5 ;     CG2R61     CG2R61      HGR61
   21    22    23	5 ;     CG2R61     CG2R61     CG2R61
   21    22    25	5 ;     CG2R61     CG2R61      NG2O1
   23    22    25	5 ;     CG2R61     CG2R61      NG2O1
   24    23    22	5 ;     CG2R61     CG2R61     CG2R61
   24    23    62	5 ;     CG2R61     CG2R61      HGR61
   22    23    62	5 ;     CG2R61     CG2R61      HGR61
   19    24    23	5 ;     CG2R61     CG2R61     CG2R61
   19    24    63	5 ;     CG2R61     CG2R61      HGR61
   23    24    63	5 ;     CG2R61     CG2R61      HGR61
   22    25    26	5 ;     CG2R61      NG2O1      OG2N1
   22    25    27	5 ;     CG2R61      NG2O1      OG2N1
   26    25    27	5 ;      OG2N1      NG2O1      OG2N1
   29    28     1	5 ;      OG2D1      CG2O1      CG311
   29    28    30	5 ;      OG2D1      CG2O1      NG2S1
    1    28    30	5 ;      CG311      CG2O1      NG2S1
   28    30    32	5 ;      CG2O1      NG2S1      CG311
   28    30    31	5 ;      CG2O1      NG2S1       HGP1
   32    30    31	5 ;      CG311      NG2S1       HGP1
   30    32    37	5 ;      NG2S1      CG311      CG311
   30    32    33	5 ;      NG2S1      CG311      CG321
   30    32    64	5 ;      NG2S1      CG311       HGA1
   37    32    33	5 ;      CG311      CG311      CG321
   37    32    64	5 ;      CG311      CG311       HGA1
   33    32    64	5 ;      CG321      CG311       HGA1
   32    33    34	5 ;      CG311      CG321      CG311
   32    33    65	5 ;      CG311      CG321       HGA2
   32    33    66	5 ;      CG311      CG321       HGA2
   34    33    65	5 ;      CG311      CG321       HGA2
   34    33    66	5 ;      CG311      CG321       HGA2
   65    33    66	5 ;       HGA2      CG321       HGA2
   36    34    33	5 ;      CG331      CG311      CG321
   36    34    35	5 ;      CG331      CG311      CG331
   36    34    67	5 ;      CG331      CG311       HGA1
   33    34    35	5 ;      CG321      CG311      CG331
   33    34    67	5 ;      CG321      CG311       HGA1
   35    34    67	5 ;      CG331      CG311       HGA1
   34    35    68	5 ;      CG311      CG331       HGA3
   34    35    69	5 ;      CG311      CG331       HGA3
   34    35    70	5 ;      CG311      CG331       HGA3
   68    35    69	5 ;       HGA3      CG331       HGA3
   68    35    70	5 ;       HGA3      CG331       HGA3
   69    35    70	5 ;       HGA3      CG331       HGA3
   34    36    71	5 ;      CG311      CG331       HGA3
   34    36    72	5 ;      CG311      CG331       HGA3
   34    36    73	5 ;      CG311      CG331       HGA3
   71    36    72	5 ;       HGA3      CG331       HGA3
   71    36    73	5 ;       HGA3      CG331       HGA3
   72    36    73	5 ;       HGA3      CG331       HGA3
   32    37    40	5 ;      CG311      CG311      CG321
   32    37    38	5 ;      CG311      CG311      OG311
   32    37    74	5 ;      CG311      CG311       HGA1
   40    37    38	5 ;      CG321      CG311      OG311
   40    37    74	5 ;      CG321      CG311       HGA1
   38    37    74	5 ;      OG311      CG311       HGA1
   37    38    39	5 ;      CG311      OG311       HGP1
   37    40    41	5 ;      CG311      CG321      CG311
   37    40    75	5 ;      CG311      CG321       HGA2
   37    40    76	5 ;      CG311      CG321       HGA2
   41    40    75	5 ;      CG311      CG321       HGA2
   41    40    76	5 ;      CG311      CG321       HGA2
   75    40    76	5 ;       HGA2      CG321       HGA2
   40    41    43	5 ;      CG321      CG311      CG2O1
   40    41    42	5 ;      CG321      CG311      CG331
   40    41    77	5 ;      CG321      CG311       HGA1
   43    41    42	5 ;      CG2O1      CG311      CG331
   43    41    77	5 ;      CG2O1      CG311       HGA1
   42    41    77	5 ;      CG331      CG311       HGA1
   41    42    78	5 ;      CG311      CG331       HGA3
   41    42    79	5 ;      CG311      CG331       HGA3
   41    42    80	5 ;      CG311      CG331       HGA3
   78    42    79	5 ;       HGA3      CG331       HGA3
   78    42    80	5 ;       HGA3      CG331       HGA3
   79    42    80	5 ;       HGA3      CG331       HGA3
   41    43    44	5 ;      CG311      CG2O1      OG2D1
   41    43    45	5 ;      CG311      CG2O1      NG2S1
   44    43    45	5 ;      OG2D1      CG2O1      NG2S1
   43    45    47	5 ;      CG2O1      NG2S1      CG321
   43    45    46	5 ;      CG2O1      NG2S1       HGP1
   47    45    46	5 ;      CG321      NG2S1       HGP1
   45    47    48	5 ;      NG2S1      CG321      CG311
   45    47    81	5 ;      NG2S1      CG321       HGA2
   45    47    82	5 ;      NG2S1      CG321       HGA2
   48    47    81	5 ;      CG311      CG321       HGA2
   48    47    82	5 ;      CG311      CG321       HGA2
   81    47    82	5 ;       HGA2      CG321       HGA2
   47    48    49	5 ;      CG321      CG311      CG331
   47    48    50	5 ;      CG321      CG311      CG331
   47    48    83	5 ;      CG321      CG311       HGA1
   49    48    50	5 ;      CG331      CG311      CG331
   49    48    83	5 ;      CG331      CG311       HGA1
   50    48    83	5 ;      CG331      CG311       HGA1
   48    49    84	5 ;      CG311      CG331       HGA3
   48    49    85	5 ;      CG311      CG331       HGA3
   48    49    86	5 ;      CG311      CG331       HGA3
   84    49    85	5 ;       HGA3      CG331       HGA3
   84    49    86	5 ;       HGA3      CG331       HGA3
   85    49    86	5 ;       HGA3      CG331       HGA3
   48    50    87	5 ;      CG311      CG331       HGA3
   48    50    88	5 ;      CG311      CG331       HGA3
   48    50    89	5 ;      CG311      CG331       HGA3
   87    50    88	5 ;       HGA3      CG331       HGA3
   87    50    89	5 ;       HGA3      CG331       HGA3
   88    50    89	5 ;       HGA3      CG331       HGA3

[ dihedrals ]
;	ai	  aj	ak	  al funct			  c0			c1			  c2			c3			  c4			c5
    2     1    28    29	 9 ;      NG2S1      CG311      CG2O1      OG2D1
    2     1    28    30	 9 ;      NG2S1      CG311      CG2O1      NG2S1
   18     1    28    29	 9 ;      CG321      CG311      CG2O1      OG2D1
   18     1    28    30	 9 ;      CG321      CG311      CG2O1      NG2S1
   51     1    28    29	 9 ;       HGA1      CG311      CG2O1      OG2D1
   51     1    28    30	 9 ;       HGA1      CG311      CG2O1      NG2S1
   28     1     2     3	 9 ;      CG2O1      CG311      NG2S1      CG2O1
   28     1     2     5	 9 ;      CG2O1      CG311      NG2S1       HGP1
   18     1     2     3	 9 ;      CG321      CG311      NG2S1      CG2O1
   18     1     2     5	 9 ;      CG321      CG311      NG2S1       HGP1
   51     1     2     3	 9 ;       HGA1      CG311      NG2S1      CG2O1
   51     1     2     5	 9 ;       HGA1      CG311      NG2S1       HGP1
   28     1    18    19	 9 ;      CG2O1      CG311      CG321     CG2R61
   28     1    18    58	 9 ;      CG2O1      CG311      CG321       HGA2
   28     1    18    59	 9 ;      CG2O1      CG311      CG321       HGA2
    2     1    18    19	 9 ;      NG2S1      CG311      CG321     CG2R61
    2     1    18    58	 9 ;      NG2S1      CG311      CG321       HGA2
    2     1    18    59	 9 ;      NG2S1      CG311      CG321       HGA2
   51     1    18    19	 9 ;       HGA1      CG311      CG321     CG2R61
   51     1    18    58	 9 ;       HGA1      CG311      CG321       HGA2
   51     1    18    59	 9 ;       HGA1      CG311      CG321       HGA2
    1     2     3     4	 9 ;      CG311      NG2S1      CG2O1      OG2D1
    1     2     3     6	 9 ;      CG311      NG2S1      CG2O1      CG321
    5     2     3     4	 9 ;       HGP1      NG2S1      CG2O1      OG2D1
    5     2     3     6	 9 ;       HGP1      NG2S1      CG2O1      CG321
    4     3     6     7	 9 ;      OG2D1      CG2O1      CG321      CG321
    4     3     6    52	 9 ;      OG2D1      CG2O1      CG321       HGA2
    4     3     6    90	 9 ;      OG2D1      CG2O1      CG321       HGA2
    2     3     6     7	 9 ;      NG2S1      CG2O1      CG321      CG321
    2     3     6    52	 9 ;      NG2S1      CG2O1      CG321       HGA2
    2     3     6    90	 9 ;      NG2S1      CG2O1      CG321       HGA2
    3     6     7     8	 9 ;      CG2O1      CG321      CG321     CG2R61
    3     6     7    53	 9 ;      CG2O1      CG321      CG321       HGA2
    3     6     7    91	 9 ;      CG2O1      CG321      CG321       HGA2
   52     6     7     8	 9 ;       HGA2      CG321      CG321     CG2R61
   52     6     7    53	 9 ;       HGA2      CG321      CG321       HGA2
   52     6     7    91	 9 ;       HGA2      CG321      CG321       HGA2
   90     6     7     8	 9 ;       HGA2      CG321      CG321     CG2R61
   90     6     7    53	 9 ;       HGA2      CG321      CG321       HGA2
   90     6     7    91	 9 ;       HGA2      CG321      CG321       HGA2
    6     7     8     9	 9 ;      CG321      CG321     CG2R61     CG2R61
    6     7     8    13	 9 ;      CG321      CG321     CG2R61     CG2R61
   53     7     8     9	 9 ;       HGA2      CG321     CG2R61     CG2R61
   53     7     8    13	 9 ;       HGA2      CG321     CG2R61     CG2R61
   91     7     8     9	 9 ;       HGA2      CG321     CG2R61     CG2R61
   91     7     8    13	 9 ;       HGA2      CG321     CG2R61     CG2R61
    7     8     9    10	 9 ;      CG321     CG2R61     CG2R61     CG2R61
    7     8     9    54	 9 ;      CG321     CG2R61     CG2R61      HGR61
   13     8     9    10	 9 ;     CG2R61     CG2R61     CG2R61     CG2R61
   13     8     9    54	 9 ;     CG2R61     CG2R61     CG2R61      HGR61
    9     8    13    12	 9 ;     CG2R61     CG2R61     CG2R61     CG2R61
    9     8    13    57	 9 ;     CG2R61     CG2R61     CG2R61      HGR61
    7     8    13    12	 9 ;      CG321     CG2R61     CG2R61     CG2R61
    7     8    13    57	 9 ;      CG321     CG2R61     CG2R61      HGR61
    8     9    10    11	 9 ;     CG2R61     CG2R61     CG2R61     CG2R61
    8     9    10    55	 9 ;     CG2R61     CG2R61     CG2R61      HGR61
   54     9    10    11	 9 ;      HGR61     CG2R61     CG2R61     CG2R61
   54     9    10    55	 9 ;      HGR61     CG2R61     CG2R61      HGR61
    9    10    11    14	 9 ;     CG2R61     CG2R61     CG2R61      CG302
    9    10    11    12	 9 ;     CG2R61     CG2R61     CG2R61     CG2R61
   55    10    11    14	 9 ;      HGR61     CG2R61     CG2R61      CG302
   55    10    11    12	 9 ;      HGR61     CG2R61     CG2R61     CG2R61
   10    11    14    15	 9 ;     CG2R61     CG2R61      CG302       FGA3
   10    11    14    16	 9 ;     CG2R61     CG2R61      CG302       FGA3
   10    11    14    17	 9 ;     CG2R61     CG2R61      CG302       FGA3
   12    11    14    15	 9 ;     CG2R61     CG2R61      CG302       FGA3
   12    11    14    16	 9 ;     CG2R61     CG2R61      CG302       FGA3
   12    11    14    17	 9 ;     CG2R61     CG2R61      CG302       FGA3
   10    11    12    13	 9 ;     CG2R61     CG2R61     CG2R61     CG2R61
   10    11    12    56	 9 ;     CG2R61     CG2R61     CG2R61      HGR61
   14    11    12    13	 9 ;      CG302     CG2R61     CG2R61     CG2R61
   14    11    12    56	 9 ;      CG302     CG2R61     CG2R61      HGR61
   11    12    13     8	 9 ;     CG2R61     CG2R61     CG2R61     CG2R61
   11    12    13    57	 9 ;     CG2R61     CG2R61     CG2R61      HGR61
   56    12    13     8	 9 ;      HGR61     CG2R61     CG2R61     CG2R61
   56    12    13    57	 9 ;      HGR61     CG2R61     CG2R61      HGR61
    1    18    19    20	 9 ;      CG311      CG321     CG2R61     CG2R61
    1    18    19    24	 9 ;      CG311      CG321     CG2R61     CG2R61
   58    18    19    20	 9 ;       HGA2      CG321     CG2R61     CG2R61
   58    18    19    24	 9 ;       HGA2      CG321     CG2R61     CG2R61
   59    18    19    20	 9 ;       HGA2      CG321     CG2R61     CG2R61
   59    18    19    24	 9 ;       HGA2      CG321     CG2R61     CG2R61
   18    19    20    21	 9 ;      CG321     CG2R61     CG2R61     CG2R61
   18    19    20    60	 9 ;      CG321     CG2R61     CG2R61      HGR61
   24    19    20    21	 9 ;     CG2R61     CG2R61     CG2R61     CG2R61
   24    19    20    60	 9 ;     CG2R61     CG2R61     CG2R61      HGR61
   18    19    24    23	 9 ;      CG321     CG2R61     CG2R61     CG2R61
   18    19    24    63	 9 ;      CG321     CG2R61     CG2R61      HGR61
   20    19    24    23	 9 ;     CG2R61     CG2R61     CG2R61     CG2R61
   20    19    24    63	 9 ;     CG2R61     CG2R61     CG2R61      HGR61
   19    20    21    22	 9 ;     CG2R61     CG2R61     CG2R61     CG2R61
   19    20    21    61	 9 ;     CG2R61     CG2R61     CG2R61      HGR61
   60    20    21    22	 9 ;      HGR61     CG2R61     CG2R61     CG2R61
   60    20    21    61	 9 ;      HGR61     CG2R61     CG2R61      HGR61
   20    21    22    23	 9 ;     CG2R61     CG2R61     CG2R61     CG2R61
   20    21    22    25	 9 ;     CG2R61     CG2R61     CG2R61      NG2O1
   61    21    22    23	 9 ;      HGR61     CG2R61     CG2R61     CG2R61
   61    21    22    25	 9 ;      HGR61     CG2R61     CG2R61      NG2O1
   21    22    23    24	 9 ;     CG2R61     CG2R61     CG2R61     CG2R61
   21    22    23    62	 9 ;     CG2R61     CG2R61     CG2R61      HGR61
   25    22    23    24	 9 ;      NG2O1     CG2R61     CG2R61     CG2R61
   25    22    23    62	 9 ;      NG2O1     CG2R61     CG2R61      HGR61
   21    22    25    26	 9 ;     CG2R61     CG2R61      NG2O1      OG2N1
   21    22    25    27	 9 ;     CG2R61     CG2R61      NG2O1      OG2N1
   23    22    25    26	 9 ;     CG2R61     CG2R61      NG2O1      OG2N1
   23    22    25    27	 9 ;     CG2R61     CG2R61      NG2O1      OG2N1
   22    23    24    19	 9 ;     CG2R61     CG2R61     CG2R61     CG2R61
   22    23    24    63	 9 ;     CG2R61     CG2R61     CG2R61      HGR61
   62    23    24    19	 9 ;      HGR61     CG2R61     CG2R61     CG2R61
   62    23    24    63	 9 ;      HGR61     CG2R61     CG2R61      HGR61
   29    28    30    32	 9 ;      OG2D1      CG2O1      NG2S1      CG311
   29    28    30    31	 9 ;      OG2D1      CG2O1      NG2S1       HGP1
    1    28    30    32	 9 ;      CG311      CG2O1      NG2S1      CG311
    1    28    30    31	 9 ;      CG311      CG2O1      NG2S1       HGP1
   28    30    32    37	 9 ;      CG2O1      NG2S1      CG311      CG311
   28    30    32    33	 9 ;      CG2O1      NG2S1      CG311      CG321
   28    30    32    64	 9 ;      CG2O1      NG2S1      CG311       HGA1
   31    30    32    37	 9 ;       HGP1      NG2S1      CG311      CG311
   31    30    32    33	 9 ;       HGP1      NG2S1      CG311      CG321
   31    30    32    64	 9 ;       HGP1      NG2S1      CG311       HGA1
   30    32    37    40	 9 ;      NG2S1      CG311      CG311      CG321
   30    32    37    38	 9 ;      NG2S1      CG311      CG311      OG311
   30    32    37    74	 9 ;      NG2S1      CG311      CG311       HGA1
   33    32    37    40	 9 ;      CG321      CG311      CG311      CG321
   33    32    37    38	 9 ;      CG321      CG311      CG311      OG311
   33    32    37    74	 9 ;      CG321      CG311      CG311       HGA1
   64    32    37    40	 9 ;       HGA1      CG311      CG311      CG321
   64    32    37    38	 9 ;       HGA1      CG311      CG311      OG311
   64    32    37    74	 9 ;       HGA1      CG311      CG311       HGA1
   30    32    33    34	 9 ;      NG2S1      CG311      CG321      CG311
   30    32    33    65	 9 ;      NG2S1      CG311      CG321       HGA2
   30    32    33    66	 9 ;      NG2S1      CG311      CG321       HGA2
   37    32    33    34	 9 ;      CG311      CG311      CG321      CG311
   37    32    33    65	 9 ;      CG311      CG311      CG321       HGA2
   37    32    33    66	 9 ;      CG311      CG311      CG321       HGA2
   64    32    33    34	 9 ;       HGA1      CG311      CG321      CG311
   64    32    33    65	 9 ;       HGA1      CG311      CG321       HGA2
   64    32    33    66	 9 ;       HGA1      CG311      CG321       HGA2
   32    33    34    36	 9 ;      CG311      CG321      CG311      CG331
   32    33    34    35	 9 ;      CG311      CG321      CG311      CG331
   32    33    34    67	 9 ;      CG311      CG321      CG311       HGA1
   65    33    34    36	 9 ;       HGA2      CG321      CG311      CG331
   65    33    34    35	 9 ;       HGA2      CG321      CG311      CG331
   65    33    34    67	 9 ;       HGA2      CG321      CG311       HGA1
   66    33    34    36	 9 ;       HGA2      CG321      CG311      CG331
   66    33    34    35	 9 ;       HGA2      CG321      CG311      CG331
   66    33    34    67	 9 ;       HGA2      CG321      CG311       HGA1
   33    34    36    71	 9 ;      CG321      CG311      CG331       HGA3
   33    34    36    72	 9 ;      CG321      CG311      CG331       HGA3
   33    34    36    73	 9 ;      CG321      CG311      CG331       HGA3
   35    34    36    71	 9 ;      CG331      CG311      CG331       HGA3
   35    34    36    72	 9 ;      CG331      CG311      CG331       HGA3
   35    34    36    73	 9 ;      CG331      CG311      CG331       HGA3
   67    34    36    71	 9 ;       HGA1      CG311      CG331       HGA3
   67    34    36    72	 9 ;       HGA1      CG311      CG331       HGA3
   67    34    36    73	 9 ;       HGA1      CG311      CG331       HGA3
   36    34    35    68	 9 ;      CG331      CG311      CG331       HGA3
   36    34    35    69	 9 ;      CG331      CG311      CG331       HGA3
   36    34    35    70	 9 ;      CG331      CG311      CG331       HGA3
   33    34    35    68	 9 ;      CG321      CG311      CG331       HGA3
   33    34    35    69	 9 ;      CG321      CG311      CG331       HGA3
   33    34    35    70	 9 ;      CG321      CG311      CG331       HGA3
   67    34    35    68	 9 ;       HGA1      CG311      CG331       HGA3
   67    34    35    69	 9 ;       HGA1      CG311      CG331       HGA3
   67    34    35    70	 9 ;       HGA1      CG311      CG331       HGA3
   32    37    40    41	 9 ;      CG311      CG311      CG321      CG311
   32    37    40    75	 9 ;      CG311      CG311      CG321       HGA2
   32    37    40    76	 9 ;      CG311      CG311      CG321       HGA2
   38    37    40    41	 9 ;      OG311      CG311      CG321      CG311
   38    37    40    75	 9 ;      OG311      CG311      CG321       HGA2
   38    37    40    76	 9 ;      OG311      CG311      CG321       HGA2
   74    37    40    41	 9 ;       HGA1      CG311      CG321      CG311
   74    37    40    75	 9 ;       HGA1      CG311      CG321       HGA2
   74    37    40    76	 9 ;       HGA1      CG311      CG321       HGA2
   32    37    38    39	 9 ;      CG311      CG311      OG311       HGP1
   40    37    38    39	 9 ;      CG321      CG311      OG311       HGP1
   74    37    38    39	 9 ;       HGA1      CG311      OG311       HGP1
   37    40    41    43	 9 ;      CG311      CG321      CG311      CG2O1
   37    40    41    42	 9 ;      CG311      CG321      CG311      CG331
   37    40    41    77	 9 ;      CG311      CG321      CG311       HGA1
   75    40    41    43	 9 ;       HGA2      CG321      CG311      CG2O1
   75    40    41    42	 9 ;       HGA2      CG321      CG311      CG331
   75    40    41    77	 9 ;       HGA2      CG321      CG311       HGA1
   76    40    41    43	 9 ;       HGA2      CG321      CG311      CG2O1
   76    40    41    42	 9 ;       HGA2      CG321      CG311      CG331
   76    40    41    77	 9 ;       HGA2      CG321      CG311       HGA1
   40    41    43    44	 9 ;      CG321      CG311      CG2O1      OG2D1
   40    41    43    45	 9 ;      CG321      CG311      CG2O1      NG2S1
   42    41    43    44	 9 ;      CG331      CG311      CG2O1      OG2D1
   42    41    43    45	 9 ;      CG331      CG311      CG2O1      NG2S1
   77    41    43    44	 9 ;       HGA1      CG311      CG2O1      OG2D1
   77    41    43    45	 9 ;       HGA1      CG311      CG2O1      NG2S1
   40    41    42    78	 9 ;      CG321      CG311      CG331       HGA3
   40    41    42    79	 9 ;      CG321      CG311      CG331       HGA3
   40    41    42    80	 9 ;      CG321      CG311      CG331       HGA3
   43    41    42    78	 9 ;      CG2O1      CG311      CG331       HGA3
   43    41    42    79	 9 ;      CG2O1      CG311      CG331       HGA3
   43    41    42    80	 9 ;      CG2O1      CG311      CG331       HGA3
   77    41    42    78	 9 ;       HGA1      CG311      CG331       HGA3
   77    41    42    79	 9 ;       HGA1      CG311      CG331       HGA3
   77    41    42    80	 9 ;       HGA1      CG311      CG331       HGA3
   41    43    45    47	 9 ;      CG311      CG2O1      NG2S1      CG321
   41    43    45    46	 9 ;      CG311      CG2O1      NG2S1       HGP1
   44    43    45    47	 9 ;      OG2D1      CG2O1      NG2S1      CG321
   44    43    45    46	 9 ;      OG2D1      CG2O1      NG2S1       HGP1
   43    45    47    48	 9 ;      CG2O1      NG2S1      CG321      CG311
   43    45    47    81	 9 ;      CG2O1      NG2S1      CG321       HGA2
   43    45    47    82	 9 ;      CG2O1      NG2S1      CG321       HGA2
   46    45    47    48	 9 ;       HGP1      NG2S1      CG321      CG311
   46    45    47    81	 9 ;       HGP1      NG2S1      CG321       HGA2
   46    45    47    82	 9 ;       HGP1      NG2S1      CG321       HGA2
   45    47    48    49	 9 ;      NG2S1      CG321      CG311      CG331
   45    47    48    50	 9 ;      NG2S1      CG321      CG311      CG331
   45    47    48    83	 9 ;      NG2S1      CG321      CG311       HGA1
   81    47    48    49	 9 ;       HGA2      CG321      CG311      CG331
   81    47    48    50	 9 ;       HGA2      CG321      CG311      CG331
   81    47    48    83	 9 ;       HGA2      CG321      CG311       HGA1
   82    47    48    49	 9 ;       HGA2      CG321      CG311      CG331
   82    47    48    50	 9 ;       HGA2      CG321      CG311      CG331
   82    47    48    83	 9 ;       HGA2      CG321      CG311       HGA1
   47    48    49    84	 9 ;      CG321      CG311      CG331       HGA3
   47    48    49    85	 9 ;      CG321      CG311      CG331       HGA3
   47    48    49    86	 9 ;      CG321      CG311      CG331       HGA3
   50    48    49    84	 9 ;      CG331      CG311      CG331       HGA3
   50    48    49    85	 9 ;      CG331      CG311      CG331       HGA3
   50    48    49    86	 9 ;      CG331      CG311      CG331       HGA3
   83    48    49    84	 9 ;       HGA1      CG311      CG331       HGA3
   83    48    49    85	 9 ;       HGA1      CG311      CG331       HGA3
   83    48    49    86	 9 ;       HGA1      CG311      CG331       HGA3
   47    48    50    87	 9 ;      CG321      CG311      CG331       HGA3
   47    48    50    88	 9 ;      CG321      CG311      CG331       HGA3
   47    48    50    89	 9 ;      CG321      CG311      CG331       HGA3
   49    48    50    87	 9 ;      CG331      CG311      CG331       HGA3
   49    48    50    88	 9 ;      CG331      CG311      CG331       HGA3
   49    48    50    89	 9 ;      CG331      CG311      CG331       HGA3
   83    48    50    87	 9 ;       HGA1      CG311      CG331       HGA3
   83    48    50    88	 9 ;       HGA1      CG311      CG331       HGA3
   83    48    50    89	 9 ;       HGA1      CG311      CG331       HGA3

[ dihedrals ]
;	ai	  aj	ak	  al funct			  c0			c1			  c2			c3
    3     6     2     4	 2
   28     1    30    29	 2
   43    41    45    44	 2

