GRoups of Organic Molecules in ACtion for Science
   96
    1LIG     C1    1  -1.585   0.432  -1.596
    1LIG     O1    2  -1.699   0.399  -1.570
    1LIG     N1    3  -1.522   0.541  -1.541
    1LIG     H1    4  -1.421   0.544  -1.552
    1LIG     C2    5  -1.584   0.627  -1.438
    1LIG     C3    6  -1.532   0.597  -1.295
    1LIG     C4    7  -1.601   0.495  -1.208
    1LIG     C5    8  -1.546   0.438  -1.093
    1LIG     C6    9  -1.621   0.353  -1.012
    1LIG     F1   10  -1.565   0.306  -0.900
    1LIG     C7   11  -1.751   0.319  -1.044
    1LIG     C8   12  -1.804   0.368  -1.162
    1LIG     F2   13  -1.929   0.335  -1.197
    1LIG     C9   14  -1.731   0.454  -1.244
    1LIG    C10   15  -1.572   0.772  -1.490
    1LIG     O2   16  -1.523   0.850  -1.379
    1LIG     H2   17  -1.574   0.823  -1.299
    1LIG    C11   18  -1.481   0.797  -1.611
    1LIG     N2   19  -1.529   0.917  -1.692
    1LIG     H3   20  -1.523   1.002  -1.634
    1LIG     H4   21  -1.466   0.935  -1.772
    1LIG    C12   22  -1.669   0.910  -1.746
    1LIG    C13   23  -1.687   0.799  -1.845
    1LIG    C14   24  -1.629   0.809  -1.972
    1LIG    C15   25  -1.647   0.706  -2.065
    1LIG    C16   26  -1.722   0.594  -2.030
    1LIG    C17   27  -1.781   0.584  -1.904
    1LIG    C18   28  -1.763   0.687  -1.811
    1LIG     O3   29  -1.592   0.705  -2.190
    1LIG    C19   30  -1.500   0.808  -2.220
    1LIG    C20   31  -1.499   0.354  -1.689
    1LIG    C21   32  -1.410   0.261  -1.637
    1LIG    C22   33  -1.327   0.188  -1.722
    1LIG    C23   34  -1.328   0.215  -1.860
    1LIG    C24   35  -1.420   0.306  -1.913
    1LIG    C25   36  -1.505   0.376  -1.827
    1LIG    C26   37  -1.233   0.086  -1.667
    1LIG     O4   38  -1.270  -0.031  -1.678
    1LIG     N3   39  -1.114   0.126  -1.608
    1LIG    C27   40  -1.022   0.022  -1.561
    1LIG    C28   41  -0.916  -0.020  -1.663
    1LIG    C29   42  -0.963  -0.123  -1.765
    1LIG    C30   43  -1.078   0.264  -1.572
    1LIG    C31   44  -1.029   0.349  -1.689
    1LIG    C32   45  -1.103   0.481  -1.702
    1LIG      S   46  -1.427   0.342  -2.088
    1LIG    C33   47  -1.324   0.487  -2.101
    1LIG    C34   48  -1.300   0.573  -1.993
    1LIG    C35   49  -1.214   0.683  -2.007
    1LIG    C36   50  -1.150   0.707  -2.128
    1LIG    C37   51  -1.173   0.621  -2.235
    1LIG    C38   52  -1.259   0.512  -2.222
    1LIG     O5   53  -1.062   0.809  -2.155
    1LIG    C39   54  -1.062   0.862  -2.287
    1LIG     H5   55  -1.688   0.605  -1.424
    1LIG     H6   56  -1.536   0.690  -1.242
    1LIG     H7   57  -1.437   0.553  -1.313
    1LIG     H8   58  -1.448   0.459  -1.067
    1LIG     H9   59  -1.807   0.259  -0.982
    1LIG    H10   60  -1.772   0.488  -1.332
    1LIG    H11   61  -1.670   0.799  -1.525
    1LIG    H12   62  -1.382   0.815  -1.577
    1LIG    H13   63  -1.484   0.711  -1.674
    1LIG    H14   64  -1.736   0.894  -1.664
    1LIG    H15   65  -1.689   1.003  -1.796
    1LIG    H16   66  -1.572   0.891  -1.997
    1LIG    H17   67  -1.734   0.517  -2.098
    1LIG    H18   68  -1.838   0.501  -1.880
    1LIG    H19   69  -1.807   0.679  -1.718
    1LIG    H20   70  -1.464   0.796  -2.320
    1LIG    H21   71  -1.417   0.803  -2.152
    1LIG    H22   72  -1.548   0.903  -2.211
    1LIG    H23   73  -1.406   0.245  -1.535
    1LIG    H24   74  -1.262   0.167  -1.923
    1LIG    H25   75  -1.573   0.444  -1.866
    1LIG    H26   76  -0.972   0.058  -1.473
    1LIG    H27   77  -1.082  -0.065  -1.542
    1LIG    H28   78  -0.884   0.068  -1.716
    1LIG    H29   79  -0.837  -0.066  -1.608
    1LIG    H30   80  -1.043  -0.081  -1.823
    1LIG    H31   81  -0.998  -0.210  -1.714
    1LIG    H32   82  -0.882  -0.149  -1.829
    1LIG    H33   83  -1.165   0.312  -1.531
    1LIG    H34   84  -0.997   0.258  -1.502
    1LIG    H35   85  -0.925   0.370  -1.675
    1LIG    H36   86  -1.046   0.293  -1.778
    1LIG    H37   87  -1.087   0.540  -1.614
    1LIG    H38   88  -1.207   0.462  -1.715
    1LIG    H39   89  -1.066   0.534  -1.788
    1LIG    H40   90  -1.347   0.555  -1.903
    1LIG    H41   91  -1.198   0.746  -1.926
    1LIG    H42   92  -1.126   0.639  -2.326
    1LIG    H43   93  -1.275   0.449  -2.303
    1LIG    H44   94  -0.989   0.940  -2.293
    1LIG    H45   95  -1.159   0.901  -2.310
    1LIG    H46   96  -1.038   0.785  -2.356
   0.00000   0.00000   0.00000
