; Created by cgenff_charmm2gmx.py

[ moleculetype ]
; Name			   nrexcl
LIG				 3

[ atoms ]
;	 nr		  type	resnr residue  atom   cgnr	   charge		mass  typeB    chargeB		massB
; residue	 1 LIG rtp LIG q	qsum
     1      CG2O1      1    LIG     C1      1      0.302     12.011   ;
     2      OG2D1      1    LIG     O1      2     -0.463     15.999   ;
     3      NG2S1      1    LIG     N1      3     -0.226     14.007   ;
     4       HGP1      1    LIG     H1      4      0.262      1.008   ;
     5      CG311      1    LIG     C2      5      0.010     12.011   ;
     6      CG321      1    LIG     C3      6     -0.153     12.011   ;
     7     CG2R61      1    LIG     C4      7      0.057     12.011   ;
     8     CG2R61      1    LIG     C5      8     -0.218     12.011   ;
     9     CG2R66      1    LIG     C6      9      0.261     12.011   ;
    10       FGR1      1    LIG     F1     10     -0.210     18.998   ;
    11     CG2R61      1    LIG     C7     11     -0.240     12.011   ;
    12     CG2R66      1    LIG     C8     12      0.261     12.011   ;
    13       FGR1      1    LIG     F2     13     -0.210     18.998   ;
    14     CG2R61      1    LIG     C9     14     -0.218     12.011   ;
    15      CG311      1    LIG    C10     15      0.094     12.011   ;
    16      OG311      1    LIG     O2     16     -0.625     15.999   ;
    17       HGP1      1    LIG     H2     17      0.415      1.008   ;
    18      CG324      1    LIG    C11     18      0.178     12.011   ;
    19      NG3P2      1    LIG     N2     19     -0.444     14.007   ;
    20       HGP2      1    LIG     H3     20      0.348      1.008   ;
    21       HGP2      1    LIG     H4     21      0.348      1.008   ;
    22      CG324      1    LIG    C12     22      0.171     12.011   ;
    23     CG2R61      1    LIG    C13     23      0.036     12.011   ;
    24     CG2R61      1    LIG    C14     24     -0.124     12.011   ;
    25     CG2R61      1    LIG    C15     25      0.216     12.011   ;
    26     CG2R61      1    LIG    C16     26     -0.121     12.011   ;
    27     CG2R61      1    LIG    C17     27     -0.108     12.011   ;
    28     CG2R61      1    LIG    C18     28     -0.119     12.011   ;
    29      OG301      1    LIG     O3     29     -0.383     15.999   ;
    30      CG331      1    LIG    C19     30     -0.094     12.011   ;
    31     CG2R61      1    LIG    C20     31     -0.103     12.011   ;
    32     CG2R61      1    LIG    C21     32     -0.003     12.011   ;
    33     CG2R61      1    LIG    C22     33     -0.162     12.011   ;
    34     CG2R61      1    LIG    C23     34     -0.060     12.011   ;
    35     CG2R61      1    LIG    C24     35      0.151     12.011   ;
    36     CG2R61      1    LIG    C25     36     -0.061     12.011   ;
    37      CG2O1      1    LIG    C26     37      0.400     12.011   ;
    38      OG2D1      1    LIG     O4     38     -0.476     15.999   ;
    39      NG2S0      1    LIG     N3     39     -0.418     14.007   ;
    40      CG321      1    LIG    C27     40      0.096     12.011   ;
    41      CG321      1    LIG    C28     41     -0.170     12.011   ;
    42      CG331      1    LIG    C29     42     -0.285     12.011   ;
    43      CG321      1    LIG    C30     43      0.096     12.011   ;
    44      CG321      1    LIG    C31     44     -0.170     12.011   ;
    45      CG331      1    LIG    C32     45     -0.285     12.011   ;
    46      SG311      1    LIG      S     46     -0.298     32.060   ;
    47     CG2R61      1    LIG    C33     47      0.147     12.011   ;
    48     CG2R61      1    LIG    C34     48     -0.114     12.011   ;
    49     CG2R61      1    LIG    C35     49     -0.119     12.011   ;
    50     CG2R61      1    LIG    C36     50      0.211     12.011   ;
    51     CG2R61      1    LIG    C37     51     -0.119     12.011   ;
    52     CG2R61      1    LIG    C38     52     -0.114     12.011   ;
    53      OG301      1    LIG     O5     53     -0.383     15.999   ;
    54      CG331      1    LIG    C39     54     -0.094     12.011   ;
    55       HGA1      1    LIG     H5     55      0.090      1.008   ;
    56       HGA2      1    LIG     H6     56      0.090      1.008   ;
    57       HGA2      1    LIG     H7     57      0.090      1.008   ;
    58      HGR62      1    LIG     H8     58      0.174      1.008   ;
    59      HGR62      1    LIG     H9     59      0.186      1.008   ;
    60      HGR62      1    LIG    H10     60      0.174      1.008   ;
    61       HGA1      1    LIG    H11     61      0.090      1.008   ;
    62       HGA2      1    LIG    H12     62      0.090      1.008   ;
    63       HGA2      1    LIG    H13     63      0.090      1.008   ;
    64       HGA2      1    LIG    H14     64      0.090      1.008   ;
    65       HGA2      1    LIG    H15     65      0.090      1.008   ;
    66      HGR61      1    LIG    H16     66      0.116      1.008   ;
    67      HGR61      1    LIG    H17     67      0.116      1.008   ;
    68      HGR61      1    LIG    H18     68      0.116      1.008   ;
    69      HGR61      1    LIG    H19     69      0.116      1.008   ;
    70       HGA3      1    LIG    H20     70      0.090      1.008   ;
    71       HGA3      1    LIG    H21     71      0.090      1.008   ;
    72       HGA3      1    LIG    H22     72      0.090      1.008   ;
    73      HGR61      1    LIG    H23     73      0.116      1.008   ;
    74      HGR61      1    LIG    H24     74      0.116      1.008   ;
    75      HGR61      1    LIG    H25     75      0.116      1.008   ;
    76       HGA2      1    LIG    H26     76      0.090      1.008   ;
    77       HGA2      1    LIG    H27     77      0.090      1.008   ;
    78       HGA2      1    LIG    H28     78      0.090      1.008   ;
    79       HGA2      1    LIG    H29     79      0.090      1.008   ;
    80       HGA3      1    LIG    H30     80      0.090      1.008   ;
    81       HGA3      1    LIG    H31     81      0.090      1.008   ;
    82       HGA3      1    LIG    H32     82      0.090      1.008   ;
    83       HGA2      1    LIG    H33     83      0.090      1.008   ;
    84       HGA2      1    LIG    H34     84      0.090      1.008   ;
    85       HGA2      1    LIG    H35     85      0.090      1.008   ;
    86       HGA2      1    LIG    H36     86      0.090      1.008   ;
    87       HGA3      1    LIG    H37     87      0.090      1.008   ;
    88       HGA3      1    LIG    H38     88      0.090      1.008   ;
    89       HGA3      1    LIG    H39     89      0.090      1.008   ;
    90      HGR61      1    LIG    H40     90      0.116      1.008   ;
    91      HGR61      1    LIG    H41     91      0.116      1.008   ;
    92      HGR61      1    LIG    H42     92      0.116      1.008   ;
    93      HGR61      1    LIG    H43     93      0.116      1.008   ;
    94       HGA3      1    LIG    H44     94      0.090      1.008   ;
    95       HGA3      1    LIG    H45     95      0.090      1.008   ;
    96       HGA3      1    LIG    H46     96      0.090      1.008   ;

[ bonds ]
;	ai	  aj funct			  c0			c1			  c2			c3
    1    31	 1 ;       CG2O1     CG2R61
    1     2	 1 ;       CG2O1      OG2D1
    1     3	 1 ;       CG2O1      NG2S1
    3     4	 1 ;       NG2S1       HGP1
    3     5	 1 ;       NG2S1      CG311
    5    15	 1 ;       CG311      CG311
    5     6	 1 ;       CG311      CG321
    5    55	 1 ;       CG311       HGA1
    6     7	 1 ;       CG321     CG2R61
    6    56	 1 ;       CG321       HGA2
    6    57	 1 ;       CG321       HGA2
    7    14	 1 ;      CG2R61     CG2R61
    7     8	 1 ;      CG2R61     CG2R61
    8     9	 1 ;      CG2R61     CG2R66
    8    58	 1 ;      CG2R61      HGR62
    9    11	 1 ;      CG2R66     CG2R61
    9    10	 1 ;      CG2R66       FGR1
   11    12	 1 ;      CG2R61     CG2R66
   11    59	 1 ;      CG2R61      HGR62
   12    14	 1 ;      CG2R66     CG2R61
   12    13	 1 ;      CG2R66       FGR1
   14    60	 1 ;      CG2R61      HGR62
   15    18	 1 ;       CG311      CG324
   15    16	 1 ;       CG311      OG311
   15    61	 1 ;       CG311       HGA1
   16    17	 1 ;       OG311       HGP1
   18    19	 1 ;       CG324      NG3P2
   18    62	 1 ;       CG324       HGA2
   18    63	 1 ;       CG324       HGA2
   19    21	 1 ;       NG3P2       HGP2
   19    22	 1 ;       NG3P2      CG324
   19    20	 1 ;       NG3P2       HGP2
   22    23	 1 ;       CG324     CG2R61
   22    64	 1 ;       CG324       HGA2
   22    65	 1 ;       CG324       HGA2
   23    24	 1 ;      CG2R61     CG2R61
   23    28	 1 ;      CG2R61     CG2R61
   24    25	 1 ;      CG2R61     CG2R61
   24    66	 1 ;      CG2R61      HGR61
   25    29	 1 ;      CG2R61      OG301
   25    26	 1 ;      CG2R61     CG2R61
   26    27	 1 ;      CG2R61     CG2R61
   26    67	 1 ;      CG2R61      HGR61
   27    28	 1 ;      CG2R61     CG2R61
   27    68	 1 ;      CG2R61      HGR61
   28    69	 1 ;      CG2R61      HGR61
   29    30	 1 ;       OG301      CG331
   30    70	 1 ;       CG331       HGA3
   30    71	 1 ;       CG331       HGA3
   30    72	 1 ;       CG331       HGA3
   31    36	 1 ;      CG2R61     CG2R61
   31    32	 1 ;      CG2R61     CG2R61
   32    33	 1 ;      CG2R61     CG2R61
   32    73	 1 ;      CG2R61      HGR61
   33    34	 1 ;      CG2R61     CG2R61
   33    37	 1 ;      CG2R61      CG2O1
   34    35	 1 ;      CG2R61     CG2R61
   34    74	 1 ;      CG2R61      HGR61
   35    46	 1 ;      CG2R61      SG311
   35    36	 1 ;      CG2R61     CG2R61
   36    75	 1 ;      CG2R61      HGR61
   37    38	 1 ;       CG2O1      OG2D1
   37    39	 1 ;       CG2O1      NG2S0
   39    43	 1 ;       NG2S0      CG321
   39    40	 1 ;       NG2S0      CG321
   40    41	 1 ;       CG321      CG321
   40    76	 1 ;       CG321       HGA2
   40    77	 1 ;       CG321       HGA2
   41    42	 1 ;       CG321      CG331
   41    78	 1 ;       CG321       HGA2
   41    79	 1 ;       CG321       HGA2
   42    80	 1 ;       CG331       HGA3
   42    81	 1 ;       CG331       HGA3
   42    82	 1 ;       CG331       HGA3
   43    44	 1 ;       CG321      CG321
   43    83	 1 ;       CG321       HGA2
   43    84	 1 ;       CG321       HGA2
   44    45	 1 ;       CG321      CG331
   44    85	 1 ;       CG321       HGA2
   44    86	 1 ;       CG321       HGA2
   45    87	 1 ;       CG331       HGA3
   45    88	 1 ;       CG331       HGA3
   45    89	 1 ;       CG331       HGA3
   46    47	 1 ;       SG311     CG2R61
   47    52	 1 ;      CG2R61     CG2R61
   47    48	 1 ;      CG2R61     CG2R61
   48    49	 1 ;      CG2R61     CG2R61
   48    90	 1 ;      CG2R61      HGR61
   49    50	 1 ;      CG2R61     CG2R61
   49    91	 1 ;      CG2R61      HGR61
   50    51	 1 ;      CG2R61     CG2R61
   50    53	 1 ;      CG2R61      OG301
   51    52	 1 ;      CG2R61     CG2R61
   51    92	 1 ;      CG2R61      HGR61
   52    93	 1 ;      CG2R61      HGR61
   53    54	 1 ;       OG301      CG331
   54    94	 1 ;       CG331       HGA3
   54    95	 1 ;       CG331       HGA3
   54    96	 1 ;       CG331       HGA3

[ pairs ]
;	ai	  aj funct			  c0			c1			  c2			c3
    1    15	 1
    1     6	 1
    1    55	 1
    1    35	 1
    1    75	 1
    1    33	 1
    1    73	 1
    2    36	 1
    2    32	 1
    2     4	 1
    2     5	 1
    3    36	 1
    3    32	 1
    3    18	 1
    3    16	 1
    3    61	 1
    3     7	 1
    3    56	 1
    3    57	 1
    4    31	 1
    4    15	 1
    4     6	 1
    4    55	 1
    5    31	 1
    5    14	 1
    5     8	 1
    5    19	 1
    5    62	 1
    5    63	 1
    5    17	 1
    6    18	 1
    6    16	 1
    6    61	 1
    6    12	 1
    6    60	 1
    6     9	 1
    6    58	 1
    7    15	 1
    7    55	 1
    7    11	 1
    7    10	 1
    7    13	 1
    8    56	 1
    8    57	 1
    8    12	 1
    8    60	 1
    8    59	 1
    9    14	 1
    9    13	 1
   10    58	 1
   10    12	 1
   10    59	 1
   11    58	 1
   11    60	 1
   13    59	 1
   13    60	 1
   14    56	 1
   14    57	 1
   14    58	 1
   14    59	 1
   15    56	 1
   15    57	 1
   15    21	 1
   15    22	 1
   15    20	 1
   16    55	 1
   16    19	 1
   16    62	 1
   16    63	 1
   17    18	 1
   17    61	 1
   18    55	 1
   18    23	 1
   18    64	 1
   18    65	 1
   19    61	 1
   19    24	 1
   19    28	 1
   20    62	 1
   20    63	 1
   20    23	 1
   20    64	 1
   20    65	 1
   21    62	 1
   21    63	 1
   21    23	 1
   21    64	 1
   21    65	 1
   22    62	 1
   22    63	 1
   22    25	 1
   22    66	 1
   22    27	 1
   22    69	 1
   23    29	 1
   23    26	 1
   23    68	 1
   24    64	 1
   24    65	 1
   24    27	 1
   24    69	 1
   24    30	 1
   24    67	 1
   25    28	 1
   25    68	 1
   25    70	 1
   25    71	 1
   25    72	 1
   26    66	 1
   26    30	 1
   26    69	 1
   27    29	 1
   28    64	 1
   28    65	 1
   28    66	 1
   28    67	 1
   29    66	 1
   29    67	 1
   31    34	 1
   31    37	 1
   31    46	 1
   32    35	 1
   32    75	 1
   32    74	 1
   32    38	 1
   32    39	 1
   33    36	 1
   33    46	 1
   33    43	 1
   33    40	 1
   34    73	 1
   34    38	 1
   34    39	 1
   34    47	 1
   34    75	 1
   35    37	 1
   35    52	 1
   35    48	 1
   36    73	 1
   36    74	 1
   36    47	 1
   37    73	 1
   37    74	 1
   37    44	 1
   37    83	 1
   37    84	 1
   37    41	 1
   37    76	 1
   37    77	 1
   38    43	 1
   38    40	 1
   39    42	 1
   39    78	 1
   39    79	 1
   39    45	 1
   39    85	 1
   39    86	 1
   40    44	 1
   40    83	 1
   40    84	 1
   40    80	 1
   40    81	 1
   40    82	 1
   41    43	 1
   42    76	 1
   42    77	 1
   43    76	 1
   43    77	 1
   43    87	 1
   43    88	 1
   43    89	 1
   45    83	 1
   45    84	 1
   46    74	 1
   46    75	 1
   46    51	 1
   46    93	 1
   46    49	 1
   46    90	 1
   47    50	 1
   47    91	 1
   47    92	 1
   48    51	 1
   48    93	 1
   48    53	 1
   49    52	 1
   49    92	 1
   49    54	 1
   50    90	 1
   50    93	 1
   50    94	 1
   50    95	 1
   50    96	 1
   51    91	 1
   51    54	 1
   52    90	 1
   52    53	 1
   53    91	 1
   53    92	 1
   55    61	 1
   55    56	 1
   55    57	 1
   61    62	 1
   61    63	 1
   67    68	 1
   68    69	 1
   76    78	 1
   76    79	 1
   77    78	 1
   77    79	 1
   78    80	 1
   78    81	 1
   78    82	 1
   79    80	 1
   79    81	 1
   79    82	 1
   83    85	 1
   83    86	 1
   84    85	 1
   84    86	 1
   85    87	 1
   85    88	 1
   85    89	 1
   86    87	 1
   86    88	 1
   86    89	 1
   90    91	 1
   92    93	 1

[ angles ]
;	ai	  aj	ak funct			c0			  c1			c2			  c3
   31     1     2	5 ;     CG2R61      CG2O1      OG2D1
   31     1     3	5 ;     CG2R61      CG2O1      NG2S1
    2     1     3	5 ;      OG2D1      CG2O1      NG2S1
    1     3     4	5 ;      CG2O1      NG2S1       HGP1
    1     3     5	5 ;      CG2O1      NG2S1      CG311
    4     3     5	5 ;       HGP1      NG2S1      CG311
    3     5    15	5 ;      NG2S1      CG311      CG311
    3     5     6	5 ;      NG2S1      CG311      CG321
    3     5    55	5 ;      NG2S1      CG311       HGA1
   15     5     6	5 ;      CG311      CG311      CG321
   15     5    55	5 ;      CG311      CG311       HGA1
    6     5    55	5 ;      CG321      CG311       HGA1
    5     6     7	5 ;      CG311      CG321     CG2R61
    5     6    56	5 ;      CG311      CG321       HGA2
    5     6    57	5 ;      CG311      CG321       HGA2
    7     6    56	5 ;     CG2R61      CG321       HGA2
    7     6    57	5 ;     CG2R61      CG321       HGA2
   56     6    57	5 ;       HGA2      CG321       HGA2
    6     7    14	5 ;      CG321     CG2R61     CG2R61
    6     7     8	5 ;      CG321     CG2R61     CG2R61
   14     7     8	5 ;     CG2R61     CG2R61     CG2R61
    7     8     9	5 ;     CG2R61     CG2R61     CG2R66
    7     8    58	5 ;     CG2R61     CG2R61      HGR62
    9     8    58	5 ;     CG2R66     CG2R61      HGR62
    8     9    11	5 ;     CG2R61     CG2R66     CG2R61
    8     9    10	5 ;     CG2R61     CG2R66       FGR1
   11     9    10	5 ;     CG2R61     CG2R66       FGR1
   12    11     9	5 ;     CG2R66     CG2R61     CG2R66
   12    11    59	5 ;     CG2R66     CG2R61      HGR62
    9    11    59	5 ;     CG2R66     CG2R61      HGR62
   14    12    13	5 ;     CG2R61     CG2R66       FGR1
   14    12    11	5 ;     CG2R61     CG2R66     CG2R61
   13    12    11	5 ;       FGR1     CG2R66     CG2R61
    7    14    12	5 ;     CG2R61     CG2R61     CG2R66
    7    14    60	5 ;     CG2R61     CG2R61      HGR62
   12    14    60	5 ;     CG2R66     CG2R61      HGR62
   18    15     5	5 ;      CG324      CG311      CG311
   18    15    16	5 ;      CG324      CG311      OG311
   18    15    61	5 ;      CG324      CG311       HGA1
    5    15    16	5 ;      CG311      CG311      OG311
    5    15    61	5 ;      CG311      CG311       HGA1
   16    15    61	5 ;      OG311      CG311       HGA1
   15    16    17	5 ;      CG311      OG311       HGP1
   19    18    15	5 ;      NG3P2      CG324      CG311
   19    18    62	5 ;      NG3P2      CG324       HGA2
   19    18    63	5 ;      NG3P2      CG324       HGA2
   15    18    62	5 ;      CG311      CG324       HGA2
   15    18    63	5 ;      CG311      CG324       HGA2
   62    18    63	5 ;       HGA2      CG324       HGA2
   21    19    22	5 ;       HGP2      NG3P2      CG324
   21    19    20	5 ;       HGP2      NG3P2       HGP2
   21    19    18	5 ;       HGP2      NG3P2      CG324
   22    19    20	5 ;      CG324      NG3P2       HGP2
   22    19    18	5 ;      CG324      NG3P2      CG324
   20    19    18	5 ;       HGP2      NG3P2      CG324
   23    22    19	5 ;     CG2R61      CG324      NG3P2
   23    22    64	5 ;     CG2R61      CG324       HGA2
   23    22    65	5 ;     CG2R61      CG324       HGA2
   19    22    64	5 ;      NG3P2      CG324       HGA2
   19    22    65	5 ;      NG3P2      CG324       HGA2
   64    22    65	5 ;       HGA2      CG324       HGA2
   24    23    28	5 ;     CG2R61     CG2R61     CG2R61
   24    23    22	5 ;     CG2R61     CG2R61      CG324
   28    23    22	5 ;     CG2R61     CG2R61      CG324
   25    24    23	5 ;     CG2R61     CG2R61     CG2R61
   25    24    66	5 ;     CG2R61     CG2R61      HGR61
   23    24    66	5 ;     CG2R61     CG2R61      HGR61
   29    25    26	5 ;      OG301     CG2R61     CG2R61
   29    25    24	5 ;      OG301     CG2R61     CG2R61
   26    25    24	5 ;     CG2R61     CG2R61     CG2R61
   25    26    27	5 ;     CG2R61     CG2R61     CG2R61
   25    26    67	5 ;     CG2R61     CG2R61      HGR61
   27    26    67	5 ;     CG2R61     CG2R61      HGR61
   26    27    28	5 ;     CG2R61     CG2R61     CG2R61
   26    27    68	5 ;     CG2R61     CG2R61      HGR61
   28    27    68	5 ;     CG2R61     CG2R61      HGR61
   27    28    23	5 ;     CG2R61     CG2R61     CG2R61
   27    28    69	5 ;     CG2R61     CG2R61      HGR61
   23    28    69	5 ;     CG2R61     CG2R61      HGR61
   30    29    25	5 ;      CG331      OG301     CG2R61
   29    30    70	5 ;      OG301      CG331       HGA3
   29    30    71	5 ;      OG301      CG331       HGA3
   29    30    72	5 ;      OG301      CG331       HGA3
   70    30    71	5 ;       HGA3      CG331       HGA3
   70    30    72	5 ;       HGA3      CG331       HGA3
   71    30    72	5 ;       HGA3      CG331       HGA3
   36    31    32	5 ;     CG2R61     CG2R61     CG2R61
   36    31     1	5 ;     CG2R61     CG2R61      CG2O1
   32    31     1	5 ;     CG2R61     CG2R61      CG2O1
   33    32    31	5 ;     CG2R61     CG2R61     CG2R61
   33    32    73	5 ;     CG2R61     CG2R61      HGR61
   31    32    73	5 ;     CG2R61     CG2R61      HGR61
   34    33    37	5 ;     CG2R61     CG2R61      CG2O1
   34    33    32	5 ;     CG2R61     CG2R61     CG2R61
   37    33    32	5 ;      CG2O1     CG2R61     CG2R61
   35    34    33	5 ;     CG2R61     CG2R61     CG2R61
   35    34    74	5 ;     CG2R61     CG2R61      HGR61
   33    34    74	5 ;     CG2R61     CG2R61      HGR61
   46    35    34	5 ;      SG311     CG2R61     CG2R61
   46    35    36	5 ;      SG311     CG2R61     CG2R61
   34    35    36	5 ;     CG2R61     CG2R61     CG2R61
   35    36    31	5 ;     CG2R61     CG2R61     CG2R61
   35    36    75	5 ;     CG2R61     CG2R61      HGR61
   31    36    75	5 ;     CG2R61     CG2R61      HGR61
   33    37    38	5 ;     CG2R61      CG2O1      OG2D1
   33    37    39	5 ;     CG2R61      CG2O1      NG2S0
   38    37    39	5 ;      OG2D1      CG2O1      NG2S0
   37    39    43	5 ;      CG2O1      NG2S0      CG321
   37    39    40	5 ;      CG2O1      NG2S0      CG321
   43    39    40	5 ;      CG321      NG2S0      CG321
   41    40    39	5 ;      CG321      CG321      NG2S0
   41    40    76	5 ;      CG321      CG321       HGA2
   41    40    77	5 ;      CG321      CG321       HGA2
   39    40    76	5 ;      NG2S0      CG321       HGA2
   39    40    77	5 ;      NG2S0      CG321       HGA2
   76    40    77	5 ;       HGA2      CG321       HGA2
   42    41    40	5 ;      CG331      CG321      CG321
   42    41    78	5 ;      CG331      CG321       HGA2
   42    41    79	5 ;      CG331      CG321       HGA2
   40    41    78	5 ;      CG321      CG321       HGA2
   40    41    79	5 ;      CG321      CG321       HGA2
   78    41    79	5 ;       HGA2      CG321       HGA2
   41    42    80	5 ;      CG321      CG331       HGA3
   41    42    81	5 ;      CG321      CG331       HGA3
   41    42    82	5 ;      CG321      CG331       HGA3
   80    42    81	5 ;       HGA3      CG331       HGA3
   80    42    82	5 ;       HGA3      CG331       HGA3
   81    42    82	5 ;       HGA3      CG331       HGA3
   44    43    39	5 ;      CG321      CG321      NG2S0
   44    43    83	5 ;      CG321      CG321       HGA2
   44    43    84	5 ;      CG321      CG321       HGA2
   39    43    83	5 ;      NG2S0      CG321       HGA2
   39    43    84	5 ;      NG2S0      CG321       HGA2
   83    43    84	5 ;       HGA2      CG321       HGA2
   45    44    43	5 ;      CG331      CG321      CG321
   45    44    85	5 ;      CG331      CG321       HGA2
   45    44    86	5 ;      CG331      CG321       HGA2
   43    44    85	5 ;      CG321      CG321       HGA2
   43    44    86	5 ;      CG321      CG321       HGA2
   85    44    86	5 ;       HGA2      CG321       HGA2
   44    45    87	5 ;      CG321      CG331       HGA3
   44    45    88	5 ;      CG321      CG331       HGA3
   44    45    89	5 ;      CG321      CG331       HGA3
   87    45    88	5 ;       HGA3      CG331       HGA3
   87    45    89	5 ;       HGA3      CG331       HGA3
   88    45    89	5 ;       HGA3      CG331       HGA3
   47    46    35	5 ;     CG2R61      SG311     CG2R61
   52    47    46	5 ;     CG2R61     CG2R61      SG311
   52    47    48	5 ;     CG2R61     CG2R61     CG2R61
   46    47    48	5 ;      SG311     CG2R61     CG2R61
   47    48    49	5 ;     CG2R61     CG2R61     CG2R61
   47    48    90	5 ;     CG2R61     CG2R61      HGR61
   49    48    90	5 ;     CG2R61     CG2R61      HGR61
   50    49    48	5 ;     CG2R61     CG2R61     CG2R61
   50    49    91	5 ;     CG2R61     CG2R61      HGR61
   48    49    91	5 ;     CG2R61     CG2R61      HGR61
   51    50    53	5 ;     CG2R61     CG2R61      OG301
   51    50    49	5 ;     CG2R61     CG2R61     CG2R61
   53    50    49	5 ;      OG301     CG2R61     CG2R61
   52    51    50	5 ;     CG2R61     CG2R61     CG2R61
   52    51    92	5 ;     CG2R61     CG2R61      HGR61
   50    51    92	5 ;     CG2R61     CG2R61      HGR61
   51    52    47	5 ;     CG2R61     CG2R61     CG2R61
   51    52    93	5 ;     CG2R61     CG2R61      HGR61
   47    52    93	5 ;     CG2R61     CG2R61      HGR61
   54    53    50	5 ;      CG331      OG301     CG2R61
   53    54    94	5 ;      OG301      CG331       HGA3
   53    54    95	5 ;      OG301      CG331       HGA3
   53    54    96	5 ;      OG301      CG331       HGA3
   94    54    95	5 ;       HGA3      CG331       HGA3
   94    54    96	5 ;       HGA3      CG331       HGA3
   95    54    96	5 ;       HGA3      CG331       HGA3

[ dihedrals ]
;	ai	  aj	ak	  al funct			  c0			c1			  c2			c3			  c4			c5
    2     1    31    36	 9 ;      OG2D1      CG2O1     CG2R61     CG2R61
    2     1    31    32	 9 ;      OG2D1      CG2O1     CG2R61     CG2R61
    3     1    31    36	 9 ;      NG2S1      CG2O1     CG2R61     CG2R61
    3     1    31    32	 9 ;      NG2S1      CG2O1     CG2R61     CG2R61
   31     1     3     4	 9 ;     CG2R61      CG2O1      NG2S1       HGP1
   31     1     3     5	 9 ;     CG2R61      CG2O1      NG2S1      CG311
    2     1     3     4	 9 ;      OG2D1      CG2O1      NG2S1       HGP1
    2     1     3     5	 9 ;      OG2D1      CG2O1      NG2S1      CG311
    1     3     5    15	 9 ;      CG2O1      NG2S1      CG311      CG311
    1     3     5     6	 9 ;      CG2O1      NG2S1      CG311      CG321
    1     3     5    55	 9 ;      CG2O1      NG2S1      CG311       HGA1
    4     3     5    15	 9 ;       HGP1      NG2S1      CG311      CG311
    4     3     5     6	 9 ;       HGP1      NG2S1      CG311      CG321
    4     3     5    55	 9 ;       HGP1      NG2S1      CG311       HGA1
    3     5    15    18	 9 ;      NG2S1      CG311      CG311      CG324
    3     5    15    16	 9 ;      NG2S1      CG311      CG311      OG311
    3     5    15    61	 9 ;      NG2S1      CG311      CG311       HGA1
    6     5    15    18	 9 ;      CG321      CG311      CG311      CG324
    6     5    15    16	 9 ;      CG321      CG311      CG311      OG311
    6     5    15    61	 9 ;      CG321      CG311      CG311       HGA1
   55     5    15    18	 9 ;       HGA1      CG311      CG311      CG324
   55     5    15    16	 9 ;       HGA1      CG311      CG311      OG311
   55     5    15    61	 9 ;       HGA1      CG311      CG311       HGA1
    3     5     6     7	 9 ;      NG2S1      CG311      CG321     CG2R61
    3     5     6    56	 9 ;      NG2S1      CG311      CG321       HGA2
    3     5     6    57	 9 ;      NG2S1      CG311      CG321       HGA2
   15     5     6     7	 9 ;      CG311      CG311      CG321     CG2R61
   15     5     6    56	 9 ;      CG311      CG311      CG321       HGA2
   15     5     6    57	 9 ;      CG311      CG311      CG321       HGA2
   55     5     6     7	 9 ;       HGA1      CG311      CG321     CG2R61
   55     5     6    56	 9 ;       HGA1      CG311      CG321       HGA2
   55     5     6    57	 9 ;       HGA1      CG311      CG321       HGA2
    5     6     7    14	 9 ;      CG311      CG321     CG2R61     CG2R61
    5     6     7     8	 9 ;      CG311      CG321     CG2R61     CG2R61
   56     6     7    14	 9 ;       HGA2      CG321     CG2R61     CG2R61
   56     6     7     8	 9 ;       HGA2      CG321     CG2R61     CG2R61
   57     6     7    14	 9 ;       HGA2      CG321     CG2R61     CG2R61
   57     6     7     8	 9 ;       HGA2      CG321     CG2R61     CG2R61
    6     7    14    12	 9 ;      CG321     CG2R61     CG2R61     CG2R66
    6     7    14    60	 9 ;      CG321     CG2R61     CG2R61      HGR62
    8     7    14    12	 9 ;     CG2R61     CG2R61     CG2R61     CG2R66
    8     7    14    60	 9 ;     CG2R61     CG2R61     CG2R61      HGR62
    6     7     8     9	 9 ;      CG321     CG2R61     CG2R61     CG2R66
    6     7     8    58	 9 ;      CG321     CG2R61     CG2R61      HGR62
   14     7     8     9	 9 ;     CG2R61     CG2R61     CG2R61     CG2R66
   14     7     8    58	 9 ;     CG2R61     CG2R61     CG2R61      HGR62
    7     8     9    11	 9 ;     CG2R61     CG2R61     CG2R66     CG2R61
    7     8     9    10	 9 ;     CG2R61     CG2R61     CG2R66       FGR1
   58     8     9    11	 9 ;      HGR62     CG2R61     CG2R66     CG2R61
   58     8     9    10	 9 ;      HGR62     CG2R61     CG2R66       FGR1
    8     9    11    12	 9 ;     CG2R61     CG2R66     CG2R61     CG2R66
    8     9    11    59	 9 ;     CG2R61     CG2R66     CG2R61      HGR62
   10     9    11    12	 9 ;       FGR1     CG2R66     CG2R61     CG2R66
   10     9    11    59	 9 ;       FGR1     CG2R66     CG2R61      HGR62
    9    11    12    14	 9 ;     CG2R66     CG2R61     CG2R66     CG2R61
    9    11    12    13	 9 ;     CG2R66     CG2R61     CG2R66       FGR1
   59    11    12    14	 9 ;      HGR62     CG2R61     CG2R66     CG2R61
   59    11    12    13	 9 ;      HGR62     CG2R61     CG2R66       FGR1
   13    12    14     7	 9 ;       FGR1     CG2R66     CG2R61     CG2R61
   13    12    14    60	 9 ;       FGR1     CG2R66     CG2R61      HGR62
   11    12    14     7	 9 ;     CG2R61     CG2R66     CG2R61     CG2R61
   11    12    14    60	 9 ;     CG2R61     CG2R66     CG2R61      HGR62
    5    15    18    19	 9 ;      CG311      CG311      CG324      NG3P2
    5    15    18    62	 9 ;      CG311      CG311      CG324       HGA2
    5    15    18    63	 9 ;      CG311      CG311      CG324       HGA2
   16    15    18    19	 9 ;      OG311      CG311      CG324      NG3P2
   16    15    18    62	 9 ;      OG311      CG311      CG324       HGA2
   16    15    18    63	 9 ;      OG311      CG311      CG324       HGA2
   61    15    18    19	 9 ;       HGA1      CG311      CG324      NG3P2
   61    15    18    62	 9 ;       HGA1      CG311      CG324       HGA2
   61    15    18    63	 9 ;       HGA1      CG311      CG324       HGA2
   18    15    16    17	 9 ;      CG324      CG311      OG311       HGP1
    5    15    16    17	 9 ;      CG311      CG311      OG311       HGP1
   61    15    16    17	 9 ;       HGA1      CG311      OG311       HGP1
   15    18    19    21	 9 ;      CG311      CG324      NG3P2       HGP2
   15    18    19    22	 9 ;      CG311      CG324      NG3P2      CG324
   15    18    19    20	 9 ;      CG311      CG324      NG3P2       HGP2
   62    18    19    21	 9 ;       HGA2      CG324      NG3P2       HGP2
   62    18    19    22	 9 ;       HGA2      CG324      NG3P2      CG324
   62    18    19    20	 9 ;       HGA2      CG324      NG3P2       HGP2
   63    18    19    21	 9 ;       HGA2      CG324      NG3P2       HGP2
   63    18    19    22	 9 ;       HGA2      CG324      NG3P2      CG324
   63    18    19    20	 9 ;       HGA2      CG324      NG3P2       HGP2
   21    19    22    23	 9 ;       HGP2      NG3P2      CG324     CG2R61
   21    19    22    64	 9 ;       HGP2      NG3P2      CG324       HGA2
   21    19    22    65	 9 ;       HGP2      NG3P2      CG324       HGA2
   20    19    22    23	 9 ;       HGP2      NG3P2      CG324     CG2R61
   20    19    22    64	 9 ;       HGP2      NG3P2      CG324       HGA2
   20    19    22    65	 9 ;       HGP2      NG3P2      CG324       HGA2
   18    19    22    23	 9 ;      CG324      NG3P2      CG324     CG2R61
   18    19    22    64	 9 ;      CG324      NG3P2      CG324       HGA2
   18    19    22    65	 9 ;      CG324      NG3P2      CG324       HGA2
   19    22    23    24	 9 ;      NG3P2      CG324     CG2R61     CG2R61
   19    22    23    28	 9 ;      NG3P2      CG324     CG2R61     CG2R61
   64    22    23    24	 9 ;       HGA2      CG324     CG2R61     CG2R61
   64    22    23    28	 9 ;       HGA2      CG324     CG2R61     CG2R61
   65    22    23    24	 9 ;       HGA2      CG324     CG2R61     CG2R61
   65    22    23    28	 9 ;       HGA2      CG324     CG2R61     CG2R61
   28    23    24    25	 9 ;     CG2R61     CG2R61     CG2R61     CG2R61
   28    23    24    66	 9 ;     CG2R61     CG2R61     CG2R61      HGR61
   22    23    24    25	 9 ;      CG324     CG2R61     CG2R61     CG2R61
   22    23    24    66	 9 ;      CG324     CG2R61     CG2R61      HGR61
   24    23    28    27	 9 ;     CG2R61     CG2R61     CG2R61     CG2R61
   24    23    28    69	 9 ;     CG2R61     CG2R61     CG2R61      HGR61
   22    23    28    27	 9 ;      CG324     CG2R61     CG2R61     CG2R61
   22    23    28    69	 9 ;      CG324     CG2R61     CG2R61      HGR61
   23    24    25    29	 9 ;     CG2R61     CG2R61     CG2R61      OG301
   23    24    25    26	 9 ;     CG2R61     CG2R61     CG2R61     CG2R61
   66    24    25    29	 9 ;      HGR61     CG2R61     CG2R61      OG301
   66    24    25    26	 9 ;      HGR61     CG2R61     CG2R61     CG2R61
   26    25    29    30	 9 ;     CG2R61     CG2R61      OG301      CG331
   24    25    29    30	 9 ;     CG2R61     CG2R61      OG301      CG331
   29    25    26    27	 9 ;      OG301     CG2R61     CG2R61     CG2R61
   29    25    26    67	 9 ;      OG301     CG2R61     CG2R61      HGR61
   24    25    26    27	 9 ;     CG2R61     CG2R61     CG2R61     CG2R61
   24    25    26    67	 9 ;     CG2R61     CG2R61     CG2R61      HGR61
   25    26    27    28	 9 ;     CG2R61     CG2R61     CG2R61     CG2R61
   25    26    27    68	 9 ;     CG2R61     CG2R61     CG2R61      HGR61
   67    26    27    28	 9 ;      HGR61     CG2R61     CG2R61     CG2R61
   67    26    27    68	 9 ;      HGR61     CG2R61     CG2R61      HGR61
   26    27    28    23	 9 ;     CG2R61     CG2R61     CG2R61     CG2R61
   26    27    28    69	 9 ;     CG2R61     CG2R61     CG2R61      HGR61
   68    27    28    23	 9 ;      HGR61     CG2R61     CG2R61     CG2R61
   68    27    28    69	 9 ;      HGR61     CG2R61     CG2R61      HGR61
   25    29    30    70	 9 ;     CG2R61      OG301      CG331       HGA3
   25    29    30    71	 9 ;     CG2R61      OG301      CG331       HGA3
   25    29    30    72	 9 ;     CG2R61      OG301      CG331       HGA3
   32    31    36    35	 9 ;     CG2R61     CG2R61     CG2R61     CG2R61
   32    31    36    75	 9 ;     CG2R61     CG2R61     CG2R61      HGR61
    1    31    36    35	 9 ;      CG2O1     CG2R61     CG2R61     CG2R61
    1    31    36    75	 9 ;      CG2O1     CG2R61     CG2R61      HGR61
   36    31    32    33	 9 ;     CG2R61     CG2R61     CG2R61     CG2R61
   36    31    32    73	 9 ;     CG2R61     CG2R61     CG2R61      HGR61
    1    31    32    33	 9 ;      CG2O1     CG2R61     CG2R61     CG2R61
    1    31    32    73	 9 ;      CG2O1     CG2R61     CG2R61      HGR61
   31    32    33    34	 9 ;     CG2R61     CG2R61     CG2R61     CG2R61
   31    32    33    37	 9 ;     CG2R61     CG2R61     CG2R61      CG2O1
   73    32    33    34	 9 ;      HGR61     CG2R61     CG2R61     CG2R61
   73    32    33    37	 9 ;      HGR61     CG2R61     CG2R61      CG2O1
   37    33    34    35	 9 ;      CG2O1     CG2R61     CG2R61     CG2R61
   37    33    34    74	 9 ;      CG2O1     CG2R61     CG2R61      HGR61
   32    33    34    35	 9 ;     CG2R61     CG2R61     CG2R61     CG2R61
   32    33    34    74	 9 ;     CG2R61     CG2R61     CG2R61      HGR61
   34    33    37    38	 9 ;     CG2R61     CG2R61      CG2O1      OG2D1
   34    33    37    39	 9 ;     CG2R61     CG2R61      CG2O1      NG2S0
   32    33    37    38	 9 ;     CG2R61     CG2R61      CG2O1      OG2D1
   32    33    37    39	 9 ;     CG2R61     CG2R61      CG2O1      NG2S0
   33    34    35    46	 9 ;     CG2R61     CG2R61     CG2R61      SG311
   33    34    35    36	 9 ;     CG2R61     CG2R61     CG2R61     CG2R61
   74    34    35    46	 9 ;      HGR61     CG2R61     CG2R61      SG311
   74    34    35    36	 9 ;      HGR61     CG2R61     CG2R61     CG2R61
   34    35    46    47	 9 ;     CG2R61     CG2R61      SG311     CG2R61
   36    35    46    47	 9 ;     CG2R61     CG2R61      SG311     CG2R61
   46    35    36    31	 9 ;      SG311     CG2R61     CG2R61     CG2R61
   46    35    36    75	 9 ;      SG311     CG2R61     CG2R61      HGR61
   34    35    36    31	 9 ;     CG2R61     CG2R61     CG2R61     CG2R61
   34    35    36    75	 9 ;     CG2R61     CG2R61     CG2R61      HGR61
   33    37    39    43	 9 ;     CG2R61      CG2O1      NG2S0      CG321
   33    37    39    40	 9 ;     CG2R61      CG2O1      NG2S0      CG321
   38    37    39    43	 9 ;      OG2D1      CG2O1      NG2S0      CG321
   38    37    39    40	 9 ;      OG2D1      CG2O1      NG2S0      CG321
   37    39    43    44	 9 ;      CG2O1      NG2S0      CG321      CG321
   37    39    43    83	 9 ;      CG2O1      NG2S0      CG321       HGA2
   37    39    43    84	 9 ;      CG2O1      NG2S0      CG321       HGA2
   40    39    43    44	 9 ;      CG321      NG2S0      CG321      CG321
   40    39    43    83	 9 ;      CG321      NG2S0      CG321       HGA2
   40    39    43    84	 9 ;      CG321      NG2S0      CG321       HGA2
   37    39    40    41	 9 ;      CG2O1      NG2S0      CG321      CG321
   37    39    40    76	 9 ;      CG2O1      NG2S0      CG321       HGA2
   37    39    40    77	 9 ;      CG2O1      NG2S0      CG321       HGA2
   43    39    40    41	 9 ;      CG321      NG2S0      CG321      CG321
   43    39    40    76	 9 ;      CG321      NG2S0      CG321       HGA2
   43    39    40    77	 9 ;      CG321      NG2S0      CG321       HGA2
   39    40    41    42	 9 ;      NG2S0      CG321      CG321      CG331
   39    40    41    78	 9 ;      NG2S0      CG321      CG321       HGA2
   39    40    41    79	 9 ;      NG2S0      CG321      CG321       HGA2
   76    40    41    42	 9 ;       HGA2      CG321      CG321      CG331
   76    40    41    78	 9 ;       HGA2      CG321      CG321       HGA2
   76    40    41    79	 9 ;       HGA2      CG321      CG321       HGA2
   77    40    41    42	 9 ;       HGA2      CG321      CG321      CG331
   77    40    41    78	 9 ;       HGA2      CG321      CG321       HGA2
   77    40    41    79	 9 ;       HGA2      CG321      CG321       HGA2
   40    41    42    80	 9 ;      CG321      CG321      CG331       HGA3
   40    41    42    81	 9 ;      CG321      CG321      CG331       HGA3
   40    41    42    82	 9 ;      CG321      CG321      CG331       HGA3
   78    41    42    80	 9 ;       HGA2      CG321      CG331       HGA3
   78    41    42    81	 9 ;       HGA2      CG321      CG331       HGA3
   78    41    42    82	 9 ;       HGA2      CG321      CG331       HGA3
   79    41    42    80	 9 ;       HGA2      CG321      CG331       HGA3
   79    41    42    81	 9 ;       HGA2      CG321      CG331       HGA3
   79    41    42    82	 9 ;       HGA2      CG321      CG331       HGA3
   39    43    44    45	 9 ;      NG2S0      CG321      CG321      CG331
   39    43    44    85	 9 ;      NG2S0      CG321      CG321       HGA2
   39    43    44    86	 9 ;      NG2S0      CG321      CG321       HGA2
   83    43    44    45	 9 ;       HGA2      CG321      CG321      CG331
   83    43    44    85	 9 ;       HGA2      CG321      CG321       HGA2
   83    43    44    86	 9 ;       HGA2      CG321      CG321       HGA2
   84    43    44    45	 9 ;       HGA2      CG321      CG321      CG331
   84    43    44    85	 9 ;       HGA2      CG321      CG321       HGA2
   84    43    44    86	 9 ;       HGA2      CG321      CG321       HGA2
   43    44    45    87	 9 ;      CG321      CG321      CG331       HGA3
   43    44    45    88	 9 ;      CG321      CG321      CG331       HGA3
   43    44    45    89	 9 ;      CG321      CG321      CG331       HGA3
   85    44    45    87	 9 ;       HGA2      CG321      CG331       HGA3
   85    44    45    88	 9 ;       HGA2      CG321      CG331       HGA3
   85    44    45    89	 9 ;       HGA2      CG321      CG331       HGA3
   86    44    45    87	 9 ;       HGA2      CG321      CG331       HGA3
   86    44    45    88	 9 ;       HGA2      CG321      CG331       HGA3
   86    44    45    89	 9 ;       HGA2      CG321      CG331       HGA3
   35    46    47    52	 9 ;     CG2R61      SG311     CG2R61     CG2R61
   35    46    47    48	 9 ;     CG2R61      SG311     CG2R61     CG2R61
   46    47    52    51	 9 ;      SG311     CG2R61     CG2R61     CG2R61
   46    47    52    93	 9 ;      SG311     CG2R61     CG2R61      HGR61
   48    47    52    51	 9 ;     CG2R61     CG2R61     CG2R61     CG2R61
   48    47    52    93	 9 ;     CG2R61     CG2R61     CG2R61      HGR61
   52    47    48    49	 9 ;     CG2R61     CG2R61     CG2R61     CG2R61
   52    47    48    90	 9 ;     CG2R61     CG2R61     CG2R61      HGR61
   46    47    48    49	 9 ;      SG311     CG2R61     CG2R61     CG2R61
   46    47    48    90	 9 ;      SG311     CG2R61     CG2R61      HGR61
   47    48    49    50	 9 ;     CG2R61     CG2R61     CG2R61     CG2R61
   47    48    49    91	 9 ;     CG2R61     CG2R61     CG2R61      HGR61
   90    48    49    50	 9 ;      HGR61     CG2R61     CG2R61     CG2R61
   90    48    49    91	 9 ;      HGR61     CG2R61     CG2R61      HGR61
   48    49    50    51	 9 ;     CG2R61     CG2R61     CG2R61     CG2R61
   48    49    50    53	 9 ;     CG2R61     CG2R61     CG2R61      OG301
   91    49    50    51	 9 ;      HGR61     CG2R61     CG2R61     CG2R61
   91    49    50    53	 9 ;      HGR61     CG2R61     CG2R61      OG301
   53    50    51    52	 9 ;      OG301     CG2R61     CG2R61     CG2R61
   53    50    51    92	 9 ;      OG301     CG2R61     CG2R61      HGR61
   49    50    51    52	 9 ;     CG2R61     CG2R61     CG2R61     CG2R61
   49    50    51    92	 9 ;     CG2R61     CG2R61     CG2R61      HGR61
   51    50    53    54	 9 ;     CG2R61     CG2R61      OG301      CG331
   49    50    53    54	 9 ;     CG2R61     CG2R61      OG301      CG331
   50    51    52    47	 9 ;     CG2R61     CG2R61     CG2R61     CG2R61
   50    51    52    93	 9 ;     CG2R61     CG2R61     CG2R61      HGR61
   92    51    52    47	 9 ;      HGR61     CG2R61     CG2R61     CG2R61
   92    51    52    93	 9 ;      HGR61     CG2R61     CG2R61      HGR61
   50    53    54    94	 9 ;     CG2R61      OG301      CG331       HGA3
   50    53    54    95	 9 ;     CG2R61      OG301      CG331       HGA3
   50    53    54    96	 9 ;     CG2R61      OG301      CG331       HGA3

[ dihedrals ]
;	ai	  aj	ak	  al funct			  c0			c1			  c2			c3
    1    31     3     2	 2
   37    33    39    38	 2

