GROningen Mixture of Alchemy and Childrens' Stories
   75
    1LIG     C1    1  -1.699   0.639  -1.544
    1LIG     C2    2  -1.786   0.646  -1.417
    1LIG     C3    3  -1.902   0.549  -1.408
    1LIG     C4    4  -1.945   0.501  -1.283
    1LIG     C5    5  -2.062   0.425  -1.273
    1LIG     F1    6  -2.104   0.384  -1.153
    1LIG     C6    7  -2.136   0.393  -1.387
    1LIG     C7    8  -2.091   0.437  -1.509
    1LIG     F2    9  -2.161   0.407  -1.620
    1LIG     C8   10  -1.975   0.514  -1.521
    1LIG     C9   11  -1.663   0.776  -1.612
    1LIG     O1   12  -1.596   0.873  -1.533
    1LIG     H1   13  -1.621   0.963  -1.562
    1LIG    C10   14  -1.573   0.751  -1.735
    1LIG     N1   15  -1.439   0.816  -1.717
    1LIG     H2   16  -1.443   0.916  -1.742
    1LIG     H3   17  -1.417   0.815  -1.616
    1LIG    C11   18  -1.331   0.750  -1.794
    1LIG    C12   19  -1.234   0.680  -1.705
    1LIG    C13   20  -1.124   0.614  -1.762
    1LIG    C14   21  -1.033   0.546  -1.682
    1LIG    C15   22  -1.054   0.538  -1.544
    1LIG    C16   23  -1.163   0.602  -1.486
    1LIG    C17   24  -1.253   0.674  -1.566
    1LIG     O2   25  -0.922   0.481  -1.729
    1LIG    C18   26  -0.798   0.548  -1.708
    1LIG     N2   27  -1.583   0.548  -1.525
    1LIG    C19   28  -1.577   0.420  -1.579
    1LIG     O3   29  -1.673   0.366  -1.634
    1LIG     H4   30  -1.494   0.591  -1.505
    1LIG    C20   31  -1.446   0.349  -1.571
    1LIG    C21   32  -1.369   0.335  -1.688
    1LIG    C22   33  -1.253   0.255  -1.688
    1LIG    C23   34  -1.213   0.193  -1.569
    1LIG    C24   35  -1.286   0.213  -1.451
    1LIG    C25   36  -1.403   0.290  -1.452
    1LIG    C26   37  -1.171   0.229  -1.809
    1LIG     O4   38  -1.188   0.299  -1.909
    1LIG    C27   39  -1.071   0.116  -1.809
    1LIG     N3   40  -1.242   0.157  -1.328
    1LIG    C28   41  -1.233   0.244  -1.210
    1LIG      S   42  -1.247  -0.011  -1.311
    1LIG     O5   43  -1.117  -0.062  -1.349
    1LIG     O6   44  -1.367  -0.059  -1.378
    1LIG    C29   45  -1.266  -0.035  -1.135
    1LIG     HC   46  -1.761   0.589  -1.617
    1LIG    HC2   47  -1.828   0.747  -1.411
    1LIG    HC3   48  -1.722   0.631  -1.330
    1LIG    HC1   49  -1.888   0.522  -1.194
    1LIG    HC4   50  -2.227   0.334  -1.379
    1LIG    HC5   51  -1.942   0.547  -1.619
    1LIG    HC6   52  -1.756   0.820  -1.648
    1LIG    HC7   53  -1.622   0.792  -1.823
    1LIG    HC8   54  -1.559   0.644  -1.748
    1LIG    HC9   55  -1.375   0.678  -1.862
    1LIG   HC10   56  -1.278   0.826  -1.852
    1LIG   HC11   57  -1.110   0.618  -1.869
    1LIG   HC12   58  -0.986   0.482  -1.482
    1LIG   HC13   59  -1.179   0.597  -1.379
    1LIG   HC14   60  -1.337   0.724  -1.521
    1LIG   HC15   61  -1.399   0.385  -1.779
    1LIG   HC16   62  -1.126   0.130  -1.567
    1LIG   HC17   63  -1.460   0.303  -1.362
    1LIG   HC18   64  -1.278  -0.141  -1.114
    1LIG   HC19   65  -1.178   0.002  -1.083
    1LIG   HC20   66  -1.355   0.019  -1.101
    1LIG   HC21   67  -1.029   0.105  -1.909
    1LIG   HC22   68  -1.120   0.024  -1.779
    1LIG   HC23   69  -0.990   0.139  -1.739
    1LIG   HC24   70  -0.717   0.488  -1.750
    1LIG   HC25   71  -0.782   0.561  -1.601
    1LIG   HC26   72  -0.800   0.645  -1.757
    1LIG   HC27   73  -1.221   0.348  -1.242
    1LIG   HC28   74  -1.324   0.235  -1.151
    1LIG   HC29   75  -1.148   0.214  -1.150
   0.00000   0.00000   0.00000
