; Created by cgenff_charmm2gmx.py

[ moleculetype ]
; Name			   nrexcl
LIG				 3

[ atoms ]
;	 nr		  type	resnr residue  atom   cgnr	   charge		mass  typeB    chargeB		massB
; residue	 1 LIG rtp LIG q	qsum
     1      CG311      1    LIG     C1      1      0.010     12.011   ;
     2      CG321      1    LIG     C2      2     -0.153     12.011   ;
     3     CG2R61      1    LIG     C3      3      0.057     12.011   ;
     4     CG2R61      1    LIG     C4      4     -0.218     12.011   ;
     5     CG2R66      1    LIG     C5      5      0.261     12.011   ;
     6       FGR1      1    LIG     F1      6     -0.210     18.998   ;
     7     CG2R61      1    LIG     C6      7     -0.240     12.011   ;
     8     CG2R66      1    LIG     C7      8      0.261     12.011   ;
     9       FGR1      1    LIG     F2      9     -0.210     18.998   ;
    10     CG2R61      1    LIG     C8     10     -0.218     12.011   ;
    11      CG311      1    LIG     C9     11      0.094     12.011   ;
    12      OG311      1    LIG     O1     12     -0.625     15.999   ;
    13       HGP1      1    LIG     H1     13      0.415      1.008   ;
    14      CG324      1    LIG    C10     14      0.178     12.011   ;
    15      NG3P2      1    LIG     N1     15     -0.444     14.007   ;
    16       HGP2      1    LIG     H2     16      0.348      1.008   ;
    17       HGP2      1    LIG     H3     17      0.348      1.008   ;
    18      CG324      1    LIG    C11     18      0.171     12.011   ;
    19     CG2R61      1    LIG    C12     19      0.036     12.011   ;
    20     CG2R61      1    LIG    C13     20     -0.124     12.011   ;
    21     CG2R61      1    LIG    C14     21      0.216     12.011   ;
    22     CG2R61      1    LIG    C15     22     -0.121     12.011   ;
    23     CG2R61      1    LIG    C16     23     -0.108     12.011   ;
    24     CG2R61      1    LIG    C17     24     -0.119     12.011   ;
    25      OG301      1    LIG     O2     25     -0.383     15.999   ;
    26      CG331      1    LIG    C18     26     -0.094     12.011   ;
    27      NG2S1      1    LIG     N2     27     -0.226     14.007   ;
    28      CG2O1      1    LIG    C19     28      0.302     12.011   ;
    29      OG2D1      1    LIG     O3     29     -0.463     15.999   ;
    30       HGP1      1    LIG     H4     30      0.262      1.008   ;
    31     CG2R61      1    LIG    C20     31     -0.098     12.011   ;
    32     CG2R61      1    LIG    C21     32     -0.065     12.011   ;
    33     CG2R61      1    LIG    C22     33      0.074     12.011   ;
    34     CG2R61      1    LIG    C23     34     -0.125     12.011   ;
    35     CG2R61      1    LIG    C24     35      0.141     12.011   ;
    36     CG2R61      1    LIG    C25     36     -0.064     12.011   ;
    37      CG2O5      1    LIG    C26     37      0.360     12.011   ;
    38      OG2D3      1    LIG     O4     38     -0.466     15.999   ;
    39      CG331      1    LIG    C27     39     -0.232     12.011   ;
    40      NG301      1    LIG     N3     40     -0.228     14.007   ;
    41      CG331      1    LIG    C28     41     -0.103     12.011   ;
    42      SG3O2      1    LIG      S     42      0.397     32.060   ;
    43      OG2P1      1    LIG     O5     43     -0.388     15.999   ;
    44      OG2P1      1    LIG     O6     44     -0.388     15.999   ;
    45      CG331      1    LIG    C29     45      0.036     12.011   ;
    46       HGA1      1    LIG     HC     46      0.090      1.008   ;
    47       HGA2      1    LIG    HC2     47      0.090      1.008   ;
    48       HGA2      1    LIG    HC3     48      0.090      1.008   ;
    49      HGR62      1    LIG    HC1     49      0.174      1.008   ;
    50      HGR62      1    LIG    HC4     50      0.186      1.008   ;
    51      HGR62      1    LIG    HC5     51      0.174      1.008   ;
    52       HGA1      1    LIG    HC6     52      0.090      1.008   ;
    53       HGA2      1    LIG    HC7     53      0.090      1.008   ;
    54       HGA2      1    LIG    HC8     54      0.090      1.008   ;
    55       HGA2      1    LIG    HC9     55      0.090      1.008   ;
    56       HGA2      1    LIG   HC10     56      0.090      1.008   ;
    57      HGR61      1    LIG   HC11     57      0.116      1.008   ;
    58      HGR61      1    LIG   HC12     58      0.116      1.008   ;
    59      HGR61      1    LIG   HC13     59      0.116      1.008   ;
    60      HGR61      1    LIG   HC14     60      0.116      1.008   ;
    61      HGR61      1    LIG   HC15     61      0.116      1.008   ;
    62      HGR61      1    LIG   HC16     62      0.116      1.008   ;
    63      HGR61      1    LIG   HC17     63      0.116      1.008   ;
    64       HGA3      1    LIG   HC18     64      0.090      1.008   ;
    65       HGA3      1    LIG   HC19     65      0.090      1.008   ;
    66       HGA3      1    LIG   HC20     66      0.090      1.008   ;
    67       HGA3      1    LIG   HC21     67      0.090      1.008   ;
    68       HGA3      1    LIG   HC22     68      0.090      1.008   ;
    69       HGA3      1    LIG   HC23     69      0.090      1.008   ;
    70       HGA3      1    LIG   HC24     70      0.090      1.008   ;
    71       HGA3      1    LIG   HC25     71      0.090      1.008   ;
    72       HGA3      1    LIG   HC26     72      0.090      1.008   ;
    73       HGA3      1    LIG   HC27     73      0.090      1.008   ;
    74       HGA3      1    LIG   HC28     74      0.090      1.008   ;
    75       HGA3      1    LIG   HC29     75      0.090      1.008   ;

[ bonds ]
;	ai	  aj funct			  c0			c1			  c2			c3
    1    27	 1 ;       CG311      NG2S1
    1    11	 1 ;       CG311      CG311
    1     2	 1 ;       CG311      CG321
    1    46	 1 ;       CG311       HGA1
    2     3	 1 ;       CG321     CG2R61
    2    47	 1 ;       CG321       HGA2
    2    48	 1 ;       CG321       HGA2
    3    10	 1 ;      CG2R61     CG2R61
    3     4	 1 ;      CG2R61     CG2R61
    4     5	 1 ;      CG2R61     CG2R66
    4    49	 1 ;      CG2R61      HGR62
    5     7	 1 ;      CG2R66     CG2R61
    5     6	 1 ;      CG2R66       FGR1
    7     8	 1 ;      CG2R61     CG2R66
    7    50	 1 ;      CG2R61      HGR62
    8    10	 1 ;      CG2R66     CG2R61
    8     9	 1 ;      CG2R66       FGR1
   10    51	 1 ;      CG2R61      HGR62
   11    14	 1 ;       CG311      CG324
   11    12	 1 ;       CG311      OG311
   11    52	 1 ;       CG311       HGA1
   12    13	 1 ;       OG311       HGP1
   14    15	 1 ;       CG324      NG3P2
   14    53	 1 ;       CG324       HGA2
   14    54	 1 ;       CG324       HGA2
   15    18	 1 ;       NG3P2      CG324
   15    16	 1 ;       NG3P2       HGP2
   15    17	 1 ;       NG3P2       HGP2
   18    19	 1 ;       CG324     CG2R61
   18    55	 1 ;       CG324       HGA2
   18    56	 1 ;       CG324       HGA2
   19    20	 1 ;      CG2R61     CG2R61
   19    24	 1 ;      CG2R61     CG2R61
   20    21	 1 ;      CG2R61     CG2R61
   20    57	 1 ;      CG2R61      HGR61
   21    25	 1 ;      CG2R61      OG301
   21    22	 1 ;      CG2R61     CG2R61
   22    23	 1 ;      CG2R61     CG2R61
   22    58	 1 ;      CG2R61      HGR61
   23    24	 1 ;      CG2R61     CG2R61
   23    59	 1 ;      CG2R61      HGR61
   24    60	 1 ;      CG2R61      HGR61
   25    26	 1 ;       OG301      CG331
   26    70	 1 ;       CG331       HGA3
   26    71	 1 ;       CG331       HGA3
   26    72	 1 ;       CG331       HGA3
   27    28	 1 ;       NG2S1      CG2O1
   27    30	 1 ;       NG2S1       HGP1
   28    31	 1 ;       CG2O1     CG2R61
   28    29	 1 ;       CG2O1      OG2D1
   31    32	 1 ;      CG2R61     CG2R61
   31    36	 1 ;      CG2R61     CG2R61
   32    33	 1 ;      CG2R61     CG2R61
   32    61	 1 ;      CG2R61      HGR61
   33    37	 1 ;      CG2R61      CG2O5
   33    34	 1 ;      CG2R61     CG2R61
   34    35	 1 ;      CG2R61     CG2R61
   34    62	 1 ;      CG2R61      HGR61
   35    40	 1 ;      CG2R61      NG301
   35    36	 1 ;      CG2R61     CG2R61
   36    63	 1 ;      CG2R61      HGR61
   37    39	 1 ;       CG2O5      CG331
   37    38	 1 ;       CG2O5      OG2D3
   39    67	 1 ;       CG331       HGA3
   39    68	 1 ;       CG331       HGA3
   39    69	 1 ;       CG331       HGA3
   40    42	 1 ;       NG301      SG3O2
   40    41	 1 ;       NG301      CG331
   41    73	 1 ;       CG331       HGA3
   41    74	 1 ;       CG331       HGA3
   41    75	 1 ;       CG331       HGA3
   42    43	 1 ;       SG3O2      OG2P1
   42    44	 1 ;       SG3O2      OG2P1
   42    45	 1 ;       SG3O2      CG331
   45    64	 1 ;       CG331       HGA3
   45    65	 1 ;       CG331       HGA3
   45    66	 1 ;       CG331       HGA3

[ pairs ]
;	ai	  aj funct			  c0			c1			  c2			c3
    1    10	 1
    1     4	 1
    1    15	 1
    1    53	 1
    1    54	 1
    1    13	 1
    1    31	 1
    1    29	 1
    2    28	 1
    2    30	 1
    2    14	 1
    2    12	 1
    2    52	 1
    2     8	 1
    2    51	 1
    2     5	 1
    2    49	 1
    3    27	 1
    3    11	 1
    3    46	 1
    3     7	 1
    3     6	 1
    3     9	 1
    4    47	 1
    4    48	 1
    4     8	 1
    4    51	 1
    4    50	 1
    5    10	 1
    5     9	 1
    6    49	 1
    6     8	 1
    6    50	 1
    7    49	 1
    7    51	 1
    9    50	 1
    9    51	 1
   10    47	 1
   10    48	 1
   10    49	 1
   10    50	 1
   11    28	 1
   11    30	 1
   11    47	 1
   11    48	 1
   11    18	 1
   11    16	 1
   11    17	 1
   12    27	 1
   12    46	 1
   12    15	 1
   12    53	 1
   12    54	 1
   13    14	 1
   13    52	 1
   14    27	 1
   14    46	 1
   14    19	 1
   14    55	 1
   14    56	 1
   15    52	 1
   15    20	 1
   15    24	 1
   16    53	 1
   16    54	 1
   16    19	 1
   16    55	 1
   16    56	 1
   17    53	 1
   17    54	 1
   17    19	 1
   17    55	 1
   17    56	 1
   18    53	 1
   18    54	 1
   18    21	 1
   18    57	 1
   18    23	 1
   18    60	 1
   19    25	 1
   19    22	 1
   19    59	 1
   20    55	 1
   20    56	 1
   20    23	 1
   20    60	 1
   20    26	 1
   20    58	 1
   21    24	 1
   21    59	 1
   21    70	 1
   21    71	 1
   21    72	 1
   22    57	 1
   22    26	 1
   22    60	 1
   23    25	 1
   24    55	 1
   24    56	 1
   24    57	 1
   24    58	 1
   25    57	 1
   25    58	 1
   27    52	 1
   27    47	 1
   27    48	 1
   27    32	 1
   27    36	 1
   28    46	 1
   28    33	 1
   28    61	 1
   28    35	 1
   28    63	 1
   29    30	 1
   29    32	 1
   29    36	 1
   30    46	 1
   30    31	 1
   31    37	 1
   31    34	 1
   31    40	 1
   32    35	 1
   32    63	 1
   32    39	 1
   32    38	 1
   32    62	 1
   33    36	 1
   33    40	 1
   33    67	 1
   33    68	 1
   33    69	 1
   34    61	 1
   34    39	 1
   34    38	 1
   34    42	 1
   34    41	 1
   34    63	 1
   35    37	 1
   35    43	 1
   35    44	 1
   35    45	 1
   35    73	 1
   35    74	 1
   35    75	 1
   36    61	 1
   36    62	 1
   36    42	 1
   36    41	 1
   37    61	 1
   37    62	 1
   38    67	 1
   38    68	 1
   38    69	 1
   40    62	 1
   40    63	 1
   40    64	 1
   40    65	 1
   40    66	 1
   41    43	 1
   41    44	 1
   41    45	 1
   42    73	 1
   42    74	 1
   42    75	 1
   43    64	 1
   43    65	 1
   43    66	 1
   44    64	 1
   44    65	 1
   44    66	 1
   46    52	 1
   46    47	 1
   46    48	 1
   52    53	 1
   52    54	 1
   58    59	 1
   59    60	 1

[ angles ]
;	ai	  aj	ak funct			c0			  c1			c2			  c3
   27     1    11	5 ;      NG2S1      CG311      CG311
   27     1     2	5 ;      NG2S1      CG311      CG321
   27     1    46	5 ;      NG2S1      CG311       HGA1
   11     1     2	5 ;      CG311      CG311      CG321
   11     1    46	5 ;      CG311      CG311       HGA1
    2     1    46	5 ;      CG321      CG311       HGA1
    1     2     3	5 ;      CG311      CG321     CG2R61
    1     2    47	5 ;      CG311      CG321       HGA2
    1     2    48	5 ;      CG311      CG321       HGA2
    3     2    47	5 ;     CG2R61      CG321       HGA2
    3     2    48	5 ;     CG2R61      CG321       HGA2
   47     2    48	5 ;       HGA2      CG321       HGA2
    2     3    10	5 ;      CG321     CG2R61     CG2R61
    2     3     4	5 ;      CG321     CG2R61     CG2R61
   10     3     4	5 ;     CG2R61     CG2R61     CG2R61
    3     4     5	5 ;     CG2R61     CG2R61     CG2R66
    3     4    49	5 ;     CG2R61     CG2R61      HGR62
    5     4    49	5 ;     CG2R66     CG2R61      HGR62
    4     5     7	5 ;     CG2R61     CG2R66     CG2R61
    4     5     6	5 ;     CG2R61     CG2R66       FGR1
    7     5     6	5 ;     CG2R61     CG2R66       FGR1
    8     7     5	5 ;     CG2R66     CG2R61     CG2R66
    8     7    50	5 ;     CG2R66     CG2R61      HGR62
    5     7    50	5 ;     CG2R66     CG2R61      HGR62
   10     8     9	5 ;     CG2R61     CG2R66       FGR1
   10     8     7	5 ;     CG2R61     CG2R66     CG2R61
    9     8     7	5 ;       FGR1     CG2R66     CG2R61
    3    10     8	5 ;     CG2R61     CG2R61     CG2R66
    3    10    51	5 ;     CG2R61     CG2R61      HGR62
    8    10    51	5 ;     CG2R66     CG2R61      HGR62
   14    11    12	5 ;      CG324      CG311      OG311
   14    11     1	5 ;      CG324      CG311      CG311
   14    11    52	5 ;      CG324      CG311       HGA1
   12    11     1	5 ;      OG311      CG311      CG311
   12    11    52	5 ;      OG311      CG311       HGA1
    1    11    52	5 ;      CG311      CG311       HGA1
   11    12    13	5 ;      CG311      OG311       HGP1
   15    14    11	5 ;      NG3P2      CG324      CG311
   15    14    53	5 ;      NG3P2      CG324       HGA2
   15    14    54	5 ;      NG3P2      CG324       HGA2
   11    14    53	5 ;      CG311      CG324       HGA2
   11    14    54	5 ;      CG311      CG324       HGA2
   53    14    54	5 ;       HGA2      CG324       HGA2
   18    15    16	5 ;      CG324      NG3P2       HGP2
   18    15    17	5 ;      CG324      NG3P2       HGP2
   18    15    14	5 ;      CG324      NG3P2      CG324
   16    15    17	5 ;       HGP2      NG3P2       HGP2
   16    15    14	5 ;       HGP2      NG3P2      CG324
   17    15    14	5 ;       HGP2      NG3P2      CG324
   19    18    15	5 ;     CG2R61      CG324      NG3P2
   19    18    55	5 ;     CG2R61      CG324       HGA2
   19    18    56	5 ;     CG2R61      CG324       HGA2
   15    18    55	5 ;      NG3P2      CG324       HGA2
   15    18    56	5 ;      NG3P2      CG324       HGA2
   55    18    56	5 ;       HGA2      CG324       HGA2
   20    19    18	5 ;     CG2R61     CG2R61      CG324
   20    19    24	5 ;     CG2R61     CG2R61     CG2R61
   18    19    24	5 ;      CG324     CG2R61     CG2R61
   21    20    19	5 ;     CG2R61     CG2R61     CG2R61
   21    20    57	5 ;     CG2R61     CG2R61      HGR61
   19    20    57	5 ;     CG2R61     CG2R61      HGR61
   25    21    20	5 ;      OG301     CG2R61     CG2R61
   25    21    22	5 ;      OG301     CG2R61     CG2R61
   20    21    22	5 ;     CG2R61     CG2R61     CG2R61
   21    22    23	5 ;     CG2R61     CG2R61     CG2R61
   21    22    58	5 ;     CG2R61     CG2R61      HGR61
   23    22    58	5 ;     CG2R61     CG2R61      HGR61
   22    23    24	5 ;     CG2R61     CG2R61     CG2R61
   22    23    59	5 ;     CG2R61     CG2R61      HGR61
   24    23    59	5 ;     CG2R61     CG2R61      HGR61
   19    24    23	5 ;     CG2R61     CG2R61     CG2R61
   19    24    60	5 ;     CG2R61     CG2R61      HGR61
   23    24    60	5 ;     CG2R61     CG2R61      HGR61
   26    25    21	5 ;      CG331      OG301     CG2R61
   25    26    70	5 ;      OG301      CG331       HGA3
   25    26    71	5 ;      OG301      CG331       HGA3
   25    26    72	5 ;      OG301      CG331       HGA3
   70    26    71	5 ;       HGA3      CG331       HGA3
   70    26    72	5 ;       HGA3      CG331       HGA3
   71    26    72	5 ;       HGA3      CG331       HGA3
   28    27    30	5 ;      CG2O1      NG2S1       HGP1
   28    27     1	5 ;      CG2O1      NG2S1      CG311
   30    27     1	5 ;       HGP1      NG2S1      CG311
   31    28    29	5 ;     CG2R61      CG2O1      OG2D1
   31    28    27	5 ;     CG2R61      CG2O1      NG2S1
   29    28    27	5 ;      OG2D1      CG2O1      NG2S1
   32    31    36	5 ;     CG2R61     CG2R61     CG2R61
   32    31    28	5 ;     CG2R61     CG2R61      CG2O1
   36    31    28	5 ;     CG2R61     CG2R61      CG2O1
   33    32    31	5 ;     CG2R61     CG2R61     CG2R61
   33    32    61	5 ;     CG2R61     CG2R61      HGR61
   31    32    61	5 ;     CG2R61     CG2R61      HGR61
   37    33    34	5 ;      CG2O5     CG2R61     CG2R61
   37    33    32	5 ;      CG2O5     CG2R61     CG2R61
   34    33    32	5 ;     CG2R61     CG2R61     CG2R61
   33    34    35	5 ;     CG2R61     CG2R61     CG2R61
   33    34    62	5 ;     CG2R61     CG2R61      HGR61
   35    34    62	5 ;     CG2R61     CG2R61      HGR61
   34    35    40	5 ;     CG2R61     CG2R61      NG301
   34    35    36	5 ;     CG2R61     CG2R61     CG2R61
   40    35    36	5 ;      NG301     CG2R61     CG2R61
   35    36    31	5 ;     CG2R61     CG2R61     CG2R61
   35    36    63	5 ;     CG2R61     CG2R61      HGR61
   31    36    63	5 ;     CG2R61     CG2R61      HGR61
   39    37    38	5 ;      CG331      CG2O5      OG2D3
   39    37    33	5 ;      CG331      CG2O5     CG2R61
   38    37    33	5 ;      OG2D3      CG2O5     CG2R61
   37    39    67	5 ;      CG2O5      CG331       HGA3
   37    39    68	5 ;      CG2O5      CG331       HGA3
   37    39    69	5 ;      CG2O5      CG331       HGA3
   67    39    68	5 ;       HGA3      CG331       HGA3
   67    39    69	5 ;       HGA3      CG331       HGA3
   68    39    69	5 ;       HGA3      CG331       HGA3
   35    40    42	5 ;     CG2R61      NG301      SG3O2
   35    40    41	5 ;     CG2R61      NG301      CG331
   42    40    41	5 ;      SG3O2      NG301      CG331
   40    41    73	5 ;      NG301      CG331       HGA3
   40    41    74	5 ;      NG301      CG331       HGA3
   40    41    75	5 ;      NG301      CG331       HGA3
   73    41    74	5 ;       HGA3      CG331       HGA3
   73    41    75	5 ;       HGA3      CG331       HGA3
   74    41    75	5 ;       HGA3      CG331       HGA3
   43    42    40	5 ;      OG2P1      SG3O2      NG301
   43    42    44	5 ;      OG2P1      SG3O2      OG2P1
   43    42    45	5 ;      OG2P1      SG3O2      CG331
   40    42    44	5 ;      NG301      SG3O2      OG2P1
   40    42    45	5 ;      NG301      SG3O2      CG331
   44    42    45	5 ;      OG2P1      SG3O2      CG331
   42    45    64	5 ;      SG3O2      CG331       HGA3
   42    45    65	5 ;      SG3O2      CG331       HGA3
   42    45    66	5 ;      SG3O2      CG331       HGA3
   64    45    65	5 ;       HGA3      CG331       HGA3
   64    45    66	5 ;       HGA3      CG331       HGA3
   65    45    66	5 ;       HGA3      CG331       HGA3

[ dihedrals ]
;	ai	  aj	ak	  al funct			  c0			c1			  c2			c3			  c4			c5
   11     1    27    28	 9 ;      CG311      CG311      NG2S1      CG2O1
   11     1    27    30	 9 ;      CG311      CG311      NG2S1       HGP1
    2     1    27    28	 9 ;      CG321      CG311      NG2S1      CG2O1
    2     1    27    30	 9 ;      CG321      CG311      NG2S1       HGP1
   46     1    27    28	 9 ;       HGA1      CG311      NG2S1      CG2O1
   46     1    27    30	 9 ;       HGA1      CG311      NG2S1       HGP1
   27     1    11    14	 9 ;      NG2S1      CG311      CG311      CG324
   27     1    11    12	 9 ;      NG2S1      CG311      CG311      OG311
   27     1    11    52	 9 ;      NG2S1      CG311      CG311       HGA1
    2     1    11    14	 9 ;      CG321      CG311      CG311      CG324
    2     1    11    12	 9 ;      CG321      CG311      CG311      OG311
    2     1    11    52	 9 ;      CG321      CG311      CG311       HGA1
   46     1    11    14	 9 ;       HGA1      CG311      CG311      CG324
   46     1    11    12	 9 ;       HGA1      CG311      CG311      OG311
   46     1    11    52	 9 ;       HGA1      CG311      CG311       HGA1
   27     1     2     3	 9 ;      NG2S1      CG311      CG321     CG2R61
   27     1     2    47	 9 ;      NG2S1      CG311      CG321       HGA2
   27     1     2    48	 9 ;      NG2S1      CG311      CG321       HGA2
   11     1     2     3	 9 ;      CG311      CG311      CG321     CG2R61
   11     1     2    47	 9 ;      CG311      CG311      CG321       HGA2
   11     1     2    48	 9 ;      CG311      CG311      CG321       HGA2
   46     1     2     3	 9 ;       HGA1      CG311      CG321     CG2R61
   46     1     2    47	 9 ;       HGA1      CG311      CG321       HGA2
   46     1     2    48	 9 ;       HGA1      CG311      CG321       HGA2
    1     2     3    10	 9 ;      CG311      CG321     CG2R61     CG2R61
    1     2     3     4	 9 ;      CG311      CG321     CG2R61     CG2R61
   47     2     3    10	 9 ;       HGA2      CG321     CG2R61     CG2R61
   47     2     3     4	 9 ;       HGA2      CG321     CG2R61     CG2R61
   48     2     3    10	 9 ;       HGA2      CG321     CG2R61     CG2R61
   48     2     3     4	 9 ;       HGA2      CG321     CG2R61     CG2R61
    2     3    10     8	 9 ;      CG321     CG2R61     CG2R61     CG2R66
    2     3    10    51	 9 ;      CG321     CG2R61     CG2R61      HGR62
    4     3    10     8	 9 ;     CG2R61     CG2R61     CG2R61     CG2R66
    4     3    10    51	 9 ;     CG2R61     CG2R61     CG2R61      HGR62
    2     3     4     5	 9 ;      CG321     CG2R61     CG2R61     CG2R66
    2     3     4    49	 9 ;      CG321     CG2R61     CG2R61      HGR62
   10     3     4     5	 9 ;     CG2R61     CG2R61     CG2R61     CG2R66
   10     3     4    49	 9 ;     CG2R61     CG2R61     CG2R61      HGR62
    3     4     5     7	 9 ;     CG2R61     CG2R61     CG2R66     CG2R61
    3     4     5     6	 9 ;     CG2R61     CG2R61     CG2R66       FGR1
   49     4     5     7	 9 ;      HGR62     CG2R61     CG2R66     CG2R61
   49     4     5     6	 9 ;      HGR62     CG2R61     CG2R66       FGR1
    4     5     7     8	 9 ;     CG2R61     CG2R66     CG2R61     CG2R66
    4     5     7    50	 9 ;     CG2R61     CG2R66     CG2R61      HGR62
    6     5     7     8	 9 ;       FGR1     CG2R66     CG2R61     CG2R66
    6     5     7    50	 9 ;       FGR1     CG2R66     CG2R61      HGR62
    5     7     8    10	 9 ;     CG2R66     CG2R61     CG2R66     CG2R61
    5     7     8     9	 9 ;     CG2R66     CG2R61     CG2R66       FGR1
   50     7     8    10	 9 ;      HGR62     CG2R61     CG2R66     CG2R61
   50     7     8     9	 9 ;      HGR62     CG2R61     CG2R66       FGR1
    9     8    10     3	 9 ;       FGR1     CG2R66     CG2R61     CG2R61
    9     8    10    51	 9 ;       FGR1     CG2R66     CG2R61      HGR62
    7     8    10     3	 9 ;     CG2R61     CG2R66     CG2R61     CG2R61
    7     8    10    51	 9 ;     CG2R61     CG2R66     CG2R61      HGR62
   12    11    14    15	 9 ;      OG311      CG311      CG324      NG3P2
   12    11    14    53	 9 ;      OG311      CG311      CG324       HGA2
   12    11    14    54	 9 ;      OG311      CG311      CG324       HGA2
    1    11    14    15	 9 ;      CG311      CG311      CG324      NG3P2
    1    11    14    53	 9 ;      CG311      CG311      CG324       HGA2
    1    11    14    54	 9 ;      CG311      CG311      CG324       HGA2
   52    11    14    15	 9 ;       HGA1      CG311      CG324      NG3P2
   52    11    14    53	 9 ;       HGA1      CG311      CG324       HGA2
   52    11    14    54	 9 ;       HGA1      CG311      CG324       HGA2
   14    11    12    13	 9 ;      CG324      CG311      OG311       HGP1
    1    11    12    13	 9 ;      CG311      CG311      OG311       HGP1
   52    11    12    13	 9 ;       HGA1      CG311      OG311       HGP1
   11    14    15    18	 9 ;      CG311      CG324      NG3P2      CG324
   11    14    15    16	 9 ;      CG311      CG324      NG3P2       HGP2
   11    14    15    17	 9 ;      CG311      CG324      NG3P2       HGP2
   53    14    15    18	 9 ;       HGA2      CG324      NG3P2      CG324
   53    14    15    16	 9 ;       HGA2      CG324      NG3P2       HGP2
   53    14    15    17	 9 ;       HGA2      CG324      NG3P2       HGP2
   54    14    15    18	 9 ;       HGA2      CG324      NG3P2      CG324
   54    14    15    16	 9 ;       HGA2      CG324      NG3P2       HGP2
   54    14    15    17	 9 ;       HGA2      CG324      NG3P2       HGP2
   16    15    18    19	 9 ;       HGP2      NG3P2      CG324     CG2R61
   16    15    18    55	 9 ;       HGP2      NG3P2      CG324       HGA2
   16    15    18    56	 9 ;       HGP2      NG3P2      CG324       HGA2
   17    15    18    19	 9 ;       HGP2      NG3P2      CG324     CG2R61
   17    15    18    55	 9 ;       HGP2      NG3P2      CG324       HGA2
   17    15    18    56	 9 ;       HGP2      NG3P2      CG324       HGA2
   14    15    18    19	 9 ;      CG324      NG3P2      CG324     CG2R61
   14    15    18    55	 9 ;      CG324      NG3P2      CG324       HGA2
   14    15    18    56	 9 ;      CG324      NG3P2      CG324       HGA2
   15    18    19    20	 9 ;      NG3P2      CG324     CG2R61     CG2R61
   15    18    19    24	 9 ;      NG3P2      CG324     CG2R61     CG2R61
   55    18    19    20	 9 ;       HGA2      CG324     CG2R61     CG2R61
   55    18    19    24	 9 ;       HGA2      CG324     CG2R61     CG2R61
   56    18    19    20	 9 ;       HGA2      CG324     CG2R61     CG2R61
   56    18    19    24	 9 ;       HGA2      CG324     CG2R61     CG2R61
   18    19    20    21	 9 ;      CG324     CG2R61     CG2R61     CG2R61
   18    19    20    57	 9 ;      CG324     CG2R61     CG2R61      HGR61
   24    19    20    21	 9 ;     CG2R61     CG2R61     CG2R61     CG2R61
   24    19    20    57	 9 ;     CG2R61     CG2R61     CG2R61      HGR61
   20    19    24    23	 9 ;     CG2R61     CG2R61     CG2R61     CG2R61
   20    19    24    60	 9 ;     CG2R61     CG2R61     CG2R61      HGR61
   18    19    24    23	 9 ;      CG324     CG2R61     CG2R61     CG2R61
   18    19    24    60	 9 ;      CG324     CG2R61     CG2R61      HGR61
   19    20    21    25	 9 ;     CG2R61     CG2R61     CG2R61      OG301
   19    20    21    22	 9 ;     CG2R61     CG2R61     CG2R61     CG2R61
   57    20    21    25	 9 ;      HGR61     CG2R61     CG2R61      OG301
   57    20    21    22	 9 ;      HGR61     CG2R61     CG2R61     CG2R61
   20    21    25    26	 9 ;     CG2R61     CG2R61      OG301      CG331
   22    21    25    26	 9 ;     CG2R61     CG2R61      OG301      CG331
   25    21    22    23	 9 ;      OG301     CG2R61     CG2R61     CG2R61
   25    21    22    58	 9 ;      OG301     CG2R61     CG2R61      HGR61
   20    21    22    23	 9 ;     CG2R61     CG2R61     CG2R61     CG2R61
   20    21    22    58	 9 ;     CG2R61     CG2R61     CG2R61      HGR61
   21    22    23    24	 9 ;     CG2R61     CG2R61     CG2R61     CG2R61
   21    22    23    59	 9 ;     CG2R61     CG2R61     CG2R61      HGR61
   58    22    23    24	 9 ;      HGR61     CG2R61     CG2R61     CG2R61
   58    22    23    59	 9 ;      HGR61     CG2R61     CG2R61      HGR61
   22    23    24    19	 9 ;     CG2R61     CG2R61     CG2R61     CG2R61
   22    23    24    60	 9 ;     CG2R61     CG2R61     CG2R61      HGR61
   59    23    24    19	 9 ;      HGR61     CG2R61     CG2R61     CG2R61
   59    23    24    60	 9 ;      HGR61     CG2R61     CG2R61      HGR61
   21    25    26    70	 9 ;     CG2R61      OG301      CG331       HGA3
   21    25    26    71	 9 ;     CG2R61      OG301      CG331       HGA3
   21    25    26    72	 9 ;     CG2R61      OG301      CG331       HGA3
   30    27    28    31	 9 ;       HGP1      NG2S1      CG2O1     CG2R61
   30    27    28    29	 9 ;       HGP1      NG2S1      CG2O1      OG2D1
    1    27    28    31	 9 ;      CG311      NG2S1      CG2O1     CG2R61
    1    27    28    29	 9 ;      CG311      NG2S1      CG2O1      OG2D1
   29    28    31    32	 9 ;      OG2D1      CG2O1     CG2R61     CG2R61
   29    28    31    36	 9 ;      OG2D1      CG2O1     CG2R61     CG2R61
   27    28    31    32	 9 ;      NG2S1      CG2O1     CG2R61     CG2R61
   27    28    31    36	 9 ;      NG2S1      CG2O1     CG2R61     CG2R61
   36    31    32    33	 9 ;     CG2R61     CG2R61     CG2R61     CG2R61
   36    31    32    61	 9 ;     CG2R61     CG2R61     CG2R61      HGR61
   28    31    32    33	 9 ;      CG2O1     CG2R61     CG2R61     CG2R61
   28    31    32    61	 9 ;      CG2O1     CG2R61     CG2R61      HGR61
   32    31    36    35	 9 ;     CG2R61     CG2R61     CG2R61     CG2R61
   32    31    36    63	 9 ;     CG2R61     CG2R61     CG2R61      HGR61
   28    31    36    35	 9 ;      CG2O1     CG2R61     CG2R61     CG2R61
   28    31    36    63	 9 ;      CG2O1     CG2R61     CG2R61      HGR61
   31    32    33    37	 9 ;     CG2R61     CG2R61     CG2R61      CG2O5
   31    32    33    34	 9 ;     CG2R61     CG2R61     CG2R61     CG2R61
   61    32    33    37	 9 ;      HGR61     CG2R61     CG2R61      CG2O5
   61    32    33    34	 9 ;      HGR61     CG2R61     CG2R61     CG2R61
   34    33    37    39	 9 ;     CG2R61     CG2R61      CG2O5      CG331
   34    33    37    38	 9 ;     CG2R61     CG2R61      CG2O5      OG2D3
   32    33    37    39	 9 ;     CG2R61     CG2R61      CG2O5      CG331
   32    33    37    38	 9 ;     CG2R61     CG2R61      CG2O5      OG2D3
   37    33    34    35	 9 ;      CG2O5     CG2R61     CG2R61     CG2R61
   37    33    34    62	 9 ;      CG2O5     CG2R61     CG2R61      HGR61
   32    33    34    35	 9 ;     CG2R61     CG2R61     CG2R61     CG2R61
   32    33    34    62	 9 ;     CG2R61     CG2R61     CG2R61      HGR61
   33    34    35    40	 9 ;     CG2R61     CG2R61     CG2R61      NG301
   33    34    35    36	 9 ;     CG2R61     CG2R61     CG2R61     CG2R61
   62    34    35    40	 9 ;      HGR61     CG2R61     CG2R61      NG301
   62    34    35    36	 9 ;      HGR61     CG2R61     CG2R61     CG2R61
   34    35    40    42	 9 ;     CG2R61     CG2R61      NG301      SG3O2
   34    35    40    41	 9 ;     CG2R61     CG2R61      NG301      CG331
   36    35    40    42	 9 ;     CG2R61     CG2R61      NG301      SG3O2
   36    35    40    41	 9 ;     CG2R61     CG2R61      NG301      CG331
   34    35    36    31	 9 ;     CG2R61     CG2R61     CG2R61     CG2R61
   34    35    36    63	 9 ;     CG2R61     CG2R61     CG2R61      HGR61
   40    35    36    31	 9 ;      NG301     CG2R61     CG2R61     CG2R61
   40    35    36    63	 9 ;      NG301     CG2R61     CG2R61      HGR61
   38    37    39    67	 9 ;      OG2D3      CG2O5      CG331       HGA3
   38    37    39    68	 9 ;      OG2D3      CG2O5      CG331       HGA3
   38    37    39    69	 9 ;      OG2D3      CG2O5      CG331       HGA3
   33    37    39    67	 9 ;     CG2R61      CG2O5      CG331       HGA3
   33    37    39    68	 9 ;     CG2R61      CG2O5      CG331       HGA3
   33    37    39    69	 9 ;     CG2R61      CG2O5      CG331       HGA3
   35    40    42    43	 9 ;     CG2R61      NG301      SG3O2      OG2P1
   35    40    42    44	 9 ;     CG2R61      NG301      SG3O2      OG2P1
   35    40    42    45	 9 ;     CG2R61      NG301      SG3O2      CG331
   41    40    42    43	 9 ;      CG331      NG301      SG3O2      OG2P1
   41    40    42    44	 9 ;      CG331      NG301      SG3O2      OG2P1
   41    40    42    45	 9 ;      CG331      NG301      SG3O2      CG331
   35    40    41    73	 9 ;     CG2R61      NG301      CG331       HGA3
   35    40    41    74	 9 ;     CG2R61      NG301      CG331       HGA3
   35    40    41    75	 9 ;     CG2R61      NG301      CG331       HGA3
   42    40    41    73	 9 ;      SG3O2      NG301      CG331       HGA3
   42    40    41    74	 9 ;      SG3O2      NG301      CG331       HGA3
   42    40    41    75	 9 ;      SG3O2      NG301      CG331       HGA3
   43    42    45    64	 9 ;      OG2P1      SG3O2      CG331       HGA3
   43    42    45    65	 9 ;      OG2P1      SG3O2      CG331       HGA3
   43    42    45    66	 9 ;      OG2P1      SG3O2      CG331       HGA3
   40    42    45    64	 9 ;      NG301      SG3O2      CG331       HGA3
   40    42    45    65	 9 ;      NG301      SG3O2      CG331       HGA3
   40    42    45    66	 9 ;      NG301      SG3O2      CG331       HGA3
   44    42    45    64	 9 ;      OG2P1      SG3O2      CG331       HGA3
   44    42    45    65	 9 ;      OG2P1      SG3O2      CG331       HGA3
   44    42    45    66	 9 ;      OG2P1      SG3O2      CG331       HGA3

[ dihedrals ]
;	ai	  aj	ak	  al funct			  c0			c1			  c2			c3
   28    31    27    29	 2
   37    33    39    38	 2

