; Created by cgenff_charmm2gmx.py

[ moleculetype ]
; Name			   nrexcl
LIG				 3

[ atoms ]
;	 nr		  type	resnr residue  atom   cgnr	   charge		mass  typeB    chargeB		massB
; residue	 1 LIG rtp LIG q	qsum
     1     CG3C50      1    LIG     C1      1      1.599     12.011   ;
     2      NG3P2      1    LIG     N1      2     -0.701     14.007   ;
     3       HGP2      1    LIG    HN3      3      0.353      1.008   ;
     4     CG3C53      1    LIG     C2      4      0.784     12.011   ;
     5     NG2R53      1    LIG     N2      5     -0.171     14.007   ;
     6      CG331      1    LIG     C3      6     -0.169     12.011   ;
     7     CG2R53      1    LIG     C4      7     -0.361     12.011   ;
     8      OG2D1      1    LIG     O1      8     -0.342     15.999   ;
     9     CG2R61      1    LIG     C5      9     -0.154     12.011   ;
    10     CG2R61      1    LIG     C6     10     -0.128     12.011   ;
    11     CG2R61      1    LIG     C7     11     -0.108     12.011   ;
    12     CG2R61      1    LIG     C8     12      0.217     12.011   ;
    13     CG2R61      1    LIG     C9     13     -0.108     12.011   ;
    14     CG2R61      1    LIG    C10     14     -0.128     12.011   ;
    15      OG301      1    LIG     O2     15     -0.303     15.999   ;
    16      CG302      1    LIG    C11     16      0.464     12.011   ;
    17       FGA3      1    LIG     F1     17     -0.126     18.998   ;
    18       FGA3      1    LIG     F2     18     -0.126     18.998   ;
    19       FGA3      1    LIG     F3     19     -0.126     18.998   ;
    20     CG2R61      1    LIG    C12     20     -0.151     12.011   ;
    21     CG2R61      1    LIG    C13     21     -0.132     12.011   ;
    22     CG2R61      1    LIG    C14     22     -0.139     12.011   ;
    23     CG2R61      1    LIG    C15     23     -0.117     12.011   ;
    24     CG2R61      1    LIG    C16     24     -0.102     12.011   ;
    25     CG2R61      1    LIG    C17     25     -0.131     12.011   ;
    26     CG2DC1      1    LIG    C18     26      0.175     12.011   ;
    27     CG2DC2      1    LIG    C19     27     -0.229     12.011   ;
    28     CG2DC2      1    LIG    C20     28     -0.368     12.011   ;
    29      CG311      1    LIG    C21     29      0.454     12.011   ;
    30      NG311      1    LIG     N3     30     -0.561     14.007   ;
    31     CG2D1O      1    LIG    C22     31     -0.091     12.011   ;
    32     HGPAM1      1    LIG    HN4     32      0.354      1.008   ;
    33      OG301      1    LIG     O3     33     -0.387     15.999   ;
    34      CG331      1    LIG    C23     34     -0.029     12.011   ;
    35      NG3P3      1    LIG     N4     35     -0.267     14.007   ;
    36       HGP2      1    LIG     H1     36      0.301      1.008   ;
    37       HGP2      1    LIG     H2     37      0.301      1.008   ;
    38       HGP2      1    LIG    HN2     38      0.353      1.008   ;
    39       HGA1      1    LIG     HC     39      0.073      1.008   ;
    40       HGA3      1    LIG    HC1     40      0.090      1.008   ;
    41       HGA3      1    LIG    HC2     41      0.090      1.008   ;
    42       HGA3      1    LIG    HC3     42      0.090      1.008   ;
    43      HGR61      1    LIG    HC4     43      0.116      1.008   ;
    44      HGR61      1    LIG    HC5     44      0.116      1.008   ;
    45      HGR61      1    LIG    HC6     45      0.116      1.008   ;
    46      HGR61      1    LIG    HC7     46      0.116      1.008   ;
    47      HGR61      1    LIG    HC8     47      0.116      1.008   ;
    48      HGR61      1    LIG    HC9     48      0.116      1.008   ;
    49      HGR61      1    LIG   HC10     49      0.116      1.008   ;
    50      HGR61      1    LIG   HC11     50      0.116      1.008   ;
    51       HGA4      1    LIG   HC12     51      0.153      1.008   ;
    52       HGA4      1    LIG   HC13     52      0.153      1.008   ;
    53       HGA4      1    LIG   HC14     53      0.162      1.008   ;
    54       HGA3      1    LIG   HC15     54      0.090      1.008   ;
    55       HGA3      1    LIG   HC16     55      0.090      1.008   ;
    56       HGA3      1    LIG   HC17     56      0.090      1.008   ;
    57       HGP2      1    LIG    HN1     57      0.301      1.008   ;
    58       HGA1      1    LIG    H25     58      0.090      1.008   ;

[ bonds ]
;	ai	  aj funct			  c0			c1			  c2			c3
    1     7	 1 ;      CG3C50     CG2R53
    1     2	 1 ;      CG3C50      NG3P2
    1     9	 1 ;      CG3C50     CG2R61
    1    20	 1 ;      CG3C50     CG2R61
    2     4	 1 ;       NG3P2     CG3C53
    2     3	 1 ;       NG3P2       HGP2
    2    38	 1 ;       NG3P2       HGP2
    4     5	 1 ;      CG3C53     NG2R53
    4    35	 1 ;      CG3C53      NG3P3
    4    39	 1 ;      CG3C53       HGA1
    5     6	 1 ;      NG2R53      CG331
    5     7	 1 ;      NG2R53     CG2R53
    6    40	 1 ;       CG331       HGA3
    6    41	 1 ;       CG331       HGA3
    6    42	 1 ;       CG331       HGA3
    7     8	 1 ;      CG2R53      OG2D1
    9    10	 1 ;      CG2R61     CG2R61
    9    14	 1 ;      CG2R61     CG2R61
   10    11	 1 ;      CG2R61     CG2R61
   10    43	 1 ;      CG2R61      HGR61
   11    12	 1 ;      CG2R61     CG2R61
   11    44	 1 ;      CG2R61      HGR61
   12    13	 1 ;      CG2R61     CG2R61
   12    15	 1 ;      CG2R61      OG301
   13    14	 1 ;      CG2R61     CG2R61
   13    45	 1 ;      CG2R61      HGR61
   14    46	 1 ;      CG2R61      HGR61
   15    16	 1 ;       OG301      CG302
   16    17	 1 ;       CG302       FGA3
   16    19	 1 ;       CG302       FGA3
   16    18	 1 ;       CG302       FGA3
   20    25	 1 ;      CG2R61     CG2R61
   20    21	 1 ;      CG2R61     CG2R61
   21    22	 1 ;      CG2R61     CG2R61
   21    47	 1 ;      CG2R61      HGR61
   22    23	 1 ;      CG2R61     CG2R61
   22    26	 1 ;      CG2R61     CG2DC1
   23    24	 1 ;      CG2R61     CG2R61
   23    48	 1 ;      CG2R61      HGR61
   24    25	 1 ;      CG2R61     CG2R61
   24    49	 1 ;      CG2R61      HGR61
   25    50	 1 ;      CG2R61      HGR61
   26    27	 1 ;      CG2DC1     CG2DC2
   26    31	 1 ;      CG2DC1     CG2D1O
   27    28	 1 ;      CG2DC2     CG2DC2
   27    51	 1 ;      CG2DC2       HGA4
   28    29	 1 ;      CG2DC2      CG311
   28    52	 1 ;      CG2DC2       HGA4
   29    30	 1 ;       CG311      NG311
   29    33	 1 ;       CG311      OG301
   29    58	 1 ;       CG311       HGA1
   30    31	 1 ;       NG311     CG2D1O
   30    32	 1 ;       NG311     HGPAM1
   31    53	 1 ;      CG2D1O       HGA4
   33    34	 1 ;       OG301      CG331
   34    54	 1 ;       CG331       HGA3
   34    55	 1 ;       CG331       HGA3
   34    56	 1 ;       CG331       HGA3
   35    36	 1 ;       NG3P3       HGP2
   35    37	 1 ;       NG3P3       HGP2
   35    57	 1 ;       NG3P3       HGP2

[ pairs ]
;	ai	  aj funct			  c0			c1			  c2			c3
    1    35	 1
    1    39	 1
    1     6	 1
    1    11	 1
    1    43	 1
    1    13	 1
    1    46	 1
    1    24	 1
    1    50	 1
    1    22	 1
    1    47	 1
    2     8	 1
    2    10	 1
    2    14	 1
    2    25	 1
    2    21	 1
    2     6	 1
    2    36	 1
    2    37	 1
    2    57	 1
    3     7	 1
    3     9	 1
    3    20	 1
    3     5	 1
    3    35	 1
    3    39	 1
    4     9	 1
    4    20	 1
    4    40	 1
    4    41	 1
    4    42	 1
    4     8	 1
    5     9	 1
    5    20	 1
    5    38	 1
    5    36	 1
    5    37	 1
    5    57	 1
    6    35	 1
    6    39	 1
    6     8	 1
    7    38	 1
    7    10	 1
    7    14	 1
    7    25	 1
    7    21	 1
    7    35	 1
    7    39	 1
    7    40	 1
    7    41	 1
    7    42	 1
    8     9	 1
    8    20	 1
    9    38	 1
    9    25	 1
    9    21	 1
    9    12	 1
    9    44	 1
    9    45	 1
   10    20	 1
   10    13	 1
   10    46	 1
   10    15	 1
   11    14	 1
   11    45	 1
   11    16	 1
   12    43	 1
   12    46	 1
   12    17	 1
   12    19	 1
   12    18	 1
   13    44	 1
   13    16	 1
   14    20	 1
   14    43	 1
   14    15	 1
   15    44	 1
   15    45	 1
   20    38	 1
   20    23	 1
   20    26	 1
   20    49	 1
   21    24	 1
   21    50	 1
   21    48	 1
   21    27	 1
   21    31	 1
   22    25	 1
   22    49	 1
   22    28	 1
   22    51	 1
   22    30	 1
   22    53	 1
   23    47	 1
   23    27	 1
   23    31	 1
   23    50	 1
   24    26	 1
   25    47	 1
   25    48	 1
   26    47	 1
   26    48	 1
   26    29	 1
   26    52	 1
   26    32	 1
   27    30	 1
   27    53	 1
   27    33	 1
   27    58	 1
   28    31	 1
   28    32	 1
   28    34	 1
   29    51	 1
   29    53	 1
   29    54	 1
   29    55	 1
   29    56	 1
   30    52	 1
   30    34	 1
   31    51	 1
   31    33	 1
   31    58	 1
   32    33	 1
   32    58	 1
   32    53	 1
   33    52	 1
   34    58	 1
   35    38	 1
   36    39	 1
   37    39	 1
   38    39	 1
   39    57	 1
   43    44	 1
   45    46	 1
   48    49	 1
   49    50	 1
   51    52	 1
   52    58	 1

[ angles ]
;	ai	  aj	ak funct			c0			  c1			c2			  c3
    7     1     2	5 ;     CG2R53     CG3C50      NG3P2
    7     1     9	5 ;     CG2R53     CG3C50     CG2R61
    7     1    20	5 ;     CG2R53     CG3C50     CG2R61
    2     1     9	5 ;      NG3P2     CG3C50     CG2R61
    2     1    20	5 ;      NG3P2     CG3C50     CG2R61
    9     1    20	5 ;     CG2R61     CG3C50     CG2R61
    4     2     1	5 ;     CG3C53      NG3P2     CG3C50
    4     2     3	5 ;     CG3C53      NG3P2       HGP2
    4     2    38	5 ;     CG3C53      NG3P2       HGP2
    1     2     3	5 ;     CG3C50      NG3P2       HGP2
    1     2    38	5 ;     CG3C50      NG3P2       HGP2
    3     2    38	5 ;       HGP2      NG3P2       HGP2
    5     4    35	5 ;     NG2R53     CG3C53      NG3P3
    5     4     2	5 ;     NG2R53     CG3C53      NG3P2
    5     4    39	5 ;     NG2R53     CG3C53       HGA1
   35     4     2	5 ;      NG3P3     CG3C53      NG3P2
   35     4    39	5 ;      NG3P3     CG3C53       HGA1
    2     4    39	5 ;      NG3P2     CG3C53       HGA1
    6     5     7	5 ;      CG331     NG2R53     CG2R53
    6     5     4	5 ;      CG331     NG2R53     CG3C53
    7     5     4	5 ;     CG2R53     NG2R53     CG3C53
    5     6    40	5 ;     NG2R53      CG331       HGA3
    5     6    41	5 ;     NG2R53      CG331       HGA3
    5     6    42	5 ;     NG2R53      CG331       HGA3
   40     6    41	5 ;       HGA3      CG331       HGA3
   40     6    42	5 ;       HGA3      CG331       HGA3
   41     6    42	5 ;       HGA3      CG331       HGA3
    8     7     5	5 ;      OG2D1     CG2R53     NG2R53
    8     7     1	5 ;      OG2D1     CG2R53     CG3C50
    5     7     1	5 ;     NG2R53     CG2R53     CG3C50
    1     9    10	5 ;     CG3C50     CG2R61     CG2R61
    1     9    14	5 ;     CG3C50     CG2R61     CG2R61
   10     9    14	5 ;     CG2R61     CG2R61     CG2R61
    9    10    11	5 ;     CG2R61     CG2R61     CG2R61
    9    10    43	5 ;     CG2R61     CG2R61      HGR61
   11    10    43	5 ;     CG2R61     CG2R61      HGR61
   10    11    12	5 ;     CG2R61     CG2R61     CG2R61
   10    11    44	5 ;     CG2R61     CG2R61      HGR61
   12    11    44	5 ;     CG2R61     CG2R61      HGR61
   11    12    13	5 ;     CG2R61     CG2R61     CG2R61
   11    12    15	5 ;     CG2R61     CG2R61      OG301
   13    12    15	5 ;     CG2R61     CG2R61      OG301
   14    13    12	5 ;     CG2R61     CG2R61     CG2R61
   14    13    45	5 ;     CG2R61     CG2R61      HGR61
   12    13    45	5 ;     CG2R61     CG2R61      HGR61
    9    14    13	5 ;     CG2R61     CG2R61     CG2R61
    9    14    46	5 ;     CG2R61     CG2R61      HGR61
   13    14    46	5 ;     CG2R61     CG2R61      HGR61
   16    15    12	5 ;      CG302      OG301     CG2R61
   17    16    19	5 ;       FGA3      CG302       FGA3
   17    16    18	5 ;       FGA3      CG302       FGA3
   17    16    15	5 ;       FGA3      CG302      OG301
   19    16    18	5 ;       FGA3      CG302       FGA3
   19    16    15	5 ;       FGA3      CG302      OG301
   18    16    15	5 ;       FGA3      CG302      OG301
    1    20    25	5 ;     CG3C50     CG2R61     CG2R61
    1    20    21	5 ;     CG3C50     CG2R61     CG2R61
   25    20    21	5 ;     CG2R61     CG2R61     CG2R61
   20    21    22	5 ;     CG2R61     CG2R61     CG2R61
   20    21    47	5 ;     CG2R61     CG2R61      HGR61
   22    21    47	5 ;     CG2R61     CG2R61      HGR61
   21    22    23	5 ;     CG2R61     CG2R61     CG2R61
   21    22    26	5 ;     CG2R61     CG2R61     CG2DC1
   23    22    26	5 ;     CG2R61     CG2R61     CG2DC1
   24    23    22	5 ;     CG2R61     CG2R61     CG2R61
   24    23    48	5 ;     CG2R61     CG2R61      HGR61
   22    23    48	5 ;     CG2R61     CG2R61      HGR61
   25    24    23	5 ;     CG2R61     CG2R61     CG2R61
   25    24    49	5 ;     CG2R61     CG2R61      HGR61
   23    24    49	5 ;     CG2R61     CG2R61      HGR61
   20    25    24	5 ;     CG2R61     CG2R61     CG2R61
   20    25    50	5 ;     CG2R61     CG2R61      HGR61
   24    25    50	5 ;     CG2R61     CG2R61      HGR61
   22    26    27	5 ;     CG2R61     CG2DC1     CG2DC2
   22    26    31	5 ;     CG2R61     CG2DC1     CG2D1O
   27    26    31	5 ;     CG2DC2     CG2DC1     CG2D1O
   26    27    28	5 ;     CG2DC1     CG2DC2     CG2DC2
   26    27    51	5 ;     CG2DC1     CG2DC2       HGA4
   28    27    51	5 ;     CG2DC2     CG2DC2       HGA4
   27    28    29	5 ;     CG2DC2     CG2DC2      CG311
   27    28    52	5 ;     CG2DC2     CG2DC2       HGA4
   29    28    52	5 ;      CG311     CG2DC2       HGA4
   28    29    30	5 ;     CG2DC2      CG311      NG311
   28    29    33	5 ;     CG2DC2      CG311      OG301
   28    29    58	5 ;     CG2DC2      CG311       HGA1
   30    29    33	5 ;      NG311      CG311      OG301
   30    29    58	5 ;      NG311      CG311       HGA1
   33    29    58	5 ;      OG301      CG311       HGA1
   31    30    29	5 ;     CG2D1O      NG311      CG311
   31    30    32	5 ;     CG2D1O      NG311     HGPAM1
   29    30    32	5 ;      CG311      NG311     HGPAM1
   26    31    30	5 ;     CG2DC1     CG2D1O      NG311
   26    31    53	5 ;     CG2DC1     CG2D1O       HGA4
   30    31    53	5 ;      NG311     CG2D1O       HGA4
   29    33    34	5 ;      CG311      OG301      CG331
   33    34    54	5 ;      OG301      CG331       HGA3
   33    34    55	5 ;      OG301      CG331       HGA3
   33    34    56	5 ;      OG301      CG331       HGA3
   54    34    55	5 ;       HGA3      CG331       HGA3
   54    34    56	5 ;       HGA3      CG331       HGA3
   55    34    56	5 ;       HGA3      CG331       HGA3
   36    35     4	5 ;       HGP2      NG3P3     CG3C53
   36    35    37	5 ;       HGP2      NG3P3       HGP2
   36    35    57	5 ;       HGP2      NG3P3       HGP2
    4    35    37	5 ;     CG3C53      NG3P3       HGP2
    4    35    57	5 ;     CG3C53      NG3P3       HGP2
   37    35    57	5 ;       HGP2      NG3P3       HGP2

[ dihedrals ]
;	ai	  aj	ak	  al funct			  c0			c1			  c2			c3			  c4			c5
    2     1     7     8	 9 ;      NG3P2     CG3C50     CG2R53      OG2D1
    2     1     7     5	 9 ;      NG3P2     CG3C50     CG2R53     NG2R53
    9     1     7     8	 9 ;     CG2R61     CG3C50     CG2R53      OG2D1
    9     1     7     5	 9 ;     CG2R61     CG3C50     CG2R53     NG2R53
   20     1     7     8	 9 ;     CG2R61     CG3C50     CG2R53      OG2D1
   20     1     7     5	 9 ;     CG2R61     CG3C50     CG2R53     NG2R53
    7     1     2     4	 9 ;     CG2R53     CG3C50      NG3P2     CG3C53
    7     1     2     3	 9 ;     CG2R53     CG3C50      NG3P2       HGP2
    7     1     2    38	 9 ;     CG2R53     CG3C50      NG3P2       HGP2
    9     1     2     4	 9 ;     CG2R61     CG3C50      NG3P2     CG3C53
    9     1     2     3	 9 ;     CG2R61     CG3C50      NG3P2       HGP2
    9     1     2    38	 9 ;     CG2R61     CG3C50      NG3P2       HGP2
   20     1     2     4	 9 ;     CG2R61     CG3C50      NG3P2     CG3C53
   20     1     2     3	 9 ;     CG2R61     CG3C50      NG3P2       HGP2
   20     1     2    38	 9 ;     CG2R61     CG3C50      NG3P2       HGP2
    7     1     9    10	 9 ;     CG2R53     CG3C50     CG2R61     CG2R61
    7     1     9    14	 9 ;     CG2R53     CG3C50     CG2R61     CG2R61
    2     1     9    10	 9 ;      NG3P2     CG3C50     CG2R61     CG2R61
    2     1     9    14	 9 ;      NG3P2     CG3C50     CG2R61     CG2R61
   20     1     9    10	 9 ;     CG2R61     CG3C50     CG2R61     CG2R61
   20     1     9    14	 9 ;     CG2R61     CG3C50     CG2R61     CG2R61
    7     1    20    25	 9 ;     CG2R53     CG3C50     CG2R61     CG2R61
    7     1    20    21	 9 ;     CG2R53     CG3C50     CG2R61     CG2R61
    2     1    20    25	 9 ;      NG3P2     CG3C50     CG2R61     CG2R61
    2     1    20    21	 9 ;      NG3P2     CG3C50     CG2R61     CG2R61
    9     1    20    25	 9 ;     CG2R61     CG3C50     CG2R61     CG2R61
    9     1    20    21	 9 ;     CG2R61     CG3C50     CG2R61     CG2R61
    1     2     4     5	 9 ;     CG3C50      NG3P2     CG3C53     NG2R53
    1     2     4    35	 9 ;     CG3C50      NG3P2     CG3C53      NG3P3
    1     2     4    39	 9 ;     CG3C50      NG3P2     CG3C53       HGA1
    3     2     4     5	 9 ;       HGP2      NG3P2     CG3C53     NG2R53
    3     2     4    35	 9 ;       HGP2      NG3P2     CG3C53      NG3P3
    3     2     4    39	 9 ;       HGP2      NG3P2     CG3C53       HGA1
   38     2     4     5	 9 ;       HGP2      NG3P2     CG3C53     NG2R53
   38     2     4    35	 9 ;       HGP2      NG3P2     CG3C53      NG3P3
   38     2     4    39	 9 ;       HGP2      NG3P2     CG3C53       HGA1
   35     4     5     6	 9 ;      NG3P3     CG3C53     NG2R53      CG331
   35     4     5     7	 9 ;      NG3P3     CG3C53     NG2R53     CG2R53
    2     4     5     6	 9 ;      NG3P2     CG3C53     NG2R53      CG331
    2     4     5     7	 9 ;      NG3P2     CG3C53     NG2R53     CG2R53
   39     4     5     6	 9 ;       HGA1     CG3C53     NG2R53      CG331
   39     4     5     7	 9 ;       HGA1     CG3C53     NG2R53     CG2R53
    5     4    35    36	 9 ;     NG2R53     CG3C53      NG3P3       HGP2
    5     4    35    37	 9 ;     NG2R53     CG3C53      NG3P3       HGP2
    5     4    35    57	 9 ;     NG2R53     CG3C53      NG3P3       HGP2
    2     4    35    36	 9 ;      NG3P2     CG3C53      NG3P3       HGP2
    2     4    35    37	 9 ;      NG3P2     CG3C53      NG3P3       HGP2
    2     4    35    57	 9 ;      NG3P2     CG3C53      NG3P3       HGP2
   39     4    35    36	 9 ;       HGA1     CG3C53      NG3P3       HGP2
   39     4    35    37	 9 ;       HGA1     CG3C53      NG3P3       HGP2
   39     4    35    57	 9 ;       HGA1     CG3C53      NG3P3       HGP2
    7     5     6    40	 9 ;     CG2R53     NG2R53      CG331       HGA3
    7     5     6    41	 9 ;     CG2R53     NG2R53      CG331       HGA3
    7     5     6    42	 9 ;     CG2R53     NG2R53      CG331       HGA3
    4     5     6    40	 9 ;     CG3C53     NG2R53      CG331       HGA3
    4     5     6    41	 9 ;     CG3C53     NG2R53      CG331       HGA3
    4     5     6    42	 9 ;     CG3C53     NG2R53      CG331       HGA3
    6     5     7     8	 9 ;      CG331     NG2R53     CG2R53      OG2D1
    6     5     7     1	 9 ;      CG331     NG2R53     CG2R53     CG3C50
    4     5     7     8	 9 ;     CG3C53     NG2R53     CG2R53      OG2D1
    4     5     7     1	 9 ;     CG3C53     NG2R53     CG2R53     CG3C50
    1     9    10    11	 9 ;     CG3C50     CG2R61     CG2R61     CG2R61
    1     9    10    43	 9 ;     CG3C50     CG2R61     CG2R61      HGR61
   14     9    10    11	 9 ;     CG2R61     CG2R61     CG2R61     CG2R61
   14     9    10    43	 9 ;     CG2R61     CG2R61     CG2R61      HGR61
    1     9    14    13	 9 ;     CG3C50     CG2R61     CG2R61     CG2R61
    1     9    14    46	 9 ;     CG3C50     CG2R61     CG2R61      HGR61
   10     9    14    13	 9 ;     CG2R61     CG2R61     CG2R61     CG2R61
   10     9    14    46	 9 ;     CG2R61     CG2R61     CG2R61      HGR61
    9    10    11    12	 9 ;     CG2R61     CG2R61     CG2R61     CG2R61
    9    10    11    44	 9 ;     CG2R61     CG2R61     CG2R61      HGR61
   43    10    11    12	 9 ;      HGR61     CG2R61     CG2R61     CG2R61
   43    10    11    44	 9 ;      HGR61     CG2R61     CG2R61      HGR61
   10    11    12    13	 9 ;     CG2R61     CG2R61     CG2R61     CG2R61
   10    11    12    15	 9 ;     CG2R61     CG2R61     CG2R61      OG301
   44    11    12    13	 9 ;      HGR61     CG2R61     CG2R61     CG2R61
   44    11    12    15	 9 ;      HGR61     CG2R61     CG2R61      OG301
   11    12    13    14	 9 ;     CG2R61     CG2R61     CG2R61     CG2R61
   11    12    13    45	 9 ;     CG2R61     CG2R61     CG2R61      HGR61
   15    12    13    14	 9 ;      OG301     CG2R61     CG2R61     CG2R61
   15    12    13    45	 9 ;      OG301     CG2R61     CG2R61      HGR61
   11    12    15    16	 9 ;     CG2R61     CG2R61      OG301      CG302
   13    12    15    16	 9 ;     CG2R61     CG2R61      OG301      CG302
   12    13    14     9	 9 ;     CG2R61     CG2R61     CG2R61     CG2R61
   12    13    14    46	 9 ;     CG2R61     CG2R61     CG2R61      HGR61
   45    13    14     9	 9 ;      HGR61     CG2R61     CG2R61     CG2R61
   45    13    14    46	 9 ;      HGR61     CG2R61     CG2R61      HGR61
   12    15    16    17	 9 ;     CG2R61      OG301      CG302       FGA3
   12    15    16    19	 9 ;     CG2R61      OG301      CG302       FGA3
   12    15    16    18	 9 ;     CG2R61      OG301      CG302       FGA3
    1    20    25    24	 9 ;     CG3C50     CG2R61     CG2R61     CG2R61
    1    20    25    50	 9 ;     CG3C50     CG2R61     CG2R61      HGR61
   21    20    25    24	 9 ;     CG2R61     CG2R61     CG2R61     CG2R61
   21    20    25    50	 9 ;     CG2R61     CG2R61     CG2R61      HGR61
    1    20    21    22	 9 ;     CG3C50     CG2R61     CG2R61     CG2R61
    1    20    21    47	 9 ;     CG3C50     CG2R61     CG2R61      HGR61
   25    20    21    22	 9 ;     CG2R61     CG2R61     CG2R61     CG2R61
   25    20    21    47	 9 ;     CG2R61     CG2R61     CG2R61      HGR61
   20    21    22    23	 9 ;     CG2R61     CG2R61     CG2R61     CG2R61
   20    21    22    26	 9 ;     CG2R61     CG2R61     CG2R61     CG2DC1
   47    21    22    23	 9 ;      HGR61     CG2R61     CG2R61     CG2R61
   47    21    22    26	 9 ;      HGR61     CG2R61     CG2R61     CG2DC1
   21    22    23    24	 9 ;     CG2R61     CG2R61     CG2R61     CG2R61
   21    22    23    48	 9 ;     CG2R61     CG2R61     CG2R61      HGR61
   26    22    23    24	 9 ;     CG2DC1     CG2R61     CG2R61     CG2R61
   26    22    23    48	 9 ;     CG2DC1     CG2R61     CG2R61      HGR61
   21    22    26    27	 9 ;     CG2R61     CG2R61     CG2DC1     CG2DC2
   21    22    26    31	 9 ;     CG2R61     CG2R61     CG2DC1     CG2D1O
   23    22    26    27	 9 ;     CG2R61     CG2R61     CG2DC1     CG2DC2
   23    22    26    31	 9 ;     CG2R61     CG2R61     CG2DC1     CG2D1O
   22    23    24    25	 9 ;     CG2R61     CG2R61     CG2R61     CG2R61
   22    23    24    49	 9 ;     CG2R61     CG2R61     CG2R61      HGR61
   48    23    24    25	 9 ;      HGR61     CG2R61     CG2R61     CG2R61
   48    23    24    49	 9 ;      HGR61     CG2R61     CG2R61      HGR61
   23    24    25    20	 9 ;     CG2R61     CG2R61     CG2R61     CG2R61
   23    24    25    50	 9 ;     CG2R61     CG2R61     CG2R61      HGR61
   49    24    25    20	 9 ;      HGR61     CG2R61     CG2R61     CG2R61
   49    24    25    50	 9 ;      HGR61     CG2R61     CG2R61      HGR61
   22    26    27    28	 9 ;     CG2R61     CG2DC1     CG2DC2     CG2DC2
   22    26    27    51	 9 ;     CG2R61     CG2DC1     CG2DC2       HGA4
   31    26    27    28	 9 ;     CG2D1O     CG2DC1     CG2DC2     CG2DC2
   31    26    27    51	 9 ;     CG2D1O     CG2DC1     CG2DC2       HGA4
   22    26    31    30	 9 ;     CG2R61     CG2DC1     CG2D1O      NG311
   22    26    31    53	 9 ;     CG2R61     CG2DC1     CG2D1O       HGA4
   27    26    31    30	 9 ;     CG2DC2     CG2DC1     CG2D1O      NG311
   27    26    31    53	 9 ;     CG2DC2     CG2DC1     CG2D1O       HGA4
   26    27    28    29	 9 ;     CG2DC1     CG2DC2     CG2DC2      CG311
   26    27    28    52	 9 ;     CG2DC1     CG2DC2     CG2DC2       HGA4
   51    27    28    29	 9 ;       HGA4     CG2DC2     CG2DC2      CG311
   51    27    28    52	 9 ;       HGA4     CG2DC2     CG2DC2       HGA4
   27    28    29    30	 9 ;     CG2DC2     CG2DC2      CG311      NG311
   27    28    29    33	 9 ;     CG2DC2     CG2DC2      CG311      OG301
   27    28    29    58	 9 ;     CG2DC2     CG2DC2      CG311       HGA1
   52    28    29    30	 9 ;       HGA4     CG2DC2      CG311      NG311
   52    28    29    33	 9 ;       HGA4     CG2DC2      CG311      OG301
   52    28    29    58	 9 ;       HGA4     CG2DC2      CG311       HGA1
   28    29    30    31	 9 ;     CG2DC2      CG311      NG311     CG2D1O
   28    29    30    32	 9 ;     CG2DC2      CG311      NG311     HGPAM1
   33    29    30    31	 9 ;      OG301      CG311      NG311     CG2D1O
   33    29    30    32	 9 ;      OG301      CG311      NG311     HGPAM1
   58    29    30    31	 9 ;       HGA1      CG311      NG311     CG2D1O
   58    29    30    32	 9 ;       HGA1      CG311      NG311     HGPAM1
   28    29    33    34	 9 ;     CG2DC2      CG311      OG301      CG331
   30    29    33    34	 9 ;      NG311      CG311      OG301      CG331
   58    29    33    34	 9 ;       HGA1      CG311      OG301      CG331
   29    30    31    26	 9 ;      CG311      NG311     CG2D1O     CG2DC1
   29    30    31    53	 9 ;      CG311      NG311     CG2D1O       HGA4
   32    30    31    26	 9 ;     HGPAM1      NG311     CG2D1O     CG2DC1
   32    30    31    53	 9 ;     HGPAM1      NG311     CG2D1O       HGA4
   29    33    34    54	 9 ;      CG311      OG301      CG331       HGA3
   29    33    34    55	 9 ;      CG311      OG301      CG331       HGA3
   29    33    34    56	 9 ;      CG311      OG301      CG331       HGA3

[ dihedrals ]
;	ai	  aj	ak	  al funct			  c0			c1			  c2			c3
    7     1     5     8	 2
   31    26    30    53	 2

