Giant Rising Ordinary Mutants for A Clerical Setup
   58
    1LIG     C1    1  -1.261   0.484  -1.557
    1LIG     N1    2  -1.237   0.591  -1.453
    1LIG    HN3    3  -1.277   0.596  -1.359
    1LIG     C2    4  -1.156   0.677  -1.507
    1LIG     N2    5  -1.106   0.643  -1.627
    1LIG     C3    6  -1.029   0.726  -1.716
    1LIG     C4    7  -1.148   0.517  -1.658
    1LIG     O1    8  -1.109   0.450  -1.753
    1LIG     C5    9  -1.253   0.344  -1.493
    1LIG     C6   10  -1.247   0.229  -1.574
    1LIG     C7   11  -1.236   0.101  -1.518
    1LIG     C8   12  -1.226   0.085  -1.381
    1LIG     C9   13  -1.235   0.198  -1.299
    1LIG    C10   14  -1.247   0.326  -1.354
    1LIG     O2   15  -1.212  -0.033  -1.313
    1LIG    C11   16  -1.090  -0.105  -1.322
    1LIG     F1   17  -1.062  -0.152  -1.445
    1LIG     F2   18  -1.092  -0.208  -1.235
    1LIG     F3   19  -0.989  -0.022  -1.286
    1LIG    C12   20  -1.398   0.509  -1.624
    1LIG    C13   21  -1.510   0.433  -1.584
    1LIG    C14   22  -1.641   0.469  -1.619
    1LIG    C15   23  -1.658   0.577  -1.706
    1LIG    C16   24  -1.548   0.648  -1.755
    1LIG    C17   25  -1.419   0.614  -1.714
    1LIG    C18   26  -1.756   0.401  -1.556
    1LIG    C19   27  -1.841   0.313  -1.624
    1LIG    C20   28  -1.951   0.257  -1.559
    1LIG    C21   29  -1.975   0.290  -1.427
    1LIG     N3   30  -1.896   0.374  -1.357
    1LIG    C22   31  -1.791   0.427  -1.422
    1LIG    HN4   32  -1.916   0.396  -1.259
    1LIG     O3   33  -2.086   0.234  -1.367
    1LIG    C23   34  -2.127   0.114  -1.431
    1LIG     N4   35  -1.122   0.791  -1.445
    1LIG     H1   36  -1.160   0.873  -1.491
    1LIG     H2   37  -1.131   0.794  -1.344
    1LIG    HN2   38  -1.159   0.540  -1.416
    1LIG     HC   39  -1.240   0.727  -1.555
    1LIG    HC1   40  -1.003   0.670  -1.806
    1LIG    HC2   41  -0.937   0.758  -1.666
    1LIG    HC3   42  -1.087   0.814  -1.744
    1LIG    HC4   43  -1.251   0.240  -1.681
    1LIG    HC5   44  -1.235   0.014  -1.583
    1LIG    HC6   45  -1.232   0.186  -1.192
    1LIG    HC7   46  -1.250   0.412  -1.289
    1LIG    HC8   47  -1.494   0.345  -1.525
    1LIG    HC9   48  -1.758   0.607  -1.735
    1LIG   HC10   49  -1.563   0.729  -1.826
    1LIG   HC11   50  -1.335   0.669  -1.753
    1LIG   HC12   51  -1.820   0.287  -1.727
    1LIG   HC13   52  -2.017   0.189  -1.612
    1LIG   HC14   53  -1.728   0.496  -1.367
    1LIG   HC15   54  -2.201   0.063  -1.369
    1LIG   HC16   55  -2.041   0.049  -1.447
    1LIG   HC17   56  -2.172   0.138  -1.528
    1LIG    HN1   57  -1.022   0.799  -1.460
    1LIG    H25   58  -1.914   0.206  -1.395
   0.00000   0.00000   0.00000
