Good gRace! Old Maple Actually Chews Slate
   53
    1LIG     O1    1  -1.340   0.794  -1.619
    1LIG     C1    2  -1.426   0.706  -1.610
    1LIG     C2    3  -1.383   0.566  -1.577
    1LIG     C3    4  -1.478   0.466  -1.563
    1LIG     C4    5  -1.436   0.346  -1.499
    1LIG     C5    6  -1.301   0.312  -1.477
    1LIG     C6    7  -1.208   0.413  -1.503
    1LIG     C7    8  -1.248   0.539  -1.550
    1LIG     C8    9  -1.623   0.485  -1.607
    1LIG     N1   10  -1.656   0.488  -1.753
    1LIG    HN3   11  -1.629   0.560  -1.820
    1LIG     C9   12  -1.723   0.381  -1.777
    1LIG     N2   13  -1.709   0.283  -1.686
    1LIG    C10   14  -1.587   0.209  -1.727
    1LIG    C11   15  -1.704   0.359  -1.571
    1LIG     O2   16  -1.760   0.335  -1.464
    1LIG    C12   17  -1.663   0.626  -1.561
    1LIG    C13   18  -1.574   0.735  -1.635
    1LIG    C14   19  -1.589   0.740  -1.789
    1LIG    C15   20  -1.612   0.874  -1.583
    1LIG     N3   21  -1.797   0.358  -1.888
    1LIG     H1   22  -1.740   0.344  -1.971
    1LIG     H2   23  -1.863   0.282  -1.875
    1LIG    C16   24  -1.265   0.174  -1.436
    1LIG    C17   25  -1.255   0.135  -1.303
    1LIG     N4   26  -1.211   0.015  -1.260
    1LIG    C18   27  -1.174  -0.072  -1.356
    1LIG    HN4   28  -1.205  -0.009  -1.161
    1LIG     N5   29  -1.180  -0.048  -1.488
    1LIG    C19   30  -1.226   0.074  -1.524
    1LIG    HN5   31  -1.151  -0.118  -1.557
    1LIG     HC   32  -1.512   0.277  -1.465
    1LIG    HC1   33  -1.103   0.393  -1.487
    1LIG    HC2   34  -1.174   0.617  -1.566
    1LIG    HN2   35  -1.570   0.438  -1.773
    1LIG    HC3   36  -1.810   0.421  -1.724
    1LIG    HC4   37  -1.610   0.147  -1.813
    1LIG    HC5   38  -1.553   0.147  -1.645
    1LIG    HC6   39  -1.509   0.280  -1.754
    1LIG    HC7   40  -1.768   0.644  -1.585
    1LIG    HC8   41  -1.649   0.635  -1.453
    1LIG    HC9   42  -1.572   0.842  -1.824
    1LIG   HC10   43  -1.516   0.673  -1.835
    1LIG   HC11   44  -1.690   0.709  -1.817
    1LIG   HC12   45  -1.604   0.877  -1.475
    1LIG   HC13   46  -1.546   0.948  -1.627
    1LIG   HC14   47  -1.715   0.896  -1.612
    1LIG    HN1   48  -1.852   0.441  -1.903
    1LIG   HC15   49  -1.285   0.207  -1.228
    1LIG   HC16   50  -1.137  -0.168  -1.324
    1LIG   HC17   51  -1.233   0.095  -1.630
    1LIG    H26   52  -1.357   0.097  -1.307
    1LIG    H27   53  -1.276  -0.112  -1.359
   0.00000   0.00000   0.00000
