; Created by cgenff_charmm2gmx.py

[ moleculetype ]
; Name			   nrexcl
LIG				 3

[ atoms ]
;	 nr		  type	resnr residue  atom   cgnr	   charge		mass  typeB    chargeB		massB
; residue	 1 LIG rtp LIG q	qsum
     1      OG2D3      1    LIG     O1      1     -0.382     15.999   ;
     2      CG2O5      1    LIG     C1      2      0.417     12.011   ;
     3     CG2R61      1    LIG     C2      3     -0.113     12.011   ;
     4     CG2R61      1    LIG     C3      4     -0.154     12.011   ;
     5     CG2R61      1    LIG     C4      5     -0.130     12.011   ;
     6     CG2R61      1    LIG     C5      6      0.025     12.011   ;
     7     CG2R61      1    LIG     C6      7     -0.115     12.011   ;
     8     CG2R61      1    LIG     C7      8     -0.107     12.011   ;
     9     CG3C50      1    LIG     C8      9      1.520     12.011   ;
    10      NG3P2      1    LIG     N1     10     -0.588     14.007   ;
    11       HGP2      1    LIG    HN3     11      0.336      1.008   ;
    12     CG3C53      1    LIG     C9     12      0.785     12.011   ;
    13     NG2R53      1    LIG     N2     13     -0.178     14.007   ;
    14      CG331      1    LIG    C10     14     -0.169     12.011   ;
    15     CG2R53      1    LIG    C11     15     -0.420     12.011   ;
    16      OG2D1      1    LIG     O2     16     -0.325     15.999   ;
    17      CG321      1    LIG    C12     17     -0.186     12.011   ;
    18      CG301      1    LIG    C13     18     -0.029     12.011   ;
    19      CG331      1    LIG    C14     19     -0.279     12.011   ;
    20      CG331      1    LIG    C15     20     -0.279     12.011   ;
    21      NG3P3      1    LIG     N3     21     -0.267     14.007   ;
    22       HGP2      1    LIG     H1     22      0.301      1.008   ;
    23       HGP2      1    LIG     H2     23      0.301      1.008   ;
    24     CG2DC1      1    LIG    C16     24     -0.086     12.011   ;
    25      CG321      1    LIG    C17     25      0.013     12.011   ;
    26      NG311      1    LIG     N4     26     -0.656     14.007   ;
    27      CG321      1    LIG    C18     27      0.131     12.011   ;
    28     HGPAM1      1    LIG    HN4     28      0.367      1.008   ;
    29      NG311      1    LIG     N5     29     -0.598     14.007   ;
    30     CG2D1O      1    LIG    C19     30     -0.097     12.011   ;
    31     HGPAM1      1    LIG    HN5     31      0.406      1.008   ;
    32      HGR61      1    LIG     HC     32      0.116      1.008   ;
    33      HGR61      1    LIG    HC1     33      0.116      1.008   ;
    34      HGR61      1    LIG    HC2     34      0.116      1.008   ;
    35       HGP2      1    LIG    HN2     35      0.336      1.008   ;
    36       HGA1      1    LIG    HC3     36      0.073      1.008   ;
    37       HGA3      1    LIG    HC4     37      0.090      1.008   ;
    38       HGA3      1    LIG    HC5     38      0.090      1.008   ;
    39       HGA3      1    LIG    HC6     39      0.090      1.008   ;
    40       HGA2      1    LIG    HC7     40      0.090      1.008   ;
    41       HGA2      1    LIG    HC8     41      0.090      1.008   ;
    42       HGA3      1    LIG    HC9     42      0.090      1.008   ;
    43       HGA3      1    LIG   HC10     43      0.090      1.008   ;
    44       HGA3      1    LIG   HC11     44      0.090      1.008   ;
    45       HGA3      1    LIG   HC12     45      0.090      1.008   ;
    46       HGA3      1    LIG   HC13     46      0.090      1.008   ;
    47       HGA3      1    LIG   HC14     47      0.090      1.008   ;
    48       HGP2      1    LIG    HN1     48      0.301      1.008   ;
    49       HGA2      1    LIG   HC15     49      0.090      1.008   ;
    50       HGA2      1    LIG   HC16     50      0.090      1.008   ;
    51       HGA4      1    LIG   HC17     51      0.148      1.008   ;
    52       HGA2      1    LIG    H26     52      0.090      1.008   ;
    53       HGA2      1    LIG    H27     53      0.090      1.008   ;

[ bonds ]
;	ai	  aj funct			  c0			c1			  c2			c3
    1     2	 1 ;       OG2D3      CG2O5
    2     3	 1 ;       CG2O5     CG2R61
    2    18	 1 ;       CG2O5      CG301
    3     8	 1 ;      CG2R61     CG2R61
    3     4	 1 ;      CG2R61     CG2R61
    4     5	 1 ;      CG2R61     CG2R61
    4     9	 1 ;      CG2R61     CG3C50
    5     6	 1 ;      CG2R61     CG2R61
    5    32	 1 ;      CG2R61      HGR61
    6     7	 1 ;      CG2R61     CG2R61
    6    24	 1 ;      CG2R61     CG2DC1
    7     8	 1 ;      CG2R61     CG2R61
    7    33	 1 ;      CG2R61      HGR61
    8    34	 1 ;      CG2R61      HGR61
    9    10	 1 ;      CG3C50      NG3P2
    9    17	 1 ;      CG3C50      CG321
    9    15	 1 ;      CG3C50     CG2R53
   10    11	 1 ;       NG3P2       HGP2
   10    12	 1 ;       NG3P2     CG3C53
   10    35	 1 ;       NG3P2       HGP2
   12    21	 1 ;      CG3C53      NG3P3
   12    13	 1 ;      CG3C53     NG2R53
   12    36	 1 ;      CG3C53       HGA1
   13    14	 1 ;      NG2R53      CG331
   13    15	 1 ;      NG2R53     CG2R53
   14    37	 1 ;       CG331       HGA3
   14    38	 1 ;       CG331       HGA3
   14    39	 1 ;       CG331       HGA3
   15    16	 1 ;      CG2R53      OG2D1
   17    18	 1 ;       CG321      CG301
   17    40	 1 ;       CG321       HGA2
   17    41	 1 ;       CG321       HGA2
   18    19	 1 ;       CG301      CG331
   18    20	 1 ;       CG301      CG331
   19    42	 1 ;       CG331       HGA3
   19    43	 1 ;       CG331       HGA3
   19    44	 1 ;       CG331       HGA3
   20    45	 1 ;       CG331       HGA3
   20    46	 1 ;       CG331       HGA3
   20    47	 1 ;       CG331       HGA3
   21    22	 1 ;       NG3P3       HGP2
   21    23	 1 ;       NG3P3       HGP2
   21    48	 1 ;       NG3P3       HGP2
   24    30	 1 ;      CG2DC1     CG2D1O
   24    25	 1 ;      CG2DC1      CG321
   25    26	 1 ;       CG321      NG311
   25    49	 1 ;       CG321       HGA2
   25    52	 1 ;       CG321       HGA2
   26    27	 1 ;       NG311      CG321
   26    28	 1 ;       NG311     HGPAM1
   27    29	 1 ;       CG321      NG311
   27    50	 1 ;       CG321       HGA2
   27    53	 1 ;       CG321       HGA2
   29    31	 1 ;       NG311     HGPAM1
   29    30	 1 ;       NG311     CG2D1O
   30    51	 1 ;      CG2D1O       HGA4

[ pairs ]
;	ai	  aj funct			  c0			c1			  c2			c3
    1     8	 1
    1     4	 1
    1    19	 1
    1    20	 1
    1    17	 1
    2     7	 1
    2    34	 1
    2     5	 1
    2     9	 1
    2    40	 1
    2    41	 1
    2    42	 1
    2    43	 1
    2    44	 1
    2    45	 1
    2    46	 1
    2    47	 1
    3    19	 1
    3    20	 1
    3    17	 1
    3     6	 1
    3    32	 1
    3    10	 1
    3    15	 1
    3    33	 1
    4    18	 1
    4     7	 1
    4    34	 1
    4    24	 1
    4    11	 1
    4    12	 1
    4    35	 1
    4    40	 1
    4    41	 1
    4    13	 1
    4    16	 1
    5     8	 1
    5    10	 1
    5    17	 1
    5    15	 1
    5    33	 1
    5    30	 1
    5    25	 1
    6     9	 1
    6    34	 1
    6    29	 1
    6    51	 1
    6    26	 1
    6    49	 1
    6    52	 1
    7    32	 1
    7    30	 1
    7    25	 1
    8    18	 1
    8     9	 1
    8    24	 1
    9    32	 1
    9    21	 1
    9    36	 1
    9    14	 1
    9    19	 1
    9    20	 1
   10    18	 1
   10    40	 1
   10    41	 1
   10    16	 1
   10    22	 1
   10    23	 1
   10    48	 1
   10    14	 1
   11    17	 1
   11    15	 1
   11    21	 1
   11    13	 1
   11    36	 1
   12    17	 1
   12    37	 1
   12    38	 1
   12    39	 1
   12    16	 1
   13    17	 1
   13    35	 1
   13    22	 1
   13    23	 1
   13    48	 1
   14    21	 1
   14    36	 1
   14    16	 1
   15    35	 1
   15    18	 1
   15    40	 1
   15    41	 1
   15    21	 1
   15    36	 1
   15    37	 1
   15    38	 1
   15    39	 1
   16    17	 1
   17    35	 1
   17    42	 1
   17    43	 1
   17    44	 1
   17    45	 1
   17    46	 1
   17    47	 1
   19    40	 1
   19    41	 1
   19    45	 1
   19    46	 1
   19    47	 1
   20    40	 1
   20    41	 1
   20    42	 1
   20    43	 1
   20    44	 1
   21    35	 1
   22    36	 1
   23    36	 1
   24    32	 1
   24    33	 1
   24    27	 1
   24    28	 1
   24    31	 1
   25    29	 1
   25    51	 1
   25    50	 1
   25    53	 1
   26    30	 1
   26    31	 1
   27    49	 1
   27    52	 1
   27    51	 1
   28    49	 1
   28    52	 1
   28    29	 1
   28    50	 1
   28    53	 1
   30    49	 1
   30    52	 1
   30    50	 1
   30    53	 1
   31    50	 1
   31    53	 1
   31    51	 1
   33    34	 1
   35    36	 1
   36    48	 1

[ angles ]
;	ai	  aj	ak funct			c0			  c1			c2			  c3
    1     2     3	5 ;      OG2D3      CG2O5     CG2R61
    1     2    18	5 ;      OG2D3      CG2O5      CG301
    3     2    18	5 ;     CG2R61      CG2O5      CG301
    8     3     2	5 ;     CG2R61     CG2R61      CG2O5
    8     3     4	5 ;     CG2R61     CG2R61     CG2R61
    2     3     4	5 ;      CG2O5     CG2R61     CG2R61
    3     4     5	5 ;     CG2R61     CG2R61     CG2R61
    3     4     9	5 ;     CG2R61     CG2R61     CG3C50
    5     4     9	5 ;     CG2R61     CG2R61     CG3C50
    6     5     4	5 ;     CG2R61     CG2R61     CG2R61
    6     5    32	5 ;     CG2R61     CG2R61      HGR61
    4     5    32	5 ;     CG2R61     CG2R61      HGR61
    7     6    24	5 ;     CG2R61     CG2R61     CG2DC1
    7     6     5	5 ;     CG2R61     CG2R61     CG2R61
   24     6     5	5 ;     CG2DC1     CG2R61     CG2R61
    8     7     6	5 ;     CG2R61     CG2R61     CG2R61
    8     7    33	5 ;     CG2R61     CG2R61      HGR61
    6     7    33	5 ;     CG2R61     CG2R61      HGR61
    7     8     3	5 ;     CG2R61     CG2R61     CG2R61
    7     8    34	5 ;     CG2R61     CG2R61      HGR61
    3     8    34	5 ;     CG2R61     CG2R61      HGR61
    4     9    10	5 ;     CG2R61     CG3C50      NG3P2
    4     9    17	5 ;     CG2R61     CG3C50      CG321
    4     9    15	5 ;     CG2R61     CG3C50     CG2R53
   10     9    17	5 ;      NG3P2     CG3C50      CG321
   10     9    15	5 ;      NG3P2     CG3C50     CG2R53
   17     9    15	5 ;      CG321     CG3C50     CG2R53
   11    10     9	5 ;       HGP2      NG3P2     CG3C50
   11    10    12	5 ;       HGP2      NG3P2     CG3C53
   11    10    35	5 ;       HGP2      NG3P2       HGP2
    9    10    12	5 ;     CG3C50      NG3P2     CG3C53
    9    10    35	5 ;     CG3C50      NG3P2       HGP2
   12    10    35	5 ;     CG3C53      NG3P2       HGP2
   10    12    21	5 ;      NG3P2     CG3C53      NG3P3
   10    12    13	5 ;      NG3P2     CG3C53     NG2R53
   10    12    36	5 ;      NG3P2     CG3C53       HGA1
   21    12    13	5 ;      NG3P3     CG3C53     NG2R53
   21    12    36	5 ;      NG3P3     CG3C53       HGA1
   13    12    36	5 ;     NG2R53     CG3C53       HGA1
   14    13    12	5 ;      CG331     NG2R53     CG3C53
   14    13    15	5 ;      CG331     NG2R53     CG2R53
   12    13    15	5 ;     CG3C53     NG2R53     CG2R53
   13    14    37	5 ;     NG2R53      CG331       HGA3
   13    14    38	5 ;     NG2R53      CG331       HGA3
   13    14    39	5 ;     NG2R53      CG331       HGA3
   37    14    38	5 ;       HGA3      CG331       HGA3
   37    14    39	5 ;       HGA3      CG331       HGA3
   38    14    39	5 ;       HGA3      CG331       HGA3
    9    15    13	5 ;     CG3C50     CG2R53     NG2R53
    9    15    16	5 ;     CG3C50     CG2R53      OG2D1
   13    15    16	5 ;     NG2R53     CG2R53      OG2D1
   18    17     9	5 ;      CG301      CG321     CG3C50
   18    17    40	5 ;      CG301      CG321       HGA2
   18    17    41	5 ;      CG301      CG321       HGA2
    9    17    40	5 ;     CG3C50      CG321       HGA2
    9    17    41	5 ;     CG3C50      CG321       HGA2
   40    17    41	5 ;       HGA2      CG321       HGA2
    2    18    19	5 ;      CG2O5      CG301      CG331
    2    18    20	5 ;      CG2O5      CG301      CG331
    2    18    17	5 ;      CG2O5      CG301      CG321
   19    18    20	5 ;      CG331      CG301      CG331
   19    18    17	5 ;      CG331      CG301      CG321
   20    18    17	5 ;      CG331      CG301      CG321
   18    19    42	5 ;      CG301      CG331       HGA3
   18    19    43	5 ;      CG301      CG331       HGA3
   18    19    44	5 ;      CG301      CG331       HGA3
   42    19    43	5 ;       HGA3      CG331       HGA3
   42    19    44	5 ;       HGA3      CG331       HGA3
   43    19    44	5 ;       HGA3      CG331       HGA3
   18    20    45	5 ;      CG301      CG331       HGA3
   18    20    46	5 ;      CG301      CG331       HGA3
   18    20    47	5 ;      CG301      CG331       HGA3
   45    20    46	5 ;       HGA3      CG331       HGA3
   45    20    47	5 ;       HGA3      CG331       HGA3
   46    20    47	5 ;       HGA3      CG331       HGA3
   22    21    12	5 ;       HGP2      NG3P3     CG3C53
   22    21    23	5 ;       HGP2      NG3P3       HGP2
   22    21    48	5 ;       HGP2      NG3P3       HGP2
   12    21    23	5 ;     CG3C53      NG3P3       HGP2
   12    21    48	5 ;     CG3C53      NG3P3       HGP2
   23    21    48	5 ;       HGP2      NG3P3       HGP2
   30    24     6	5 ;     CG2D1O     CG2DC1     CG2R61
   30    24    25	5 ;     CG2D1O     CG2DC1      CG321
    6    24    25	5 ;     CG2R61     CG2DC1      CG321
   24    25    26	5 ;     CG2DC1      CG321      NG311
   24    25    49	5 ;     CG2DC1      CG321       HGA2
   24    25    52	5 ;     CG2DC1      CG321       HGA2
   26    25    49	5 ;      NG311      CG321       HGA2
   26    25    52	5 ;      NG311      CG321       HGA2
   49    25    52	5 ;       HGA2      CG321       HGA2
   27    26    25	5 ;      CG321      NG311      CG321
   27    26    28	5 ;      CG321      NG311     HGPAM1
   25    26    28	5 ;      CG321      NG311     HGPAM1
   29    27    26	5 ;      NG311      CG321      NG311
   29    27    50	5 ;      NG311      CG321       HGA2
   29    27    53	5 ;      NG311      CG321       HGA2
   26    27    50	5 ;      NG311      CG321       HGA2
   26    27    53	5 ;      NG311      CG321       HGA2
   50    27    53	5 ;       HGA2      CG321       HGA2
   31    29    30	5 ;     HGPAM1      NG311     CG2D1O
   31    29    27	5 ;     HGPAM1      NG311      CG321
   30    29    27	5 ;     CG2D1O      NG311      CG321
   29    30    24	5 ;      NG311     CG2D1O     CG2DC1
   29    30    51	5 ;      NG311     CG2D1O       HGA4
   24    30    51	5 ;     CG2DC1     CG2D1O       HGA4

[ dihedrals ]
;	ai	  aj	ak	  al funct			  c0			c1			  c2			c3			  c4			c5
    1     2     3     8	 9 ;      OG2D3      CG2O5     CG2R61     CG2R61
    1     2     3     4	 9 ;      OG2D3      CG2O5     CG2R61     CG2R61
   18     2     3     8	 9 ;      CG301      CG2O5     CG2R61     CG2R61
   18     2     3     4	 9 ;      CG301      CG2O5     CG2R61     CG2R61
    1     2    18    19	 9 ;      OG2D3      CG2O5      CG301      CG331
    1     2    18    20	 9 ;      OG2D3      CG2O5      CG301      CG331
    1     2    18    17	 9 ;      OG2D3      CG2O5      CG301      CG321
    3     2    18    19	 9 ;     CG2R61      CG2O5      CG301      CG331
    3     2    18    20	 9 ;     CG2R61      CG2O5      CG301      CG331
    3     2    18    17	 9 ;     CG2R61      CG2O5      CG301      CG321
    2     3     8     7	 9 ;      CG2O5     CG2R61     CG2R61     CG2R61
    2     3     8    34	 9 ;      CG2O5     CG2R61     CG2R61      HGR61
    4     3     8     7	 9 ;     CG2R61     CG2R61     CG2R61     CG2R61
    4     3     8    34	 9 ;     CG2R61     CG2R61     CG2R61      HGR61
    8     3     4     5	 9 ;     CG2R61     CG2R61     CG2R61     CG2R61
    8     3     4     9	 9 ;     CG2R61     CG2R61     CG2R61     CG3C50
    2     3     4     5	 9 ;      CG2O5     CG2R61     CG2R61     CG2R61
    2     3     4     9	 9 ;      CG2O5     CG2R61     CG2R61     CG3C50
    3     4     5     6	 9 ;     CG2R61     CG2R61     CG2R61     CG2R61
    3     4     5    32	 9 ;     CG2R61     CG2R61     CG2R61      HGR61
    9     4     5     6	 9 ;     CG3C50     CG2R61     CG2R61     CG2R61
    9     4     5    32	 9 ;     CG3C50     CG2R61     CG2R61      HGR61
    3     4     9    10	 9 ;     CG2R61     CG2R61     CG3C50      NG3P2
    3     4     9    17	 9 ;     CG2R61     CG2R61     CG3C50      CG321
    3     4     9    15	 9 ;     CG2R61     CG2R61     CG3C50     CG2R53
    5     4     9    10	 9 ;     CG2R61     CG2R61     CG3C50      NG3P2
    5     4     9    17	 9 ;     CG2R61     CG2R61     CG3C50      CG321
    5     4     9    15	 9 ;     CG2R61     CG2R61     CG3C50     CG2R53
    4     5     6     7	 9 ;     CG2R61     CG2R61     CG2R61     CG2R61
    4     5     6    24	 9 ;     CG2R61     CG2R61     CG2R61     CG2DC1
   32     5     6     7	 9 ;      HGR61     CG2R61     CG2R61     CG2R61
   32     5     6    24	 9 ;      HGR61     CG2R61     CG2R61     CG2DC1
   24     6     7     8	 9 ;     CG2DC1     CG2R61     CG2R61     CG2R61
   24     6     7    33	 9 ;     CG2DC1     CG2R61     CG2R61      HGR61
    5     6     7     8	 9 ;     CG2R61     CG2R61     CG2R61     CG2R61
    5     6     7    33	 9 ;     CG2R61     CG2R61     CG2R61      HGR61
    7     6    24    30	 9 ;     CG2R61     CG2R61     CG2DC1     CG2D1O
    7     6    24    25	 9 ;     CG2R61     CG2R61     CG2DC1      CG321
    5     6    24    30	 9 ;     CG2R61     CG2R61     CG2DC1     CG2D1O
    5     6    24    25	 9 ;     CG2R61     CG2R61     CG2DC1      CG321
    6     7     8     3	 9 ;     CG2R61     CG2R61     CG2R61     CG2R61
    6     7     8    34	 9 ;     CG2R61     CG2R61     CG2R61      HGR61
   33     7     8     3	 9 ;      HGR61     CG2R61     CG2R61     CG2R61
   33     7     8    34	 9 ;      HGR61     CG2R61     CG2R61      HGR61
    4     9    10    11	 9 ;     CG2R61     CG3C50      NG3P2       HGP2
    4     9    10    12	 9 ;     CG2R61     CG3C50      NG3P2     CG3C53
    4     9    10    35	 9 ;     CG2R61     CG3C50      NG3P2       HGP2
   17     9    10    11	 9 ;      CG321     CG3C50      NG3P2       HGP2
   17     9    10    12	 9 ;      CG321     CG3C50      NG3P2     CG3C53
   17     9    10    35	 9 ;      CG321     CG3C50      NG3P2       HGP2
   15     9    10    11	 9 ;     CG2R53     CG3C50      NG3P2       HGP2
   15     9    10    12	 9 ;     CG2R53     CG3C50      NG3P2     CG3C53
   15     9    10    35	 9 ;     CG2R53     CG3C50      NG3P2       HGP2
    4     9    17    18	 9 ;     CG2R61     CG3C50      CG321      CG301
    4     9    17    40	 9 ;     CG2R61     CG3C50      CG321       HGA2
    4     9    17    41	 9 ;     CG2R61     CG3C50      CG321       HGA2
   10     9    17    18	 9 ;      NG3P2     CG3C50      CG321      CG301
   10     9    17    40	 9 ;      NG3P2     CG3C50      CG321       HGA2
   10     9    17    41	 9 ;      NG3P2     CG3C50      CG321       HGA2
   15     9    17    18	 9 ;     CG2R53     CG3C50      CG321      CG301
   15     9    17    40	 9 ;     CG2R53     CG3C50      CG321       HGA2
   15     9    17    41	 9 ;     CG2R53     CG3C50      CG321       HGA2
    4     9    15    13	 9 ;     CG2R61     CG3C50     CG2R53     NG2R53
    4     9    15    16	 9 ;     CG2R61     CG3C50     CG2R53      OG2D1
   10     9    15    13	 9 ;      NG3P2     CG3C50     CG2R53     NG2R53
   10     9    15    16	 9 ;      NG3P2     CG3C50     CG2R53      OG2D1
   17     9    15    13	 9 ;      CG321     CG3C50     CG2R53     NG2R53
   17     9    15    16	 9 ;      CG321     CG3C50     CG2R53      OG2D1
   11    10    12    21	 9 ;       HGP2      NG3P2     CG3C53      NG3P3
   11    10    12    13	 9 ;       HGP2      NG3P2     CG3C53     NG2R53
   11    10    12    36	 9 ;       HGP2      NG3P2     CG3C53       HGA1
    9    10    12    21	 9 ;     CG3C50      NG3P2     CG3C53      NG3P3
    9    10    12    13	 9 ;     CG3C50      NG3P2     CG3C53     NG2R53
    9    10    12    36	 9 ;     CG3C50      NG3P2     CG3C53       HGA1
   35    10    12    21	 9 ;       HGP2      NG3P2     CG3C53      NG3P3
   35    10    12    13	 9 ;       HGP2      NG3P2     CG3C53     NG2R53
   35    10    12    36	 9 ;       HGP2      NG3P2     CG3C53       HGA1
   10    12    21    22	 9 ;      NG3P2     CG3C53      NG3P3       HGP2
   10    12    21    23	 9 ;      NG3P2     CG3C53      NG3P3       HGP2
   10    12    21    48	 9 ;      NG3P2     CG3C53      NG3P3       HGP2
   13    12    21    22	 9 ;     NG2R53     CG3C53      NG3P3       HGP2
   13    12    21    23	 9 ;     NG2R53     CG3C53      NG3P3       HGP2
   13    12    21    48	 9 ;     NG2R53     CG3C53      NG3P3       HGP2
   36    12    21    22	 9 ;       HGA1     CG3C53      NG3P3       HGP2
   36    12    21    23	 9 ;       HGA1     CG3C53      NG3P3       HGP2
   36    12    21    48	 9 ;       HGA1     CG3C53      NG3P3       HGP2
   10    12    13    14	 9 ;      NG3P2     CG3C53     NG2R53      CG331
   10    12    13    15	 9 ;      NG3P2     CG3C53     NG2R53     CG2R53
   21    12    13    14	 9 ;      NG3P3     CG3C53     NG2R53      CG331
   21    12    13    15	 9 ;      NG3P3     CG3C53     NG2R53     CG2R53
   36    12    13    14	 9 ;       HGA1     CG3C53     NG2R53      CG331
   36    12    13    15	 9 ;       HGA1     CG3C53     NG2R53     CG2R53
   12    13    14    37	 9 ;     CG3C53     NG2R53      CG331       HGA3
   12    13    14    38	 9 ;     CG3C53     NG2R53      CG331       HGA3
   12    13    14    39	 9 ;     CG3C53     NG2R53      CG331       HGA3
   15    13    14    37	 9 ;     CG2R53     NG2R53      CG331       HGA3
   15    13    14    38	 9 ;     CG2R53     NG2R53      CG331       HGA3
   15    13    14    39	 9 ;     CG2R53     NG2R53      CG331       HGA3
   14    13    15     9	 9 ;      CG331     NG2R53     CG2R53     CG3C50
   14    13    15    16	 9 ;      CG331     NG2R53     CG2R53      OG2D1
   12    13    15     9	 9 ;     CG3C53     NG2R53     CG2R53     CG3C50
   12    13    15    16	 9 ;     CG3C53     NG2R53     CG2R53      OG2D1
    9    17    18     2	 9 ;     CG3C50      CG321      CG301      CG2O5
    9    17    18    19	 9 ;     CG3C50      CG321      CG301      CG331
    9    17    18    20	 9 ;     CG3C50      CG321      CG301      CG331
   40    17    18     2	 9 ;       HGA2      CG321      CG301      CG2O5
   40    17    18    19	 9 ;       HGA2      CG321      CG301      CG331
   40    17    18    20	 9 ;       HGA2      CG321      CG301      CG331
   41    17    18     2	 9 ;       HGA2      CG321      CG301      CG2O5
   41    17    18    19	 9 ;       HGA2      CG321      CG301      CG331
   41    17    18    20	 9 ;       HGA2      CG321      CG301      CG331
    2    18    19    42	 9 ;      CG2O5      CG301      CG331       HGA3
    2    18    19    43	 9 ;      CG2O5      CG301      CG331       HGA3
    2    18    19    44	 9 ;      CG2O5      CG301      CG331       HGA3
   20    18    19    42	 9 ;      CG331      CG301      CG331       HGA3
   20    18    19    43	 9 ;      CG331      CG301      CG331       HGA3
   20    18    19    44	 9 ;      CG331      CG301      CG331       HGA3
   17    18    19    42	 9 ;      CG321      CG301      CG331       HGA3
   17    18    19    43	 9 ;      CG321      CG301      CG331       HGA3
   17    18    19    44	 9 ;      CG321      CG301      CG331       HGA3
    2    18    20    45	 9 ;      CG2O5      CG301      CG331       HGA3
    2    18    20    46	 9 ;      CG2O5      CG301      CG331       HGA3
    2    18    20    47	 9 ;      CG2O5      CG301      CG331       HGA3
   19    18    20    45	 9 ;      CG331      CG301      CG331       HGA3
   19    18    20    46	 9 ;      CG331      CG301      CG331       HGA3
   19    18    20    47	 9 ;      CG331      CG301      CG331       HGA3
   17    18    20    45	 9 ;      CG321      CG301      CG331       HGA3
   17    18    20    46	 9 ;      CG321      CG301      CG331       HGA3
   17    18    20    47	 9 ;      CG321      CG301      CG331       HGA3
    6    24    30    29	 9 ;     CG2R61     CG2DC1     CG2D1O      NG311
    6    24    30    51	 9 ;     CG2R61     CG2DC1     CG2D1O       HGA4
   25    24    30    29	 9 ;      CG321     CG2DC1     CG2D1O      NG311
   25    24    30    51	 9 ;      CG321     CG2DC1     CG2D1O       HGA4
   30    24    25    26	 9 ;     CG2D1O     CG2DC1      CG321      NG311
   30    24    25    49	 9 ;     CG2D1O     CG2DC1      CG321       HGA2
   30    24    25    52	 9 ;     CG2D1O     CG2DC1      CG321       HGA2
    6    24    25    26	 9 ;     CG2R61     CG2DC1      CG321      NG311
    6    24    25    49	 9 ;     CG2R61     CG2DC1      CG321       HGA2
    6    24    25    52	 9 ;     CG2R61     CG2DC1      CG321       HGA2
   24    25    26    27	 9 ;     CG2DC1      CG321      NG311      CG321
   24    25    26    28	 9 ;     CG2DC1      CG321      NG311     HGPAM1
   49    25    26    27	 9 ;       HGA2      CG321      NG311      CG321
   49    25    26    28	 9 ;       HGA2      CG321      NG311     HGPAM1
   52    25    26    27	 9 ;       HGA2      CG321      NG311      CG321
   52    25    26    28	 9 ;       HGA2      CG321      NG311     HGPAM1
   25    26    27    29	 9 ;      CG321      NG311      CG321      NG311
   25    26    27    50	 9 ;      CG321      NG311      CG321       HGA2
   25    26    27    53	 9 ;      CG321      NG311      CG321       HGA2
   28    26    27    29	 9 ;     HGPAM1      NG311      CG321      NG311
   28    26    27    50	 9 ;     HGPAM1      NG311      CG321       HGA2
   28    26    27    53	 9 ;     HGPAM1      NG311      CG321       HGA2
   26    27    29    31	 9 ;      NG311      CG321      NG311     HGPAM1
   26    27    29    30	 9 ;      NG311      CG321      NG311     CG2D1O
   50    27    29    31	 9 ;       HGA2      CG321      NG311     HGPAM1
   50    27    29    30	 9 ;       HGA2      CG321      NG311     CG2D1O
   53    27    29    31	 9 ;       HGA2      CG321      NG311     HGPAM1
   53    27    29    30	 9 ;       HGA2      CG321      NG311     CG2D1O
   31    29    30    24	 9 ;     HGPAM1      NG311     CG2D1O     CG2DC1
   31    29    30    51	 9 ;     HGPAM1      NG311     CG2D1O       HGA4
   27    29    30    24	 9 ;      CG321      NG311     CG2D1O     CG2DC1
   27    29    30    51	 9 ;      CG321      NG311     CG2D1O       HGA4

[ dihedrals ]
;	ai	  aj	ak	  al funct			  c0			c1			  c2			c3
    2     3    18     1	 2
   15     9    13    16	 2
   30    24    29    51	 2

