Gravel Rubs Often Many Awfully Cauterized Sores
   59
    1LIG     C1    1  -1.286   0.518  -1.802
    1LIG     N1    2  -1.198   0.624  -1.858
    1LIG     C2    3  -1.204   0.621  -1.995
    1LIG     N2    4  -1.299   0.537  -2.041
    1LIG     C3    5  -1.371   0.487  -1.929
    1LIG     N3    6  -1.478   0.417  -1.934
    1LIG    HN1    7  -1.532   0.397  -1.850
    1LIG     C4    8  -1.521   0.366  -2.063
    1LIG     C5    9  -1.398   0.339  -2.148
    1LIG     C6   10  -1.320   0.470  -2.170
    1LIG     N4   11  -1.120   0.691  -2.072
    1LIG     H1   12  -1.129   0.676  -1.806
    1LIG     H2   13  -1.048   0.750  -2.031
    1LIG     H3   14  -1.128   0.690  -2.172
    1LIG     C7   15  -1.196   0.393  -1.775
    1LIG     C8   16  -1.086   0.401  -1.689
    1LIG     C9   17  -1.033   0.288  -1.627
    1LIG    C10   18  -1.088   0.163  -1.653
    1LIG    C11   19  -1.180   0.150  -1.757
    1LIG    C12   20  -1.232   0.264  -1.819
    1LIG      O   21  -1.056   0.048  -1.587
    1LIG    C13   22  -0.972  -0.047  -1.653
    1LIG     F1   23  -1.036  -0.126  -1.741
    1LIG     F2   24  -0.877   0.021  -1.721
    1LIG     F3   25  -0.912  -0.124  -1.560
    1LIG    C14   26  -1.375   0.555  -1.684
    1LIG    C15   27  -1.413   0.692  -1.676
    1LIG    C16   28  -1.523   0.739  -1.604
    1LIG    C17   29  -1.588   0.643  -1.526
    1LIG    C18   30  -1.545   0.509  -1.522
    1LIG    C19   31  -1.439   0.464  -1.602
    1LIG    C20   32  -1.569   0.879  -1.619
    1LIG    C21   33  -1.594   0.961  -1.508
    1LIG    C22   34  -1.638   1.092  -1.523
    1LIG    C23   35  -1.657   1.141  -1.651
    1LIG     N5   36  -1.636   1.069  -1.761
    1LIG    C24   37  -1.593   0.941  -1.743
    1LIG    HN2   38  -1.651   1.107  -1.854
    1LIG     F4   39  -1.576   0.872  -1.857
    1LIG     H4   40  -1.175   0.685  -2.075
    1LIG     H5   41  -1.478   0.489  -1.923
    1LIG     H6   42  -1.576   0.276  -2.050
    1LIG     H7   43  -1.583   0.438  -2.112
    1LIG     H8   44  -1.334   0.269  -2.097
    1LIG     H9   45  -1.427   0.298  -2.242
    1LIG    H10   46  -1.377   0.534  -2.235
    1LIG    H11   47  -1.226   0.449  -2.215
    1LIG    H12   48  -1.042   0.493  -1.671
    1LIG    H13   49  -0.954   0.296  -1.562
    1LIG    H14   50  -1.209   0.056  -1.788
    1LIG    H15   51  -1.299   0.253  -1.897
    1LIG    H16   52  -1.355   0.761  -1.727
    1LIG    H17   53  -1.670   0.671  -1.470
    1LIG    H18   54  -1.593   0.442  -1.459
    1LIG    H19   55  -1.410   0.365  -1.599
    1LIG    H20   56  -1.579   0.923  -1.413
    1LIG    H21   57  -1.656   1.151  -1.440
    1LIG    H22   58  -1.759   1.172  -1.655
    1LIG    H23   59  -1.579   1.214  -1.657
   0.00000   0.00000   0.00000
