Great Red Oystrich Makes All Chemists Sane
   51
    1LIG     C1    1  -1.633   0.351  -1.586
    1LIG     C2    2  -1.519   0.379  -1.509
    1LIG     C3    3  -1.402   0.301  -1.516
    1LIG     C4    4  -1.403   0.186  -1.599
    1LIG     C5    5  -1.296   0.078  -1.590
    1LIG     C6    6  -1.163   0.123  -1.528
    1LIG     C7    7  -1.196   0.216  -1.408
    1LIG     C8    8  -1.272   0.344  -1.449
    1LIG     N1    9  -1.190   0.410  -1.553
    1LIG    HN3   10  -1.170   0.376  -1.647
    1LIG     C9   11  -1.148   0.519  -1.501
    1LIG      O   12  -1.196   0.560  -1.382
    1LIG    C10   13  -1.274   0.449  -1.335
    1LIG    C11   14  -1.077   0.185  -1.642
    1LIG    C12   15  -1.079   0.004  -1.476
    1LIG    C13   16  -1.510   0.165  -1.686
    1LIG    C14   17  -1.622   0.249  -1.682
    1LIG    C15   18  -1.762   0.422  -1.566
    1LIG    C16   19  -1.865   0.364  -1.490
    1LIG    C17   20  -1.984   0.433  -1.466
    1LIG     CL   21  -2.109   0.362  -1.372
    1LIG    C18   22  -1.997   0.561  -1.518
    1LIG     N2   23  -1.902   0.621  -1.592
    1LIG    C19   24  -1.788   0.550  -1.614
    1LIG    HN4   25  -1.914   0.715  -1.630
    1LIG     N3   26  -1.055   0.597  -1.560
    1LIG     H1   27  -1.066   0.586  -1.660
    1LIG     H2   28  -0.966   0.548  -1.548
    1LIG     HC   29  -1.522   0.463  -1.441
    1LIG    HC2   30  -1.336  -0.003  -1.528
    1LIG    HC3   31  -1.278   0.039  -1.690
    1LIG    HC4   32  -1.102   0.245  -1.359
    1LIG    HC5   33  -1.257   0.160  -1.336
    1LIG    HN2   34  -1.272   0.458  -1.587
    1LIG    HC1   35  -1.227   0.574  -1.552
    1LIG    HC6   36  -1.376   0.480  -1.314
    1LIG    HC7   37  -1.228   0.407  -1.245
    1LIG    HC8   38  -1.004   0.112  -1.677
    1LIG    HC9   39  -1.142   0.213  -1.725
    1LIG   HC10   40  -1.026   0.273  -1.604
    1LIG   HC11   41  -1.133  -0.046  -1.395
    1LIG   HC12   42  -1.062  -0.067  -1.557
    1LIG   HC13   43  -0.983   0.040  -1.439
    1LIG   HC14   44  -1.506   0.084  -1.757
    1LIG   HC15   45  -1.701   0.234  -1.754
    1LIG   HC16   46  -1.852   0.265  -1.449
    1LIG   HC17   47  -2.088   0.615  -1.497
    1LIG   HC18   48  -1.712   0.596  -1.675
    1LIG    HN1   49  -1.054   0.693  -1.528
    1LIG    H26   50  -1.952   0.602  -1.427
    1LIG    LP1   51  -2.228   0.294  -1.282
   0.00000   0.00000   0.00000
