; Created by cgenff_charmm2gmx.py

[ moleculetype ]
; Name			   nrexcl
LIG				 3

[ atoms ]
;	 nr		  type	resnr residue  atom   cgnr	   charge		mass  typeB    chargeB		massB
; residue	 1 LIG rtp LIG q	qsum
     1      SG311      1    LIG      S      1     -0.288     32.060   ;
     2     CG2R51      1    LIG     C1      2     -0.422     12.011   ;
     3     CG2R51      1    LIG     C2      3      0.281     12.011   ;
     4     NG3C51      1    LIG     N1      4     -0.411     14.007   ;
     5       HGP1      1    LIG    HN1      5      0.252      1.008   ;
     6     CG3C51      1    LIG     C3      6      0.162     12.011   ;
     7      CG331      1    LIG     C4      7     -0.239     12.011   ;
     8     CG3C51      1    LIG     C5      8      0.101     12.011   ;
     9     NG3C51      1    LIG     N2      9     -0.871     14.007   ;
    10       HGP1      1    LIG    HN2     10      0.286      1.008   ;
    11     CG3C50      1    LIG     C6     11      0.995     12.011   ;
    12     CG2R61      1    LIG     C7     12      0.061     12.011   ;
    13     CG2R61      1    LIG     C8     13     -0.186     12.011   ;
    14     CG2R61      1    LIG     C9     14      0.025     12.011   ;
    15     CG2R61      1    LIG    C10     15     -0.120     12.011   ;
    16     CG2R61      1    LIG    C11     16     -0.102     12.011   ;
    17     CG2R61      1    LIG    C12     17     -0.182     12.011   ;
    18     CG2DC1      1    LIG    C13     18     -0.086     12.011   ;
    19      CG321      1    LIG    C14     19      0.013     12.011   ;
    20      NG311      1    LIG     N3     20     -0.656     14.007   ;
    21      CG321      1    LIG    C15     21      0.131     12.011   ;
    22     HGPAM1      1    LIG    HN3     22      0.367      1.008   ;
    23      NG311      1    LIG     N4     23     -0.598     14.007   ;
    24     CG2D1O      1    LIG    C16     24     -0.097     12.011   ;
    25     HGPAM1      1    LIG    HN4     25      0.406      1.008   ;
    26     CG2R61      1    LIG    C17     26      0.058     12.011   ;
    27     CG2R61      1    LIG    C18     27     -0.179     12.011   ;
    28     CG2R61      1    LIG    C19     28     -0.110     12.011   ;
    29     CG2R61      1    LIG    C20     29      0.211     12.011   ;
    30     CG2R61      1    LIG    C21     30     -0.110     12.011   ;
    31     CG2R61      1    LIG    C22     31     -0.179     12.011   ;
    32      OG301      1    LIG      O     32     -0.383     15.999   ;
    33      CG331      1    LIG    C23     33     -0.094     12.011   ;
    34      NG321      1    LIG     N5     34     -0.948     14.007   ;
    35     HGPAM2      1    LIG     H1     35      0.365      1.008   ;
    36     HGPAM2      1    LIG     H2     36      0.365      1.008   ;
    37       HGA3      1    LIG    HC1     37      0.090      1.008   ;
    38       HGA3      1    LIG    HC2     38      0.090      1.008   ;
    39       HGA3      1    LIG    HC3     39      0.090      1.008   ;
    40      HGR61      1    LIG     HC     40      0.116      1.008   ;
    41      HGR61      1    LIG    HC4     41      0.116      1.008   ;
    42      HGR61      1    LIG    HC5     42      0.116      1.008   ;
    43      HGR61      1    LIG    HC6     43      0.116      1.008   ;
    44       HGA2      1    LIG    HC7     44      0.090      1.008   ;
    45       HGA2      1    LIG    HC8     45      0.090      1.008   ;
    46       HGA4      1    LIG    HC9     46      0.148      1.008   ;
    47      HGR61      1    LIG   HC10     47      0.116      1.008   ;
    48      HGR61      1    LIG   HC11     48      0.116      1.008   ;
    49      HGR61      1    LIG   HC12     49      0.116      1.008   ;
    50      HGR61      1    LIG   HC13     50      0.116      1.008   ;
    51       HGA3      1    LIG   HC14     51      0.090      1.008   ;
    52       HGA3      1    LIG   HC15     52      0.090      1.008   ;
    53       HGA3      1    LIG   HC16     53      0.090      1.008   ;
    54       HGA1      1    LIG    H24     54      0.090      1.008   ;
    55       HGA1      1    LIG    H25     55      0.116      1.008   ;
    56       HGA2      1    LIG    H26     56      0.090      1.008   ;
    57       HGA2      1    LIG    H27     57      0.090      1.008   ;

[ bonds ]
;	ai	  aj funct			  c0			c1			  c2			c3
    1     6	 1 ;       SG311     CG3C51
    1     2	 1 ;       SG311     CG2R51
    2     3	 1 ;      CG2R51     CG2R51
    2    11	 1 ;      CG2R51     CG3C50
    3     4	 1 ;      CG2R51     NG3C51
    3     8	 1 ;      CG2R51     CG3C51
    4     5	 1 ;      NG3C51       HGP1
    4     6	 1 ;      NG3C51     CG3C51
    6     7	 1 ;      CG3C51      CG331
    6    54	 1 ;      CG3C51       HGA1
    7    37	 1 ;       CG331       HGA3
    7    38	 1 ;       CG331       HGA3
    7    39	 1 ;       CG331       HGA3
    8    34	 1 ;      CG3C51      NG321
    8     9	 1 ;      CG3C51     NG3C51
    8    55	 1 ;      CG3C51       HGA1
    9    10	 1 ;      NG3C51       HGP1
    9    11	 1 ;      NG3C51     CG3C50
   11    26	 1 ;      CG3C50     CG2R61
   11    12	 1 ;      CG3C50     CG2R61
   12    17	 1 ;      CG2R61     CG2R61
   12    13	 1 ;      CG2R61     CG2R61
   13    14	 1 ;      CG2R61     CG2R61
   13    40	 1 ;      CG2R61      HGR61
   14    15	 1 ;      CG2R61     CG2R61
   14    18	 1 ;      CG2R61     CG2DC1
   15    16	 1 ;      CG2R61     CG2R61
   15    41	 1 ;      CG2R61      HGR61
   16    17	 1 ;      CG2R61     CG2R61
   16    42	 1 ;      CG2R61      HGR61
   17    43	 1 ;      CG2R61      HGR61
   18    24	 1 ;      CG2DC1     CG2D1O
   18    19	 1 ;      CG2DC1      CG321
   19    20	 1 ;       CG321      NG311
   19    44	 1 ;       CG321       HGA2
   19    56	 1 ;       CG321       HGA2
   20    21	 1 ;       NG311      CG321
   20    22	 1 ;       NG311     HGPAM1
   21    23	 1 ;       CG321      NG311
   21    45	 1 ;       CG321       HGA2
   21    57	 1 ;       CG321       HGA2
   23    24	 1 ;       NG311     CG2D1O
   23    25	 1 ;       NG311     HGPAM1
   24    46	 1 ;      CG2D1O       HGA4
   26    27	 1 ;      CG2R61     CG2R61
   26    31	 1 ;      CG2R61     CG2R61
   27    28	 1 ;      CG2R61     CG2R61
   27    47	 1 ;      CG2R61      HGR61
   28    29	 1 ;      CG2R61     CG2R61
   28    48	 1 ;      CG2R61      HGR61
   29    32	 1 ;      CG2R61      OG301
   29    30	 1 ;      CG2R61     CG2R61
   30    31	 1 ;      CG2R61     CG2R61
   30    49	 1 ;      CG2R61      HGR61
   31    50	 1 ;      CG2R61      HGR61
   32    33	 1 ;       OG301      CG331
   33    51	 1 ;       CG331       HGA3
   33    52	 1 ;       CG331       HGA3
   33    53	 1 ;       CG331       HGA3
   34    36	 1 ;       NG321     HGPAM2
   34    35	 1 ;       NG321     HGPAM2

[ pairs ]
;	ai	  aj funct			  c0			c1			  c2			c3
    1     8	 1
    1     9	 1
    1    26	 1
    1    12	 1
    1     5	 1
    1    37	 1
    1    38	 1
    1    39	 1
    2     7	 1
    2    54	 1
    2     5	 1
    2    34	 1
    2    55	 1
    2    10	 1
    2    27	 1
    2    31	 1
    2    17	 1
    2    13	 1
    3    26	 1
    3    12	 1
    3     7	 1
    3    54	 1
    3    36	 1
    3    35	 1
    3    10	 1
    4    11	 1
    4    34	 1
    4     9	 1
    4    55	 1
    4    37	 1
    4    38	 1
    4    39	 1
    5     8	 1
    5     7	 1
    5    54	 1
    6    11	 1
    6     8	 1
    8    26	 1
    8    12	 1
    9    36	 1
    9    35	 1
    9    27	 1
    9    31	 1
    9    17	 1
    9    13	 1
   10    34	 1
   10    55	 1
   10    26	 1
   10    12	 1
   11    34	 1
   11    55	 1
   11    16	 1
   11    43	 1
   11    14	 1
   11    40	 1
   11    28	 1
   11    47	 1
   11    30	 1
   11    50	 1
   12    27	 1
   12    31	 1
   12    15	 1
   12    18	 1
   12    42	 1
   13    26	 1
   13    16	 1
   13    43	 1
   13    41	 1
   13    24	 1
   13    19	 1
   14    17	 1
   14    42	 1
   14    23	 1
   14    46	 1
   14    20	 1
   14    44	 1
   14    56	 1
   15    40	 1
   15    24	 1
   15    19	 1
   15    43	 1
   16    18	 1
   17    26	 1
   17    40	 1
   17    41	 1
   18    40	 1
   18    41	 1
   18    21	 1
   18    22	 1
   18    25	 1
   19    23	 1
   19    46	 1
   19    45	 1
   19    57	 1
   20    24	 1
   20    25	 1
   21    44	 1
   21    56	 1
   21    46	 1
   22    44	 1
   22    56	 1
   22    23	 1
   22    45	 1
   22    57	 1
   24    44	 1
   24    56	 1
   24    45	 1
   24    57	 1
   25    45	 1
   25    57	 1
   25    46	 1
   26    29	 1
   26    48	 1
   26    49	 1
   27    30	 1
   27    50	 1
   27    32	 1
   28    31	 1
   28    33	 1
   28    49	 1
   29    47	 1
   29    50	 1
   29    51	 1
   29    52	 1
   29    53	 1
   30    48	 1
   30    33	 1
   31    47	 1
   31    32	 1
   32    48	 1
   32    49	 1
   35    55	 1
   36    55	 1
   37    54	 1
   38    54	 1
   39    54	 1
   41    42	 1
   42    43	 1
   47    48	 1
   49    50	 1

[ angles ]
;	ai	  aj	ak funct			c0			  c1			c2			  c3
    6     1     2	5 ;     CG3C51      SG311     CG2R51
    3     2     1	5 ;     CG2R51     CG2R51      SG311
    3     2    11	5 ;     CG2R51     CG2R51     CG3C50
    1     2    11	5 ;      SG311     CG2R51     CG3C50
    4     3     8	5 ;     NG3C51     CG2R51     CG3C51
    4     3     2	5 ;     NG3C51     CG2R51     CG2R51
    8     3     2	5 ;     CG3C51     CG2R51     CG2R51
    5     4     6	5 ;       HGP1     NG3C51     CG3C51
    5     4     3	5 ;       HGP1     NG3C51     CG2R51
    6     4     3	5 ;     CG3C51     NG3C51     CG2R51
    7     6     4	5 ;      CG331     CG3C51     NG3C51
    7     6     1	5 ;      CG331     CG3C51      SG311
    7     6    54	5 ;      CG331     CG3C51       HGA1
    4     6     1	5 ;     NG3C51     CG3C51      SG311
    4     6    54	5 ;     NG3C51     CG3C51       HGA1
    1     6    54	5 ;      SG311     CG3C51       HGA1
    6     7    37	5 ;     CG3C51      CG331       HGA3
    6     7    38	5 ;     CG3C51      CG331       HGA3
    6     7    39	5 ;     CG3C51      CG331       HGA3
   37     7    38	5 ;       HGA3      CG331       HGA3
   37     7    39	5 ;       HGA3      CG331       HGA3
   38     7    39	5 ;       HGA3      CG331       HGA3
   34     8     3	5 ;      NG321     CG3C51     CG2R51
   34     8     9	5 ;      NG321     CG3C51     NG3C51
   34     8    55	5 ;      NG321     CG3C51       HGA1
    3     8     9	5 ;     CG2R51     CG3C51     NG3C51
    3     8    55	5 ;     CG2R51     CG3C51       HGA1
    9     8    55	5 ;     NG3C51     CG3C51       HGA1
    8     9    10	5 ;     CG3C51     NG3C51       HGP1
    8     9    11	5 ;     CG3C51     NG3C51     CG3C50
   10     9    11	5 ;       HGP1     NG3C51     CG3C50
    2    11     9	5 ;     CG2R51     CG3C50     NG3C51
    2    11    26	5 ;     CG2R51     CG3C50     CG2R61
    2    11    12	5 ;     CG2R51     CG3C50     CG2R61
    9    11    26	5 ;     NG3C51     CG3C50     CG2R61
    9    11    12	5 ;     NG3C51     CG3C50     CG2R61
   26    11    12	5 ;     CG2R61     CG3C50     CG2R61
   11    12    17	5 ;     CG3C50     CG2R61     CG2R61
   11    12    13	5 ;     CG3C50     CG2R61     CG2R61
   17    12    13	5 ;     CG2R61     CG2R61     CG2R61
   12    13    14	5 ;     CG2R61     CG2R61     CG2R61
   12    13    40	5 ;     CG2R61     CG2R61      HGR61
   14    13    40	5 ;     CG2R61     CG2R61      HGR61
   13    14    15	5 ;     CG2R61     CG2R61     CG2R61
   13    14    18	5 ;     CG2R61     CG2R61     CG2DC1
   15    14    18	5 ;     CG2R61     CG2R61     CG2DC1
   16    15    14	5 ;     CG2R61     CG2R61     CG2R61
   16    15    41	5 ;     CG2R61     CG2R61      HGR61
   14    15    41	5 ;     CG2R61     CG2R61      HGR61
   17    16    15	5 ;     CG2R61     CG2R61     CG2R61
   17    16    42	5 ;     CG2R61     CG2R61      HGR61
   15    16    42	5 ;     CG2R61     CG2R61      HGR61
   12    17    16	5 ;     CG2R61     CG2R61     CG2R61
   12    17    43	5 ;     CG2R61     CG2R61      HGR61
   16    17    43	5 ;     CG2R61     CG2R61      HGR61
   14    18    24	5 ;     CG2R61     CG2DC1     CG2D1O
   14    18    19	5 ;     CG2R61     CG2DC1      CG321
   24    18    19	5 ;     CG2D1O     CG2DC1      CG321
   18    19    20	5 ;     CG2DC1      CG321      NG311
   18    19    44	5 ;     CG2DC1      CG321       HGA2
   18    19    56	5 ;     CG2DC1      CG321       HGA2
   20    19    44	5 ;      NG311      CG321       HGA2
   20    19    56	5 ;      NG311      CG321       HGA2
   44    19    56	5 ;       HGA2      CG321       HGA2
   19    20    21	5 ;      CG321      NG311      CG321
   19    20    22	5 ;      CG321      NG311     HGPAM1
   21    20    22	5 ;      CG321      NG311     HGPAM1
   23    21    20	5 ;      NG311      CG321      NG311
   23    21    45	5 ;      NG311      CG321       HGA2
   23    21    57	5 ;      NG311      CG321       HGA2
   20    21    45	5 ;      NG311      CG321       HGA2
   20    21    57	5 ;      NG311      CG321       HGA2
   45    21    57	5 ;       HGA2      CG321       HGA2
   24    23    25	5 ;     CG2D1O      NG311     HGPAM1
   24    23    21	5 ;     CG2D1O      NG311      CG321
   25    23    21	5 ;     HGPAM1      NG311      CG321
   18    24    23	5 ;     CG2DC1     CG2D1O      NG311
   18    24    46	5 ;     CG2DC1     CG2D1O       HGA4
   23    24    46	5 ;      NG311     CG2D1O       HGA4
   11    26    27	5 ;     CG3C50     CG2R61     CG2R61
   11    26    31	5 ;     CG3C50     CG2R61     CG2R61
   27    26    31	5 ;     CG2R61     CG2R61     CG2R61
   28    27    26	5 ;     CG2R61     CG2R61     CG2R61
   28    27    47	5 ;     CG2R61     CG2R61      HGR61
   26    27    47	5 ;     CG2R61     CG2R61      HGR61
   27    28    29	5 ;     CG2R61     CG2R61     CG2R61
   27    28    48	5 ;     CG2R61     CG2R61      HGR61
   29    28    48	5 ;     CG2R61     CG2R61      HGR61
   28    29    32	5 ;     CG2R61     CG2R61      OG301
   28    29    30	5 ;     CG2R61     CG2R61     CG2R61
   32    29    30	5 ;      OG301     CG2R61     CG2R61
   29    30    31	5 ;     CG2R61     CG2R61     CG2R61
   29    30    49	5 ;     CG2R61     CG2R61      HGR61
   31    30    49	5 ;     CG2R61     CG2R61      HGR61
   26    31    30	5 ;     CG2R61     CG2R61     CG2R61
   26    31    50	5 ;     CG2R61     CG2R61      HGR61
   30    31    50	5 ;     CG2R61     CG2R61      HGR61
   33    32    29	5 ;      CG331      OG301     CG2R61
   32    33    51	5 ;      OG301      CG331       HGA3
   32    33    52	5 ;      OG301      CG331       HGA3
   32    33    53	5 ;      OG301      CG331       HGA3
   51    33    52	5 ;       HGA3      CG331       HGA3
   51    33    53	5 ;       HGA3      CG331       HGA3
   52    33    53	5 ;       HGA3      CG331       HGA3
   36    34    35	5 ;     HGPAM2      NG321     HGPAM2
   36    34     8	5 ;     HGPAM2      NG321     CG3C51
   35    34     8	5 ;     HGPAM2      NG321     CG3C51

[ dihedrals ]
;	ai	  aj	ak	  al funct			  c0			c1			  c2			c3			  c4			c5
    2     1     6     7	 9 ;     CG2R51      SG311     CG3C51      CG331
    2     1     6     4	 9 ;     CG2R51      SG311     CG3C51     NG3C51
    2     1     6    54	 9 ;     CG2R51      SG311     CG3C51       HGA1
    6     1     2     3	 9 ;     CG3C51      SG311     CG2R51     CG2R51
    6     1     2    11	 9 ;     CG3C51      SG311     CG2R51     CG3C50
    1     2     3     4	 9 ;      SG311     CG2R51     CG2R51     NG3C51
    1     2     3     8	 9 ;      SG311     CG2R51     CG2R51     CG3C51
   11     2     3     4	 9 ;     CG3C50     CG2R51     CG2R51     NG3C51
   11     2     3     8	 9 ;     CG3C50     CG2R51     CG2R51     CG3C51
    3     2    11     9	 9 ;     CG2R51     CG2R51     CG3C50     NG3C51
    3     2    11    26	 9 ;     CG2R51     CG2R51     CG3C50     CG2R61
    3     2    11    12	 9 ;     CG2R51     CG2R51     CG3C50     CG2R61
    1     2    11     9	 9 ;      SG311     CG2R51     CG3C50     NG3C51
    1     2    11    26	 9 ;      SG311     CG2R51     CG3C50     CG2R61
    1     2    11    12	 9 ;      SG311     CG2R51     CG3C50     CG2R61
    8     3     4     5	 9 ;     CG3C51     CG2R51     NG3C51       HGP1
    8     3     4     6	 9 ;     CG3C51     CG2R51     NG3C51     CG3C51
    2     3     4     5	 9 ;     CG2R51     CG2R51     NG3C51       HGP1
    2     3     4     6	 9 ;     CG2R51     CG2R51     NG3C51     CG3C51
    4     3     8    34	 9 ;     NG3C51     CG2R51     CG3C51      NG321
    4     3     8     9	 9 ;     NG3C51     CG2R51     CG3C51     NG3C51
    4     3     8    55	 9 ;     NG3C51     CG2R51     CG3C51       HGA1
    2     3     8    34	 9 ;     CG2R51     CG2R51     CG3C51      NG321
    2     3     8     9	 9 ;     CG2R51     CG2R51     CG3C51     NG3C51
    2     3     8    55	 9 ;     CG2R51     CG2R51     CG3C51       HGA1
    5     4     6     7	 9 ;       HGP1     NG3C51     CG3C51      CG331
    5     4     6     1	 9 ;       HGP1     NG3C51     CG3C51      SG311
    5     4     6    54	 9 ;       HGP1     NG3C51     CG3C51       HGA1
    3     4     6     7	 9 ;     CG2R51     NG3C51     CG3C51      CG331
    3     4     6     1	 9 ;     CG2R51     NG3C51     CG3C51      SG311
    3     4     6    54	 9 ;     CG2R51     NG3C51     CG3C51       HGA1
    4     6     7    37	 9 ;     NG3C51     CG3C51      CG331       HGA3
    4     6     7    38	 9 ;     NG3C51     CG3C51      CG331       HGA3
    4     6     7    39	 9 ;     NG3C51     CG3C51      CG331       HGA3
    1     6     7    37	 9 ;      SG311     CG3C51      CG331       HGA3
    1     6     7    38	 9 ;      SG311     CG3C51      CG331       HGA3
    1     6     7    39	 9 ;      SG311     CG3C51      CG331       HGA3
   54     6     7    37	 9 ;       HGA1     CG3C51      CG331       HGA3
   54     6     7    38	 9 ;       HGA1     CG3C51      CG331       HGA3
   54     6     7    39	 9 ;       HGA1     CG3C51      CG331       HGA3
    3     8    34    36	 9 ;     CG2R51     CG3C51      NG321     HGPAM2
    3     8    34    35	 9 ;     CG2R51     CG3C51      NG321     HGPAM2
    9     8    34    36	 9 ;     NG3C51     CG3C51      NG321     HGPAM2
    9     8    34    35	 9 ;     NG3C51     CG3C51      NG321     HGPAM2
   55     8    34    36	 9 ;       HGA1     CG3C51      NG321     HGPAM2
   55     8    34    35	 9 ;       HGA1     CG3C51      NG321     HGPAM2
   34     8     9    10	 9 ;      NG321     CG3C51     NG3C51       HGP1
   34     8     9    11	 9 ;      NG321     CG3C51     NG3C51     CG3C50
    3     8     9    10	 9 ;     CG2R51     CG3C51     NG3C51       HGP1
    3     8     9    11	 9 ;     CG2R51     CG3C51     NG3C51     CG3C50
   55     8     9    10	 9 ;       HGA1     CG3C51     NG3C51       HGP1
   55     8     9    11	 9 ;       HGA1     CG3C51     NG3C51     CG3C50
    8     9    11     2	 9 ;     CG3C51     NG3C51     CG3C50     CG2R51
    8     9    11    26	 9 ;     CG3C51     NG3C51     CG3C50     CG2R61
    8     9    11    12	 9 ;     CG3C51     NG3C51     CG3C50     CG2R61
   10     9    11     2	 9 ;       HGP1     NG3C51     CG3C50     CG2R51
   10     9    11    26	 9 ;       HGP1     NG3C51     CG3C50     CG2R61
   10     9    11    12	 9 ;       HGP1     NG3C51     CG3C50     CG2R61
    2    11    26    27	 9 ;     CG2R51     CG3C50     CG2R61     CG2R61
    2    11    26    31	 9 ;     CG2R51     CG3C50     CG2R61     CG2R61
    9    11    26    27	 9 ;     NG3C51     CG3C50     CG2R61     CG2R61
    9    11    26    31	 9 ;     NG3C51     CG3C50     CG2R61     CG2R61
   12    11    26    27	 9 ;     CG2R61     CG3C50     CG2R61     CG2R61
   12    11    26    31	 9 ;     CG2R61     CG3C50     CG2R61     CG2R61
    2    11    12    17	 9 ;     CG2R51     CG3C50     CG2R61     CG2R61
    2    11    12    13	 9 ;     CG2R51     CG3C50     CG2R61     CG2R61
    9    11    12    17	 9 ;     NG3C51     CG3C50     CG2R61     CG2R61
    9    11    12    13	 9 ;     NG3C51     CG3C50     CG2R61     CG2R61
   26    11    12    17	 9 ;     CG2R61     CG3C50     CG2R61     CG2R61
   26    11    12    13	 9 ;     CG2R61     CG3C50     CG2R61     CG2R61
   11    12    17    16	 9 ;     CG3C50     CG2R61     CG2R61     CG2R61
   11    12    17    43	 9 ;     CG3C50     CG2R61     CG2R61      HGR61
   13    12    17    16	 9 ;     CG2R61     CG2R61     CG2R61     CG2R61
   13    12    17    43	 9 ;     CG2R61     CG2R61     CG2R61      HGR61
   11    12    13    14	 9 ;     CG3C50     CG2R61     CG2R61     CG2R61
   11    12    13    40	 9 ;     CG3C50     CG2R61     CG2R61      HGR61
   17    12    13    14	 9 ;     CG2R61     CG2R61     CG2R61     CG2R61
   17    12    13    40	 9 ;     CG2R61     CG2R61     CG2R61      HGR61
   12    13    14    15	 9 ;     CG2R61     CG2R61     CG2R61     CG2R61
   12    13    14    18	 9 ;     CG2R61     CG2R61     CG2R61     CG2DC1
   40    13    14    15	 9 ;      HGR61     CG2R61     CG2R61     CG2R61
   40    13    14    18	 9 ;      HGR61     CG2R61     CG2R61     CG2DC1
   13    14    15    16	 9 ;     CG2R61     CG2R61     CG2R61     CG2R61
   13    14    15    41	 9 ;     CG2R61     CG2R61     CG2R61      HGR61
   18    14    15    16	 9 ;     CG2DC1     CG2R61     CG2R61     CG2R61
   18    14    15    41	 9 ;     CG2DC1     CG2R61     CG2R61      HGR61
   13    14    18    24	 9 ;     CG2R61     CG2R61     CG2DC1     CG2D1O
   13    14    18    19	 9 ;     CG2R61     CG2R61     CG2DC1      CG321
   15    14    18    24	 9 ;     CG2R61     CG2R61     CG2DC1     CG2D1O
   15    14    18    19	 9 ;     CG2R61     CG2R61     CG2DC1      CG321
   14    15    16    17	 9 ;     CG2R61     CG2R61     CG2R61     CG2R61
   14    15    16    42	 9 ;     CG2R61     CG2R61     CG2R61      HGR61
   41    15    16    17	 9 ;      HGR61     CG2R61     CG2R61     CG2R61
   41    15    16    42	 9 ;      HGR61     CG2R61     CG2R61      HGR61
   15    16    17    12	 9 ;     CG2R61     CG2R61     CG2R61     CG2R61
   15    16    17    43	 9 ;     CG2R61     CG2R61     CG2R61      HGR61
   42    16    17    12	 9 ;      HGR61     CG2R61     CG2R61     CG2R61
   42    16    17    43	 9 ;      HGR61     CG2R61     CG2R61      HGR61
   14    18    24    23	 9 ;     CG2R61     CG2DC1     CG2D1O      NG311
   14    18    24    46	 9 ;     CG2R61     CG2DC1     CG2D1O       HGA4
   19    18    24    23	 9 ;      CG321     CG2DC1     CG2D1O      NG311
   19    18    24    46	 9 ;      CG321     CG2DC1     CG2D1O       HGA4
   14    18    19    20	 9 ;     CG2R61     CG2DC1      CG321      NG311
   14    18    19    44	 9 ;     CG2R61     CG2DC1      CG321       HGA2
   14    18    19    56	 9 ;     CG2R61     CG2DC1      CG321       HGA2
   24    18    19    20	 9 ;     CG2D1O     CG2DC1      CG321      NG311
   24    18    19    44	 9 ;     CG2D1O     CG2DC1      CG321       HGA2
   24    18    19    56	 9 ;     CG2D1O     CG2DC1      CG321       HGA2
   18    19    20    21	 9 ;     CG2DC1      CG321      NG311      CG321
   18    19    20    22	 9 ;     CG2DC1      CG321      NG311     HGPAM1
   44    19    20    21	 9 ;       HGA2      CG321      NG311      CG321
   44    19    20    22	 9 ;       HGA2      CG321      NG311     HGPAM1
   56    19    20    21	 9 ;       HGA2      CG321      NG311      CG321
   56    19    20    22	 9 ;       HGA2      CG321      NG311     HGPAM1
   19    20    21    23	 9 ;      CG321      NG311      CG321      NG311
   19    20    21    45	 9 ;      CG321      NG311      CG321       HGA2
   19    20    21    57	 9 ;      CG321      NG311      CG321       HGA2
   22    20    21    23	 9 ;     HGPAM1      NG311      CG321      NG311
   22    20    21    45	 9 ;     HGPAM1      NG311      CG321       HGA2
   22    20    21    57	 9 ;     HGPAM1      NG311      CG321       HGA2
   20    21    23    24	 9 ;      NG311      CG321      NG311     CG2D1O
   20    21    23    25	 9 ;      NG311      CG321      NG311     HGPAM1
   45    21    23    24	 9 ;       HGA2      CG321      NG311     CG2D1O
   45    21    23    25	 9 ;       HGA2      CG321      NG311     HGPAM1
   57    21    23    24	 9 ;       HGA2      CG321      NG311     CG2D1O
   57    21    23    25	 9 ;       HGA2      CG321      NG311     HGPAM1
   25    23    24    18	 9 ;     HGPAM1      NG311     CG2D1O     CG2DC1
   25    23    24    46	 9 ;     HGPAM1      NG311     CG2D1O       HGA4
   21    23    24    18	 9 ;      CG321      NG311     CG2D1O     CG2DC1
   21    23    24    46	 9 ;      CG321      NG311     CG2D1O       HGA4
   11    26    27    28	 9 ;     CG3C50     CG2R61     CG2R61     CG2R61
   11    26    27    47	 9 ;     CG3C50     CG2R61     CG2R61      HGR61
   31    26    27    28	 9 ;     CG2R61     CG2R61     CG2R61     CG2R61
   31    26    27    47	 9 ;     CG2R61     CG2R61     CG2R61      HGR61
   11    26    31    30	 9 ;     CG3C50     CG2R61     CG2R61     CG2R61
   11    26    31    50	 9 ;     CG3C50     CG2R61     CG2R61      HGR61
   27    26    31    30	 9 ;     CG2R61     CG2R61     CG2R61     CG2R61
   27    26    31    50	 9 ;     CG2R61     CG2R61     CG2R61      HGR61
   26    27    28    29	 9 ;     CG2R61     CG2R61     CG2R61     CG2R61
   26    27    28    48	 9 ;     CG2R61     CG2R61     CG2R61      HGR61
   47    27    28    29	 9 ;      HGR61     CG2R61     CG2R61     CG2R61
   47    27    28    48	 9 ;      HGR61     CG2R61     CG2R61      HGR61
   27    28    29    32	 9 ;     CG2R61     CG2R61     CG2R61      OG301
   27    28    29    30	 9 ;     CG2R61     CG2R61     CG2R61     CG2R61
   48    28    29    32	 9 ;      HGR61     CG2R61     CG2R61      OG301
   48    28    29    30	 9 ;      HGR61     CG2R61     CG2R61     CG2R61
   28    29    32    33	 9 ;     CG2R61     CG2R61      OG301      CG331
   30    29    32    33	 9 ;     CG2R61     CG2R61      OG301      CG331
   28    29    30    31	 9 ;     CG2R61     CG2R61     CG2R61     CG2R61
   28    29    30    49	 9 ;     CG2R61     CG2R61     CG2R61      HGR61
   32    29    30    31	 9 ;      OG301     CG2R61     CG2R61     CG2R61
   32    29    30    49	 9 ;      OG301     CG2R61     CG2R61      HGR61
   29    30    31    26	 9 ;     CG2R61     CG2R61     CG2R61     CG2R61
   29    30    31    50	 9 ;     CG2R61     CG2R61     CG2R61      HGR61
   49    30    31    26	 9 ;      HGR61     CG2R61     CG2R61     CG2R61
   49    30    31    50	 9 ;      HGR61     CG2R61     CG2R61      HGR61
   29    32    33    51	 9 ;     CG2R61      OG301      CG331       HGA3
   29    32    33    52	 9 ;     CG2R61      OG301      CG331       HGA3
   29    32    33    53	 9 ;     CG2R61      OG301      CG331       HGA3

[ dihedrals ]
;	ai	  aj	ak	  al funct			  c0			c1			  c2			c3
   24    18    23    46	 2

