Gromacs Runs On Most of All Computer Systems
   57
    1LIG      S    1  -1.158   0.575  -1.486
    1LIG     C1    2  -1.230   0.491  -1.610
    1LIG     C2    3  -1.168   0.507  -1.729
    1LIG     N1    4  -1.063   0.596  -1.730
    1LIG    HN1    5  -1.006   0.622  -1.811
    1LIG     C3    6  -1.051   0.642  -1.606
    1LIG     C4    7  -0.958   0.749  -1.560
    1LIG     C5    8  -1.235   0.421  -1.822
    1LIG     N2    9  -1.334   0.354  -1.770
    1LIG    HN2   10  -1.392   0.285  -1.817
    1LIG     C6   11  -1.346   0.398  -1.622
    1LIG     C7   12  -1.481   0.471  -1.605
    1LIG     C8   13  -1.598   0.397  -1.586
    1LIG     C9   14  -1.719   0.458  -1.548
    1LIG    C10   15  -1.723   0.598  -1.541
    1LIG    C11   16  -1.612   0.674  -1.573
    1LIG    C12   17  -1.493   0.612  -1.606
    1LIG    C13   18  -1.834   0.376  -1.511
    1LIG    C14   19  -1.893   0.380  -1.385
    1LIG     N3   20  -2.000   0.307  -1.348
    1LIG    C15   21  -2.049   0.226  -1.442
    1LIG    HN3   22  -2.040   0.312  -1.254
    1LIG     N4   23  -2.003   0.212  -1.567
    1LIG    C16   24  -1.896   0.288  -1.598
    1LIG    HN4   25  -2.046   0.148  -1.634
    1LIG    C17   26  -1.321   0.281  -1.524
    1LIG    C18   27  -1.279   0.157  -1.572
    1LIG    C19   28  -1.233   0.057  -1.485
    1LIG    C20   29  -1.232   0.079  -1.348
    1LIG    C21   30  -1.277   0.200  -1.297
    1LIG    C22   31  -1.320   0.301  -1.384
    1LIG      O   32  -1.187  -0.010  -1.253
    1LIG    C23   33  -1.113  -0.121  -1.301
    1LIG     N5   34  -1.190   0.418  -1.949
    1LIG     H1   35  -1.183   0.330  -1.999
    1LIG     H2   36  -1.183   0.504  -2.001
    1LIG    HC1   37  -0.897   0.783  -1.644
    1LIG    HC2   38  -1.016   0.833  -1.521
    1LIG    HC3   39  -0.894   0.710  -1.481
    1LIG     HC   40  -1.595   0.290  -1.599
    1LIG    HC4   41  -1.814   0.647  -1.511
    1LIG    HC5   42  -1.619   0.782  -1.572
    1LIG    HC6   43  -1.407   0.672  -1.633
    1LIG    HC7   44  -1.851   0.448  -1.312
    1LIG    HC8   45  -2.135   0.166  -1.415
    1LIG    HC9   46  -1.856   0.280  -1.698
    1LIG   HC10   47  -1.282   0.137  -1.678
    1LIG   HC11   48  -1.197  -0.037  -1.525
    1LIG   HC12   49  -1.280   0.216  -1.191
    1LIG   HC13   50  -1.352   0.396  -1.343
    1LIG   HC14   51  -1.075  -0.179  -1.217
    1LIG   HC15   52  -1.030  -0.086  -1.362
    1LIG   HC16   53  -1.178  -0.185  -1.361
    1LIG    H24   54  -0.976   0.567  -1.584
    1LIG    H25   55  -1.303   0.502  -1.848
    1LIG    H26   56  -1.960   0.459  -1.419
    1LIG    H27   57  -1.983   0.146  -1.409
   0.00000   0.00000   0.00000
