Great Red Oystrich Makes All Chemists Sane
   66
    1LIG     C1    1  -1.263   0.558  -1.834
    1LIG     C2    2  -1.387   0.651  -1.821
    1LIG     N1    3  -1.507   0.572  -1.779
    1LIG     H1    4  -1.573   0.565  -1.858
    1LIG     H2    5  -1.475   0.474  -1.766
    1LIG     C3    6  -1.587   0.613  -1.656
    1LIG     C4    7  -1.516   0.734  -1.592
    1LIG     C5    8  -1.728   0.658  -1.700
    1LIG     C6    9  -1.594   0.490  -1.564
    1LIG     C7   10  -1.600   0.509  -1.424
    1LIG     C8   11  -1.624   0.403  -1.334
    1LIG     C9   12  -1.635   0.274  -1.388
    1LIG    C10   13  -1.624   0.252  -1.525
    1LIG    C11   14  -1.605   0.359  -1.613
    1LIG    C12   15  -1.645   0.427  -1.183
    1LIG    C13   16  -1.708   0.306  -1.110
    1LIG    C14   17  -1.508   0.455  -1.118
    1LIG    C15   18  -1.738   0.547  -1.159
    1LIG     O1   19  -1.160   0.616  -1.753
    1LIG     H3   20  -1.197   0.696  -1.710
    1LIG    C16   21  -1.291   0.412  -1.793
    1LIG     N2   22  -1.286   0.324  -1.910
    1LIG    C17   23  -1.401   0.285  -1.976
    1LIG     O2   24  -1.512   0.325  -1.945
    1LIG    C18   25  -1.373   0.200  -2.097
    1LIG     H4   26  -1.203   0.268  -1.926
    1LIG    C19   27  -1.203   0.361  -1.675
    1LIG    C20   28  -1.159   0.217  -1.682
    1LIG    C21   29  -1.028   0.184  -1.720
    1LIG    C22   30  -0.989   0.049  -1.727
    1LIG     F1   31  -0.864   0.020  -1.764
    1LIG    C23   32  -1.077  -0.053  -1.696
    1LIG    C24   33  -1.205  -0.020  -1.655
    1LIG    C25   34  -1.245   0.113  -1.646
    1LIG     F2   35  -1.292  -0.117  -1.625
    1LIG     H5   36  -1.233   0.552  -1.937
    1LIG     H6   37  -1.406   0.696  -1.916
    1LIG     H7   38  -1.366   0.725  -1.748
    1LIG     H8   39  -1.515   0.816  -1.661
    1LIG     H9   40  -1.415   0.708  -1.567
    1LIG    H10   41  -1.568   0.764  -1.503
    1LIG    H11   42  -1.720   0.744  -1.763
    1LIG    H12   43  -1.786   0.683  -1.613
    1LIG    H13   44  -1.775   0.578  -1.753
    1LIG    H14   45  -1.587   0.604  -1.386
    1LIG    H15   46  -1.651   0.194  -1.325
    1LIG    H16   47  -1.631   0.156  -1.562
    1LIG    H17   48  -1.599   0.342  -1.714
    1LIG    H18   49  -1.803   0.284  -1.152
    1LIG    H19   50  -1.719   0.329  -1.006
    1LIG    H20   51  -1.643   0.221  -1.120
    1LIG    H21   52  -1.462   0.538  -1.166
    1LIG    H22   53  -1.446   0.368  -1.128
    1LIG    H23   54  -1.522   0.477  -1.014
    1LIG    H24   55  -1.699   0.634  -1.208
    1LIG    H25   56  -1.745   0.567  -1.054
    1LIG    H26   57  -1.836   0.526  -1.198
    1LIG    H27   58  -1.391   0.409  -1.753
    1LIG    H28   59  -1.465   0.173  -2.144
    1LIG    H29   60  -1.321   0.111  -2.066
    1LIG    H30   61  -1.312   0.255  -2.166
    1LIG    H31   62  -1.259   0.374  -1.584
    1LIG    H32   63  -1.113   0.419  -1.679
    1LIG    H33   64  -0.961   0.258  -1.743
    1LIG    H34   65  -1.047  -0.152  -1.704
    1LIG    H35   66  -1.341   0.135  -1.613
   0.00000   0.00000   0.00000
