; Created by cgenff_charmm2gmx.py

[ moleculetype ]
; Name			   nrexcl
LIG				 3

[ atoms ]
;	 nr		  type	resnr residue  atom   cgnr	   charge		mass  typeB    chargeB		massB
; residue	 1 LIG rtp LIG q	qsum
     1      CG311      1    LIG     C1      1      0.089     12.011   ;
     2      CG324      1    LIG     C2      2      0.208     12.011   ;
     3      NG3P2      1    LIG     N1      3     -0.514     14.007   ;
     4       HGP2      1    LIG     H1      4      0.341      1.008   ;
     5       HGP2      1    LIG     H2      5      0.341      1.008   ;
     6      CG301      1    LIG     C3      6      0.473     12.011   ;
     7      CG331      1    LIG     C4      7     -0.300     12.011   ;
     8      CG331      1    LIG     C5      8     -0.300     12.011   ;
     9     CG2R61      1    LIG     C6      9      0.041     12.011   ;
    10     CG2R61      1    LIG     C7     10     -0.126     12.011   ;
    11     CG2R61      1    LIG     C8     11      0.082     12.011   ;
    12     CG2R61      1    LIG     C9     12     -0.121     12.011   ;
    13     CG2R61      1    LIG    C10     13     -0.110     12.011   ;
    14     CG2R61      1    LIG    C11     14     -0.121     12.011   ;
    15      CG301      1    LIG    C12     15     -0.018     12.011   ;
    16      CG331      1    LIG    C13     16     -0.289     12.011   ;
    17      CG331      1    LIG    C14     17     -0.289     12.011   ;
    18      CG331      1    LIG    C15     18     -0.289     12.011   ;
    19      OG311      1    LIG     O1     19     -0.625     15.999   ;
    20       HGP1      1    LIG     H3     20      0.415      1.008   ;
    21      CG311      1    LIG    C16     21     -0.007     12.011   ;
    22      NG2S1      1    LIG     N2     22     -0.339     14.007   ;
    23      CG2O1      1    LIG    C17     23      0.488     12.011   ;
    24      OG2D1      1    LIG     O2     24     -0.509     15.999   ;
    25      CG331      1    LIG    C18     25     -0.270     12.011   ;
    26       HGP1      1    LIG     H4     26      0.261      1.008   ;
    27      CG321      1    LIG    C19     27     -0.153     12.011   ;
    28     CG2R61      1    LIG    C20     28      0.057     12.011   ;
    29     CG2R61      1    LIG    C21     29     -0.218     12.011   ;
    30     CG2R66      1    LIG    C22     30      0.261     12.011   ;
    31       FGR1      1    LIG     F1     31     -0.210     18.998   ;
    32     CG2R61      1    LIG    C23     32     -0.240     12.011   ;
    33     CG2R66      1    LIG    C24     33      0.261     12.011   ;
    34     CG2R61      1    LIG    C25     34     -0.218     12.011   ;
    35       FGR1      1    LIG     F2     35     -0.210     18.998   ;
    36       HGA1      1    LIG     H5     36      0.090      1.008   ;
    37       HGA2      1    LIG     H6     37      0.090      1.008   ;
    38       HGA2      1    LIG     H7     38      0.090      1.008   ;
    39       HGA3      1    LIG     H8     39      0.090      1.008   ;
    40       HGA3      1    LIG     H9     40      0.090      1.008   ;
    41       HGA3      1    LIG    H10     41      0.090      1.008   ;
    42       HGA3      1    LIG    H11     42      0.090      1.008   ;
    43       HGA3      1    LIG    H12     43      0.090      1.008   ;
    44       HGA3      1    LIG    H13     44      0.090      1.008   ;
    45      HGR61      1    LIG    H14     45      0.116      1.008   ;
    46      HGR61      1    LIG    H15     46      0.116      1.008   ;
    47      HGR61      1    LIG    H16     47      0.116      1.008   ;
    48      HGR61      1    LIG    H17     48      0.116      1.008   ;
    49       HGA3      1    LIG    H18     49      0.090      1.008   ;
    50       HGA3      1    LIG    H19     50      0.090      1.008   ;
    51       HGA3      1    LIG    H20     51      0.090      1.008   ;
    52       HGA3      1    LIG    H21     52      0.090      1.008   ;
    53       HGA3      1    LIG    H22     53      0.090      1.008   ;
    54       HGA3      1    LIG    H23     54      0.090      1.008   ;
    55       HGA3      1    LIG    H24     55      0.090      1.008   ;
    56       HGA3      1    LIG    H25     56      0.090      1.008   ;
    57       HGA3      1    LIG    H26     57      0.090      1.008   ;
    58       HGA1      1    LIG    H27     58      0.090      1.008   ;
    59       HGA3      1    LIG    H28     59      0.090      1.008   ;
    60       HGA3      1    LIG    H29     60      0.090      1.008   ;
    61       HGA3      1    LIG    H30     61      0.090      1.008   ;
    62       HGA2      1    LIG    H31     62      0.090      1.008   ;
    63       HGA2      1    LIG    H32     63      0.090      1.008   ;
    64      HGR62      1    LIG    H33     64      0.174      1.008   ;
    65      HGR62      1    LIG    H34     65      0.186      1.008   ;
    66      HGR62      1    LIG    H35     66      0.174      1.008   ;

[ bonds ]
;	ai	  aj funct			  c0			c1			  c2			c3
    1     2	 1 ;       CG311      CG324
    1    21	 1 ;       CG311      CG311
    1    19	 1 ;       CG311      OG311
    1    36	 1 ;       CG311       HGA1
    2     3	 1 ;       CG324      NG3P2
    2    37	 1 ;       CG324       HGA2
    2    38	 1 ;       CG324       HGA2
    3     4	 1 ;       NG3P2       HGP2
    3     5	 1 ;       NG3P2       HGP2
    3     6	 1 ;       NG3P2      CG301
    6     8	 1 ;       CG301      CG331
    6     7	 1 ;       CG301      CG331
    6     9	 1 ;       CG301     CG2R61
    7    39	 1 ;       CG331       HGA3
    7    40	 1 ;       CG331       HGA3
    7    41	 1 ;       CG331       HGA3
    8    42	 1 ;       CG331       HGA3
    8    43	 1 ;       CG331       HGA3
    8    44	 1 ;       CG331       HGA3
    9    14	 1 ;      CG2R61     CG2R61
    9    10	 1 ;      CG2R61     CG2R61
   10    11	 1 ;      CG2R61     CG2R61
   10    45	 1 ;      CG2R61      HGR61
   11    12	 1 ;      CG2R61     CG2R61
   11    15	 1 ;      CG2R61      CG301
   12    13	 1 ;      CG2R61     CG2R61
   12    46	 1 ;      CG2R61      HGR61
   13    14	 1 ;      CG2R61     CG2R61
   13    47	 1 ;      CG2R61      HGR61
   14    48	 1 ;      CG2R61      HGR61
   15    18	 1 ;       CG301      CG331
   15    17	 1 ;       CG301      CG331
   15    16	 1 ;       CG301      CG331
   16    49	 1 ;       CG331       HGA3
   16    50	 1 ;       CG331       HGA3
   16    51	 1 ;       CG331       HGA3
   17    52	 1 ;       CG331       HGA3
   17    53	 1 ;       CG331       HGA3
   17    54	 1 ;       CG331       HGA3
   18    55	 1 ;       CG331       HGA3
   18    56	 1 ;       CG331       HGA3
   18    57	 1 ;       CG331       HGA3
   19    20	 1 ;       OG311       HGP1
   21    22	 1 ;       CG311      NG2S1
   21    27	 1 ;       CG311      CG321
   21    58	 1 ;       CG311       HGA1
   22    23	 1 ;       NG2S1      CG2O1
   22    26	 1 ;       NG2S1       HGP1
   23    25	 1 ;       CG2O1      CG331
   23    24	 1 ;       CG2O1      OG2D1
   25    59	 1 ;       CG331       HGA3
   25    60	 1 ;       CG331       HGA3
   25    61	 1 ;       CG331       HGA3
   27    28	 1 ;       CG321     CG2R61
   27    62	 1 ;       CG321       HGA2
   27    63	 1 ;       CG321       HGA2
   28    29	 1 ;      CG2R61     CG2R61
   28    34	 1 ;      CG2R61     CG2R61
   29    30	 1 ;      CG2R61     CG2R66
   29    64	 1 ;      CG2R61      HGR62
   30    31	 1 ;      CG2R66       FGR1
   30    32	 1 ;      CG2R66     CG2R61
   32    33	 1 ;      CG2R61     CG2R66
   32    65	 1 ;      CG2R61      HGR62
   33    34	 1 ;      CG2R66     CG2R61
   33    35	 1 ;      CG2R66       FGR1
   34    66	 1 ;      CG2R61      HGR62

[ pairs ]
;	ai	  aj funct			  c0			c1			  c2			c3
    1     4	 1
    1     5	 1
    1     6	 1
    1    23	 1
    1    26	 1
    1    28	 1
    1    62	 1
    1    63	 1
    2    22	 1
    2    27	 1
    2    58	 1
    2    20	 1
    2     8	 1
    2     7	 1
    2     9	 1
    3    21	 1
    3    19	 1
    3    36	 1
    3    42	 1
    3    43	 1
    3    44	 1
    3    39	 1
    3    40	 1
    3    41	 1
    3    14	 1
    3    10	 1
    4    37	 1
    4    38	 1
    4     8	 1
    4     7	 1
    4     9	 1
    5    37	 1
    5    38	 1
    5     8	 1
    5     7	 1
    5     9	 1
    6    37	 1
    6    38	 1
    6    13	 1
    6    48	 1
    6    11	 1
    6    45	 1
    7    42	 1
    7    43	 1
    7    44	 1
    7    14	 1
    7    10	 1
    8    39	 1
    8    40	 1
    8    41	 1
    8    14	 1
    8    10	 1
    9    42	 1
    9    43	 1
    9    44	 1
    9    39	 1
    9    40	 1
    9    41	 1
    9    12	 1
    9    15	 1
    9    47	 1
   10    13	 1
   10    48	 1
   10    46	 1
   10    18	 1
   10    17	 1
   10    16	 1
   11    14	 1
   11    47	 1
   11    55	 1
   11    56	 1
   11    57	 1
   11    52	 1
   11    53	 1
   11    54	 1
   11    49	 1
   11    50	 1
   11    51	 1
   12    45	 1
   12    18	 1
   12    17	 1
   12    16	 1
   12    48	 1
   13    15	 1
   14    45	 1
   14    46	 1
   15    45	 1
   15    46	 1
   16    55	 1
   16    56	 1
   16    57	 1
   16    52	 1
   16    53	 1
   16    54	 1
   17    55	 1
   17    56	 1
   17    57	 1
   17    49	 1
   17    50	 1
   17    51	 1
   18    52	 1
   18    53	 1
   18    54	 1
   18    49	 1
   18    50	 1
   18    51	 1
   19    37	 1
   19    38	 1
   19    22	 1
   19    27	 1
   19    58	 1
   20    21	 1
   20    36	 1
   21    37	 1
   21    38	 1
   21    25	 1
   21    24	 1
   21    29	 1
   21    34	 1
   22    36	 1
   22    28	 1
   22    62	 1
   22    63	 1
   22    59	 1
   22    60	 1
   22    61	 1
   23    27	 1
   23    58	 1
   24    26	 1
   24    59	 1
   24    60	 1
   24    61	 1
   25    26	 1
   26    27	 1
   26    58	 1
   27    36	 1
   27    30	 1
   27    64	 1
   27    33	 1
   27    66	 1
   28    58	 1
   28    31	 1
   28    32	 1
   28    35	 1
   29    62	 1
   29    63	 1
   29    33	 1
   29    66	 1
   29    65	 1
   30    34	 1
   30    35	 1
   31    64	 1
   31    33	 1
   31    65	 1
   32    64	 1
   32    66	 1
   34    62	 1
   34    63	 1
   34    64	 1
   34    65	 1
   35    65	 1
   35    66	 1
   36    37	 1
   36    38	 1
   36    58	 1
   46    47	 1
   47    48	 1
   58    62	 1
   58    63	 1

[ angles ]
;	ai	  aj	ak funct			c0			  c1			c2			  c3
    2     1    21	5 ;      CG324      CG311      CG311
    2     1    19	5 ;      CG324      CG311      OG311
    2     1    36	5 ;      CG324      CG311       HGA1
   21     1    19	5 ;      CG311      CG311      OG311
   21     1    36	5 ;      CG311      CG311       HGA1
   19     1    36	5 ;      OG311      CG311       HGA1
    1     2     3	5 ;      CG311      CG324      NG3P2
    1     2    37	5 ;      CG311      CG324       HGA2
    1     2    38	5 ;      CG311      CG324       HGA2
    3     2    37	5 ;      NG3P2      CG324       HGA2
    3     2    38	5 ;      NG3P2      CG324       HGA2
   37     2    38	5 ;       HGA2      CG324       HGA2
    4     3     2	5 ;       HGP2      NG3P2      CG324
    4     3     5	5 ;       HGP2      NG3P2       HGP2
    4     3     6	5 ;       HGP2      NG3P2      CG301
    2     3     5	5 ;      CG324      NG3P2       HGP2
    2     3     6	5 ;      CG324      NG3P2      CG301
    5     3     6	5 ;       HGP2      NG3P2      CG301
    3     6     8	5 ;      NG3P2      CG301      CG331
    3     6     7	5 ;      NG3P2      CG301      CG331
    3     6     9	5 ;      NG3P2      CG301     CG2R61
    8     6     7	5 ;      CG331      CG301      CG331
    8     6     9	5 ;      CG331      CG301     CG2R61
    7     6     9	5 ;      CG331      CG301     CG2R61
    6     7    39	5 ;      CG301      CG331       HGA3
    6     7    40	5 ;      CG301      CG331       HGA3
    6     7    41	5 ;      CG301      CG331       HGA3
   39     7    40	5 ;       HGA3      CG331       HGA3
   39     7    41	5 ;       HGA3      CG331       HGA3
   40     7    41	5 ;       HGA3      CG331       HGA3
    6     8    42	5 ;      CG301      CG331       HGA3
    6     8    43	5 ;      CG301      CG331       HGA3
    6     8    44	5 ;      CG301      CG331       HGA3
   42     8    43	5 ;       HGA3      CG331       HGA3
   42     8    44	5 ;       HGA3      CG331       HGA3
   43     8    44	5 ;       HGA3      CG331       HGA3
    6     9    14	5 ;      CG301     CG2R61     CG2R61
    6     9    10	5 ;      CG301     CG2R61     CG2R61
   14     9    10	5 ;     CG2R61     CG2R61     CG2R61
    9    10    11	5 ;     CG2R61     CG2R61     CG2R61
    9    10    45	5 ;     CG2R61     CG2R61      HGR61
   11    10    45	5 ;     CG2R61     CG2R61      HGR61
   10    11    12	5 ;     CG2R61     CG2R61     CG2R61
   10    11    15	5 ;     CG2R61     CG2R61      CG301
   12    11    15	5 ;     CG2R61     CG2R61      CG301
   13    12    11	5 ;     CG2R61     CG2R61     CG2R61
   13    12    46	5 ;     CG2R61     CG2R61      HGR61
   11    12    46	5 ;     CG2R61     CG2R61      HGR61
   14    13    12	5 ;     CG2R61     CG2R61     CG2R61
   14    13    47	5 ;     CG2R61     CG2R61      HGR61
   12    13    47	5 ;     CG2R61     CG2R61      HGR61
    9    14    13	5 ;     CG2R61     CG2R61     CG2R61
    9    14    48	5 ;     CG2R61     CG2R61      HGR61
   13    14    48	5 ;     CG2R61     CG2R61      HGR61
   11    15    18	5 ;     CG2R61      CG301      CG331
   11    15    17	5 ;     CG2R61      CG301      CG331
   11    15    16	5 ;     CG2R61      CG301      CG331
   18    15    17	5 ;      CG331      CG301      CG331
   18    15    16	5 ;      CG331      CG301      CG331
   17    15    16	5 ;      CG331      CG301      CG331
   15    16    49	5 ;      CG301      CG331       HGA3
   15    16    50	5 ;      CG301      CG331       HGA3
   15    16    51	5 ;      CG301      CG331       HGA3
   49    16    50	5 ;       HGA3      CG331       HGA3
   49    16    51	5 ;       HGA3      CG331       HGA3
   50    16    51	5 ;       HGA3      CG331       HGA3
   15    17    52	5 ;      CG301      CG331       HGA3
   15    17    53	5 ;      CG301      CG331       HGA3
   15    17    54	5 ;      CG301      CG331       HGA3
   52    17    53	5 ;       HGA3      CG331       HGA3
   52    17    54	5 ;       HGA3      CG331       HGA3
   53    17    54	5 ;       HGA3      CG331       HGA3
   15    18    55	5 ;      CG301      CG331       HGA3
   15    18    56	5 ;      CG301      CG331       HGA3
   15    18    57	5 ;      CG301      CG331       HGA3
   55    18    56	5 ;       HGA3      CG331       HGA3
   55    18    57	5 ;       HGA3      CG331       HGA3
   56    18    57	5 ;       HGA3      CG331       HGA3
    1    19    20	5 ;      CG311      OG311       HGP1
   22    21     1	5 ;      NG2S1      CG311      CG311
   22    21    27	5 ;      NG2S1      CG311      CG321
   22    21    58	5 ;      NG2S1      CG311       HGA1
    1    21    27	5 ;      CG311      CG311      CG321
    1    21    58	5 ;      CG311      CG311       HGA1
   27    21    58	5 ;      CG321      CG311       HGA1
   23    22    26	5 ;      CG2O1      NG2S1       HGP1
   23    22    21	5 ;      CG2O1      NG2S1      CG311
   26    22    21	5 ;       HGP1      NG2S1      CG311
   25    23    24	5 ;      CG331      CG2O1      OG2D1
   25    23    22	5 ;      CG331      CG2O1      NG2S1
   24    23    22	5 ;      OG2D1      CG2O1      NG2S1
   23    25    59	5 ;      CG2O1      CG331       HGA3
   23    25    60	5 ;      CG2O1      CG331       HGA3
   23    25    61	5 ;      CG2O1      CG331       HGA3
   59    25    60	5 ;       HGA3      CG331       HGA3
   59    25    61	5 ;       HGA3      CG331       HGA3
   60    25    61	5 ;       HGA3      CG331       HGA3
   21    27    28	5 ;      CG311      CG321     CG2R61
   21    27    62	5 ;      CG311      CG321       HGA2
   21    27    63	5 ;      CG311      CG321       HGA2
   28    27    62	5 ;     CG2R61      CG321       HGA2
   28    27    63	5 ;     CG2R61      CG321       HGA2
   62    27    63	5 ;       HGA2      CG321       HGA2
   29    28    27	5 ;     CG2R61     CG2R61      CG321
   29    28    34	5 ;     CG2R61     CG2R61     CG2R61
   27    28    34	5 ;      CG321     CG2R61     CG2R61
   30    29    28	5 ;     CG2R66     CG2R61     CG2R61
   30    29    64	5 ;     CG2R66     CG2R61      HGR62
   28    29    64	5 ;     CG2R61     CG2R61      HGR62
   31    30    29	5 ;       FGR1     CG2R66     CG2R61
   31    30    32	5 ;       FGR1     CG2R66     CG2R61
   29    30    32	5 ;     CG2R61     CG2R66     CG2R61
   30    32    33	5 ;     CG2R66     CG2R61     CG2R66
   30    32    65	5 ;     CG2R66     CG2R61      HGR62
   33    32    65	5 ;     CG2R66     CG2R61      HGR62
   32    33    34	5 ;     CG2R61     CG2R66     CG2R61
   32    33    35	5 ;     CG2R61     CG2R66       FGR1
   34    33    35	5 ;     CG2R61     CG2R66       FGR1
   28    34    33	5 ;     CG2R61     CG2R61     CG2R66
   28    34    66	5 ;     CG2R61     CG2R61      HGR62
   33    34    66	5 ;     CG2R66     CG2R61      HGR62

[ dihedrals ]
;	ai	  aj	ak	  al funct			  c0			c1			  c2			c3			  c4			c5
   21     1     2     3	 9 ;      CG311      CG311      CG324      NG3P2
   21     1     2    37	 9 ;      CG311      CG311      CG324       HGA2
   21     1     2    38	 9 ;      CG311      CG311      CG324       HGA2
   19     1     2     3	 9 ;      OG311      CG311      CG324      NG3P2
   19     1     2    37	 9 ;      OG311      CG311      CG324       HGA2
   19     1     2    38	 9 ;      OG311      CG311      CG324       HGA2
   36     1     2     3	 9 ;       HGA1      CG311      CG324      NG3P2
   36     1     2    37	 9 ;       HGA1      CG311      CG324       HGA2
   36     1     2    38	 9 ;       HGA1      CG311      CG324       HGA2
    2     1    21    22	 9 ;      CG324      CG311      CG311      NG2S1
    2     1    21    27	 9 ;      CG324      CG311      CG311      CG321
    2     1    21    58	 9 ;      CG324      CG311      CG311       HGA1
   19     1    21    22	 9 ;      OG311      CG311      CG311      NG2S1
   19     1    21    27	 9 ;      OG311      CG311      CG311      CG321
   19     1    21    58	 9 ;      OG311      CG311      CG311       HGA1
   36     1    21    22	 9 ;       HGA1      CG311      CG311      NG2S1
   36     1    21    27	 9 ;       HGA1      CG311      CG311      CG321
   36     1    21    58	 9 ;       HGA1      CG311      CG311       HGA1
    2     1    19    20	 9 ;      CG324      CG311      OG311       HGP1
   21     1    19    20	 9 ;      CG311      CG311      OG311       HGP1
   36     1    19    20	 9 ;       HGA1      CG311      OG311       HGP1
    1     2     3     4	 9 ;      CG311      CG324      NG3P2       HGP2
    1     2     3     5	 9 ;      CG311      CG324      NG3P2       HGP2
    1     2     3     6	 9 ;      CG311      CG324      NG3P2      CG301
   37     2     3     4	 9 ;       HGA2      CG324      NG3P2       HGP2
   37     2     3     5	 9 ;       HGA2      CG324      NG3P2       HGP2
   37     2     3     6	 9 ;       HGA2      CG324      NG3P2      CG301
   38     2     3     4	 9 ;       HGA2      CG324      NG3P2       HGP2
   38     2     3     5	 9 ;       HGA2      CG324      NG3P2       HGP2
   38     2     3     6	 9 ;       HGA2      CG324      NG3P2      CG301
    4     3     6     8	 9 ;       HGP2      NG3P2      CG301      CG331
    4     3     6     7	 9 ;       HGP2      NG3P2      CG301      CG331
    4     3     6     9	 9 ;       HGP2      NG3P2      CG301     CG2R61
    2     3     6     8	 9 ;      CG324      NG3P2      CG301      CG331
    2     3     6     7	 9 ;      CG324      NG3P2      CG301      CG331
    2     3     6     9	 9 ;      CG324      NG3P2      CG301     CG2R61
    5     3     6     8	 9 ;       HGP2      NG3P2      CG301      CG331
    5     3     6     7	 9 ;       HGP2      NG3P2      CG301      CG331
    5     3     6     9	 9 ;       HGP2      NG3P2      CG301     CG2R61
    3     6     8    42	 9 ;      NG3P2      CG301      CG331       HGA3
    3     6     8    43	 9 ;      NG3P2      CG301      CG331       HGA3
    3     6     8    44	 9 ;      NG3P2      CG301      CG331       HGA3
    7     6     8    42	 9 ;      CG331      CG301      CG331       HGA3
    7     6     8    43	 9 ;      CG331      CG301      CG331       HGA3
    7     6     8    44	 9 ;      CG331      CG301      CG331       HGA3
    9     6     8    42	 9 ;     CG2R61      CG301      CG331       HGA3
    9     6     8    43	 9 ;     CG2R61      CG301      CG331       HGA3
    9     6     8    44	 9 ;     CG2R61      CG301      CG331       HGA3
    3     6     7    39	 9 ;      NG3P2      CG301      CG331       HGA3
    3     6     7    40	 9 ;      NG3P2      CG301      CG331       HGA3
    3     6     7    41	 9 ;      NG3P2      CG301      CG331       HGA3
    8     6     7    39	 9 ;      CG331      CG301      CG331       HGA3
    8     6     7    40	 9 ;      CG331      CG301      CG331       HGA3
    8     6     7    41	 9 ;      CG331      CG301      CG331       HGA3
    9     6     7    39	 9 ;     CG2R61      CG301      CG331       HGA3
    9     6     7    40	 9 ;     CG2R61      CG301      CG331       HGA3
    9     6     7    41	 9 ;     CG2R61      CG301      CG331       HGA3
    3     6     9    14	 9 ;      NG3P2      CG301     CG2R61     CG2R61
    3     6     9    10	 9 ;      NG3P2      CG301     CG2R61     CG2R61
    8     6     9    14	 9 ;      CG331      CG301     CG2R61     CG2R61
    8     6     9    10	 9 ;      CG331      CG301     CG2R61     CG2R61
    7     6     9    14	 9 ;      CG331      CG301     CG2R61     CG2R61
    7     6     9    10	 9 ;      CG331      CG301     CG2R61     CG2R61
    6     9    14    13	 9 ;      CG301     CG2R61     CG2R61     CG2R61
    6     9    14    48	 9 ;      CG301     CG2R61     CG2R61      HGR61
   10     9    14    13	 9 ;     CG2R61     CG2R61     CG2R61     CG2R61
   10     9    14    48	 9 ;     CG2R61     CG2R61     CG2R61      HGR61
    6     9    10    11	 9 ;      CG301     CG2R61     CG2R61     CG2R61
    6     9    10    45	 9 ;      CG301     CG2R61     CG2R61      HGR61
   14     9    10    11	 9 ;     CG2R61     CG2R61     CG2R61     CG2R61
   14     9    10    45	 9 ;     CG2R61     CG2R61     CG2R61      HGR61
    9    10    11    12	 9 ;     CG2R61     CG2R61     CG2R61     CG2R61
    9    10    11    15	 9 ;     CG2R61     CG2R61     CG2R61      CG301
   45    10    11    12	 9 ;      HGR61     CG2R61     CG2R61     CG2R61
   45    10    11    15	 9 ;      HGR61     CG2R61     CG2R61      CG301
   10    11    12    13	 9 ;     CG2R61     CG2R61     CG2R61     CG2R61
   10    11    12    46	 9 ;     CG2R61     CG2R61     CG2R61      HGR61
   15    11    12    13	 9 ;      CG301     CG2R61     CG2R61     CG2R61
   15    11    12    46	 9 ;      CG301     CG2R61     CG2R61      HGR61
   10    11    15    18	 9 ;     CG2R61     CG2R61      CG301      CG331
   10    11    15    17	 9 ;     CG2R61     CG2R61      CG301      CG331
   10    11    15    16	 9 ;     CG2R61     CG2R61      CG301      CG331
   12    11    15    18	 9 ;     CG2R61     CG2R61      CG301      CG331
   12    11    15    17	 9 ;     CG2R61     CG2R61      CG301      CG331
   12    11    15    16	 9 ;     CG2R61     CG2R61      CG301      CG331
   11    12    13    14	 9 ;     CG2R61     CG2R61     CG2R61     CG2R61
   11    12    13    47	 9 ;     CG2R61     CG2R61     CG2R61      HGR61
   46    12    13    14	 9 ;      HGR61     CG2R61     CG2R61     CG2R61
   46    12    13    47	 9 ;      HGR61     CG2R61     CG2R61      HGR61
   12    13    14     9	 9 ;     CG2R61     CG2R61     CG2R61     CG2R61
   12    13    14    48	 9 ;     CG2R61     CG2R61     CG2R61      HGR61
   47    13    14     9	 9 ;      HGR61     CG2R61     CG2R61     CG2R61
   47    13    14    48	 9 ;      HGR61     CG2R61     CG2R61      HGR61
   11    15    18    55	 9 ;     CG2R61      CG301      CG331       HGA3
   11    15    18    56	 9 ;     CG2R61      CG301      CG331       HGA3
   11    15    18    57	 9 ;     CG2R61      CG301      CG331       HGA3
   17    15    18    55	 9 ;      CG331      CG301      CG331       HGA3
   17    15    18    56	 9 ;      CG331      CG301      CG331       HGA3
   17    15    18    57	 9 ;      CG331      CG301      CG331       HGA3
   16    15    18    55	 9 ;      CG331      CG301      CG331       HGA3
   16    15    18    56	 9 ;      CG331      CG301      CG331       HGA3
   16    15    18    57	 9 ;      CG331      CG301      CG331       HGA3
   11    15    17    52	 9 ;     CG2R61      CG301      CG331       HGA3
   11    15    17    53	 9 ;     CG2R61      CG301      CG331       HGA3
   11    15    17    54	 9 ;     CG2R61      CG301      CG331       HGA3
   18    15    17    52	 9 ;      CG331      CG301      CG331       HGA3
   18    15    17    53	 9 ;      CG331      CG301      CG331       HGA3
   18    15    17    54	 9 ;      CG331      CG301      CG331       HGA3
   16    15    17    52	 9 ;      CG331      CG301      CG331       HGA3
   16    15    17    53	 9 ;      CG331      CG301      CG331       HGA3
   16    15    17    54	 9 ;      CG331      CG301      CG331       HGA3
   11    15    16    49	 9 ;     CG2R61      CG301      CG331       HGA3
   11    15    16    50	 9 ;     CG2R61      CG301      CG331       HGA3
   11    15    16    51	 9 ;     CG2R61      CG301      CG331       HGA3
   18    15    16    49	 9 ;      CG331      CG301      CG331       HGA3
   18    15    16    50	 9 ;      CG331      CG301      CG331       HGA3
   18    15    16    51	 9 ;      CG331      CG301      CG331       HGA3
   17    15    16    49	 9 ;      CG331      CG301      CG331       HGA3
   17    15    16    50	 9 ;      CG331      CG301      CG331       HGA3
   17    15    16    51	 9 ;      CG331      CG301      CG331       HGA3
    1    21    22    23	 9 ;      CG311      CG311      NG2S1      CG2O1
    1    21    22    26	 9 ;      CG311      CG311      NG2S1       HGP1
   27    21    22    23	 9 ;      CG321      CG311      NG2S1      CG2O1
   27    21    22    26	 9 ;      CG321      CG311      NG2S1       HGP1
   58    21    22    23	 9 ;       HGA1      CG311      NG2S1      CG2O1
   58    21    22    26	 9 ;       HGA1      CG311      NG2S1       HGP1
   22    21    27    28	 9 ;      NG2S1      CG311      CG321     CG2R61
   22    21    27    62	 9 ;      NG2S1      CG311      CG321       HGA2
   22    21    27    63	 9 ;      NG2S1      CG311      CG321       HGA2
    1    21    27    28	 9 ;      CG311      CG311      CG321     CG2R61
    1    21    27    62	 9 ;      CG311      CG311      CG321       HGA2
    1    21    27    63	 9 ;      CG311      CG311      CG321       HGA2
   58    21    27    28	 9 ;       HGA1      CG311      CG321     CG2R61
   58    21    27    62	 9 ;       HGA1      CG311      CG321       HGA2
   58    21    27    63	 9 ;       HGA1      CG311      CG321       HGA2
   26    22    23    25	 9 ;       HGP1      NG2S1      CG2O1      CG331
   26    22    23    24	 9 ;       HGP1      NG2S1      CG2O1      OG2D1
   21    22    23    25	 9 ;      CG311      NG2S1      CG2O1      CG331
   21    22    23    24	 9 ;      CG311      NG2S1      CG2O1      OG2D1
   24    23    25    59	 9 ;      OG2D1      CG2O1      CG331       HGA3
   24    23    25    60	 9 ;      OG2D1      CG2O1      CG331       HGA3
   24    23    25    61	 9 ;      OG2D1      CG2O1      CG331       HGA3
   22    23    25    59	 9 ;      NG2S1      CG2O1      CG331       HGA3
   22    23    25    60	 9 ;      NG2S1      CG2O1      CG331       HGA3
   22    23    25    61	 9 ;      NG2S1      CG2O1      CG331       HGA3
   21    27    28    29	 9 ;      CG311      CG321     CG2R61     CG2R61
   21    27    28    34	 9 ;      CG311      CG321     CG2R61     CG2R61
   62    27    28    29	 9 ;       HGA2      CG321     CG2R61     CG2R61
   62    27    28    34	 9 ;       HGA2      CG321     CG2R61     CG2R61
   63    27    28    29	 9 ;       HGA2      CG321     CG2R61     CG2R61
   63    27    28    34	 9 ;       HGA2      CG321     CG2R61     CG2R61
   27    28    29    30	 9 ;      CG321     CG2R61     CG2R61     CG2R66
   27    28    29    64	 9 ;      CG321     CG2R61     CG2R61      HGR62
   34    28    29    30	 9 ;     CG2R61     CG2R61     CG2R61     CG2R66
   34    28    29    64	 9 ;     CG2R61     CG2R61     CG2R61      HGR62
   29    28    34    33	 9 ;     CG2R61     CG2R61     CG2R61     CG2R66
   29    28    34    66	 9 ;     CG2R61     CG2R61     CG2R61      HGR62
   27    28    34    33	 9 ;      CG321     CG2R61     CG2R61     CG2R66
   27    28    34    66	 9 ;      CG321     CG2R61     CG2R61      HGR62
   28    29    30    31	 9 ;     CG2R61     CG2R61     CG2R66       FGR1
   28    29    30    32	 9 ;     CG2R61     CG2R61     CG2R66     CG2R61
   64    29    30    31	 9 ;      HGR62     CG2R61     CG2R66       FGR1
   64    29    30    32	 9 ;      HGR62     CG2R61     CG2R66     CG2R61
   31    30    32    33	 9 ;       FGR1     CG2R66     CG2R61     CG2R66
   31    30    32    65	 9 ;       FGR1     CG2R66     CG2R61      HGR62
   29    30    32    33	 9 ;     CG2R61     CG2R66     CG2R61     CG2R66
   29    30    32    65	 9 ;     CG2R61     CG2R66     CG2R61      HGR62
   30    32    33    34	 9 ;     CG2R66     CG2R61     CG2R66     CG2R61
   30    32    33    35	 9 ;     CG2R66     CG2R61     CG2R66       FGR1
   65    32    33    34	 9 ;      HGR62     CG2R61     CG2R66     CG2R61
   65    32    33    35	 9 ;      HGR62     CG2R61     CG2R66       FGR1
   32    33    34    28	 9 ;     CG2R61     CG2R66     CG2R61     CG2R61
   32    33    34    66	 9 ;     CG2R61     CG2R66     CG2R61      HGR62
   35    33    34    28	 9 ;       FGR1     CG2R66     CG2R61     CG2R61
   35    33    34    66	 9 ;       FGR1     CG2R66     CG2R61      HGR62

[ dihedrals ]
;	ai	  aj	ak	  al funct			  c0			c1			  c2			c3
   23    25    22    24	 2

