; Created by cgenff_charmm2gmx.py

[ moleculetype ]
; Name			   nrexcl
LIG				 3

[ atoms ]
;	 nr		  type	resnr residue  atom   cgnr	   charge		mass  typeB    chargeB		massB
; residue	 1 LIG rtp LIG q	qsum
     1      CG2O1      1    LIG     C1      1      0.302     12.011   ;
     2      OG2D1      1    LIG     O1      2     -0.463     15.999   ;
     3      NG2S1      1    LIG     N1      3     -0.226     14.007   ;
     4       HGP1      1    LIG     H1      4      0.262      1.008   ;
     5     CG2R61      1    LIG     C2      5     -0.102     12.011   ;
     6     CG2R61      1    LIG     C3      6     -0.003     12.011   ;
     7     CG2R61      1    LIG     C4      7     -0.161     12.011   ;
     8     CG2R61      1    LIG     C5      8     -0.045     12.011   ;
     9     CG2R61      1    LIG     C6      9      0.135     12.011   ;
    10     CG2R61      1    LIG     C7     10     -0.046     12.011   ;
    11      CG2O1      1    LIG     C8     11      0.400     12.011   ;
    12      OG2D1      1    LIG     O2     12     -0.476     15.999   ;
    13      NG2S0      1    LIG     N2     13     -0.418     14.007   ;
    14      CG321      1    LIG     C9     14      0.096     12.011   ;
    15      CG321      1    LIG    C10     15     -0.170     12.011   ;
    16      CG331      1    LIG    C11     16     -0.285     12.011   ;
    17      CG321      1    LIG    C12     17      0.096     12.011   ;
    18      CG321      1    LIG    C13     18     -0.170     12.011   ;
    19      CG331      1    LIG    C14     19     -0.285     12.011   ;
    20      SG3O2      1    LIG      S     20      0.394     32.060   ;
    21      OG2P1      1    LIG     O3     21     -0.362     15.999   ;
    22      OG2P1      1    LIG     O4     22     -0.362     15.999   ;
    23     CG2R61      1    LIG    C15     23      0.131     12.011   ;
    24     CG2R61      1    LIG    C16     24     -0.099     12.011   ;
    25     CG2R61      1    LIG    C17     25     -0.118     12.011   ;
    26     CG2R61      1    LIG    C18     26      0.211     12.011   ;
    27     CG2R61      1    LIG    C19     27     -0.118     12.011   ;
    28     CG2R61      1    LIG    C20     28     -0.099     12.011   ;
    29      OG301      1    LIG     O5     29     -0.383     15.999   ;
    30      CG331      1    LIG    C21     30     -0.094     12.011   ;
    31      CG311      1    LIG    C22     31      0.010     12.011   ;
    32      CG321      1    LIG    C23     32     -0.153     12.011   ;
    33     CG2R61      1    LIG    C24     33      0.057     12.011   ;
    34     CG2R61      1    LIG    C25     34     -0.218     12.011   ;
    35     CG2R66      1    LIG    C26     35      0.261     12.011   ;
    36       FGR1      1    LIG     F1     36     -0.210     18.998   ;
    37     CG2R61      1    LIG    C27     37     -0.240     12.011   ;
    38     CG2R66      1    LIG    C28     38      0.261     12.011   ;
    39       FGR1      1    LIG     F2     39     -0.210     18.998   ;
    40     CG2R61      1    LIG    C29     40     -0.218     12.011   ;
    41      CG311      1    LIG    C30     41      0.094     12.011   ;
    42      CG324      1    LIG    C31     42      0.178     12.011   ;
    43      NG3P2      1    LIG     N3     43     -0.444     14.007   ;
    44       HGP2      1    LIG     H2     44      0.348      1.008   ;
    45       HGP2      1    LIG     H3     45      0.348      1.008   ;
    46      CG324      1    LIG    C32     46      0.171     12.011   ;
    47     CG2R61      1    LIG    C33     47      0.036     12.011   ;
    48     CG2R61      1    LIG    C34     48     -0.124     12.011   ;
    49     CG2R61      1    LIG    C35     49      0.216     12.011   ;
    50     CG2R61      1    LIG    C36     50     -0.121     12.011   ;
    51     CG2R61      1    LIG    C37     51     -0.108     12.011   ;
    52     CG2R61      1    LIG    C38     52     -0.119     12.011   ;
    53      OG301      1    LIG     O6     53     -0.383     15.999   ;
    54      CG331      1    LIG    C39     54     -0.094     12.011   ;
    55      OG311      1    LIG     O7     55     -0.625     15.999   ;
    56       HGP1      1    LIG     H4     56      0.415      1.008   ;
    57      HGR61      1    LIG     HC     57      0.116      1.008   ;
    58      HGR61      1    LIG    HC1     58      0.116      1.008   ;
    59      HGR61      1    LIG    HC2     59      0.116      1.008   ;
    60       HGA2      1    LIG    HC3     60      0.090      1.008   ;
    61       HGA2      1    LIG    HC4     61      0.090      1.008   ;
    62       HGA2      1    LIG    HC5     62      0.090      1.008   ;
    63       HGA2      1    LIG    HC6     63      0.090      1.008   ;
    64       HGA2      1    LIG    HC7     64      0.090      1.008   ;
    65       HGA2      1    LIG    HC8     65      0.090      1.008   ;
    66       HGA2      1    LIG    HC9     66      0.090      1.008   ;
    67       HGA2      1    LIG   HC10     67      0.090      1.008   ;
    68      HGR61      1    LIG   HC11     68      0.116      1.008   ;
    69      HGR61      1    LIG   HC12     69      0.116      1.008   ;
    70      HGR61      1    LIG   HC13     70      0.116      1.008   ;
    71      HGR61      1    LIG   HC14     71      0.116      1.008   ;
    72       HGA1      1    LIG   HC15     72      0.090      1.008   ;
    73       HGA2      1    LIG   HC16     73      0.090      1.008   ;
    74       HGA2      1    LIG   HC17     74      0.090      1.008   ;
    75      HGR62      1    LIG   HC18     75      0.174      1.008   ;
    76      HGR62      1    LIG   HC19     76      0.186      1.008   ;
    77      HGR62      1    LIG   HC20     77      0.174      1.008   ;
    78       HGA1      1    LIG   HC21     78      0.090      1.008   ;
    79       HGA2      1    LIG   HC22     79      0.090      1.008   ;
    80       HGA2      1    LIG   HC23     80      0.090      1.008   ;
    81       HGA2      1    LIG   HC24     81      0.090      1.008   ;
    82       HGA2      1    LIG   HC25     82      0.090      1.008   ;
    83      HGR61      1    LIG   HC26     83      0.116      1.008   ;
    84      HGR61      1    LIG   HC27     84      0.116      1.008   ;
    85      HGR61      1    LIG   HC28     85      0.116      1.008   ;
    86      HGR61      1    LIG   HC29     86      0.116      1.008   ;
    87       HGA3      1    LIG   HC30     87      0.090      1.008   ;
    88       HGA3      1    LIG   HC31     88      0.090      1.008   ;
    89       HGA3      1    LIG   HC32     89      0.090      1.008   ;
    90       HGA3      1    LIG   HC33     90      0.090      1.008   ;
    91       HGA3      1    LIG   HC34     91      0.090      1.008   ;
    92       HGA3      1    LIG   HC35     92      0.090      1.008   ;
    93       HGA3      1    LIG   HC36     93      0.090      1.008   ;
    94       HGA3      1    LIG   HC37     94      0.090      1.008   ;
    95       HGA3      1    LIG   HC38     95      0.090      1.008   ;
    96       HGA3      1    LIG   HC39     96      0.090      1.008   ;
    97       HGA3      1    LIG   HC40     97      0.090      1.008   ;
    98       HGA3      1    LIG   HC41     98      0.090      1.008   ;

[ bonds ]
;	ai	  aj funct			  c0			c1			  c2			c3
    1     5	 1 ;       CG2O1     CG2R61
    1     2	 1 ;       CG2O1      OG2D1
    1     3	 1 ;       CG2O1      NG2S1
    3     4	 1 ;       NG2S1       HGP1
    3    31	 1 ;       NG2S1      CG311
    5    10	 1 ;      CG2R61     CG2R61
    5     6	 1 ;      CG2R61     CG2R61
    6     7	 1 ;      CG2R61     CG2R61
    6    57	 1 ;      CG2R61      HGR61
    7     8	 1 ;      CG2R61     CG2R61
    7    11	 1 ;      CG2R61      CG2O1
    8     9	 1 ;      CG2R61     CG2R61
    8    58	 1 ;      CG2R61      HGR61
    9    20	 1 ;      CG2R61      SG3O2
    9    10	 1 ;      CG2R61     CG2R61
   10    59	 1 ;      CG2R61      HGR61
   11    13	 1 ;       CG2O1      NG2S0
   11    12	 1 ;       CG2O1      OG2D1
   13    14	 1 ;       NG2S0      CG321
   13    17	 1 ;       NG2S0      CG321
   14    15	 1 ;       CG321      CG321
   14    60	 1 ;       CG321       HGA2
   14    61	 1 ;       CG321       HGA2
   15    16	 1 ;       CG321      CG331
   15    62	 1 ;       CG321       HGA2
   15    63	 1 ;       CG321       HGA2
   16    96	 1 ;       CG331       HGA3
   16    97	 1 ;       CG331       HGA3
   16    98	 1 ;       CG331       HGA3
   17    18	 1 ;       CG321      CG321
   17    64	 1 ;       CG321       HGA2
   17    65	 1 ;       CG321       HGA2
   18    19	 1 ;       CG321      CG331
   18    66	 1 ;       CG321       HGA2
   18    67	 1 ;       CG321       HGA2
   19    93	 1 ;       CG331       HGA3
   19    94	 1 ;       CG331       HGA3
   19    95	 1 ;       CG331       HGA3
   20    21	 1 ;       SG3O2      OG2P1
   20    22	 1 ;       SG3O2      OG2P1
   20    23	 1 ;       SG3O2     CG2R61
   23    24	 1 ;      CG2R61     CG2R61
   23    28	 1 ;      CG2R61     CG2R61
   24    25	 1 ;      CG2R61     CG2R61
   24    68	 1 ;      CG2R61      HGR61
   25    26	 1 ;      CG2R61     CG2R61
   25    69	 1 ;      CG2R61      HGR61
   26    29	 1 ;      CG2R61      OG301
   26    27	 1 ;      CG2R61     CG2R61
   27    28	 1 ;      CG2R61     CG2R61
   27    70	 1 ;      CG2R61      HGR61
   28    71	 1 ;      CG2R61      HGR61
   29    30	 1 ;       OG301      CG331
   30    90	 1 ;       CG331       HGA3
   30    91	 1 ;       CG331       HGA3
   30    92	 1 ;       CG331       HGA3
   31    41	 1 ;       CG311      CG311
   31    32	 1 ;       CG311      CG321
   31    72	 1 ;       CG311       HGA1
   32    33	 1 ;       CG321     CG2R61
   32    73	 1 ;       CG321       HGA2
   32    74	 1 ;       CG321       HGA2
   33    34	 1 ;      CG2R61     CG2R61
   33    40	 1 ;      CG2R61     CG2R61
   34    35	 1 ;      CG2R61     CG2R66
   34    75	 1 ;      CG2R61      HGR62
   35    36	 1 ;      CG2R66       FGR1
   35    37	 1 ;      CG2R66     CG2R61
   37    38	 1 ;      CG2R61     CG2R66
   37    76	 1 ;      CG2R61      HGR62
   38    40	 1 ;      CG2R66     CG2R61
   38    39	 1 ;      CG2R66       FGR1
   40    77	 1 ;      CG2R61      HGR62
   41    55	 1 ;       CG311      OG311
   41    42	 1 ;       CG311      CG324
   41    78	 1 ;       CG311       HGA1
   42    43	 1 ;       CG324      NG3P2
   42    79	 1 ;       CG324       HGA2
   42    80	 1 ;       CG324       HGA2
   43    45	 1 ;       NG3P2       HGP2
   43    44	 1 ;       NG3P2       HGP2
   43    46	 1 ;       NG3P2      CG324
   46    47	 1 ;       CG324     CG2R61
   46    81	 1 ;       CG324       HGA2
   46    82	 1 ;       CG324       HGA2
   47    48	 1 ;      CG2R61     CG2R61
   47    52	 1 ;      CG2R61     CG2R61
   48    49	 1 ;      CG2R61     CG2R61
   48    83	 1 ;      CG2R61      HGR61
   49    53	 1 ;      CG2R61      OG301
   49    50	 1 ;      CG2R61     CG2R61
   50    51	 1 ;      CG2R61     CG2R61
   50    84	 1 ;      CG2R61      HGR61
   51    52	 1 ;      CG2R61     CG2R61
   51    85	 1 ;      CG2R61      HGR61
   52    86	 1 ;      CG2R61      HGR61
   53    54	 1 ;       OG301      CG331
   54    87	 1 ;       CG331       HGA3
   54    88	 1 ;       CG331       HGA3
   54    89	 1 ;       CG331       HGA3
   55    56	 1 ;       OG311       HGP1

[ pairs ]
;	ai	  aj funct			  c0			c1			  c2			c3
    1    41	 1
    1    32	 1
    1    72	 1
    1     9	 1
    1    59	 1
    1     7	 1
    1    57	 1
    2    10	 1
    2     6	 1
    2     4	 1
    2    31	 1
    3    10	 1
    3     6	 1
    3    55	 1
    3    42	 1
    3    78	 1
    3    33	 1
    3    73	 1
    3    74	 1
    4     5	 1
    4    41	 1
    4    32	 1
    4    72	 1
    5    31	 1
    5     8	 1
    5    11	 1
    5    20	 1
    6     9	 1
    6    59	 1
    6    58	 1
    6    13	 1
    6    12	 1
    7    10	 1
    7    20	 1
    7    14	 1
    7    17	 1
    8    57	 1
    8    13	 1
    8    12	 1
    8    21	 1
    8    22	 1
    8    23	 1
    8    59	 1
    9    11	 1
    9    24	 1
    9    28	 1
   10    57	 1
   10    58	 1
   10    21	 1
   10    22	 1
   10    23	 1
   11    57	 1
   11    58	 1
   11    15	 1
   11    60	 1
   11    61	 1
   11    18	 1
   11    64	 1
   11    65	 1
   12    14	 1
   12    17	 1
   13    16	 1
   13    62	 1
   13    63	 1
   13    19	 1
   13    66	 1
   13    67	 1
   14    18	 1
   14    64	 1
   14    65	 1
   14    96	 1
   14    97	 1
   14    98	 1
   15    17	 1
   16    60	 1
   16    61	 1
   17    60	 1
   17    61	 1
   17    93	 1
   17    94	 1
   17    95	 1
   19    64	 1
   19    65	 1
   20    58	 1
   20    59	 1
   20    25	 1
   20    68	 1
   20    27	 1
   20    71	 1
   21    24	 1
   21    28	 1
   22    24	 1
   22    28	 1
   23    26	 1
   23    69	 1
   23    70	 1
   24    27	 1
   24    71	 1
   24    29	 1
   25    28	 1
   25    30	 1
   25    70	 1
   26    68	 1
   26    71	 1
   26    90	 1
   26    91	 1
   26    92	 1
   27    69	 1
   27    30	 1
   28    68	 1
   28    29	 1
   29    69	 1
   29    70	 1
   31    34	 1
   31    40	 1
   31    56	 1
   31    43	 1
   31    79	 1
   31    80	 1
   32    55	 1
   32    42	 1
   32    78	 1
   32    35	 1
   32    75	 1
   32    38	 1
   32    77	 1
   33    41	 1
   33    72	 1
   33    36	 1
   33    37	 1
   33    39	 1
   34    73	 1
   34    74	 1
   34    38	 1
   34    77	 1
   34    76	 1
   35    40	 1
   35    39	 1
   36    75	 1
   36    38	 1
   36    76	 1
   37    75	 1
   37    77	 1
   39    76	 1
   39    77	 1
   40    73	 1
   40    74	 1
   40    75	 1
   40    76	 1
   41    73	 1
   41    74	 1
   41    45	 1
   41    44	 1
   41    46	 1
   42    72	 1
   42    56	 1
   42    47	 1
   42    81	 1
   42    82	 1
   43    55	 1
   43    78	 1
   43    48	 1
   43    52	 1
   44    79	 1
   44    80	 1
   44    47	 1
   44    81	 1
   44    82	 1
   45    79	 1
   45    80	 1
   45    47	 1
   45    81	 1
   45    82	 1
   46    79	 1
   46    80	 1
   46    49	 1
   46    83	 1
   46    51	 1
   46    86	 1
   47    53	 1
   47    50	 1
   47    85	 1
   48    81	 1
   48    82	 1
   48    51	 1
   48    86	 1
   48    54	 1
   48    84	 1
   49    52	 1
   49    85	 1
   49    87	 1
   49    88	 1
   49    89	 1
   50    83	 1
   50    54	 1
   50    86	 1
   51    53	 1
   52    81	 1
   52    82	 1
   52    83	 1
   52    84	 1
   53    83	 1
   53    84	 1
   55    72	 1
   55    79	 1
   55    80	 1
   56    78	 1
   60    62	 1
   60    63	 1
   61    62	 1
   61    63	 1
   62    96	 1
   62    97	 1
   62    98	 1
   63    96	 1
   63    97	 1
   63    98	 1
   64    66	 1
   64    67	 1
   65    66	 1
   65    67	 1
   66    93	 1
   66    94	 1
   66    95	 1
   67    93	 1
   67    94	 1
   67    95	 1
   68    69	 1
   70    71	 1
   72    78	 1
   72    73	 1
   72    74	 1
   78    79	 1
   78    80	 1
   84    85	 1
   85    86	 1

[ angles ]
;	ai	  aj	ak funct			c0			  c1			c2			  c3
    5     1     2	5 ;     CG2R61      CG2O1      OG2D1
    5     1     3	5 ;     CG2R61      CG2O1      NG2S1
    2     1     3	5 ;      OG2D1      CG2O1      NG2S1
    1     3     4	5 ;      CG2O1      NG2S1       HGP1
    1     3    31	5 ;      CG2O1      NG2S1      CG311
    4     3    31	5 ;       HGP1      NG2S1      CG311
   10     5     6	5 ;     CG2R61     CG2R61     CG2R61
   10     5     1	5 ;     CG2R61     CG2R61      CG2O1
    6     5     1	5 ;     CG2R61     CG2R61      CG2O1
    7     6     5	5 ;     CG2R61     CG2R61     CG2R61
    7     6    57	5 ;     CG2R61     CG2R61      HGR61
    5     6    57	5 ;     CG2R61     CG2R61      HGR61
    8     7     6	5 ;     CG2R61     CG2R61     CG2R61
    8     7    11	5 ;     CG2R61     CG2R61      CG2O1
    6     7    11	5 ;     CG2R61     CG2R61      CG2O1
    9     8     7	5 ;     CG2R61     CG2R61     CG2R61
    9     8    58	5 ;     CG2R61     CG2R61      HGR61
    7     8    58	5 ;     CG2R61     CG2R61      HGR61
   20     9     8	5 ;      SG3O2     CG2R61     CG2R61
   20     9    10	5 ;      SG3O2     CG2R61     CG2R61
    8     9    10	5 ;     CG2R61     CG2R61     CG2R61
    9    10     5	5 ;     CG2R61     CG2R61     CG2R61
    9    10    59	5 ;     CG2R61     CG2R61      HGR61
    5    10    59	5 ;     CG2R61     CG2R61      HGR61
    7    11    13	5 ;     CG2R61      CG2O1      NG2S0
    7    11    12	5 ;     CG2R61      CG2O1      OG2D1
   13    11    12	5 ;      NG2S0      CG2O1      OG2D1
   14    13    11	5 ;      CG321      NG2S0      CG2O1
   14    13    17	5 ;      CG321      NG2S0      CG321
   11    13    17	5 ;      CG2O1      NG2S0      CG321
   13    14    15	5 ;      NG2S0      CG321      CG321
   13    14    60	5 ;      NG2S0      CG321       HGA2
   13    14    61	5 ;      NG2S0      CG321       HGA2
   15    14    60	5 ;      CG321      CG321       HGA2
   15    14    61	5 ;      CG321      CG321       HGA2
   60    14    61	5 ;       HGA2      CG321       HGA2
   14    15    16	5 ;      CG321      CG321      CG331
   14    15    62	5 ;      CG321      CG321       HGA2
   14    15    63	5 ;      CG321      CG321       HGA2
   16    15    62	5 ;      CG331      CG321       HGA2
   16    15    63	5 ;      CG331      CG321       HGA2
   62    15    63	5 ;       HGA2      CG321       HGA2
   15    16    96	5 ;      CG321      CG331       HGA3
   15    16    97	5 ;      CG321      CG331       HGA3
   15    16    98	5 ;      CG321      CG331       HGA3
   96    16    97	5 ;       HGA3      CG331       HGA3
   96    16    98	5 ;       HGA3      CG331       HGA3
   97    16    98	5 ;       HGA3      CG331       HGA3
   13    17    18	5 ;      NG2S0      CG321      CG321
   13    17    64	5 ;      NG2S0      CG321       HGA2
   13    17    65	5 ;      NG2S0      CG321       HGA2
   18    17    64	5 ;      CG321      CG321       HGA2
   18    17    65	5 ;      CG321      CG321       HGA2
   64    17    65	5 ;       HGA2      CG321       HGA2
   19    18    17	5 ;      CG331      CG321      CG321
   19    18    66	5 ;      CG331      CG321       HGA2
   19    18    67	5 ;      CG331      CG321       HGA2
   17    18    66	5 ;      CG321      CG321       HGA2
   17    18    67	5 ;      CG321      CG321       HGA2
   66    18    67	5 ;       HGA2      CG321       HGA2
   18    19    93	5 ;      CG321      CG331       HGA3
   18    19    94	5 ;      CG321      CG331       HGA3
   18    19    95	5 ;      CG321      CG331       HGA3
   93    19    94	5 ;       HGA3      CG331       HGA3
   93    19    95	5 ;       HGA3      CG331       HGA3
   94    19    95	5 ;       HGA3      CG331       HGA3
   21    20    22	5 ;      OG2P1      SG3O2      OG2P1
   21    20    23	5 ;      OG2P1      SG3O2     CG2R61
   21    20     9	5 ;      OG2P1      SG3O2     CG2R61
   22    20    23	5 ;      OG2P1      SG3O2     CG2R61
   22    20     9	5 ;      OG2P1      SG3O2     CG2R61
   23    20     9	5 ;     CG2R61      SG3O2     CG2R61
   24    23    20	5 ;     CG2R61     CG2R61      SG3O2
   24    23    28	5 ;     CG2R61     CG2R61     CG2R61
   20    23    28	5 ;      SG3O2     CG2R61     CG2R61
   25    24    23	5 ;     CG2R61     CG2R61     CG2R61
   25    24    68	5 ;     CG2R61     CG2R61      HGR61
   23    24    68	5 ;     CG2R61     CG2R61      HGR61
   24    25    26	5 ;     CG2R61     CG2R61     CG2R61
   24    25    69	5 ;     CG2R61     CG2R61      HGR61
   26    25    69	5 ;     CG2R61     CG2R61      HGR61
   25    26    29	5 ;     CG2R61     CG2R61      OG301
   25    26    27	5 ;     CG2R61     CG2R61     CG2R61
   29    26    27	5 ;      OG301     CG2R61     CG2R61
   26    27    28	5 ;     CG2R61     CG2R61     CG2R61
   26    27    70	5 ;     CG2R61     CG2R61      HGR61
   28    27    70	5 ;     CG2R61     CG2R61      HGR61
   23    28    27	5 ;     CG2R61     CG2R61     CG2R61
   23    28    71	5 ;     CG2R61     CG2R61      HGR61
   27    28    71	5 ;     CG2R61     CG2R61      HGR61
   30    29    26	5 ;      CG331      OG301     CG2R61
   29    30    90	5 ;      OG301      CG331       HGA3
   29    30    91	5 ;      OG301      CG331       HGA3
   29    30    92	5 ;      OG301      CG331       HGA3
   90    30    91	5 ;       HGA3      CG331       HGA3
   90    30    92	5 ;       HGA3      CG331       HGA3
   91    30    92	5 ;       HGA3      CG331       HGA3
    3    31    41	5 ;      NG2S1      CG311      CG311
    3    31    32	5 ;      NG2S1      CG311      CG321
    3    31    72	5 ;      NG2S1      CG311       HGA1
   41    31    32	5 ;      CG311      CG311      CG321
   41    31    72	5 ;      CG311      CG311       HGA1
   32    31    72	5 ;      CG321      CG311       HGA1
   31    32    33	5 ;      CG311      CG321     CG2R61
   31    32    73	5 ;      CG311      CG321       HGA2
   31    32    74	5 ;      CG311      CG321       HGA2
   33    32    73	5 ;     CG2R61      CG321       HGA2
   33    32    74	5 ;     CG2R61      CG321       HGA2
   73    32    74	5 ;       HGA2      CG321       HGA2
   32    33    34	5 ;      CG321     CG2R61     CG2R61
   32    33    40	5 ;      CG321     CG2R61     CG2R61
   34    33    40	5 ;     CG2R61     CG2R61     CG2R61
   33    34    35	5 ;     CG2R61     CG2R61     CG2R66
   33    34    75	5 ;     CG2R61     CG2R61      HGR62
   35    34    75	5 ;     CG2R66     CG2R61      HGR62
   34    35    36	5 ;     CG2R61     CG2R66       FGR1
   34    35    37	5 ;     CG2R61     CG2R66     CG2R61
   36    35    37	5 ;       FGR1     CG2R66     CG2R61
   35    37    38	5 ;     CG2R66     CG2R61     CG2R66
   35    37    76	5 ;     CG2R66     CG2R61      HGR62
   38    37    76	5 ;     CG2R66     CG2R61      HGR62
   40    38    37	5 ;     CG2R61     CG2R66     CG2R61
   40    38    39	5 ;     CG2R61     CG2R66       FGR1
   37    38    39	5 ;     CG2R61     CG2R66       FGR1
   33    40    38	5 ;     CG2R61     CG2R61     CG2R66
   33    40    77	5 ;     CG2R61     CG2R61      HGR62
   38    40    77	5 ;     CG2R66     CG2R61      HGR62
   55    41    31	5 ;      OG311      CG311      CG311
   55    41    42	5 ;      OG311      CG311      CG324
   55    41    78	5 ;      OG311      CG311       HGA1
   31    41    42	5 ;      CG311      CG311      CG324
   31    41    78	5 ;      CG311      CG311       HGA1
   42    41    78	5 ;      CG324      CG311       HGA1
   41    42    43	5 ;      CG311      CG324      NG3P2
   41    42    79	5 ;      CG311      CG324       HGA2
   41    42    80	5 ;      CG311      CG324       HGA2
   43    42    79	5 ;      NG3P2      CG324       HGA2
   43    42    80	5 ;      NG3P2      CG324       HGA2
   79    42    80	5 ;       HGA2      CG324       HGA2
   42    43    45	5 ;      CG324      NG3P2       HGP2
   42    43    44	5 ;      CG324      NG3P2       HGP2
   42    43    46	5 ;      CG324      NG3P2      CG324
   45    43    44	5 ;       HGP2      NG3P2       HGP2
   45    43    46	5 ;       HGP2      NG3P2      CG324
   44    43    46	5 ;       HGP2      NG3P2      CG324
   43    46    47	5 ;      NG3P2      CG324     CG2R61
   43    46    81	5 ;      NG3P2      CG324       HGA2
   43    46    82	5 ;      NG3P2      CG324       HGA2
   47    46    81	5 ;     CG2R61      CG324       HGA2
   47    46    82	5 ;     CG2R61      CG324       HGA2
   81    46    82	5 ;       HGA2      CG324       HGA2
   48    47    46	5 ;     CG2R61     CG2R61      CG324
   48    47    52	5 ;     CG2R61     CG2R61     CG2R61
   46    47    52	5 ;      CG324     CG2R61     CG2R61
   49    48    47	5 ;     CG2R61     CG2R61     CG2R61
   49    48    83	5 ;     CG2R61     CG2R61      HGR61
   47    48    83	5 ;     CG2R61     CG2R61      HGR61
   53    49    48	5 ;      OG301     CG2R61     CG2R61
   53    49    50	5 ;      OG301     CG2R61     CG2R61
   48    49    50	5 ;     CG2R61     CG2R61     CG2R61
   49    50    51	5 ;     CG2R61     CG2R61     CG2R61
   49    50    84	5 ;     CG2R61     CG2R61      HGR61
   51    50    84	5 ;     CG2R61     CG2R61      HGR61
   50    51    52	5 ;     CG2R61     CG2R61     CG2R61
   50    51    85	5 ;     CG2R61     CG2R61      HGR61
   52    51    85	5 ;     CG2R61     CG2R61      HGR61
   47    52    51	5 ;     CG2R61     CG2R61     CG2R61
   47    52    86	5 ;     CG2R61     CG2R61      HGR61
   51    52    86	5 ;     CG2R61     CG2R61      HGR61
   54    53    49	5 ;      CG331      OG301     CG2R61
   53    54    87	5 ;      OG301      CG331       HGA3
   53    54    88	5 ;      OG301      CG331       HGA3
   53    54    89	5 ;      OG301      CG331       HGA3
   87    54    88	5 ;       HGA3      CG331       HGA3
   87    54    89	5 ;       HGA3      CG331       HGA3
   88    54    89	5 ;       HGA3      CG331       HGA3
   41    55    56	5 ;      CG311      OG311       HGP1

[ dihedrals ]
;	ai	  aj	ak	  al funct			  c0			c1			  c2			c3			  c4			c5
    2     1     5    10	 9 ;      OG2D1      CG2O1     CG2R61     CG2R61
    2     1     5     6	 9 ;      OG2D1      CG2O1     CG2R61     CG2R61
    3     1     5    10	 9 ;      NG2S1      CG2O1     CG2R61     CG2R61
    3     1     5     6	 9 ;      NG2S1      CG2O1     CG2R61     CG2R61
    5     1     3     4	 9 ;     CG2R61      CG2O1      NG2S1       HGP1
    5     1     3    31	 9 ;     CG2R61      CG2O1      NG2S1      CG311
    2     1     3     4	 9 ;      OG2D1      CG2O1      NG2S1       HGP1
    2     1     3    31	 9 ;      OG2D1      CG2O1      NG2S1      CG311
    1     3    31    41	 9 ;      CG2O1      NG2S1      CG311      CG311
    1     3    31    32	 9 ;      CG2O1      NG2S1      CG311      CG321
    1     3    31    72	 9 ;      CG2O1      NG2S1      CG311       HGA1
    4     3    31    41	 9 ;       HGP1      NG2S1      CG311      CG311
    4     3    31    32	 9 ;       HGP1      NG2S1      CG311      CG321
    4     3    31    72	 9 ;       HGP1      NG2S1      CG311       HGA1
    6     5    10     9	 9 ;     CG2R61     CG2R61     CG2R61     CG2R61
    6     5    10    59	 9 ;     CG2R61     CG2R61     CG2R61      HGR61
    1     5    10     9	 9 ;      CG2O1     CG2R61     CG2R61     CG2R61
    1     5    10    59	 9 ;      CG2O1     CG2R61     CG2R61      HGR61
   10     5     6     7	 9 ;     CG2R61     CG2R61     CG2R61     CG2R61
   10     5     6    57	 9 ;     CG2R61     CG2R61     CG2R61      HGR61
    1     5     6     7	 9 ;      CG2O1     CG2R61     CG2R61     CG2R61
    1     5     6    57	 9 ;      CG2O1     CG2R61     CG2R61      HGR61
    5     6     7     8	 9 ;     CG2R61     CG2R61     CG2R61     CG2R61
    5     6     7    11	 9 ;     CG2R61     CG2R61     CG2R61      CG2O1
   57     6     7     8	 9 ;      HGR61     CG2R61     CG2R61     CG2R61
   57     6     7    11	 9 ;      HGR61     CG2R61     CG2R61      CG2O1
    6     7     8     9	 9 ;     CG2R61     CG2R61     CG2R61     CG2R61
    6     7     8    58	 9 ;     CG2R61     CG2R61     CG2R61      HGR61
   11     7     8     9	 9 ;      CG2O1     CG2R61     CG2R61     CG2R61
   11     7     8    58	 9 ;      CG2O1     CG2R61     CG2R61      HGR61
    8     7    11    13	 9 ;     CG2R61     CG2R61      CG2O1      NG2S0
    8     7    11    12	 9 ;     CG2R61     CG2R61      CG2O1      OG2D1
    6     7    11    13	 9 ;     CG2R61     CG2R61      CG2O1      NG2S0
    6     7    11    12	 9 ;     CG2R61     CG2R61      CG2O1      OG2D1
    7     8     9    20	 9 ;     CG2R61     CG2R61     CG2R61      SG3O2
    7     8     9    10	 9 ;     CG2R61     CG2R61     CG2R61     CG2R61
   58     8     9    20	 9 ;      HGR61     CG2R61     CG2R61      SG3O2
   58     8     9    10	 9 ;      HGR61     CG2R61     CG2R61     CG2R61
    8     9    20    21	 9 ;     CG2R61     CG2R61      SG3O2      OG2P1
    8     9    20    22	 9 ;     CG2R61     CG2R61      SG3O2      OG2P1
    8     9    20    23	 9 ;     CG2R61     CG2R61      SG3O2     CG2R61
   10     9    20    21	 9 ;     CG2R61     CG2R61      SG3O2      OG2P1
   10     9    20    22	 9 ;     CG2R61     CG2R61      SG3O2      OG2P1
   10     9    20    23	 9 ;     CG2R61     CG2R61      SG3O2     CG2R61
   20     9    10     5	 9 ;      SG3O2     CG2R61     CG2R61     CG2R61
   20     9    10    59	 9 ;      SG3O2     CG2R61     CG2R61      HGR61
    8     9    10     5	 9 ;     CG2R61     CG2R61     CG2R61     CG2R61
    8     9    10    59	 9 ;     CG2R61     CG2R61     CG2R61      HGR61
    7    11    13    14	 9 ;     CG2R61      CG2O1      NG2S0      CG321
    7    11    13    17	 9 ;     CG2R61      CG2O1      NG2S0      CG321
   12    11    13    14	 9 ;      OG2D1      CG2O1      NG2S0      CG321
   12    11    13    17	 9 ;      OG2D1      CG2O1      NG2S0      CG321
   11    13    14    15	 9 ;      CG2O1      NG2S0      CG321      CG321
   11    13    14    60	 9 ;      CG2O1      NG2S0      CG321       HGA2
   11    13    14    61	 9 ;      CG2O1      NG2S0      CG321       HGA2
   17    13    14    15	 9 ;      CG321      NG2S0      CG321      CG321
   17    13    14    60	 9 ;      CG321      NG2S0      CG321       HGA2
   17    13    14    61	 9 ;      CG321      NG2S0      CG321       HGA2
   14    13    17    18	 9 ;      CG321      NG2S0      CG321      CG321
   14    13    17    64	 9 ;      CG321      NG2S0      CG321       HGA2
   14    13    17    65	 9 ;      CG321      NG2S0      CG321       HGA2
   11    13    17    18	 9 ;      CG2O1      NG2S0      CG321      CG321
   11    13    17    64	 9 ;      CG2O1      NG2S0      CG321       HGA2
   11    13    17    65	 9 ;      CG2O1      NG2S0      CG321       HGA2
   13    14    15    16	 9 ;      NG2S0      CG321      CG321      CG331
   13    14    15    62	 9 ;      NG2S0      CG321      CG321       HGA2
   13    14    15    63	 9 ;      NG2S0      CG321      CG321       HGA2
   60    14    15    16	 9 ;       HGA2      CG321      CG321      CG331
   60    14    15    62	 9 ;       HGA2      CG321      CG321       HGA2
   60    14    15    63	 9 ;       HGA2      CG321      CG321       HGA2
   61    14    15    16	 9 ;       HGA2      CG321      CG321      CG331
   61    14    15    62	 9 ;       HGA2      CG321      CG321       HGA2
   61    14    15    63	 9 ;       HGA2      CG321      CG321       HGA2
   14    15    16    96	 9 ;      CG321      CG321      CG331       HGA3
   14    15    16    97	 9 ;      CG321      CG321      CG331       HGA3
   14    15    16    98	 9 ;      CG321      CG321      CG331       HGA3
   62    15    16    96	 9 ;       HGA2      CG321      CG331       HGA3
   62    15    16    97	 9 ;       HGA2      CG321      CG331       HGA3
   62    15    16    98	 9 ;       HGA2      CG321      CG331       HGA3
   63    15    16    96	 9 ;       HGA2      CG321      CG331       HGA3
   63    15    16    97	 9 ;       HGA2      CG321      CG331       HGA3
   63    15    16    98	 9 ;       HGA2      CG321      CG331       HGA3
   13    17    18    19	 9 ;      NG2S0      CG321      CG321      CG331
   13    17    18    66	 9 ;      NG2S0      CG321      CG321       HGA2
   13    17    18    67	 9 ;      NG2S0      CG321      CG321       HGA2
   64    17    18    19	 9 ;       HGA2      CG321      CG321      CG331
   64    17    18    66	 9 ;       HGA2      CG321      CG321       HGA2
   64    17    18    67	 9 ;       HGA2      CG321      CG321       HGA2
   65    17    18    19	 9 ;       HGA2      CG321      CG321      CG331
   65    17    18    66	 9 ;       HGA2      CG321      CG321       HGA2
   65    17    18    67	 9 ;       HGA2      CG321      CG321       HGA2
   17    18    19    93	 9 ;      CG321      CG321      CG331       HGA3
   17    18    19    94	 9 ;      CG321      CG321      CG331       HGA3
   17    18    19    95	 9 ;      CG321      CG321      CG331       HGA3
   66    18    19    93	 9 ;       HGA2      CG321      CG331       HGA3
   66    18    19    94	 9 ;       HGA2      CG321      CG331       HGA3
   66    18    19    95	 9 ;       HGA2      CG321      CG331       HGA3
   67    18    19    93	 9 ;       HGA2      CG321      CG331       HGA3
   67    18    19    94	 9 ;       HGA2      CG321      CG331       HGA3
   67    18    19    95	 9 ;       HGA2      CG321      CG331       HGA3
   21    20    23    24	 9 ;      OG2P1      SG3O2     CG2R61     CG2R61
   21    20    23    28	 9 ;      OG2P1      SG3O2     CG2R61     CG2R61
   22    20    23    24	 9 ;      OG2P1      SG3O2     CG2R61     CG2R61
   22    20    23    28	 9 ;      OG2P1      SG3O2     CG2R61     CG2R61
    9    20    23    24	 9 ;     CG2R61      SG3O2     CG2R61     CG2R61
    9    20    23    28	 9 ;     CG2R61      SG3O2     CG2R61     CG2R61
   20    23    24    25	 9 ;      SG3O2     CG2R61     CG2R61     CG2R61
   20    23    24    68	 9 ;      SG3O2     CG2R61     CG2R61      HGR61
   28    23    24    25	 9 ;     CG2R61     CG2R61     CG2R61     CG2R61
   28    23    24    68	 9 ;     CG2R61     CG2R61     CG2R61      HGR61
   24    23    28    27	 9 ;     CG2R61     CG2R61     CG2R61     CG2R61
   24    23    28    71	 9 ;     CG2R61     CG2R61     CG2R61      HGR61
   20    23    28    27	 9 ;      SG3O2     CG2R61     CG2R61     CG2R61
   20    23    28    71	 9 ;      SG3O2     CG2R61     CG2R61      HGR61
   23    24    25    26	 9 ;     CG2R61     CG2R61     CG2R61     CG2R61
   23    24    25    69	 9 ;     CG2R61     CG2R61     CG2R61      HGR61
   68    24    25    26	 9 ;      HGR61     CG2R61     CG2R61     CG2R61
   68    24    25    69	 9 ;      HGR61     CG2R61     CG2R61      HGR61
   24    25    26    29	 9 ;     CG2R61     CG2R61     CG2R61      OG301
   24    25    26    27	 9 ;     CG2R61     CG2R61     CG2R61     CG2R61
   69    25    26    29	 9 ;      HGR61     CG2R61     CG2R61      OG301
   69    25    26    27	 9 ;      HGR61     CG2R61     CG2R61     CG2R61
   25    26    29    30	 9 ;     CG2R61     CG2R61      OG301      CG331
   27    26    29    30	 9 ;     CG2R61     CG2R61      OG301      CG331
   25    26    27    28	 9 ;     CG2R61     CG2R61     CG2R61     CG2R61
   25    26    27    70	 9 ;     CG2R61     CG2R61     CG2R61      HGR61
   29    26    27    28	 9 ;      OG301     CG2R61     CG2R61     CG2R61
   29    26    27    70	 9 ;      OG301     CG2R61     CG2R61      HGR61
   26    27    28    23	 9 ;     CG2R61     CG2R61     CG2R61     CG2R61
   26    27    28    71	 9 ;     CG2R61     CG2R61     CG2R61      HGR61
   70    27    28    23	 9 ;      HGR61     CG2R61     CG2R61     CG2R61
   70    27    28    71	 9 ;      HGR61     CG2R61     CG2R61      HGR61
   26    29    30    90	 9 ;     CG2R61      OG301      CG331       HGA3
   26    29    30    91	 9 ;     CG2R61      OG301      CG331       HGA3
   26    29    30    92	 9 ;     CG2R61      OG301      CG331       HGA3
    3    31    41    55	 9 ;      NG2S1      CG311      CG311      OG311
    3    31    41    42	 9 ;      NG2S1      CG311      CG311      CG324
    3    31    41    78	 9 ;      NG2S1      CG311      CG311       HGA1
   32    31    41    55	 9 ;      CG321      CG311      CG311      OG311
   32    31    41    42	 9 ;      CG321      CG311      CG311      CG324
   32    31    41    78	 9 ;      CG321      CG311      CG311       HGA1
   72    31    41    55	 9 ;       HGA1      CG311      CG311      OG311
   72    31    41    42	 9 ;       HGA1      CG311      CG311      CG324
   72    31    41    78	 9 ;       HGA1      CG311      CG311       HGA1
    3    31    32    33	 9 ;      NG2S1      CG311      CG321     CG2R61
    3    31    32    73	 9 ;      NG2S1      CG311      CG321       HGA2
    3    31    32    74	 9 ;      NG2S1      CG311      CG321       HGA2
   41    31    32    33	 9 ;      CG311      CG311      CG321     CG2R61
   41    31    32    73	 9 ;      CG311      CG311      CG321       HGA2
   41    31    32    74	 9 ;      CG311      CG311      CG321       HGA2
   72    31    32    33	 9 ;       HGA1      CG311      CG321     CG2R61
   72    31    32    73	 9 ;       HGA1      CG311      CG321       HGA2
   72    31    32    74	 9 ;       HGA1      CG311      CG321       HGA2
   31    32    33    34	 9 ;      CG311      CG321     CG2R61     CG2R61
   31    32    33    40	 9 ;      CG311      CG321     CG2R61     CG2R61
   73    32    33    34	 9 ;       HGA2      CG321     CG2R61     CG2R61
   73    32    33    40	 9 ;       HGA2      CG321     CG2R61     CG2R61
   74    32    33    34	 9 ;       HGA2      CG321     CG2R61     CG2R61
   74    32    33    40	 9 ;       HGA2      CG321     CG2R61     CG2R61
   32    33    34    35	 9 ;      CG321     CG2R61     CG2R61     CG2R66
   32    33    34    75	 9 ;      CG321     CG2R61     CG2R61      HGR62
   40    33    34    35	 9 ;     CG2R61     CG2R61     CG2R61     CG2R66
   40    33    34    75	 9 ;     CG2R61     CG2R61     CG2R61      HGR62
   32    33    40    38	 9 ;      CG321     CG2R61     CG2R61     CG2R66
   32    33    40    77	 9 ;      CG321     CG2R61     CG2R61      HGR62
   34    33    40    38	 9 ;     CG2R61     CG2R61     CG2R61     CG2R66
   34    33    40    77	 9 ;     CG2R61     CG2R61     CG2R61      HGR62
   33    34    35    36	 9 ;     CG2R61     CG2R61     CG2R66       FGR1
   33    34    35    37	 9 ;     CG2R61     CG2R61     CG2R66     CG2R61
   75    34    35    36	 9 ;      HGR62     CG2R61     CG2R66       FGR1
   75    34    35    37	 9 ;      HGR62     CG2R61     CG2R66     CG2R61
   34    35    37    38	 9 ;     CG2R61     CG2R66     CG2R61     CG2R66
   34    35    37    76	 9 ;     CG2R61     CG2R66     CG2R61      HGR62
   36    35    37    38	 9 ;       FGR1     CG2R66     CG2R61     CG2R66
   36    35    37    76	 9 ;       FGR1     CG2R66     CG2R61      HGR62
   35    37    38    40	 9 ;     CG2R66     CG2R61     CG2R66     CG2R61
   35    37    38    39	 9 ;     CG2R66     CG2R61     CG2R66       FGR1
   76    37    38    40	 9 ;      HGR62     CG2R61     CG2R66     CG2R61
   76    37    38    39	 9 ;      HGR62     CG2R61     CG2R66       FGR1
   37    38    40    33	 9 ;     CG2R61     CG2R66     CG2R61     CG2R61
   37    38    40    77	 9 ;     CG2R61     CG2R66     CG2R61      HGR62
   39    38    40    33	 9 ;       FGR1     CG2R66     CG2R61     CG2R61
   39    38    40    77	 9 ;       FGR1     CG2R66     CG2R61      HGR62
   31    41    55    56	 9 ;      CG311      CG311      OG311       HGP1
   42    41    55    56	 9 ;      CG324      CG311      OG311       HGP1
   78    41    55    56	 9 ;       HGA1      CG311      OG311       HGP1
   55    41    42    43	 9 ;      OG311      CG311      CG324      NG3P2
   55    41    42    79	 9 ;      OG311      CG311      CG324       HGA2
   55    41    42    80	 9 ;      OG311      CG311      CG324       HGA2
   31    41    42    43	 9 ;      CG311      CG311      CG324      NG3P2
   31    41    42    79	 9 ;      CG311      CG311      CG324       HGA2
   31    41    42    80	 9 ;      CG311      CG311      CG324       HGA2
   78    41    42    43	 9 ;       HGA1      CG311      CG324      NG3P2
   78    41    42    79	 9 ;       HGA1      CG311      CG324       HGA2
   78    41    42    80	 9 ;       HGA1      CG311      CG324       HGA2
   41    42    43    45	 9 ;      CG311      CG324      NG3P2       HGP2
   41    42    43    44	 9 ;      CG311      CG324      NG3P2       HGP2
   41    42    43    46	 9 ;      CG311      CG324      NG3P2      CG324
   79    42    43    45	 9 ;       HGA2      CG324      NG3P2       HGP2
   79    42    43    44	 9 ;       HGA2      CG324      NG3P2       HGP2
   79    42    43    46	 9 ;       HGA2      CG324      NG3P2      CG324
   80    42    43    45	 9 ;       HGA2      CG324      NG3P2       HGP2
   80    42    43    44	 9 ;       HGA2      CG324      NG3P2       HGP2
   80    42    43    46	 9 ;       HGA2      CG324      NG3P2      CG324
   42    43    46    47	 9 ;      CG324      NG3P2      CG324     CG2R61
   42    43    46    81	 9 ;      CG324      NG3P2      CG324       HGA2
   42    43    46    82	 9 ;      CG324      NG3P2      CG324       HGA2
   45    43    46    47	 9 ;       HGP2      NG3P2      CG324     CG2R61
   45    43    46    81	 9 ;       HGP2      NG3P2      CG324       HGA2
   45    43    46    82	 9 ;       HGP2      NG3P2      CG324       HGA2
   44    43    46    47	 9 ;       HGP2      NG3P2      CG324     CG2R61
   44    43    46    81	 9 ;       HGP2      NG3P2      CG324       HGA2
   44    43    46    82	 9 ;       HGP2      NG3P2      CG324       HGA2
   43    46    47    48	 9 ;      NG3P2      CG324     CG2R61     CG2R61
   43    46    47    52	 9 ;      NG3P2      CG324     CG2R61     CG2R61
   81    46    47    48	 9 ;       HGA2      CG324     CG2R61     CG2R61
   81    46    47    52	 9 ;       HGA2      CG324     CG2R61     CG2R61
   82    46    47    48	 9 ;       HGA2      CG324     CG2R61     CG2R61
   82    46    47    52	 9 ;       HGA2      CG324     CG2R61     CG2R61
   46    47    48    49	 9 ;      CG324     CG2R61     CG2R61     CG2R61
   46    47    48    83	 9 ;      CG324     CG2R61     CG2R61      HGR61
   52    47    48    49	 9 ;     CG2R61     CG2R61     CG2R61     CG2R61
   52    47    48    83	 9 ;     CG2R61     CG2R61     CG2R61      HGR61
   48    47    52    51	 9 ;     CG2R61     CG2R61     CG2R61     CG2R61
   48    47    52    86	 9 ;     CG2R61     CG2R61     CG2R61      HGR61
   46    47    52    51	 9 ;      CG324     CG2R61     CG2R61     CG2R61
   46    47    52    86	 9 ;      CG324     CG2R61     CG2R61      HGR61
   47    48    49    53	 9 ;     CG2R61     CG2R61     CG2R61      OG301
   47    48    49    50	 9 ;     CG2R61     CG2R61     CG2R61     CG2R61
   83    48    49    53	 9 ;      HGR61     CG2R61     CG2R61      OG301
   83    48    49    50	 9 ;      HGR61     CG2R61     CG2R61     CG2R61
   48    49    53    54	 9 ;     CG2R61     CG2R61      OG301      CG331
   50    49    53    54	 9 ;     CG2R61     CG2R61      OG301      CG331
   53    49    50    51	 9 ;      OG301     CG2R61     CG2R61     CG2R61
   53    49    50    84	 9 ;      OG301     CG2R61     CG2R61      HGR61
   48    49    50    51	 9 ;     CG2R61     CG2R61     CG2R61     CG2R61
   48    49    50    84	 9 ;     CG2R61     CG2R61     CG2R61      HGR61
   49    50    51    52	 9 ;     CG2R61     CG2R61     CG2R61     CG2R61
   49    50    51    85	 9 ;     CG2R61     CG2R61     CG2R61      HGR61
   84    50    51    52	 9 ;      HGR61     CG2R61     CG2R61     CG2R61
   84    50    51    85	 9 ;      HGR61     CG2R61     CG2R61      HGR61
   50    51    52    47	 9 ;     CG2R61     CG2R61     CG2R61     CG2R61
   50    51    52    86	 9 ;     CG2R61     CG2R61     CG2R61      HGR61
   85    51    52    47	 9 ;      HGR61     CG2R61     CG2R61     CG2R61
   85    51    52    86	 9 ;      HGR61     CG2R61     CG2R61      HGR61
   49    53    54    87	 9 ;     CG2R61      OG301      CG331       HGA3
   49    53    54    88	 9 ;     CG2R61      OG301      CG331       HGA3
   49    53    54    89	 9 ;     CG2R61      OG301      CG331       HGA3

[ dihedrals ]
;	ai	  aj	ak	  al funct			  c0			c1			  c2			c3
    1     5     3     2	 2
   11     7    13    12	 2

