Good ROcking Metal Altar for Chronical Sinners
   98
    1LIG     C1    1  -1.600   0.447  -1.738
    1LIG     O1    2  -1.592   0.569  -1.752
    1LIG     N1    3  -1.716   0.387  -1.692
    1LIG     H1    4  -1.711   0.290  -1.665
    1LIG     C2    5  -1.480   0.360  -1.765
    1LIG     C3    6  -1.457   0.254  -1.674
    1LIG     C4    7  -1.348   0.164  -1.683
    1LIG     C5    8  -1.258   0.187  -1.788
    1LIG     C6    9  -1.282   0.288  -1.882
    1LIG     C7   10  -1.391   0.376  -1.871
    1LIG     C8   11  -1.342   0.054  -1.580
    1LIG     O2   12  -1.442  -0.019  -1.579
    1LIG     N2   13  -1.236   0.028  -1.492
    1LIG     C9   14  -1.118   0.109  -1.461
    1LIG    C10   15  -1.155   0.237  -1.387
    1LIG    C11   16  -1.132   0.361  -1.472
    1LIG    C12   17  -1.256  -0.087  -1.401
    1LIG    C13   18  -1.159  -0.204  -1.424
    1LIG    C14   19  -1.175  -0.270  -1.559
    1LIG      S   20  -1.167   0.295  -2.019
    1LIG     O3   21  -1.240   0.364  -2.125
    1LIG     O4   22  -1.117   0.161  -2.038
    1LIG    C15   23  -1.029   0.395  -1.975
    1LIG    C16   24  -0.922   0.410  -2.064
    1LIG    C17   25  -0.814   0.492  -2.028
    1LIG    C18   26  -0.814   0.558  -1.905
    1LIG    C19   27  -0.921   0.539  -1.816
    1LIG    C20   28  -1.028   0.457  -1.850
    1LIG     O5   29  -0.717   0.642  -1.859
    1LIG    C21   30  -0.669   0.741  -1.949
    1LIG    C22   31  -1.833   0.463  -1.643
    1LIG    C23   32  -1.917   0.389  -1.535
    1LIG    C24   33  -1.879   0.411  -1.390
    1LIG    C25   34  -1.752   0.460  -1.355
    1LIG    C26   35  -1.724   0.491  -1.223
    1LIG     F1   36  -1.602   0.539  -1.192
    1LIG    C27   37  -1.819   0.477  -1.123
    1LIG    C28   38  -1.944   0.429  -1.157
    1LIG     F2   39  -2.038   0.416  -1.063
    1LIG    C29   40  -1.975   0.396  -1.289
    1LIG    C30   41  -1.925   0.510  -1.760
    1LIG    C31   42  -2.074   0.519  -1.719
    1LIG     N3   43  -2.111   0.659  -1.678
    1LIG     H2   44  -2.025   0.715  -1.668
    1LIG     H3   45  -2.163   0.703  -1.755
    1LIG    C32   46  -2.189   0.671  -1.552
    1LIG    C33   47  -2.103   0.715  -1.438
    1LIG    C34   48  -1.971   0.756  -1.460
    1LIG    C35   49  -1.891   0.799  -1.354
    1LIG    C36   50  -1.944   0.803  -1.225
    1LIG    C37   51  -2.075   0.762  -1.201
    1LIG    C38   52  -2.155   0.719  -1.308
    1LIG     O6   53  -1.762   0.841  -1.364
    1LIG    C39   54  -1.704   0.844  -1.494
    1LIG     O7   55  -1.891   0.643  -1.804
    1LIG     H4   56  -1.964   0.703  -1.778
    1LIG     HC   57  -1.528   0.240  -1.593
    1LIG    HC1   58  -1.170   0.125  -1.796
    1LIG    HC2   59  -1.406   0.454  -1.944
    1LIG    HC3   60  -1.068   0.135  -1.554
    1LIG    HC4   61  -1.050   0.050  -1.399
    1LIG    HC5   62  -1.260   0.233  -1.359
    1LIG    HC6   63  -1.094   0.245  -1.296
    1LIG    HC7   64  -1.358  -0.124  -1.415
    1LIG    HC8   65  -1.245  -0.052  -1.298
    1LIG    HC9   66  -1.177  -0.278  -1.346
    1LIG   HC10   67  -1.057  -0.167  -1.415
    1LIG   HC11   68  -0.922   0.359  -2.159
    1LIG   HC12   69  -0.731   0.504  -2.096
    1LIG   HC13   70  -0.919   0.589  -1.720
    1LIG   HC14   71  -1.109   0.442  -1.781
    1LIG   HC15   72  -1.794   0.554  -1.595
    1LIG   HC16   73  -2.021   0.421  -1.546
    1LIG   HC17   74  -1.912   0.282  -1.555
    1LIG   HC18   75  -1.676   0.472  -1.431
    1LIG   HC19   76  -1.795   0.502  -1.020
    1LIG   HC20   77  -2.073   0.359  -1.314
    1LIG   HC21   78  -1.915   0.441  -1.844
    1LIG   HC22   79  -2.092   0.451  -1.635
    1LIG   HC23   80  -2.136   0.489  -1.803
    1LIG   HC24   81  -2.268   0.745  -1.566
    1LIG   HC25   82  -2.234   0.575  -1.528
    1LIG   HC26   83  -1.930   0.753  -1.560
    1LIG   HC27   84  -1.883   0.837  -1.143
    1LIG   HC28   85  -2.115   0.765  -1.101
    1LIG   HC29   86  -2.257   0.688  -1.290
    1LIG   HC30   87  -1.601   0.881  -1.488
    1LIG   HC31   88  -1.762   0.910  -1.558
    1LIG   HC32   89  -1.704   0.744  -1.536
    1LIG   HC33   90  -0.592   0.801  -1.899
    1LIG   HC34   91  -0.626   0.693  -2.036
    1LIG   HC35   92  -0.751   0.806  -1.979
    1LIG   HC36   93  -1.104  -0.352  -1.569
    1LIG   HC37   94  -1.277  -0.310  -1.569
    1LIG   HC38   95  -1.158  -0.197  -1.638
    1LIG   HC39   96  -1.159   0.450  -1.416
    1LIG   HC40   97  -1.193   0.355  -1.562
    1LIG   HC41   98  -1.026   0.367  -1.500
   0.00000   0.00000   0.00000
