Gravel Rubs Often Many Awfully Cauterized Sores
   44
    1LIG     N1    1  -1.739   0.350  -1.309
    1LIG     C1    2  -1.659   0.405  -1.404
    1LIG     N2    3  -1.676   0.533  -1.442
    1LIG     N3    4  -1.562   0.331  -1.463
    1LIG     C2    5  -1.467   0.377  -1.560
    1LIG      O    6  -1.479   0.489  -1.607
    1LIG     H1    7  -1.718   0.255  -1.281
    1LIG     H2    8  -1.614   0.571  -1.515
    1LIG     H3    9  -1.738   0.597  -1.395
    1LIG     H4   10  -1.552   0.234  -1.433
    1LIG     C3   11  -1.871   0.402  -1.264
    1LIG     C4   12  -1.964   0.295  -1.212
    1LIG     C5   13  -2.083   0.332  -1.149
    1LIG     C6   14  -2.177   0.235  -1.108
    1LIG    CL1   15  -2.324   0.287  -1.036
    1LIG     C7   16  -2.153   0.100  -1.128
    1LIG     C8   17  -2.035   0.062  -1.192
    1LIG     C9   18  -1.941   0.158  -1.235
    1LIG    CL2   19  -2.007  -0.105  -1.223
    1LIG    C10   20  -1.358   0.280  -1.603
    1LIG     N4   21  -1.245   0.285  -1.512
    1LIG    C11   22  -1.151   0.185  -1.494
    1LIG    C12   23  -1.044   0.244  -1.426
    1LIG    C13   24  -1.147   0.050  -1.534
    1LIG    C14   25  -0.928   0.168  -1.400
    1LIG    C15   26  -1.083   0.377  -1.393
    1LIG    C16   27  -0.923   0.035  -1.441
    1LIG    C17   28  -1.032  -0.024  -1.505
    1LIG    C18   29  -1.209   0.397  -1.443
    1LIG    HC2   30  -1.919   0.452  -1.348
    1LIG    HC3   31  -1.854   0.475  -1.185
    1LIG     HC   32  -2.104   0.436  -1.132
    1LIG    HC1   33  -2.224   0.026  -1.096
    1LIG    HC4   34  -1.851   0.126  -1.285
    1LIG    HC5   35  -1.398   0.179  -1.605
    1LIG    HC6   36  -1.324   0.307  -1.704
    1LIG    HC7   37  -1.231   0.005  -1.584
    1LIG    HC8   38  -0.844   0.213  -1.350
    1LIG    HC9   39  -1.023   0.448  -1.338
    1LIG   HC10   40  -0.834  -0.024  -1.423
    1LIG   HC11   41  -1.027  -0.128  -1.533
    1LIG   HC12   42  -1.269   0.486  -1.430
    1LIG    LP1   43  -2.465   0.336  -0.968
    1LIG    LP2   44  -1.980  -0.264  -1.253
   0.00000   0.00000   0.00000
