; Created by cgenff_charmm2gmx.py

[ moleculetype ]
; Name			   nrexcl
LIG				 3

[ atoms ]
;	 nr		  type	resnr residue  atom   cgnr	   charge		mass  typeB    chargeB		massB
; residue	 1 LIG rtp LIG q	qsum
     1      NG2P1      1    LIG     N1      1     -0.615     14.007   ;
     2      CG2N1      1    LIG     C1      2      0.677     12.011   ;
     3      NG2P1      1    LIG     N2      3     -0.707     14.007   ;
     4      NG2P1      1    LIG     N3      4     -0.728     14.007   ;
     5      CG2O1      1    LIG     C2      5      0.797     12.011   ;
     6      OG2D1      1    LIG      O      6     -0.505     15.999   ;
     7       HGP2      1    LIG     H1      7      0.402      1.008   ;
     8       HGP2      1    LIG     H2      8      0.424      1.008   ;
     9       HGP2      1    LIG     H3      9      0.424      1.008   ;
    10       HGP2      1    LIG     H4     10      0.476      1.008   ;
    11      CG324      1    LIG     C3     11      0.193     12.011   ;
    12     CG2R61      1    LIG     C4     12      0.006     12.011   ;
    13     CG2R61      1    LIG     C5     13     -0.099     12.011   ;
    14     CG2R61      1    LIG     C6     14      0.052     12.011   ;
    15      CLGR1      1    LIG    CL1     15     -0.200     35.453   ;
    16     CG2R61      1    LIG     C7     16     -0.028     12.011   ;
    17     CG2R61      1    LIG     C8     17      0.052     12.011   ;
    18     CG2R61      1    LIG     C9     18     -0.099     12.011   ;
    19      CLGR1      1    LIG    CL2     19     -0.200     35.453   ;
    20      CG321      1    LIG    C10     20     -0.060     12.011   ;
    21     NG2R51      1    LIG     N4     21     -0.278     14.007   ;
    22     CG2RC0      1    LIG    C11     22      0.316     12.011   ;
    23     CG2RC0      1    LIG    C12     23      0.099     12.011   ;
    24     CG2R61      1    LIG    C13     24     -0.258     12.011   ;
    25     CG2R61      1    LIG    C14     25     -0.258     12.011   ;
    26     CG2R51      1    LIG    C15     26     -0.302     12.011   ;
    27     CG2R61      1    LIG    C16     27     -0.205     12.011   ;
    28     CG2R61      1    LIG    C17     28     -0.177     12.011   ;
    29     CG2R51      1    LIG    C18     29     -0.071     12.011   ;
    30       HGA2      1    LIG    HC2     30      0.090      1.008   ;
    31       HGA2      1    LIG    HC3     31      0.090      1.008   ;
    32      HGR62      1    LIG     HC     32      0.150      1.008   ;
    33      HGR62      1    LIG    HC1     33      0.128      1.008   ;
    34      HGR62      1    LIG    HC4     34      0.150      1.008   ;
    35       HGA2      1    LIG    HC5     35      0.090      1.008   ;
    36       HGA2      1    LIG    HC6     36      0.090      1.008   ;
    37      HGR61      1    LIG    HC7     37      0.184      1.008   ;
    38      HGR61      1    LIG    HC8     38      0.197      1.008   ;
    39      HGR51      1    LIG    HC9     39      0.187      1.008   ;
    40      HGR61      1    LIG   HC10     40      0.134      1.008   ;
    41      HGR61      1    LIG   HC11     41      0.134      1.008   ;
    42      HGR52      1    LIG   HC12     42      0.148      1.008   ;
    43        LPH      1    LIG    LP1     43      0.050      0.000   ;
    44        LPH      1    LIG    LP2     44      0.050      0.000   ;

[ bonds ]
;	ai	  aj funct			  c0			c1			  c2			c3
    1     2	 1 ;       NG2P1      CG2N1
    1     7	 1 ;       NG2P1       HGP2
    1    11	 1 ;       NG2P1      CG324
    2     4	 1 ;       CG2N1      NG2P1
    2     3	 1 ;       CG2N1      NG2P1
    3     8	 1 ;       NG2P1       HGP2
    3     9	 1 ;       NG2P1       HGP2
    4     5	 1 ;       NG2P1      CG2O1
    4    10	 1 ;       NG2P1       HGP2
    5    20	 1 ;       CG2O1      CG321
    5     6	 1 ;       CG2O1      OG2D1
   11    12	 1 ;       CG324     CG2R61
   11    30	 1 ;       CG324       HGA2
   11    31	 1 ;       CG324       HGA2
   12    18	 1 ;      CG2R61     CG2R61
   12    13	 1 ;      CG2R61     CG2R61
   13    14	 1 ;      CG2R61     CG2R61
   13    32	 1 ;      CG2R61      HGR62
   14    16	 1 ;      CG2R61     CG2R61
   14    15	 1 ;      CG2R61      CLGR1
   16    17	 1 ;      CG2R61     CG2R61
   16    33	 1 ;      CG2R61      HGR62
   17    18	 1 ;      CG2R61     CG2R61
   17    19	 1 ;      CG2R61      CLGR1
   18    34	 1 ;      CG2R61      HGR62
   20    21	 1 ;       CG321     NG2R51
   20    35	 1 ;       CG321       HGA2
   20    36	 1 ;       CG321       HGA2
   21    22	 1 ;      NG2R51     CG2RC0
   21    29	 1 ;      NG2R51     CG2R51
   22    23	 1 ;      CG2RC0     CG2RC0
   22    24	 1 ;      CG2RC0     CG2R61
   23    25	 1 ;      CG2RC0     CG2R61
   23    26	 1 ;      CG2RC0     CG2R51
   24    28	 1 ;      CG2R61     CG2R61
   24    37	 1 ;      CG2R61      HGR61
   25    27	 1 ;      CG2R61     CG2R61
   25    38	 1 ;      CG2R61      HGR61
   26    29	 1 ;      CG2R51     CG2R51
   26    39	 1 ;      CG2R51      HGR51
   27    28	 1 ;      CG2R61     CG2R61
   27    40	 1 ;      CG2R61      HGR61
   28    41	 1 ;      CG2R61      HGR61
   29    42	 1 ;      CG2R51      HGR52

[ pairs ]
;	ai	  aj funct			  c0			c1			  c2			c3
    1     5	 1
    1    10	 1
    1     8	 1
    1     9	 1
    1    18	 1
    1    13	 1
    2    12	 1
    2    30	 1
    2    31	 1
    2    20	 1
    2     6	 1
    3     7	 1
    3    11	 1
    3     5	 1
    3    10	 1
    4     7	 1
    4    11	 1
    4     8	 1
    4     9	 1
    4    21	 1
    4    35	 1
    4    36	 1
    5    22	 1
    5    29	 1
    6    10	 1
    6    21	 1
    6    35	 1
    6    36	 1
    7    12	 1
    7    30	 1
    7    31	 1
   10    20	 1
   11    17	 1
   11    34	 1
   11    14	 1
   11    32	 1
   12    16	 1
   12    15	 1
   43    12	 1
   12    19	 1
   44    12	 1
   13    30	 1
   13    31	 1
   13    17	 1
   13    34	 1
   13    33	 1
   14    18	 1
   14    19	 1
   44    14	 1
   15    32	 1
   43    32	 1
   15    17	 1
   43    17	 1
   15    33	 1
   43    33	 1
   16    32	 1
   16    34	 1
   18    30	 1
   18    31	 1
   18    32	 1
   18    33	 1
   19    33	 1
   44    33	 1
   19    34	 1
   44    34	 1
   20    23	 1
   20    24	 1
   20    26	 1
   20    42	 1
   21    25	 1
   21    28	 1
   21    37	 1
   21    39	 1
   22    35	 1
   22    36	 1
   22    42	 1
   22    27	 1
   22    38	 1
   22    39	 1
   22    41	 1
   23    28	 1
   23    37	 1
   23    40	 1
   23    42	 1
   24    29	 1
   24    25	 1
   24    26	 1
   24    40	 1
   25    29	 1
   25    39	 1
   25    41	 1
   26    27	 1
   26    38	 1
   27    37	 1
   28    38	 1
   29    35	 1
   29    36	 1
   37    41	 1
   38    40	 1
   39    42	 1
   40    41	 1

[ angles ]
;	ai	  aj	ak funct			c0			  c1			c2			  c3
    2     1     7	5 ;      CG2N1      NG2P1       HGP2
    2     1    11	5 ;      CG2N1      NG2P1      CG324
    7     1    11	5 ;       HGP2      NG2P1      CG324
    4     2     3	5 ;      NG2P1      CG2N1      NG2P1
    4     2     1	5 ;      NG2P1      CG2N1      NG2P1
    3     2     1	5 ;      NG2P1      CG2N1      NG2P1
    8     3     9	5 ;       HGP2      NG2P1       HGP2
    8     3     2	5 ;       HGP2      NG2P1      CG2N1
    9     3     2	5 ;       HGP2      NG2P1      CG2N1
    5     4    10	5 ;      CG2O1      NG2P1       HGP2
    5     4     2	5 ;      CG2O1      NG2P1      CG2N1
   10     4     2	5 ;       HGP2      NG2P1      CG2N1
   20     5     6	5 ;      CG321      CG2O1      OG2D1
   20     5     4	5 ;      CG321      CG2O1      NG2P1
    6     5     4	5 ;      OG2D1      CG2O1      NG2P1
    1    11    12	5 ;      NG2P1      CG324     CG2R61
    1    11    30	5 ;      NG2P1      CG324       HGA2
    1    11    31	5 ;      NG2P1      CG324       HGA2
   12    11    30	5 ;     CG2R61      CG324       HGA2
   12    11    31	5 ;     CG2R61      CG324       HGA2
   30    11    31	5 ;       HGA2      CG324       HGA2
   11    12    18	5 ;      CG324     CG2R61     CG2R61
   11    12    13	5 ;      CG324     CG2R61     CG2R61
   18    12    13	5 ;     CG2R61     CG2R61     CG2R61
   12    13    14	5 ;     CG2R61     CG2R61     CG2R61
   12    13    32	5 ;     CG2R61     CG2R61      HGR62
   14    13    32	5 ;     CG2R61     CG2R61      HGR62
   13    14    16	5 ;     CG2R61     CG2R61     CG2R61
   13    14    15	5 ;     CG2R61     CG2R61      CLGR1
   16    14    15	5 ;     CG2R61     CG2R61      CLGR1
   17    16    14	5 ;     CG2R61     CG2R61     CG2R61
   17    16    33	5 ;     CG2R61     CG2R61      HGR62
   14    16    33	5 ;     CG2R61     CG2R61      HGR62
   18    17    19	5 ;     CG2R61     CG2R61      CLGR1
   18    17    16	5 ;     CG2R61     CG2R61     CG2R61
   19    17    16	5 ;      CLGR1     CG2R61     CG2R61
   12    18    17	5 ;     CG2R61     CG2R61     CG2R61
   12    18    34	5 ;     CG2R61     CG2R61      HGR62
   17    18    34	5 ;     CG2R61     CG2R61      HGR62
   21    20     5	5 ;     NG2R51      CG321      CG2O1
   21    20    35	5 ;     NG2R51      CG321       HGA2
   21    20    36	5 ;     NG2R51      CG321       HGA2
    5    20    35	5 ;      CG2O1      CG321       HGA2
    5    20    36	5 ;      CG2O1      CG321       HGA2
   35    20    36	5 ;       HGA2      CG321       HGA2
   22    21    29	5 ;     CG2RC0     NG2R51     CG2R51
   22    21    20	5 ;     CG2RC0     NG2R51      CG321
   29    21    20	5 ;     CG2R51     NG2R51      CG321
   23    22    21	5 ;     CG2RC0     CG2RC0     NG2R51
   23    22    24	5 ;     CG2RC0     CG2RC0     CG2R61
   21    22    24	5 ;     NG2R51     CG2RC0     CG2R61
   25    23    26	5 ;     CG2R61     CG2RC0     CG2R51
   25    23    22	5 ;     CG2R61     CG2RC0     CG2RC0
   26    23    22	5 ;     CG2R51     CG2RC0     CG2RC0
   28    24    22	5 ;     CG2R61     CG2R61     CG2RC0
   28    24    37	5 ;     CG2R61     CG2R61      HGR61
   22    24    37	5 ;     CG2RC0     CG2R61      HGR61
   27    25    23	5 ;     CG2R61     CG2R61     CG2RC0
   27    25    38	5 ;     CG2R61     CG2R61      HGR61
   23    25    38	5 ;     CG2RC0     CG2R61      HGR61
   23    26    29	5 ;     CG2RC0     CG2R51     CG2R51
   23    26    39	5 ;     CG2RC0     CG2R51      HGR51
   29    26    39	5 ;     CG2R51     CG2R51      HGR51
   25    27    28	5 ;     CG2R61     CG2R61     CG2R61
   25    27    40	5 ;     CG2R61     CG2R61      HGR61
   28    27    40	5 ;     CG2R61     CG2R61      HGR61
   27    28    24	5 ;     CG2R61     CG2R61     CG2R61
   27    28    41	5 ;     CG2R61     CG2R61      HGR61
   24    28    41	5 ;     CG2R61     CG2R61      HGR61
   26    29    21	5 ;     CG2R51     CG2R51     NG2R51
   26    29    42	5 ;     CG2R51     CG2R51      HGR52
   21    29    42	5 ;     NG2R51     CG2R51      HGR52

[ dihedrals ]
;	ai	  aj	ak	  al funct			  c0			c1			  c2			c3			  c4			c5
    7     1     2     4	 9 ;       HGP2      NG2P1      CG2N1      NG2P1
    7     1     2     3	 9 ;       HGP2      NG2P1      CG2N1      NG2P1
   11     1     2     4	 9 ;      CG324      NG2P1      CG2N1      NG2P1
   11     1     2     3	 9 ;      CG324      NG2P1      CG2N1      NG2P1
    2     1    11    12	 9 ;      CG2N1      NG2P1      CG324     CG2R61
    2     1    11    30	 9 ;      CG2N1      NG2P1      CG324       HGA2
    2     1    11    31	 9 ;      CG2N1      NG2P1      CG324       HGA2
    7     1    11    12	 9 ;       HGP2      NG2P1      CG324     CG2R61
    7     1    11    30	 9 ;       HGP2      NG2P1      CG324       HGA2
    7     1    11    31	 9 ;       HGP2      NG2P1      CG324       HGA2
    3     2     4     5	 9 ;      NG2P1      CG2N1      NG2P1      CG2O1
    3     2     4    10	 9 ;      NG2P1      CG2N1      NG2P1       HGP2
    1     2     4     5	 9 ;      NG2P1      CG2N1      NG2P1      CG2O1
    1     2     4    10	 9 ;      NG2P1      CG2N1      NG2P1       HGP2
    4     2     3     8	 9 ;      NG2P1      CG2N1      NG2P1       HGP2
    4     2     3     9	 9 ;      NG2P1      CG2N1      NG2P1       HGP2
    1     2     3     8	 9 ;      NG2P1      CG2N1      NG2P1       HGP2
    1     2     3     9	 9 ;      NG2P1      CG2N1      NG2P1       HGP2
   10     4     5    20	 9 ;       HGP2      NG2P1      CG2O1      CG321
   10     4     5     6	 9 ;       HGP2      NG2P1      CG2O1      OG2D1
    2     4     5    20	 9 ;      CG2N1      NG2P1      CG2O1      CG321
    2     4     5     6	 9 ;      CG2N1      NG2P1      CG2O1      OG2D1
    6     5    20    21	 9 ;      OG2D1      CG2O1      CG321     NG2R51
    6     5    20    35	 9 ;      OG2D1      CG2O1      CG321       HGA2
    6     5    20    36	 9 ;      OG2D1      CG2O1      CG321       HGA2
    4     5    20    21	 9 ;      NG2P1      CG2O1      CG321     NG2R51
    4     5    20    35	 9 ;      NG2P1      CG2O1      CG321       HGA2
    4     5    20    36	 9 ;      NG2P1      CG2O1      CG321       HGA2
    1    11    12    18	 9 ;      NG2P1      CG324     CG2R61     CG2R61
    1    11    12    13	 9 ;      NG2P1      CG324     CG2R61     CG2R61
   30    11    12    18	 9 ;       HGA2      CG324     CG2R61     CG2R61
   30    11    12    13	 9 ;       HGA2      CG324     CG2R61     CG2R61
   31    11    12    18	 9 ;       HGA2      CG324     CG2R61     CG2R61
   31    11    12    13	 9 ;       HGA2      CG324     CG2R61     CG2R61
   11    12    18    17	 9 ;      CG324     CG2R61     CG2R61     CG2R61
   11    12    18    34	 9 ;      CG324     CG2R61     CG2R61      HGR62
   13    12    18    17	 9 ;     CG2R61     CG2R61     CG2R61     CG2R61
   13    12    18    34	 9 ;     CG2R61     CG2R61     CG2R61      HGR62
   11    12    13    14	 9 ;      CG324     CG2R61     CG2R61     CG2R61
   11    12    13    32	 9 ;      CG324     CG2R61     CG2R61      HGR62
   18    12    13    14	 9 ;     CG2R61     CG2R61     CG2R61     CG2R61
   18    12    13    32	 9 ;     CG2R61     CG2R61     CG2R61      HGR62
   12    13    14    16	 9 ;     CG2R61     CG2R61     CG2R61     CG2R61
   12    13    14    15	 9 ;     CG2R61     CG2R61     CG2R61      CLGR1
   32    13    14    16	 9 ;      HGR62     CG2R61     CG2R61     CG2R61
   32    13    14    15	 9 ;      HGR62     CG2R61     CG2R61      CLGR1
   13    14    16    17	 9 ;     CG2R61     CG2R61     CG2R61     CG2R61
   13    14    16    33	 9 ;     CG2R61     CG2R61     CG2R61      HGR62
   15    14    16    17	 9 ;      CLGR1     CG2R61     CG2R61     CG2R61
   15    14    16    33	 9 ;      CLGR1     CG2R61     CG2R61      HGR62
   14    16    17    18	 9 ;     CG2R61     CG2R61     CG2R61     CG2R61
   14    16    17    19	 9 ;     CG2R61     CG2R61     CG2R61      CLGR1
   33    16    17    18	 9 ;      HGR62     CG2R61     CG2R61     CG2R61
   33    16    17    19	 9 ;      HGR62     CG2R61     CG2R61      CLGR1
   19    17    18    12	 9 ;      CLGR1     CG2R61     CG2R61     CG2R61
   19    17    18    34	 9 ;      CLGR1     CG2R61     CG2R61      HGR62
   16    17    18    12	 9 ;     CG2R61     CG2R61     CG2R61     CG2R61
   16    17    18    34	 9 ;     CG2R61     CG2R61     CG2R61      HGR62
    5    20    21    22	 9 ;      CG2O1      CG321     NG2R51     CG2RC0
    5    20    21    29	 9 ;      CG2O1      CG321     NG2R51     CG2R51
   35    20    21    22	 9 ;       HGA2      CG321     NG2R51     CG2RC0
   35    20    21    29	 9 ;       HGA2      CG321     NG2R51     CG2R51
   36    20    21    22	 9 ;       HGA2      CG321     NG2R51     CG2RC0
   36    20    21    29	 9 ;       HGA2      CG321     NG2R51     CG2R51
   29    21    22    23	 9 ;     CG2R51     NG2R51     CG2RC0     CG2RC0
   29    21    22    24	 9 ;     CG2R51     NG2R51     CG2RC0     CG2R61
   20    21    22    23	 9 ;      CG321     NG2R51     CG2RC0     CG2RC0
   20    21    22    24	 9 ;      CG321     NG2R51     CG2RC0     CG2R61
   22    21    29    26	 9 ;     CG2RC0     NG2R51     CG2R51     CG2R51
   22    21    29    42	 9 ;     CG2RC0     NG2R51     CG2R51      HGR52
   20    21    29    26	 9 ;      CG321     NG2R51     CG2R51     CG2R51
   20    21    29    42	 9 ;      CG321     NG2R51     CG2R51      HGR52
   21    22    23    25	 9 ;     NG2R51     CG2RC0     CG2RC0     CG2R61
   21    22    23    26	 9 ;     NG2R51     CG2RC0     CG2RC0     CG2R51
   24    22    23    25	 9 ;     CG2R61     CG2RC0     CG2RC0     CG2R61
   24    22    23    26	 9 ;     CG2R61     CG2RC0     CG2RC0     CG2R51
   23    22    24    28	 9 ;     CG2RC0     CG2RC0     CG2R61     CG2R61
   23    22    24    37	 9 ;     CG2RC0     CG2RC0     CG2R61      HGR61
   21    22    24    28	 9 ;     NG2R51     CG2RC0     CG2R61     CG2R61
   21    22    24    37	 9 ;     NG2R51     CG2RC0     CG2R61      HGR61
   26    23    25    27	 9 ;     CG2R51     CG2RC0     CG2R61     CG2R61
   26    23    25    38	 9 ;     CG2R51     CG2RC0     CG2R61      HGR61
   22    23    25    27	 9 ;     CG2RC0     CG2RC0     CG2R61     CG2R61
   22    23    25    38	 9 ;     CG2RC0     CG2RC0     CG2R61      HGR61
   25    23    26    29	 9 ;     CG2R61     CG2RC0     CG2R51     CG2R51
   25    23    26    39	 9 ;     CG2R61     CG2RC0     CG2R51      HGR51
   22    23    26    29	 9 ;     CG2RC0     CG2RC0     CG2R51     CG2R51
   22    23    26    39	 9 ;     CG2RC0     CG2RC0     CG2R51      HGR51
   22    24    28    27	 9 ;     CG2RC0     CG2R61     CG2R61     CG2R61
   22    24    28    41	 9 ;     CG2RC0     CG2R61     CG2R61      HGR61
   37    24    28    27	 9 ;      HGR61     CG2R61     CG2R61     CG2R61
   37    24    28    41	 9 ;      HGR61     CG2R61     CG2R61      HGR61
   23    25    27    28	 9 ;     CG2RC0     CG2R61     CG2R61     CG2R61
   23    25    27    40	 9 ;     CG2RC0     CG2R61     CG2R61      HGR61
   38    25    27    28	 9 ;      HGR61     CG2R61     CG2R61     CG2R61
   38    25    27    40	 9 ;      HGR61     CG2R61     CG2R61      HGR61
   23    26    29    21	 9 ;     CG2RC0     CG2R51     CG2R51     NG2R51
   23    26    29    42	 9 ;     CG2RC0     CG2R51     CG2R51      HGR52
   39    26    29    21	 9 ;      HGR51     CG2R51     CG2R51     NG2R51
   39    26    29    42	 9 ;      HGR51     CG2R51     CG2R51      HGR52
   25    27    28    24	 9 ;     CG2R61     CG2R61     CG2R61     CG2R61
   25    27    28    41	 9 ;     CG2R61     CG2R61     CG2R61      HGR61
   40    27    28    24	 9 ;      HGR61     CG2R61     CG2R61     CG2R61
   40    27    28    41	 9 ;      HGR61     CG2R61     CG2R61      HGR61

[ dihedrals ]
;	ai	  aj	ak	  al funct			  c0			c1			  c2			c3
    2     4     3     1	 2
    5    20     4     6	 2

[ virtual_sites2 ]
; Site   from				funct a
   43    15    14     2   -0.164
   44    19    17     2   -0.164

[ exclusions ]
;	ai	  aj
   15    43
   19    44
   43    14
   44    17
   43    13
   43    16
   44    18
   44    16
   43    12
   44    12
   44    14
   43    32
   43    17
   43    33
   44    33
   44    34

