GRoups of Organic Molecules in ACtion for Science
   29
    1LIG    O2    1  -1.128  -0.103  -1.641
    1LIG    C2    2  -1.029   0.111  -1.601
    1LIG    C3    3  -1.033  -0.036  -1.606
    1LIG    O3    4  -0.987   0.382  -1.597
    1LIG    C4    5  -1.176   0.427  -1.731
    1LIG    C5    6  -1.288   0.375  -1.800
    1LIG    C6    7  -1.158   0.566  -1.719
    1LIG    C7    8  -1.382   0.465  -1.855
    1LIG    C8    9  -1.251   0.653  -1.775
    1LIG    C9   10  -1.362   0.603  -1.843
    1LIG   C10   11  -1.093   0.190  -1.689
    1LIG   C11   12  -1.174   0.152  -1.808
    1LIG   C12   13  -1.077   0.337  -1.666
    1LIG   C13   14  -1.308   0.226  -1.809
    1LIG    C1   15  -1.618   0.428  -1.860
    1LIG    O1   16  -1.490   0.407  -1.917
    1LIG    O4   17  -0.915  -0.090  -1.566
    1LIG   H12   18  -0.846  -0.024  -1.543
    1LIG    HC   19  -0.972   0.157  -1.522
    1LIG   HC1   20  -1.072   0.605  -1.666
    1LIG   HC2   21  -1.236   0.760  -1.767
    1LIG   HC3   22  -1.434   0.671  -1.886
    1LIG   HC4   23  -1.194   0.044  -1.805
    1LIG   HC5   24  -1.119   0.176  -1.899
    1LIG   HC6   25  -1.360   0.203  -1.902
    1LIG   HC7   26  -1.368   0.193  -1.725
    1LIG   HC8   27  -1.693   0.376  -1.920
    1LIG   HC9   28  -1.640   0.534  -1.858
    1LIG  HC10   29  -1.620   0.388  -1.758
   0.00000   0.00000   0.00000
