Good gRace! Old Maple Actually Chews Slate
   29
    1LIG     O2    1  -1.128  -0.103  -1.641
    1LIG     C2    2  -1.029   0.111  -1.601
    1LIG     C3    3  -1.033  -0.036  -1.606
    1LIG     O3    4  -0.987   0.382  -1.597
    1LIG     C4    5  -1.176   0.427  -1.731
    1LIG     C5    6  -1.288   0.375  -1.800
    1LIG     C6    7  -1.158   0.566  -1.719
    1LIG     C7    8  -1.382   0.465  -1.855
    1LIG     C8    9  -1.251   0.653  -1.775
    1LIG     C9   10  -1.362   0.603  -1.843
    1LIG    C10   11  -1.093   0.190  -1.689
    1LIG    C11   12  -1.174   0.152  -1.808
    1LIG    C12   13  -1.077   0.337  -1.666
    1LIG    C13   14  -1.308   0.226  -1.809
    1LIG     C1   15  -1.618   0.428  -1.860
    1LIG     O1   16  -1.490   0.407  -1.917
    1LIG     O4   17  -0.915  -0.090  -1.566
    1LIG    H12   18  -0.846  -0.024  -1.543
    1LIG     H1   19  -0.975   0.155  -1.526
    1LIG     H2   20  -1.076   0.603  -1.668
    1LIG     H3   21  -1.237   0.755  -1.768
    1LIG     H4   22  -1.431   0.668  -1.884
    1LIG     H5   23  -1.120   0.175  -1.897
    1LIG     H6   24  -1.194   0.046  -1.804
    1LIG     H7   25  -1.366   0.193  -1.726
    1LIG     H8   26  -1.357   0.205  -1.901
    1LIG     H9   27  -1.692   0.377  -1.919
    1LIG    H10   28  -1.640   0.532  -1.858
    1LIG    H11   29  -1.620   0.389  -1.760
   0.00000   0.00000   0.00000
