GROningen MAchine for Chemical Simulation
   51
    1LIG     C1    1  -1.318   0.354  -1.509
    1LIG     N1    2  -1.330   0.495  -1.459
    1LIG    HN1    3  -1.397   0.532  -1.392
    1LIG     C2    4  -1.235   0.557  -1.520
    1LIG     C3    5  -1.201   0.701  -1.504
    1LIG     C4    6  -1.159   0.469  -1.613
    1LIG     N2    7  -1.203   0.349  -1.606
    1LIG    HN2    8  -1.168   0.267  -1.656
    1LIG     C5    9  -1.451   0.318  -1.578
    1LIG     C6   10  -1.572   0.373  -1.530
    1LIG     C7   11  -1.698   0.336  -1.579
    1LIG     C8   12  -1.702   0.237  -1.678
    1LIG     C9   13  -1.583   0.181  -1.728
    1LIG    C10   14  -1.459   0.221  -1.678
    1LIG    C11   15  -1.821   0.401  -1.529
    1LIG    C12   16  -1.868   0.521  -1.579
    1LIG     N3   17  -1.980   0.585  -1.537
    1LIG    C13   18  -2.048   0.522  -1.440
    1LIG    HN3   19  -2.010   0.674  -1.576
    1LIG     N4   20  -2.014   0.406  -1.382
    1LIG    C14   21  -1.901   0.349  -1.429
    1LIG    HN4   22  -2.070   0.364  -1.308
    1LIG    C15   23  -1.280   0.268  -1.384
    1LIG    C16   24  -1.195   0.144  -1.399
    1LIG    C17   25  -1.067   0.136  -1.344
    1LIG    C18   26  -0.995   0.016  -1.347
    1LIG    C19   27  -1.051  -0.098  -1.404
    1LIG    C20   28  -1.178  -0.091  -1.460
    1LIG    C21   29  -1.250   0.028  -1.458
    1LIG     N5   30  -1.059   0.510  -1.694
    1LIG     H1   31  -1.013   0.433  -1.742
    1LIG     H2   32  -1.077   0.589  -1.755
    1LIG    HC1   33  -1.269   0.747  -1.432
    1LIG    HC2   34  -1.099   0.711  -1.469
    1LIG    HC3   35  -1.212   0.751  -1.600
    1LIG     HC   36  -1.567   0.448  -1.452
    1LIG    HC4   37  -1.797   0.203  -1.716
    1LIG    HC5   38  -1.588   0.105  -1.805
    1LIG    HC6   39  -1.369   0.178  -1.718
    1LIG    HC7   40  -1.811   0.568  -1.658
    1LIG    HC8   41  -2.138   0.570  -1.405
    1LIG    HC9   42  -1.870   0.255  -1.384
    1LIG   HC10   43  -1.227   0.334  -1.315
    1LIG   HC11   44  -1.373   0.238  -1.335
    1LIG   HC12   45  -1.023   0.224  -1.298
    1LIG   HC13   46  -0.896   0.012  -1.304
    1LIG   HC14   47  -0.995  -0.190  -1.405
    1LIG   HC15   48  -1.221  -0.179  -1.505
    1LIG   HC16   49  -1.349   0.032  -1.501
    1LIG    H24   50  -1.927   0.467  -1.653
    1LIG    H25   51  -2.105   0.468  -1.515
   0.00000   0.00000   0.00000
