Great Red Oystrich Makes All Chemists Sane
   59
    1LIG      F    1  -1.909   0.232  -1.722
    1LIG     C1    2  -1.844   0.311  -1.635
    1LIG     C2    3  -1.721   0.364  -1.665
    1LIG     C3    4  -1.655   0.450  -1.579
    1LIG     C4    5  -1.710   0.479  -1.454
    1LIG     C5    6  -1.836   0.428  -1.423
    1LIG     C6    7  -1.903   0.344  -1.514
    1LIG     C7    8  -1.530   0.501  -1.648
    1LIG     N1    9  -1.529   0.426  -1.780
    1LIG    HN1   10  -1.458   0.434  -1.854
    1LIG     C8   11  -1.636   0.351  -1.782
    1LIG     N2   12  -1.663   0.266  -1.884
    1LIG     H1   13  -1.758   0.233  -1.896
    1LIG     H2   14  -1.610   0.280  -1.969
    1LIG     C9   15  -1.406   0.463  -1.562
    1LIG    C10   16  -1.381   0.328  -1.529
    1LIG    C11   17  -1.273   0.289  -1.447
    1LIG    C12   18  -1.194   0.391  -1.392
    1LIG    C13   19  -1.217   0.525  -1.423
    1LIG    C14   20  -1.321   0.561  -1.508
    1LIG    C15   21  -1.241   0.147  -1.425
    1LIG    C16   22  -1.229   0.055  -1.529
    1LIG     N3   23  -1.194  -0.075  -1.514
    1LIG    C17   24  -1.168  -0.114  -1.389
    1LIG    HN2   25  -1.187  -0.138  -1.594
    1LIG     N4   26  -1.177  -0.037  -1.280
    1LIG    C18   27  -1.214   0.091  -1.301
    1LIG    HN3   28  -1.158  -0.074  -1.186
    1LIG    C19   29  -1.536   0.653  -1.679
    1LIG    C20   30  -1.627   0.739  -1.615
    1LIG    C21   31  -1.620   0.876  -1.635
    1LIG     N5   32  -1.533   0.932  -1.721
    1LIG    C22   33  -1.709   0.968  -1.557
    1LIG    C23   34  -1.450   0.850  -1.790
    1LIG    HN4   35  -1.529   1.033  -1.734
    1LIG    C24   36  -1.449   0.711  -1.772
    1LIG    C25   37  -1.355   0.914  -1.886
    1LIG     HC   38  -1.656   0.541  -1.384
    1LIG    HC1   39  -1.882   0.452  -1.328
    1LIG    HC2   40  -2.001   0.306  -1.489
    1LIG    HC3   41  -1.446   0.252  -1.568
    1LIG    HC4   42  -1.113   0.365  -1.325
    1LIG    HC5   43  -1.153   0.602  -1.381
    1LIG    HC6   44  -1.337   0.664  -1.533
    1LIG    HC7   45  -1.250   0.090  -1.629
    1LIG    HC8   46  -1.138  -0.217  -1.375
    1LIG    HC9   47  -1.223   0.155  -1.214
    1LIG   HC10   48  -1.702   0.698  -1.549
    1LIG   HC11   49  -1.690   1.071  -1.586
    1LIG   HC12   50  -1.688   0.956  -1.450
    1LIG   HC13   51  -1.813   0.943  -1.576
    1LIG   HC14   52  -1.382   0.649  -1.830
    1LIG   HC15   53  -1.370   1.022  -1.886
    1LIG   HC16   54  -1.372   0.875  -1.986
    1LIG   HC17   55  -1.252   0.892  -1.855
    1LIG    H25   56  -1.691   0.431  -1.832
    1LIG    H26   57  -1.125   0.083  -1.541
    1LIG    H27   58  -1.272  -0.143  -1.377
    1LIG    H28   59  -1.695   0.869  -1.714
   0.00000   0.00000   0.00000
