; Created by cgenff_charmm2gmx.py

[ moleculetype ]
; Name			   nrexcl
LIG				 3

[ atoms ]
;	 nr		  type	resnr residue  atom   cgnr	   charge		mass  typeB    chargeB		massB
; residue	 1 LIG rtp LIG q	qsum
     1       FGR1      1    LIG      F      1     -0.165     18.998   ;
     2     CG2R66      1    LIG     C1      2      0.188     12.011   ;
     3     CG2RC0      1    LIG     C2      3     -0.166     12.011   ;
     4     CG2RC0      1    LIG     C3      4     -0.703     12.011   ;
     5     CG2R61      1    LIG     C4      5     -0.199     12.011   ;
     6     CG2R61      1    LIG     C5      6     -0.288     12.011   ;
     7     CG2R61      1    LIG     C6      7     -0.088     12.011   ;
     8     CG3C50      1    LIG     C7      8      1.457     12.011   ;
     9     NG3C51      1    LIG     N1      9     -0.814     14.007   ;
    10       HGP1      1    LIG    HN1     10      0.286      1.008   ;
    11     CG3C51      1    LIG     C8     11      0.296     12.011   ;
    12      NG321      1    LIG     N2     12     -0.998     14.007   ;
    13     HGPAM2      1    LIG     H1     13      0.379      1.008   ;
    14     HGPAM2      1    LIG     H2     14      0.379      1.008   ;
    15     CG2R61      1    LIG     C9     15     -0.048     12.011   ;
    16     CG2R61      1    LIG    C10     16     -0.185     12.011   ;
    17     CG2R61      1    LIG    C11     17      0.025     12.011   ;
    18     CG2R61      1    LIG    C12     18     -0.120     12.011   ;
    19     CG2R61      1    LIG    C13     19     -0.102     12.011   ;
    20     CG2R61      1    LIG    C14     20     -0.181     12.011   ;
    21     CG2DC1      1    LIG    C15     21     -0.086     12.011   ;
    22      CG321      1    LIG    C16     22      0.013     12.011   ;
    23      NG311      1    LIG     N3     23     -0.656     14.007   ;
    24      CG321      1    LIG    C17     24      0.131     12.011   ;
    25     HGPAM1      1    LIG    HN2     25      0.367      1.008   ;
    26      NG311      1    LIG     N4     26     -0.598     14.007   ;
    27     CG2D1O      1    LIG    C18     27     -0.097     12.011   ;
    28     HGPAM1      1    LIG    HN3     28      0.406      1.008   ;
    29     CG2DC1      1    LIG    C19     29      0.140     12.011   ;
    30     CG2DC1      1    LIG    C20     30     -0.332     12.011   ;
    31      CG311      1    LIG    C21     31      0.239     12.011   ;
    32      NG311      1    LIG     N5     32     -0.567     14.007   ;
    33      CG331      1    LIG    C22     33     -0.247     12.011   ;
    34     CG2D2O      1    LIG    C23     34      0.315     12.011   ;
    35     HGPAM1      1    LIG    HN4     35      0.283      1.008   ;
    36     CG2DC2      1    LIG    C24     36     -0.479     12.011   ;
    37      CG331      1    LIG    C25     37     -0.281     12.011   ;
    38      HGR61      1    LIG     HC     38      0.189      1.008   ;
    39      HGR61      1    LIG    HC1     39      0.134      1.008   ;
    40      HGR62      1    LIG    HC2     40      0.166      1.008   ;
    41      HGR61      1    LIG    HC3     41      0.116      1.008   ;
    42      HGR61      1    LIG    HC4     42      0.116      1.008   ;
    43      HGR61      1    LIG    HC5     43      0.116      1.008   ;
    44      HGR61      1    LIG    HC6     44      0.116      1.008   ;
    45       HGA2      1    LIG    HC7     45      0.090      1.008   ;
    46       HGA2      1    LIG    HC8     46      0.090      1.008   ;
    47       HGA4      1    LIG    HC9     47      0.148      1.008   ;
    48       HGA4      1    LIG   HC10     48      0.153      1.008   ;
    49       HGA3      1    LIG   HC11     49      0.090      1.008   ;
    50       HGA3      1    LIG   HC12     50      0.090      1.008   ;
    51       HGA3      1    LIG   HC13     51      0.090      1.008   ;
    52       HGA4      1    LIG   HC14     52      0.136      1.008   ;
    53       HGA3      1    LIG   HC15     53      0.090      1.008   ;
    54       HGA3      1    LIG   HC16     54      0.090      1.008   ;
    55       HGA3      1    LIG   HC17     55      0.090      1.008   ;
    56       HGA1      1    LIG    H25     56      0.116      1.008   ;
    57       HGA2      1    LIG    H26     57      0.090      1.008   ;
    58       HGA2      1    LIG    H27     58      0.090      1.008   ;
    59       HGA1      1    LIG    H28     59      0.090      1.008   ;

[ bonds ]
;	ai	  aj funct			  c0			c1			  c2			c3
    1     2	 1 ;        FGR1     CG2R66
    2     3	 1 ;      CG2R66     CG2RC0
    2     7	 1 ;      CG2R66     CG2R61
    3    11	 1 ;      CG2RC0     CG3C51
    3     4	 1 ;      CG2RC0     CG2RC0
    4     8	 1 ;      CG2RC0     CG3C50
    4     5	 1 ;      CG2RC0     CG2R61
    5     6	 1 ;      CG2R61     CG2R61
    5    38	 1 ;      CG2R61      HGR61
    6     7	 1 ;      CG2R61     CG2R61
    6    39	 1 ;      CG2R61      HGR61
    7    40	 1 ;      CG2R61      HGR62
    8     9	 1 ;      CG3C50     NG3C51
    8    15	 1 ;      CG3C50     CG2R61
    8    29	 1 ;      CG3C50     CG2DC1
    9    10	 1 ;      NG3C51       HGP1
    9    11	 1 ;      NG3C51     CG3C51
   11    12	 1 ;      CG3C51      NG321
   11    56	 1 ;      CG3C51       HGA1
   12    14	 1 ;       NG321     HGPAM2
   12    13	 1 ;       NG321     HGPAM2
   15    20	 1 ;      CG2R61     CG2R61
   15    16	 1 ;      CG2R61     CG2R61
   16    17	 1 ;      CG2R61     CG2R61
   16    41	 1 ;      CG2R61      HGR61
   17    18	 1 ;      CG2R61     CG2R61
   17    21	 1 ;      CG2R61     CG2DC1
   18    19	 1 ;      CG2R61     CG2R61
   18    42	 1 ;      CG2R61      HGR61
   19    20	 1 ;      CG2R61     CG2R61
   19    43	 1 ;      CG2R61      HGR61
   20    44	 1 ;      CG2R61      HGR61
   21    22	 1 ;      CG2DC1      CG321
   21    27	 1 ;      CG2DC1     CG2D1O
   22    23	 1 ;       CG321      NG311
   22    45	 1 ;       CG321       HGA2
   22    57	 1 ;       CG321       HGA2
   23    25	 1 ;       NG311     HGPAM1
   23    24	 1 ;       NG311      CG321
   24    26	 1 ;       CG321      NG311
   24    46	 1 ;       CG321       HGA2
   24    58	 1 ;       CG321       HGA2
   26    27	 1 ;       NG311     CG2D1O
   26    28	 1 ;       NG311     HGPAM1
   27    47	 1 ;      CG2D1O       HGA4
   29    36	 1 ;      CG2DC1     CG2DC2
   29    30	 1 ;      CG2DC1     CG2DC1
   30    31	 1 ;      CG2DC1      CG311
   30    48	 1 ;      CG2DC1       HGA4
   31    32	 1 ;       CG311      NG311
   31    33	 1 ;       CG311      CG331
   31    59	 1 ;       CG311       HGA1
   32    34	 1 ;       NG311     CG2D2O
   32    35	 1 ;       NG311     HGPAM1
   33    49	 1 ;       CG331       HGA3
   33    50	 1 ;       CG331       HGA3
   33    51	 1 ;       CG331       HGA3
   34    37	 1 ;      CG2D2O      CG331
   34    36	 1 ;      CG2D2O     CG2DC2
   36    52	 1 ;      CG2DC2       HGA4
   37    53	 1 ;       CG331       HGA3
   37    54	 1 ;       CG331       HGA3
   37    55	 1 ;       CG331       HGA3

[ pairs ]
;	ai	  aj funct			  c0			c1			  c2			c3
    1    11	 1
    1     4	 1
    1     6	 1
    1    40	 1
    2     9	 1
    2    12	 1
    2    56	 1
    2     8	 1
    2     5	 1
    2    39	 1
    3     6	 1
    3    40	 1
    3    15	 1
    3    29	 1
    3    38	 1
    3    10	 1
    3    14	 1
    3    13	 1
    4     7	 1
    4    12	 1
    4    56	 1
    4    39	 1
    4    10	 1
    4    20	 1
    4    16	 1
    4    36	 1
    4    30	 1
    5    11	 1
    5     9	 1
    5    15	 1
    5    29	 1
    5    40	 1
    6     8	 1
    7    11	 1
    7    38	 1
    8    38	 1
    8    12	 1
    8    56	 1
    8    19	 1
    8    44	 1
    8    17	 1
    8    41	 1
    8    34	 1
    8    52	 1
    8    31	 1
    8    48	 1
    9    20	 1
    9    16	 1
    9    36	 1
    9    30	 1
    9    14	 1
    9    13	 1
   10    15	 1
   10    29	 1
   10    12	 1
   10    56	 1
   11    15	 1
   11    29	 1
   13    56	 1
   14    56	 1
   15    36	 1
   15    30	 1
   15    18	 1
   15    21	 1
   15    43	 1
   16    29	 1
   16    19	 1
   16    44	 1
   16    42	 1
   16    22	 1
   16    27	 1
   17    20	 1
   17    43	 1
   17    23	 1
   17    45	 1
   17    57	 1
   17    26	 1
   17    47	 1
   18    41	 1
   18    22	 1
   18    27	 1
   18    44	 1
   19    21	 1
   20    29	 1
   20    41	 1
   20    42	 1
   21    41	 1
   21    42	 1
   21    25	 1
   21    24	 1
   21    28	 1
   22    26	 1
   22    47	 1
   22    46	 1
   22    58	 1
   23    27	 1
   23    28	 1
   24    45	 1
   24    57	 1
   24    47	 1
   25    45	 1
   25    57	 1
   25    26	 1
   25    46	 1
   25    58	 1
   27    45	 1
   27    57	 1
   27    46	 1
   27    58	 1
   28    46	 1
   28    58	 1
   28    47	 1
   29    32	 1
   29    33	 1
   29    59	 1
   29    37	 1
   30    34	 1
   30    52	 1
   30    35	 1
   30    49	 1
   30    50	 1
   30    51	 1
   31    36	 1
   31    37	 1
   32    48	 1
   32    49	 1
   32    50	 1
   32    51	 1
   32    53	 1
   32    54	 1
   32    55	 1
   32    52	 1
   33    48	 1
   33    34	 1
   33    35	 1
   34    59	 1
   35    59	 1
   35    37	 1
   35    36	 1
   36    48	 1
   36    53	 1
   36    54	 1
   36    55	 1
   37    52	 1
   38    39	 1
   39    40	 1
   42    43	 1
   43    44	 1
   48    59	 1
   49    59	 1
   50    59	 1
   51    59	 1

[ angles ]
;	ai	  aj	ak funct			c0			  c1			c2			  c3
    3     2     1	5 ;     CG2RC0     CG2R66       FGR1
    3     2     7	5 ;     CG2RC0     CG2R66     CG2R61
    1     2     7	5 ;       FGR1     CG2R66     CG2R61
   11     3     4	5 ;     CG3C51     CG2RC0     CG2RC0
   11     3     2	5 ;     CG3C51     CG2RC0     CG2R66
    4     3     2	5 ;     CG2RC0     CG2RC0     CG2R66
    8     4     3	5 ;     CG3C50     CG2RC0     CG2RC0
    8     4     5	5 ;     CG3C50     CG2RC0     CG2R61
    3     4     5	5 ;     CG2RC0     CG2RC0     CG2R61
    4     5     6	5 ;     CG2RC0     CG2R61     CG2R61
    4     5    38	5 ;     CG2RC0     CG2R61      HGR61
    6     5    38	5 ;     CG2R61     CG2R61      HGR61
    5     6     7	5 ;     CG2R61     CG2R61     CG2R61
    5     6    39	5 ;     CG2R61     CG2R61      HGR61
    7     6    39	5 ;     CG2R61     CG2R61      HGR61
    2     7     6	5 ;     CG2R66     CG2R61     CG2R61
    2     7    40	5 ;     CG2R66     CG2R61      HGR62
    6     7    40	5 ;     CG2R61     CG2R61      HGR62
    9     8    15	5 ;     NG3C51     CG3C50     CG2R61
    9     8    29	5 ;     NG3C51     CG3C50     CG2DC1
    9     8     4	5 ;     NG3C51     CG3C50     CG2RC0
   15     8    29	5 ;     CG2R61     CG3C50     CG2DC1
   15     8     4	5 ;     CG2R61     CG3C50     CG2RC0
   29     8     4	5 ;     CG2DC1     CG3C50     CG2RC0
   10     9     8	5 ;       HGP1     NG3C51     CG3C50
   10     9    11	5 ;       HGP1     NG3C51     CG3C51
    8     9    11	5 ;     CG3C50     NG3C51     CG3C51
    9    11    12	5 ;     NG3C51     CG3C51      NG321
    9    11     3	5 ;     NG3C51     CG3C51     CG2RC0
    9    11    56	5 ;     NG3C51     CG3C51       HGA1
   12    11     3	5 ;      NG321     CG3C51     CG2RC0
   12    11    56	5 ;      NG321     CG3C51       HGA1
    3    11    56	5 ;     CG2RC0     CG3C51       HGA1
   14    12    11	5 ;     HGPAM2      NG321     CG3C51
   14    12    13	5 ;     HGPAM2      NG321     HGPAM2
   11    12    13	5 ;     CG3C51      NG321     HGPAM2
   20    15    16	5 ;     CG2R61     CG2R61     CG2R61
   20    15     8	5 ;     CG2R61     CG2R61     CG3C50
   16    15     8	5 ;     CG2R61     CG2R61     CG3C50
   17    16    15	5 ;     CG2R61     CG2R61     CG2R61
   17    16    41	5 ;     CG2R61     CG2R61      HGR61
   15    16    41	5 ;     CG2R61     CG2R61      HGR61
   18    17    21	5 ;     CG2R61     CG2R61     CG2DC1
   18    17    16	5 ;     CG2R61     CG2R61     CG2R61
   21    17    16	5 ;     CG2DC1     CG2R61     CG2R61
   19    18    17	5 ;     CG2R61     CG2R61     CG2R61
   19    18    42	5 ;     CG2R61     CG2R61      HGR61
   17    18    42	5 ;     CG2R61     CG2R61      HGR61
   18    19    20	5 ;     CG2R61     CG2R61     CG2R61
   18    19    43	5 ;     CG2R61     CG2R61      HGR61
   20    19    43	5 ;     CG2R61     CG2R61      HGR61
   19    20    15	5 ;     CG2R61     CG2R61     CG2R61
   19    20    44	5 ;     CG2R61     CG2R61      HGR61
   15    20    44	5 ;     CG2R61     CG2R61      HGR61
   22    21    17	5 ;      CG321     CG2DC1     CG2R61
   22    21    27	5 ;      CG321     CG2DC1     CG2D1O
   17    21    27	5 ;     CG2R61     CG2DC1     CG2D1O
   23    22    21	5 ;      NG311      CG321     CG2DC1
   23    22    45	5 ;      NG311      CG321       HGA2
   23    22    57	5 ;      NG311      CG321       HGA2
   21    22    45	5 ;     CG2DC1      CG321       HGA2
   21    22    57	5 ;     CG2DC1      CG321       HGA2
   45    22    57	5 ;       HGA2      CG321       HGA2
   25    23    22	5 ;     HGPAM1      NG311      CG321
   25    23    24	5 ;     HGPAM1      NG311      CG321
   22    23    24	5 ;      CG321      NG311      CG321
   23    24    26	5 ;      NG311      CG321      NG311
   23    24    46	5 ;      NG311      CG321       HGA2
   23    24    58	5 ;      NG311      CG321       HGA2
   26    24    46	5 ;      NG311      CG321       HGA2
   26    24    58	5 ;      NG311      CG321       HGA2
   46    24    58	5 ;       HGA2      CG321       HGA2
   24    26    27	5 ;      CG321      NG311     CG2D1O
   24    26    28	5 ;      CG321      NG311     HGPAM1
   27    26    28	5 ;     CG2D1O      NG311     HGPAM1
   21    27    26	5 ;     CG2DC1     CG2D1O      NG311
   21    27    47	5 ;     CG2DC1     CG2D1O       HGA4
   26    27    47	5 ;      NG311     CG2D1O       HGA4
   36    29     8	5 ;     CG2DC2     CG2DC1     CG3C50
   36    29    30	5 ;     CG2DC2     CG2DC1     CG2DC1
    8    29    30	5 ;     CG3C50     CG2DC1     CG2DC1
   29    30    31	5 ;     CG2DC1     CG2DC1      CG311
   29    30    48	5 ;     CG2DC1     CG2DC1       HGA4
   31    30    48	5 ;      CG311     CG2DC1       HGA4
   32    31    30	5 ;      NG311      CG311     CG2DC1
   32    31    33	5 ;      NG311      CG311      CG331
   32    31    59	5 ;      NG311      CG311       HGA1
   30    31    33	5 ;     CG2DC1      CG311      CG331
   30    31    59	5 ;     CG2DC1      CG311       HGA1
   33    31    59	5 ;      CG331      CG311       HGA1
   34    32    35	5 ;     CG2D2O      NG311     HGPAM1
   34    32    31	5 ;     CG2D2O      NG311      CG311
   35    32    31	5 ;     HGPAM1      NG311      CG311
   31    33    49	5 ;      CG311      CG331       HGA3
   31    33    50	5 ;      CG311      CG331       HGA3
   31    33    51	5 ;      CG311      CG331       HGA3
   49    33    50	5 ;       HGA3      CG331       HGA3
   49    33    51	5 ;       HGA3      CG331       HGA3
   50    33    51	5 ;       HGA3      CG331       HGA3
   37    34    36	5 ;      CG331     CG2D2O     CG2DC2
   37    34    32	5 ;      CG331     CG2D2O      NG311
   36    34    32	5 ;     CG2DC2     CG2D2O      NG311
   34    36    29	5 ;     CG2D2O     CG2DC2     CG2DC1
   34    36    52	5 ;     CG2D2O     CG2DC2       HGA4
   29    36    52	5 ;     CG2DC1     CG2DC2       HGA4
   34    37    53	5 ;     CG2D2O      CG331       HGA3
   34    37    54	5 ;     CG2D2O      CG331       HGA3
   34    37    55	5 ;     CG2D2O      CG331       HGA3
   53    37    54	5 ;       HGA3      CG331       HGA3
   53    37    55	5 ;       HGA3      CG331       HGA3
   54    37    55	5 ;       HGA3      CG331       HGA3

[ dihedrals ]
;	ai	  aj	ak	  al funct			  c0			c1			  c2			c3			  c4			c5
    1     2     3    11	 9 ;       FGR1     CG2R66     CG2RC0     CG3C51
    1     2     3     4	 9 ;       FGR1     CG2R66     CG2RC0     CG2RC0
    7     2     3    11	 9 ;     CG2R61     CG2R66     CG2RC0     CG3C51
    7     2     3     4	 9 ;     CG2R61     CG2R66     CG2RC0     CG2RC0
    3     2     7     6	 9 ;     CG2RC0     CG2R66     CG2R61     CG2R61
    3     2     7    40	 9 ;     CG2RC0     CG2R66     CG2R61      HGR62
    1     2     7     6	 9 ;       FGR1     CG2R66     CG2R61     CG2R61
    1     2     7    40	 9 ;       FGR1     CG2R66     CG2R61      HGR62
    4     3    11     9	 9 ;     CG2RC0     CG2RC0     CG3C51     NG3C51
    4     3    11    12	 9 ;     CG2RC0     CG2RC0     CG3C51      NG321
    4     3    11    56	 9 ;     CG2RC0     CG2RC0     CG3C51       HGA1
    2     3    11     9	 9 ;     CG2R66     CG2RC0     CG3C51     NG3C51
    2     3    11    12	 9 ;     CG2R66     CG2RC0     CG3C51      NG321
    2     3    11    56	 9 ;     CG2R66     CG2RC0     CG3C51       HGA1
   11     3     4     8	 9 ;     CG3C51     CG2RC0     CG2RC0     CG3C50
   11     3     4     5	 9 ;     CG3C51     CG2RC0     CG2RC0     CG2R61
    2     3     4     8	 9 ;     CG2R66     CG2RC0     CG2RC0     CG3C50
    2     3     4     5	 9 ;     CG2R66     CG2RC0     CG2RC0     CG2R61
    3     4     8     9	 9 ;     CG2RC0     CG2RC0     CG3C50     NG3C51
    3     4     8    15	 9 ;     CG2RC0     CG2RC0     CG3C50     CG2R61
    3     4     8    29	 9 ;     CG2RC0     CG2RC0     CG3C50     CG2DC1
    5     4     8     9	 9 ;     CG2R61     CG2RC0     CG3C50     NG3C51
    5     4     8    15	 9 ;     CG2R61     CG2RC0     CG3C50     CG2R61
    5     4     8    29	 9 ;     CG2R61     CG2RC0     CG3C50     CG2DC1
    8     4     5     6	 9 ;     CG3C50     CG2RC0     CG2R61     CG2R61
    8     4     5    38	 9 ;     CG3C50     CG2RC0     CG2R61      HGR61
    3     4     5     6	 9 ;     CG2RC0     CG2RC0     CG2R61     CG2R61
    3     4     5    38	 9 ;     CG2RC0     CG2RC0     CG2R61      HGR61
    4     5     6     7	 9 ;     CG2RC0     CG2R61     CG2R61     CG2R61
    4     5     6    39	 9 ;     CG2RC0     CG2R61     CG2R61      HGR61
   38     5     6     7	 9 ;      HGR61     CG2R61     CG2R61     CG2R61
   38     5     6    39	 9 ;      HGR61     CG2R61     CG2R61      HGR61
    5     6     7     2	 9 ;     CG2R61     CG2R61     CG2R61     CG2R66
    5     6     7    40	 9 ;     CG2R61     CG2R61     CG2R61      HGR62
   39     6     7     2	 9 ;      HGR61     CG2R61     CG2R61     CG2R66
   39     6     7    40	 9 ;      HGR61     CG2R61     CG2R61      HGR62
   15     8     9    10	 9 ;     CG2R61     CG3C50     NG3C51       HGP1
   15     8     9    11	 9 ;     CG2R61     CG3C50     NG3C51     CG3C51
   29     8     9    10	 9 ;     CG2DC1     CG3C50     NG3C51       HGP1
   29     8     9    11	 9 ;     CG2DC1     CG3C50     NG3C51     CG3C51
    4     8     9    10	 9 ;     CG2RC0     CG3C50     NG3C51       HGP1
    4     8     9    11	 9 ;     CG2RC0     CG3C50     NG3C51     CG3C51
    9     8    15    20	 9 ;     NG3C51     CG3C50     CG2R61     CG2R61
    9     8    15    16	 9 ;     NG3C51     CG3C50     CG2R61     CG2R61
   29     8    15    20	 9 ;     CG2DC1     CG3C50     CG2R61     CG2R61
   29     8    15    16	 9 ;     CG2DC1     CG3C50     CG2R61     CG2R61
    4     8    15    20	 9 ;     CG2RC0     CG3C50     CG2R61     CG2R61
    4     8    15    16	 9 ;     CG2RC0     CG3C50     CG2R61     CG2R61
    9     8    29    36	 9 ;     NG3C51     CG3C50     CG2DC1     CG2DC2
    9     8    29    30	 9 ;     NG3C51     CG3C50     CG2DC1     CG2DC1
   15     8    29    36	 9 ;     CG2R61     CG3C50     CG2DC1     CG2DC2
   15     8    29    30	 9 ;     CG2R61     CG3C50     CG2DC1     CG2DC1
    4     8    29    36	 9 ;     CG2RC0     CG3C50     CG2DC1     CG2DC2
    4     8    29    30	 9 ;     CG2RC0     CG3C50     CG2DC1     CG2DC1
   10     9    11    12	 9 ;       HGP1     NG3C51     CG3C51      NG321
   10     9    11     3	 9 ;       HGP1     NG3C51     CG3C51     CG2RC0
   10     9    11    56	 9 ;       HGP1     NG3C51     CG3C51       HGA1
    8     9    11    12	 9 ;     CG3C50     NG3C51     CG3C51      NG321
    8     9    11     3	 9 ;     CG3C50     NG3C51     CG3C51     CG2RC0
    8     9    11    56	 9 ;     CG3C50     NG3C51     CG3C51       HGA1
    9    11    12    14	 9 ;     NG3C51     CG3C51      NG321     HGPAM2
    9    11    12    13	 9 ;     NG3C51     CG3C51      NG321     HGPAM2
    3    11    12    14	 9 ;     CG2RC0     CG3C51      NG321     HGPAM2
    3    11    12    13	 9 ;     CG2RC0     CG3C51      NG321     HGPAM2
   56    11    12    14	 9 ;       HGA1     CG3C51      NG321     HGPAM2
   56    11    12    13	 9 ;       HGA1     CG3C51      NG321     HGPAM2
   16    15    20    19	 9 ;     CG2R61     CG2R61     CG2R61     CG2R61
   16    15    20    44	 9 ;     CG2R61     CG2R61     CG2R61      HGR61
    8    15    20    19	 9 ;     CG3C50     CG2R61     CG2R61     CG2R61
    8    15    20    44	 9 ;     CG3C50     CG2R61     CG2R61      HGR61
   20    15    16    17	 9 ;     CG2R61     CG2R61     CG2R61     CG2R61
   20    15    16    41	 9 ;     CG2R61     CG2R61     CG2R61      HGR61
    8    15    16    17	 9 ;     CG3C50     CG2R61     CG2R61     CG2R61
    8    15    16    41	 9 ;     CG3C50     CG2R61     CG2R61      HGR61
   15    16    17    18	 9 ;     CG2R61     CG2R61     CG2R61     CG2R61
   15    16    17    21	 9 ;     CG2R61     CG2R61     CG2R61     CG2DC1
   41    16    17    18	 9 ;      HGR61     CG2R61     CG2R61     CG2R61
   41    16    17    21	 9 ;      HGR61     CG2R61     CG2R61     CG2DC1
   21    17    18    19	 9 ;     CG2DC1     CG2R61     CG2R61     CG2R61
   21    17    18    42	 9 ;     CG2DC1     CG2R61     CG2R61      HGR61
   16    17    18    19	 9 ;     CG2R61     CG2R61     CG2R61     CG2R61
   16    17    18    42	 9 ;     CG2R61     CG2R61     CG2R61      HGR61
   18    17    21    22	 9 ;     CG2R61     CG2R61     CG2DC1      CG321
   18    17    21    27	 9 ;     CG2R61     CG2R61     CG2DC1     CG2D1O
   16    17    21    22	 9 ;     CG2R61     CG2R61     CG2DC1      CG321
   16    17    21    27	 9 ;     CG2R61     CG2R61     CG2DC1     CG2D1O
   17    18    19    20	 9 ;     CG2R61     CG2R61     CG2R61     CG2R61
   17    18    19    43	 9 ;     CG2R61     CG2R61     CG2R61      HGR61
   42    18    19    20	 9 ;      HGR61     CG2R61     CG2R61     CG2R61
   42    18    19    43	 9 ;      HGR61     CG2R61     CG2R61      HGR61
   18    19    20    15	 9 ;     CG2R61     CG2R61     CG2R61     CG2R61
   18    19    20    44	 9 ;     CG2R61     CG2R61     CG2R61      HGR61
   43    19    20    15	 9 ;      HGR61     CG2R61     CG2R61     CG2R61
   43    19    20    44	 9 ;      HGR61     CG2R61     CG2R61      HGR61
   17    21    22    23	 9 ;     CG2R61     CG2DC1      CG321      NG311
   17    21    22    45	 9 ;     CG2R61     CG2DC1      CG321       HGA2
   17    21    22    57	 9 ;     CG2R61     CG2DC1      CG321       HGA2
   27    21    22    23	 9 ;     CG2D1O     CG2DC1      CG321      NG311
   27    21    22    45	 9 ;     CG2D1O     CG2DC1      CG321       HGA2
   27    21    22    57	 9 ;     CG2D1O     CG2DC1      CG321       HGA2
   22    21    27    26	 9 ;      CG321     CG2DC1     CG2D1O      NG311
   22    21    27    47	 9 ;      CG321     CG2DC1     CG2D1O       HGA4
   17    21    27    26	 9 ;     CG2R61     CG2DC1     CG2D1O      NG311
   17    21    27    47	 9 ;     CG2R61     CG2DC1     CG2D1O       HGA4
   21    22    23    25	 9 ;     CG2DC1      CG321      NG311     HGPAM1
   21    22    23    24	 9 ;     CG2DC1      CG321      NG311      CG321
   45    22    23    25	 9 ;       HGA2      CG321      NG311     HGPAM1
   45    22    23    24	 9 ;       HGA2      CG321      NG311      CG321
   57    22    23    25	 9 ;       HGA2      CG321      NG311     HGPAM1
   57    22    23    24	 9 ;       HGA2      CG321      NG311      CG321
   25    23    24    26	 9 ;     HGPAM1      NG311      CG321      NG311
   25    23    24    46	 9 ;     HGPAM1      NG311      CG321       HGA2
   25    23    24    58	 9 ;     HGPAM1      NG311      CG321       HGA2
   22    23    24    26	 9 ;      CG321      NG311      CG321      NG311
   22    23    24    46	 9 ;      CG321      NG311      CG321       HGA2
   22    23    24    58	 9 ;      CG321      NG311      CG321       HGA2
   23    24    26    27	 9 ;      NG311      CG321      NG311     CG2D1O
   23    24    26    28	 9 ;      NG311      CG321      NG311     HGPAM1
   46    24    26    27	 9 ;       HGA2      CG321      NG311     CG2D1O
   46    24    26    28	 9 ;       HGA2      CG321      NG311     HGPAM1
   58    24    26    27	 9 ;       HGA2      CG321      NG311     CG2D1O
   58    24    26    28	 9 ;       HGA2      CG321      NG311     HGPAM1
   24    26    27    21	 9 ;      CG321      NG311     CG2D1O     CG2DC1
   24    26    27    47	 9 ;      CG321      NG311     CG2D1O       HGA4
   28    26    27    21	 9 ;     HGPAM1      NG311     CG2D1O     CG2DC1
   28    26    27    47	 9 ;     HGPAM1      NG311     CG2D1O       HGA4
    8    29    36    34	 9 ;     CG3C50     CG2DC1     CG2DC2     CG2D2O
    8    29    36    52	 9 ;     CG3C50     CG2DC1     CG2DC2       HGA4
   30    29    36    34	 9 ;     CG2DC1     CG2DC1     CG2DC2     CG2D2O
   30    29    36    52	 9 ;     CG2DC1     CG2DC1     CG2DC2       HGA4
   36    29    30    31	 9 ;     CG2DC2     CG2DC1     CG2DC1      CG311
   36    29    30    48	 9 ;     CG2DC2     CG2DC1     CG2DC1       HGA4
    8    29    30    31	 9 ;     CG3C50     CG2DC1     CG2DC1      CG311
    8    29    30    48	 9 ;     CG3C50     CG2DC1     CG2DC1       HGA4
   29    30    31    32	 9 ;     CG2DC1     CG2DC1      CG311      NG311
   29    30    31    33	 9 ;     CG2DC1     CG2DC1      CG311      CG331
   29    30    31    59	 9 ;     CG2DC1     CG2DC1      CG311       HGA1
   48    30    31    32	 9 ;       HGA4     CG2DC1      CG311      NG311
   48    30    31    33	 9 ;       HGA4     CG2DC1      CG311      CG331
   48    30    31    59	 9 ;       HGA4     CG2DC1      CG311       HGA1
   30    31    32    34	 9 ;     CG2DC1      CG311      NG311     CG2D2O
   30    31    32    35	 9 ;     CG2DC1      CG311      NG311     HGPAM1
   33    31    32    34	 9 ;      CG331      CG311      NG311     CG2D2O
   33    31    32    35	 9 ;      CG331      CG311      NG311     HGPAM1
   59    31    32    34	 9 ;       HGA1      CG311      NG311     CG2D2O
   59    31    32    35	 9 ;       HGA1      CG311      NG311     HGPAM1
   32    31    33    49	 9 ;      NG311      CG311      CG331       HGA3
   32    31    33    50	 9 ;      NG311      CG311      CG331       HGA3
   32    31    33    51	 9 ;      NG311      CG311      CG331       HGA3
   30    31    33    49	 9 ;     CG2DC1      CG311      CG331       HGA3
   30    31    33    50	 9 ;     CG2DC1      CG311      CG331       HGA3
   30    31    33    51	 9 ;     CG2DC1      CG311      CG331       HGA3
   59    31    33    49	 9 ;       HGA1      CG311      CG331       HGA3
   59    31    33    50	 9 ;       HGA1      CG311      CG331       HGA3
   59    31    33    51	 9 ;       HGA1      CG311      CG331       HGA3
   35    32    34    37	 9 ;     HGPAM1      NG311     CG2D2O      CG331
   35    32    34    36	 9 ;     HGPAM1      NG311     CG2D2O     CG2DC2
   31    32    34    37	 9 ;      CG311      NG311     CG2D2O      CG331
   31    32    34    36	 9 ;      CG311      NG311     CG2D2O     CG2DC2
   36    34    37    53	 9 ;     CG2DC2     CG2D2O      CG331       HGA3
   36    34    37    54	 9 ;     CG2DC2     CG2D2O      CG331       HGA3
   36    34    37    55	 9 ;     CG2DC2     CG2D2O      CG331       HGA3
   32    34    37    53	 9 ;      NG311     CG2D2O      CG331       HGA3
   32    34    37    54	 9 ;      NG311     CG2D2O      CG331       HGA3
   32    34    37    55	 9 ;      NG311     CG2D2O      CG331       HGA3
   37    34    36    29	 9 ;      CG331     CG2D2O     CG2DC2     CG2DC1
   37    34    36    52	 9 ;      CG331     CG2D2O     CG2DC2       HGA4
   32    34    36    29	 9 ;      NG311     CG2D2O     CG2DC2     CG2DC1
   32    34    36    52	 9 ;      NG311     CG2D2O     CG2DC2       HGA4

[ dihedrals ]
;	ai	  aj	ak	  al funct			  c0			c1			  c2			c3
   27    21    26    47	 2
   34    36    37    32	 2

