; Created by cgenff_charmm2gmx.py

[ moleculetype ]
; Name			   nrexcl
LIG				 3

[ atoms ]
;	 nr		  type	resnr residue  atom   cgnr	   charge		mass  typeB    chargeB		massB
; residue	 1 LIG rtp LIG q	qsum
     1       FGR1      1    LIG      F      1     -0.165     18.998   ;
     2     CG2R66      1    LIG     C1      2      0.188     12.011   ;
     3     CG2RC0      1    LIG     C2      3     -0.166     12.011   ;
     4     CG2RC0      1    LIG     C3      4     -0.723     12.011   ;
     5     CG2R61      1    LIG     C4      5     -0.199     12.011   ;
     6     CG2R61      1    LIG     C5      6     -0.288     12.011   ;
     7     CG2R61      1    LIG     C6      7     -0.088     12.011   ;
     8     CG3C50      1    LIG     C7      8      1.787     12.011   ;
     9     NG3C51      1    LIG     N1      9     -0.816     14.007   ;
    10       HGP1      1    LIG    HN1     10      0.286      1.008   ;
    11     CG3C51      1    LIG     C8     11      0.296     12.011   ;
    12      NG321      1    LIG     N2     12     -0.998     14.007   ;
    13     HGPAM2      1    LIG     H1     13      0.379      1.008   ;
    14     HGPAM2      1    LIG     H2     14      0.379      1.008   ;
    15     CG2R61      1    LIG     C9     15     -0.068     12.011   ;
    16     CG2R61      1    LIG    C10     16     -0.184     12.011   ;
    17     CG2R61      1    LIG    C11     17      0.149     12.011   ;
    18     CG2R61      1    LIG    C12     18     -0.119     12.011   ;
    19     CG2R61      1    LIG    C13     19     -0.102     12.011   ;
    20     CG2R61      1    LIG    C14     20     -0.181     12.011   ;
    21      NG2S1      1    LIG     N3     21     -0.504     14.007   ;
    22      CG2O1      1    LIG    C15     22      0.362     12.011   ;
    23      OG2D1      1    LIG     O1     23     -0.480     15.999   ;
    24       HGP1      1    LIG     H3     24      0.329      1.008   ;
    25      CG311      1    LIG    C16     25      0.436     12.011   ;
    26      NG311      1    LIG     N4     26     -0.563     14.007   ;
    27     CG2D1O      1    LIG    C17     27     -0.077     12.011   ;
    28     HGPAM1      1    LIG    HN2     28      0.375      1.008   ;
    29     CG2DC1      1    LIG    C18     29     -0.242     12.011   ;
    30     CG2DC2      1    LIG    C19     30     -0.164     12.011   ;
    31     CG2DC2      1    LIG    C20     31     -0.316     12.011   ;
    32     CG2R62      1    LIG    C21     32     -0.462     12.011   ;
    33     CG2R62      1    LIG    C22     33     -0.158     12.011   ;
    34     CG2R62      1    LIG    C23     34     -0.208     12.011   ;
    35      CG331      1    LIG    C24     35     -0.206     12.011   ;
    36     CG2R63      1    LIG    C25     36      0.391     12.011   ;
    37      OG2D4      1    LIG     O2     37     -0.496     15.999   ;
    38     NG2R61      1    LIG     N5     38     -0.209     14.007   ;
    39     CG2R62      1    LIG    C26     39      0.122     12.011   ;
    40      CG321      1    LIG    C27     40      0.011     12.011   ;
    41      CG331      1    LIG    C28     41     -0.267     12.011   ;
    42      HGR61      1    LIG     H4     42      0.189      1.008   ;
    43      HGR61      1    LIG     H5     43      0.134      1.008   ;
    44      HGR62      1    LIG     H6     44      0.166      1.008   ;
    45       HGA1      1    LIG     H7     45      0.116      1.008   ;
    46      HGR61      1    LIG     H8     46      0.116      1.008   ;
    47      HGR61      1    LIG     H9     47      0.116      1.008   ;
    48      HGR61      1    LIG    H10     48      0.116      1.008   ;
    49      HGR61      1    LIG    H11     49      0.116      1.008   ;
    50       HGA1      1    LIG    H12     50      0.090      1.008   ;
    51       HGA4      1    LIG    H13     51      0.162      1.008   ;
    52       HGA4      1    LIG    H14     52      0.150      1.008   ;
    53       HGA4      1    LIG    H15     53      0.150      1.008   ;
    54       HGA4      1    LIG    H16     54      0.154      1.008   ;
    55      HGR62      1    LIG    H17     55      0.292      1.008   ;
    56       HGA3      1    LIG    H18     56      0.090      1.008   ;
    57       HGA3      1    LIG    H19     57      0.090      1.008   ;
    58       HGA3      1    LIG    H20     58      0.090      1.008   ;
    59      HGR62      1    LIG    H21     59      0.172      1.008   ;
    60       HGA2      1    LIG    H22     60      0.090      1.008   ;
    61       HGA2      1    LIG    H23     61      0.090      1.008   ;
    62       HGA3      1    LIG    H24     62      0.090      1.008   ;
    63       HGA3      1    LIG    H25     63      0.090      1.008   ;
    64       HGA3      1    LIG    H26     64      0.090      1.008   ;

[ bonds ]
;	ai	  aj funct			  c0			c1			  c2			c3
    1     2	 1 ;        FGR1     CG2R66
    2     7	 1 ;      CG2R66     CG2R61
    2     3	 1 ;      CG2R66     CG2RC0
    3     4	 1 ;      CG2RC0     CG2RC0
    3    11	 1 ;      CG2RC0     CG3C51
    4     5	 1 ;      CG2RC0     CG2R61
    4     8	 1 ;      CG2RC0     CG3C50
    5     6	 1 ;      CG2R61     CG2R61
    5    42	 1 ;      CG2R61      HGR61
    6     7	 1 ;      CG2R61     CG2R61
    6    43	 1 ;      CG2R61      HGR61
    7    44	 1 ;      CG2R61      HGR62
    8    15	 1 ;      CG3C50     CG2R61
    8     9	 1 ;      CG3C50     NG3C51
    8    32	 1 ;      CG3C50     CG2R62
    9    11	 1 ;      NG3C51     CG3C51
    9    10	 1 ;      NG3C51       HGP1
   11    12	 1 ;      CG3C51      NG321
   11    45	 1 ;      CG3C51       HGA1
   12    13	 1 ;       NG321     HGPAM2
   12    14	 1 ;       NG321     HGPAM2
   15    20	 1 ;      CG2R61     CG2R61
   15    16	 1 ;      CG2R61     CG2R61
   16    17	 1 ;      CG2R61     CG2R61
   16    46	 1 ;      CG2R61      HGR61
   17    18	 1 ;      CG2R61     CG2R61
   17    21	 1 ;      CG2R61      NG2S1
   18    19	 1 ;      CG2R61     CG2R61
   18    47	 1 ;      CG2R61      HGR61
   19    20	 1 ;      CG2R61     CG2R61
   19    48	 1 ;      CG2R61      HGR61
   20    49	 1 ;      CG2R61      HGR61
   21    24	 1 ;       NG2S1       HGP1
   21    22	 1 ;       NG2S1      CG2O1
   22    25	 1 ;       CG2O1      CG311
   22    23	 1 ;       CG2O1      OG2D1
   25    31	 1 ;       CG311     CG2DC2
   25    26	 1 ;       CG311      NG311
   25    50	 1 ;       CG311       HGA1
   26    27	 1 ;       NG311     CG2D1O
   26    28	 1 ;       NG311     HGPAM1
   27    29	 1 ;      CG2D1O     CG2DC1
   27    51	 1 ;      CG2D1O       HGA4
   29    30	 1 ;      CG2DC1     CG2DC2
   29    52	 1 ;      CG2DC1       HGA4
   30    31	 1 ;      CG2DC2     CG2DC2
   30    53	 1 ;      CG2DC2       HGA4
   31    54	 1 ;      CG2DC2       HGA4
   32    33	 1 ;      CG2R62     CG2R62
   32    39	 1 ;      CG2R62     CG2R62
   33    34	 1 ;      CG2R62     CG2R62
   33    55	 1 ;      CG2R62      HGR62
   34    35	 1 ;      CG2R62      CG331
   34    36	 1 ;      CG2R62     CG2R63
   35    56	 1 ;       CG331       HGA3
   35    57	 1 ;       CG331       HGA3
   35    58	 1 ;       CG331       HGA3
   36    38	 1 ;      CG2R63     NG2R61
   36    37	 1 ;      CG2R63      OG2D4
   38    39	 1 ;      NG2R61     CG2R62
   38    40	 1 ;      NG2R61      CG321
   39    59	 1 ;      CG2R62      HGR62
   40    41	 1 ;       CG321      CG331
   40    60	 1 ;       CG321       HGA2
   40    61	 1 ;       CG321       HGA2
   41    62	 1 ;       CG331       HGA3
   41    63	 1 ;       CG331       HGA3
   41    64	 1 ;       CG331       HGA3

[ pairs ]
;	ai	  aj funct			  c0			c1			  c2			c3
    1     6	 1
    1    44	 1
    1     4	 1
    1    11	 1
    2     5	 1
    2     8	 1
    2     9	 1
    2    12	 1
    2    45	 1
    2    43	 1
    3     6	 1
    3    44	 1
    3    42	 1
    3    15	 1
    3    32	 1
    3    10	 1
    3    13	 1
    3    14	 1
    4     7	 1
    4    12	 1
    4    45	 1
    4    43	 1
    4    20	 1
    4    16	 1
    4    10	 1
    4    33	 1
    4    39	 1
    5    11	 1
    5    15	 1
    5     9	 1
    5    32	 1
    5    44	 1
    6     8	 1
    7    11	 1
    7    42	 1
    8    42	 1
    8    12	 1
    8    45	 1
    8    19	 1
    8    49	 1
    8    17	 1
    8    46	 1
    8    34	 1
    8    55	 1
    8    38	 1
    8    59	 1
    9    20	 1
    9    16	 1
    9    33	 1
    9    39	 1
    9    13	 1
    9    14	 1
   10    15	 1
   10    32	 1
   10    12	 1
   10    45	 1
   11    15	 1
   11    32	 1
   13    45	 1
   14    45	 1
   15    33	 1
   15    39	 1
   15    18	 1
   15    21	 1
   15    48	 1
   16    32	 1
   16    19	 1
   16    49	 1
   16    47	 1
   16    24	 1
   16    22	 1
   17    20	 1
   17    48	 1
   17    25	 1
   17    23	 1
   18    46	 1
   18    24	 1
   18    22	 1
   18    49	 1
   19    21	 1
   20    32	 1
   20    46	 1
   20    47	 1
   21    46	 1
   21    47	 1
   21    31	 1
   21    26	 1
   21    50	 1
   22    30	 1
   22    54	 1
   22    27	 1
   22    28	 1
   23    24	 1
   23    31	 1
   23    26	 1
   23    50	 1
   24    25	 1
   25    29	 1
   25    51	 1
   25    53	 1
   26    30	 1
   26    54	 1
   26    52	 1
   27    31	 1
   27    50	 1
   27    53	 1
   28    31	 1
   28    50	 1
   28    29	 1
   28    51	 1
   29    54	 1
   30    50	 1
   30    51	 1
   31    52	 1
   32    35	 1
   32    36	 1
   32    40	 1
   33    38	 1
   33    59	 1
   33    56	 1
   33    57	 1
   33    58	 1
   33    37	 1
   34    39	 1
   34    40	 1
   35    55	 1
   35    38	 1
   35    37	 1
   36    55	 1
   36    56	 1
   36    57	 1
   36    58	 1
   36    59	 1
   36    41	 1
   36    60	 1
   36    61	 1
   37    39	 1
   37    40	 1
   38    62	 1
   38    63	 1
   38    64	 1
   39    55	 1
   39    41	 1
   39    60	 1
   39    61	 1
   40    59	 1
   42    43	 1
   43    44	 1
   47    48	 1
   48    49	 1
   50    54	 1
   51    52	 1
   52    53	 1
   53    54	 1
   60    62	 1
   60    63	 1
   60    64	 1
   61    62	 1
   61    63	 1
   61    64	 1

[ angles ]
;	ai	  aj	ak funct			c0			  c1			c2			  c3
    7     2     1	5 ;     CG2R61     CG2R66       FGR1
    7     2     3	5 ;     CG2R61     CG2R66     CG2RC0
    1     2     3	5 ;       FGR1     CG2R66     CG2RC0
    2     3     4	5 ;     CG2R66     CG2RC0     CG2RC0
    2     3    11	5 ;     CG2R66     CG2RC0     CG3C51
    4     3    11	5 ;     CG2RC0     CG2RC0     CG3C51
    5     4     3	5 ;     CG2R61     CG2RC0     CG2RC0
    5     4     8	5 ;     CG2R61     CG2RC0     CG3C50
    3     4     8	5 ;     CG2RC0     CG2RC0     CG3C50
    6     5     4	5 ;     CG2R61     CG2R61     CG2RC0
    6     5    42	5 ;     CG2R61     CG2R61      HGR61
    4     5    42	5 ;     CG2RC0     CG2R61      HGR61
    7     6     5	5 ;     CG2R61     CG2R61     CG2R61
    7     6    43	5 ;     CG2R61     CG2R61      HGR61
    5     6    43	5 ;     CG2R61     CG2R61      HGR61
    6     7     2	5 ;     CG2R61     CG2R61     CG2R66
    6     7    44	5 ;     CG2R61     CG2R61      HGR62
    2     7    44	5 ;     CG2R66     CG2R61      HGR62
    4     8    15	5 ;     CG2RC0     CG3C50     CG2R61
    4     8     9	5 ;     CG2RC0     CG3C50     NG3C51
    4     8    32	5 ;     CG2RC0     CG3C50     CG2R62
   15     8     9	5 ;     CG2R61     CG3C50     NG3C51
   15     8    32	5 ;     CG2R61     CG3C50     CG2R62
    9     8    32	5 ;     NG3C51     CG3C50     CG2R62
    8     9    11	5 ;     CG3C50     NG3C51     CG3C51
    8     9    10	5 ;     CG3C50     NG3C51       HGP1
   11     9    10	5 ;     CG3C51     NG3C51       HGP1
    3    11     9	5 ;     CG2RC0     CG3C51     NG3C51
    3    11    12	5 ;     CG2RC0     CG3C51      NG321
    3    11    45	5 ;     CG2RC0     CG3C51       HGA1
    9    11    12	5 ;     NG3C51     CG3C51      NG321
    9    11    45	5 ;     NG3C51     CG3C51       HGA1
   12    11    45	5 ;      NG321     CG3C51       HGA1
   11    12    13	5 ;     CG3C51      NG321     HGPAM2
   11    12    14	5 ;     CG3C51      NG321     HGPAM2
   13    12    14	5 ;     HGPAM2      NG321     HGPAM2
   20    15    16	5 ;     CG2R61     CG2R61     CG2R61
   20    15     8	5 ;     CG2R61     CG2R61     CG3C50
   16    15     8	5 ;     CG2R61     CG2R61     CG3C50
   17    16    15	5 ;     CG2R61     CG2R61     CG2R61
   17    16    46	5 ;     CG2R61     CG2R61      HGR61
   15    16    46	5 ;     CG2R61     CG2R61      HGR61
   18    17    21	5 ;     CG2R61     CG2R61      NG2S1
   18    17    16	5 ;     CG2R61     CG2R61     CG2R61
   21    17    16	5 ;      NG2S1     CG2R61     CG2R61
   19    18    17	5 ;     CG2R61     CG2R61     CG2R61
   19    18    47	5 ;     CG2R61     CG2R61      HGR61
   17    18    47	5 ;     CG2R61     CG2R61      HGR61
   18    19    20	5 ;     CG2R61     CG2R61     CG2R61
   18    19    48	5 ;     CG2R61     CG2R61      HGR61
   20    19    48	5 ;     CG2R61     CG2R61      HGR61
   19    20    15	5 ;     CG2R61     CG2R61     CG2R61
   19    20    49	5 ;     CG2R61     CG2R61      HGR61
   15    20    49	5 ;     CG2R61     CG2R61      HGR61
   24    21    17	5 ;       HGP1      NG2S1     CG2R61
   24    21    22	5 ;       HGP1      NG2S1      CG2O1
   17    21    22	5 ;     CG2R61      NG2S1      CG2O1
   21    22    25	5 ;      NG2S1      CG2O1      CG311
   21    22    23	5 ;      NG2S1      CG2O1      OG2D1
   25    22    23	5 ;      CG311      CG2O1      OG2D1
   31    25    22	5 ;     CG2DC2      CG311      CG2O1
   31    25    26	5 ;     CG2DC2      CG311      NG311
   31    25    50	5 ;     CG2DC2      CG311       HGA1
   22    25    26	5 ;      CG2O1      CG311      NG311
   22    25    50	5 ;      CG2O1      CG311       HGA1
   26    25    50	5 ;      NG311      CG311       HGA1
   25    26    27	5 ;      CG311      NG311     CG2D1O
   25    26    28	5 ;      CG311      NG311     HGPAM1
   27    26    28	5 ;     CG2D1O      NG311     HGPAM1
   29    27    26	5 ;     CG2DC1     CG2D1O      NG311
   29    27    51	5 ;     CG2DC1     CG2D1O       HGA4
   26    27    51	5 ;      NG311     CG2D1O       HGA4
   30    29    27	5 ;     CG2DC2     CG2DC1     CG2D1O
   30    29    52	5 ;     CG2DC2     CG2DC1       HGA4
   27    29    52	5 ;     CG2D1O     CG2DC1       HGA4
   31    30    29	5 ;     CG2DC2     CG2DC2     CG2DC1
   31    30    53	5 ;     CG2DC2     CG2DC2       HGA4
   29    30    53	5 ;     CG2DC1     CG2DC2       HGA4
   30    31    25	5 ;     CG2DC2     CG2DC2      CG311
   30    31    54	5 ;     CG2DC2     CG2DC2       HGA4
   25    31    54	5 ;      CG311     CG2DC2       HGA4
    8    32    33	5 ;     CG3C50     CG2R62     CG2R62
    8    32    39	5 ;     CG3C50     CG2R62     CG2R62
   33    32    39	5 ;     CG2R62     CG2R62     CG2R62
   32    33    34	5 ;     CG2R62     CG2R62     CG2R62
   32    33    55	5 ;     CG2R62     CG2R62      HGR62
   34    33    55	5 ;     CG2R62     CG2R62      HGR62
   33    34    35	5 ;     CG2R62     CG2R62      CG331
   33    34    36	5 ;     CG2R62     CG2R62     CG2R63
   35    34    36	5 ;      CG331     CG2R62     CG2R63
   34    35    56	5 ;     CG2R62      CG331       HGA3
   34    35    57	5 ;     CG2R62      CG331       HGA3
   34    35    58	5 ;     CG2R62      CG331       HGA3
   56    35    57	5 ;       HGA3      CG331       HGA3
   56    35    58	5 ;       HGA3      CG331       HGA3
   57    35    58	5 ;       HGA3      CG331       HGA3
   34    36    38	5 ;     CG2R62     CG2R63     NG2R61
   34    36    37	5 ;     CG2R62     CG2R63      OG2D4
   38    36    37	5 ;     NG2R61     CG2R63      OG2D4
   39    38    36	5 ;     CG2R62     NG2R61     CG2R63
   39    38    40	5 ;     CG2R62     NG2R61      CG321
   36    38    40	5 ;     CG2R63     NG2R61      CG321
   32    39    38	5 ;     CG2R62     CG2R62     NG2R61
   32    39    59	5 ;     CG2R62     CG2R62      HGR62
   38    39    59	5 ;     NG2R61     CG2R62      HGR62
   38    40    41	5 ;     NG2R61      CG321      CG331
   38    40    60	5 ;     NG2R61      CG321       HGA2
   38    40    61	5 ;     NG2R61      CG321       HGA2
   41    40    60	5 ;      CG331      CG321       HGA2
   41    40    61	5 ;      CG331      CG321       HGA2
   60    40    61	5 ;       HGA2      CG321       HGA2
   40    41    62	5 ;      CG321      CG331       HGA3
   40    41    63	5 ;      CG321      CG331       HGA3
   40    41    64	5 ;      CG321      CG331       HGA3
   62    41    63	5 ;       HGA3      CG331       HGA3
   62    41    64	5 ;       HGA3      CG331       HGA3
   63    41    64	5 ;       HGA3      CG331       HGA3

[ dihedrals ]
;	ai	  aj	ak	  al funct			  c0			c1			  c2			c3			  c4			c5
    1     2     7     6	 9 ;       FGR1     CG2R66     CG2R61     CG2R61
    1     2     7    44	 9 ;       FGR1     CG2R66     CG2R61      HGR62
    3     2     7     6	 9 ;     CG2RC0     CG2R66     CG2R61     CG2R61
    3     2     7    44	 9 ;     CG2RC0     CG2R66     CG2R61      HGR62
    7     2     3     4	 9 ;     CG2R61     CG2R66     CG2RC0     CG2RC0
    7     2     3    11	 9 ;     CG2R61     CG2R66     CG2RC0     CG3C51
    1     2     3     4	 9 ;       FGR1     CG2R66     CG2RC0     CG2RC0
    1     2     3    11	 9 ;       FGR1     CG2R66     CG2RC0     CG3C51
    2     3     4     5	 9 ;     CG2R66     CG2RC0     CG2RC0     CG2R61
    2     3     4     8	 9 ;     CG2R66     CG2RC0     CG2RC0     CG3C50
   11     3     4     5	 9 ;     CG3C51     CG2RC0     CG2RC0     CG2R61
   11     3     4     8	 9 ;     CG3C51     CG2RC0     CG2RC0     CG3C50
    2     3    11     9	 9 ;     CG2R66     CG2RC0     CG3C51     NG3C51
    2     3    11    12	 9 ;     CG2R66     CG2RC0     CG3C51      NG321
    2     3    11    45	 9 ;     CG2R66     CG2RC0     CG3C51       HGA1
    4     3    11     9	 9 ;     CG2RC0     CG2RC0     CG3C51     NG3C51
    4     3    11    12	 9 ;     CG2RC0     CG2RC0     CG3C51      NG321
    4     3    11    45	 9 ;     CG2RC0     CG2RC0     CG3C51       HGA1
    3     4     5     6	 9 ;     CG2RC0     CG2RC0     CG2R61     CG2R61
    3     4     5    42	 9 ;     CG2RC0     CG2RC0     CG2R61      HGR61
    8     4     5     6	 9 ;     CG3C50     CG2RC0     CG2R61     CG2R61
    8     4     5    42	 9 ;     CG3C50     CG2RC0     CG2R61      HGR61
    5     4     8    15	 9 ;     CG2R61     CG2RC0     CG3C50     CG2R61
    5     4     8     9	 9 ;     CG2R61     CG2RC0     CG3C50     NG3C51
    5     4     8    32	 9 ;     CG2R61     CG2RC0     CG3C50     CG2R62
    3     4     8    15	 9 ;     CG2RC0     CG2RC0     CG3C50     CG2R61
    3     4     8     9	 9 ;     CG2RC0     CG2RC0     CG3C50     NG3C51
    3     4     8    32	 9 ;     CG2RC0     CG2RC0     CG3C50     CG2R62
    4     5     6     7	 9 ;     CG2RC0     CG2R61     CG2R61     CG2R61
    4     5     6    43	 9 ;     CG2RC0     CG2R61     CG2R61      HGR61
   42     5     6     7	 9 ;      HGR61     CG2R61     CG2R61     CG2R61
   42     5     6    43	 9 ;      HGR61     CG2R61     CG2R61      HGR61
    5     6     7     2	 9 ;     CG2R61     CG2R61     CG2R61     CG2R66
    5     6     7    44	 9 ;     CG2R61     CG2R61     CG2R61      HGR62
   43     6     7     2	 9 ;      HGR61     CG2R61     CG2R61     CG2R66
   43     6     7    44	 9 ;      HGR61     CG2R61     CG2R61      HGR62
    4     8    15    20	 9 ;     CG2RC0     CG3C50     CG2R61     CG2R61
    4     8    15    16	 9 ;     CG2RC0     CG3C50     CG2R61     CG2R61
    9     8    15    20	 9 ;     NG3C51     CG3C50     CG2R61     CG2R61
    9     8    15    16	 9 ;     NG3C51     CG3C50     CG2R61     CG2R61
   32     8    15    20	 9 ;     CG2R62     CG3C50     CG2R61     CG2R61
   32     8    15    16	 9 ;     CG2R62     CG3C50     CG2R61     CG2R61
    4     8     9    11	 9 ;     CG2RC0     CG3C50     NG3C51     CG3C51
    4     8     9    10	 9 ;     CG2RC0     CG3C50     NG3C51       HGP1
   15     8     9    11	 9 ;     CG2R61     CG3C50     NG3C51     CG3C51
   15     8     9    10	 9 ;     CG2R61     CG3C50     NG3C51       HGP1
   32     8     9    11	 9 ;     CG2R62     CG3C50     NG3C51     CG3C51
   32     8     9    10	 9 ;     CG2R62     CG3C50     NG3C51       HGP1
    4     8    32    33	 9 ;     CG2RC0     CG3C50     CG2R62     CG2R62
    4     8    32    39	 9 ;     CG2RC0     CG3C50     CG2R62     CG2R62
   15     8    32    33	 9 ;     CG2R61     CG3C50     CG2R62     CG2R62
   15     8    32    39	 9 ;     CG2R61     CG3C50     CG2R62     CG2R62
    9     8    32    33	 9 ;     NG3C51     CG3C50     CG2R62     CG2R62
    9     8    32    39	 9 ;     NG3C51     CG3C50     CG2R62     CG2R62
    8     9    11     3	 9 ;     CG3C50     NG3C51     CG3C51     CG2RC0
    8     9    11    12	 9 ;     CG3C50     NG3C51     CG3C51      NG321
    8     9    11    45	 9 ;     CG3C50     NG3C51     CG3C51       HGA1
   10     9    11     3	 9 ;       HGP1     NG3C51     CG3C51     CG2RC0
   10     9    11    12	 9 ;       HGP1     NG3C51     CG3C51      NG321
   10     9    11    45	 9 ;       HGP1     NG3C51     CG3C51       HGA1
    3    11    12    13	 9 ;     CG2RC0     CG3C51      NG321     HGPAM2
    3    11    12    14	 9 ;     CG2RC0     CG3C51      NG321     HGPAM2
    9    11    12    13	 9 ;     NG3C51     CG3C51      NG321     HGPAM2
    9    11    12    14	 9 ;     NG3C51     CG3C51      NG321     HGPAM2
   45    11    12    13	 9 ;       HGA1     CG3C51      NG321     HGPAM2
   45    11    12    14	 9 ;       HGA1     CG3C51      NG321     HGPAM2
   16    15    20    19	 9 ;     CG2R61     CG2R61     CG2R61     CG2R61
   16    15    20    49	 9 ;     CG2R61     CG2R61     CG2R61      HGR61
    8    15    20    19	 9 ;     CG3C50     CG2R61     CG2R61     CG2R61
    8    15    20    49	 9 ;     CG3C50     CG2R61     CG2R61      HGR61
   20    15    16    17	 9 ;     CG2R61     CG2R61     CG2R61     CG2R61
   20    15    16    46	 9 ;     CG2R61     CG2R61     CG2R61      HGR61
    8    15    16    17	 9 ;     CG3C50     CG2R61     CG2R61     CG2R61
    8    15    16    46	 9 ;     CG3C50     CG2R61     CG2R61      HGR61
   15    16    17    18	 9 ;     CG2R61     CG2R61     CG2R61     CG2R61
   15    16    17    21	 9 ;     CG2R61     CG2R61     CG2R61      NG2S1
   46    16    17    18	 9 ;      HGR61     CG2R61     CG2R61     CG2R61
   46    16    17    21	 9 ;      HGR61     CG2R61     CG2R61      NG2S1
   21    17    18    19	 9 ;      NG2S1     CG2R61     CG2R61     CG2R61
   21    17    18    47	 9 ;      NG2S1     CG2R61     CG2R61      HGR61
   16    17    18    19	 9 ;     CG2R61     CG2R61     CG2R61     CG2R61
   16    17    18    47	 9 ;     CG2R61     CG2R61     CG2R61      HGR61
   18    17    21    24	 9 ;     CG2R61     CG2R61      NG2S1       HGP1
   18    17    21    22	 9 ;     CG2R61     CG2R61      NG2S1      CG2O1
   16    17    21    24	 9 ;     CG2R61     CG2R61      NG2S1       HGP1
   16    17    21    22	 9 ;     CG2R61     CG2R61      NG2S1      CG2O1
   17    18    19    20	 9 ;     CG2R61     CG2R61     CG2R61     CG2R61
   17    18    19    48	 9 ;     CG2R61     CG2R61     CG2R61      HGR61
   47    18    19    20	 9 ;      HGR61     CG2R61     CG2R61     CG2R61
   47    18    19    48	 9 ;      HGR61     CG2R61     CG2R61      HGR61
   18    19    20    15	 9 ;     CG2R61     CG2R61     CG2R61     CG2R61
   18    19    20    49	 9 ;     CG2R61     CG2R61     CG2R61      HGR61
   48    19    20    15	 9 ;      HGR61     CG2R61     CG2R61     CG2R61
   48    19    20    49	 9 ;      HGR61     CG2R61     CG2R61      HGR61
   24    21    22    25	 9 ;       HGP1      NG2S1      CG2O1      CG311
   24    21    22    23	 9 ;       HGP1      NG2S1      CG2O1      OG2D1
   17    21    22    25	 9 ;     CG2R61      NG2S1      CG2O1      CG311
   17    21    22    23	 9 ;     CG2R61      NG2S1      CG2O1      OG2D1
   21    22    25    31	 9 ;      NG2S1      CG2O1      CG311     CG2DC2
   21    22    25    26	 9 ;      NG2S1      CG2O1      CG311      NG311
   21    22    25    50	 9 ;      NG2S1      CG2O1      CG311       HGA1
   23    22    25    31	 9 ;      OG2D1      CG2O1      CG311     CG2DC2
   23    22    25    26	 9 ;      OG2D1      CG2O1      CG311      NG311
   23    22    25    50	 9 ;      OG2D1      CG2O1      CG311       HGA1
   22    25    31    30	 9 ;      CG2O1      CG311     CG2DC2     CG2DC2
   22    25    31    54	 9 ;      CG2O1      CG311     CG2DC2       HGA4
   26    25    31    30	 9 ;      NG311      CG311     CG2DC2     CG2DC2
   26    25    31    54	 9 ;      NG311      CG311     CG2DC2       HGA4
   50    25    31    30	 9 ;       HGA1      CG311     CG2DC2     CG2DC2
   50    25    31    54	 9 ;       HGA1      CG311     CG2DC2       HGA4
   31    25    26    27	 9 ;     CG2DC2      CG311      NG311     CG2D1O
   31    25    26    28	 9 ;     CG2DC2      CG311      NG311     HGPAM1
   22    25    26    27	 9 ;      CG2O1      CG311      NG311     CG2D1O
   22    25    26    28	 9 ;      CG2O1      CG311      NG311     HGPAM1
   50    25    26    27	 9 ;       HGA1      CG311      NG311     CG2D1O
   50    25    26    28	 9 ;       HGA1      CG311      NG311     HGPAM1
   25    26    27    29	 9 ;      CG311      NG311     CG2D1O     CG2DC1
   25    26    27    51	 9 ;      CG311      NG311     CG2D1O       HGA4
   28    26    27    29	 9 ;     HGPAM1      NG311     CG2D1O     CG2DC1
   28    26    27    51	 9 ;     HGPAM1      NG311     CG2D1O       HGA4
   26    27    29    30	 9 ;      NG311     CG2D1O     CG2DC1     CG2DC2
   26    27    29    52	 9 ;      NG311     CG2D1O     CG2DC1       HGA4
   51    27    29    30	 9 ;       HGA4     CG2D1O     CG2DC1     CG2DC2
   51    27    29    52	 9 ;       HGA4     CG2D1O     CG2DC1       HGA4
   27    29    30    31	 9 ;     CG2D1O     CG2DC1     CG2DC2     CG2DC2
   27    29    30    53	 9 ;     CG2D1O     CG2DC1     CG2DC2       HGA4
   52    29    30    31	 9 ;       HGA4     CG2DC1     CG2DC2     CG2DC2
   52    29    30    53	 9 ;       HGA4     CG2DC1     CG2DC2       HGA4
   29    30    31    25	 9 ;     CG2DC1     CG2DC2     CG2DC2      CG311
   29    30    31    54	 9 ;     CG2DC1     CG2DC2     CG2DC2       HGA4
   53    30    31    25	 9 ;       HGA4     CG2DC2     CG2DC2      CG311
   53    30    31    54	 9 ;       HGA4     CG2DC2     CG2DC2       HGA4
    8    32    33    34	 9 ;     CG3C50     CG2R62     CG2R62     CG2R62
    8    32    33    55	 9 ;     CG3C50     CG2R62     CG2R62      HGR62
   39    32    33    34	 9 ;     CG2R62     CG2R62     CG2R62     CG2R62
   39    32    33    55	 9 ;     CG2R62     CG2R62     CG2R62      HGR62
    8    32    39    38	 9 ;     CG3C50     CG2R62     CG2R62     NG2R61
    8    32    39    59	 9 ;     CG3C50     CG2R62     CG2R62      HGR62
   33    32    39    38	 9 ;     CG2R62     CG2R62     CG2R62     NG2R61
   33    32    39    59	 9 ;     CG2R62     CG2R62     CG2R62      HGR62
   32    33    34    35	 9 ;     CG2R62     CG2R62     CG2R62      CG331
   32    33    34    36	 9 ;     CG2R62     CG2R62     CG2R62     CG2R63
   55    33    34    35	 9 ;      HGR62     CG2R62     CG2R62      CG331
   55    33    34    36	 9 ;      HGR62     CG2R62     CG2R62     CG2R63
   33    34    35    56	 9 ;     CG2R62     CG2R62      CG331       HGA3
   33    34    35    57	 9 ;     CG2R62     CG2R62      CG331       HGA3
   33    34    35    58	 9 ;     CG2R62     CG2R62      CG331       HGA3
   36    34    35    56	 9 ;     CG2R63     CG2R62      CG331       HGA3
   36    34    35    57	 9 ;     CG2R63     CG2R62      CG331       HGA3
   36    34    35    58	 9 ;     CG2R63     CG2R62      CG331       HGA3
   33    34    36    38	 9 ;     CG2R62     CG2R62     CG2R63     NG2R61
   33    34    36    37	 9 ;     CG2R62     CG2R62     CG2R63      OG2D4
   35    34    36    38	 9 ;      CG331     CG2R62     CG2R63     NG2R61
   35    34    36    37	 9 ;      CG331     CG2R62     CG2R63      OG2D4
   34    36    38    39	 9 ;     CG2R62     CG2R63     NG2R61     CG2R62
   34    36    38    40	 9 ;     CG2R62     CG2R63     NG2R61      CG321
   37    36    38    39	 9 ;      OG2D4     CG2R63     NG2R61     CG2R62
   37    36    38    40	 9 ;      OG2D4     CG2R63     NG2R61      CG321
   36    38    39    32	 9 ;     CG2R63     NG2R61     CG2R62     CG2R62
   36    38    39    59	 9 ;     CG2R63     NG2R61     CG2R62      HGR62
   40    38    39    32	 9 ;      CG321     NG2R61     CG2R62     CG2R62
   40    38    39    59	 9 ;      CG321     NG2R61     CG2R62      HGR62
   39    38    40    41	 9 ;     CG2R62     NG2R61      CG321      CG331
   39    38    40    60	 9 ;     CG2R62     NG2R61      CG321       HGA2
   39    38    40    61	 9 ;     CG2R62     NG2R61      CG321       HGA2
   36    38    40    41	 9 ;     CG2R63     NG2R61      CG321      CG331
   36    38    40    60	 9 ;     CG2R63     NG2R61      CG321       HGA2
   36    38    40    61	 9 ;     CG2R63     NG2R61      CG321       HGA2
   38    40    41    62	 9 ;     NG2R61      CG321      CG331       HGA3
   38    40    41    63	 9 ;     NG2R61      CG321      CG331       HGA3
   38    40    41    64	 9 ;     NG2R61      CG321      CG331       HGA3
   60    40    41    62	 9 ;       HGA2      CG321      CG331       HGA3
   60    40    41    63	 9 ;       HGA2      CG321      CG331       HGA3
   60    40    41    64	 9 ;       HGA2      CG321      CG331       HGA3
   61    40    41    62	 9 ;       HGA2      CG321      CG331       HGA3
   61    40    41    63	 9 ;       HGA2      CG321      CG331       HGA3
   61    40    41    64	 9 ;       HGA2      CG321      CG331       HGA3

[ dihedrals ]
;	ai	  aj	ak	  al funct			  c0			c1			  c2			c3
   22    25    21    23	 2
   27    29    26    51	 2
   36    34    38    37	 2

