Gravel Rubs Often Many Awfully Cauterized Sores
   64
    1LIG      F    1  -1.793   1.140  -1.683
    1LIG     C1    2  -1.771   1.014  -1.723
    1LIG     C2    3  -1.677   0.934  -1.662
    1LIG     C3    4  -1.654   0.803  -1.702
    1LIG     C4    5  -1.725   0.749  -1.808
    1LIG     C5    6  -1.822   0.828  -1.870
    1LIG     C6    7  -1.845   0.961  -1.828
    1LIG     C7    8  -1.555   0.741  -1.605
    1LIG     N1    9  -1.515   0.857  -1.515
    1LIG    HN1   10  -1.444   0.855  -1.442
    1LIG     C8   11  -1.589   0.958  -1.549
    1LIG     N2   12  -1.583   1.077  -1.485
    1LIG     H1   13  -1.624   1.161  -1.526
    1LIG     H2   14  -1.505   1.091  -1.421
    1LIG     C9   15  -1.431   0.686  -1.680
    1LIG    C10   16  -1.386   0.553  -1.661
    1LIG    C11   17  -1.273   0.502  -1.728
    1LIG    C12   18  -1.206   0.586  -1.818
    1LIG    C13   19  -1.249   0.717  -1.839
    1LIG    C14   20  -1.361   0.766  -1.772
    1LIG     N3   21  -1.225   0.370  -1.711
    1LIG    C15   22  -1.131   0.327  -1.619
    1LIG     O1   23  -1.065   0.399  -1.544
    1LIG     H3   24  -1.266   0.296  -1.768
    1LIG    C16   25  -1.115   0.179  -1.607
    1LIG     N4   26  -1.008   0.132  -1.538
    1LIG    C17   27  -0.989  -0.003  -1.544
    1LIG    HN2   28  -0.946   0.193  -1.486
    1LIG    C18   29  -1.069  -0.090  -1.616
    1LIG    C19   30  -1.180  -0.039  -1.683
    1LIG    C20   31  -1.204   0.098  -1.677
    1LIG    C21   32  -1.622   0.639  -1.509
    1LIG    C22   33  -1.703   0.532  -1.567
    1LIG    C23   34  -1.755   0.433  -1.493
    1LIG    C24   35  -1.833   0.319  -1.550
    1LIG    C25   36  -1.734   0.433  -1.345
    1LIG     O2   37  -1.780   0.342  -1.275
    1LIG     N5   38  -1.660   0.539  -1.294
    1LIG    C26   39  -1.605   0.636  -1.375
    1LIG    C27   40  -1.629   0.542  -1.150
    1LIG    C28   41  -1.498   0.472  -1.118
    1LIG     H4   42  -1.707   0.653  -1.841
    1LIG     H5   43  -1.878   0.789  -1.948
    1LIG     H6   44  -1.918   1.018  -1.874
    1LIG     H7   45  -1.598   1.051  -1.496
    1LIG     H8   46  -1.438   0.491  -1.597
    1LIG     H9   47  -1.123   0.550  -1.868
    1LIG    H10   48  -1.198   0.777  -1.906
    1LIG    H11   49  -1.393   0.863  -1.789
    1LIG    H12   50  -1.160   0.117  -1.532
    1LIG    H13   51  -0.910  -0.043  -1.491
    1LIG    H14   52  -1.048  -0.191  -1.620
    1LIG    H15   53  -1.243  -0.101  -1.736
    1LIG    H16   54  -1.287   0.138  -1.724
    1LIG    H17   55  -1.719   0.532  -1.669
    1LIG    H18   56  -1.841   0.331  -1.656
    1LIG    H19   57  -1.931   0.317  -1.507
    1LIG    H20   58  -1.782   0.227  -1.529
    1LIG    H21   59  -1.548   0.711  -1.332
    1LIG    H22   60  -1.708   0.493  -1.097
    1LIG    H23   61  -1.620   0.644  -1.121
    1LIG    H24   62  -1.505   0.369  -1.147
    1LIG    H25   63  -1.479   0.479  -1.013
    1LIG    H26   64  -1.418   0.519  -1.172
   0.00000   0.00000   0.00000
