GRowing Old MAkes el Chrono Sweat
   45
    1LIG     C1    1   8.366   1.517   8.987
    1LIG     O5    2   8.284   1.750   9.107
    1LIG     C3    3   8.392   1.701   9.311
    1LIG     C4    4   8.476   1.614   9.382
    1LIG     C5    5   8.353   1.823   9.369
    1LIG     C6    6   8.522   1.650   9.509
    1LIG     C7    7   8.398   1.858   9.496
    1LIG     C8    8   8.482   1.771   9.565
    1LIG     C9    9   8.378   1.531   9.121
    1LIG    C10   10   8.417   1.429   9.224
    1LIG    C11   11   8.345   1.668   9.174
    1LIG    C12   12   8.522   1.485   9.319
    1LIG     N1   13   8.277   1.332   8.867
    1LIG     O4   14   8.504   1.348   8.888
    1LIG     C2   15   8.392   1.393   8.910
    1LIG     H2   16   8.189   1.360   8.909
    1LIG    C13   17   8.280   1.200   8.804
    1LIG    C15   18   8.255   1.210   8.652
    1LIG    C16   19   8.181   1.340   8.617
    1LIG    C17   20   8.387   1.205   8.573
    1LIG     O2   21   8.064   1.086   8.818
    1LIG    C14   22   8.169   1.118   8.872
    1LIG     O3   23   8.206   1.082   8.998
    1LIG    C18   24   8.132   0.972   9.051
    1LIG     O1   25   8.524   1.810   9.689
    1LIG     H1   26   8.621   1.802   9.693
    1LIG     H3   27   8.337   1.600   8.934
    1LIG     H4   28   8.291   1.887   9.316
    1LIG     H5   29   8.586   1.588   9.561
    1LIG     H6   30   8.368   1.947   9.539
    1LIG     H7   31   8.458   1.343   9.174
    1LIG     H8   32   8.330   1.403   9.280
    1LIG     H9   33   8.613   1.502   9.266
    1LIG    H10   34   8.538   1.413   9.398
    1LIG    H11   35   8.375   1.153   8.817
    1LIG    H12   36   8.195   1.126   8.625
    1LIG    H13   37   8.241   1.424   8.644
    1LIG    H14   38   8.089   1.343   8.670
    1LIG    H15   39   8.162   1.342   8.511
    1LIG    H16   40   8.448   1.289   8.599
    1LIG    H17   41   8.365   1.208   8.468
    1LIG    H18   42   8.439   1.114   8.596
    1LIG    H19   43   8.167   0.950   9.150
    1LIG    H20   44   8.146   0.886   8.989
    1LIG    H21   45   8.028   0.997   9.055
   0.00000   0.00000   0.00000
