S  C  A  M  O  R  G
   49
    1LIG     C1    1  -1.656   0.332  -1.631
    1LIG     C2    2  -1.540   0.334  -1.552
    1LIG     C3    3  -1.411   0.340  -1.609
    1LIG     C4    4  -1.400   0.354  -1.748
    1LIG     C5    5  -1.514   0.352  -1.828
    1LIG     C6    6  -1.641   0.337  -1.770
    1LIG     C7    7  -1.286   0.329  -1.522
    1LIG     N1    8  -1.302   0.391  -1.384
    1LIG     C8    9  -1.246   0.307  -1.301
    1LIG    HN1   10  -1.347   0.480  -1.361
    1LIG     C9   11  -1.213   0.177  -1.359
    1LIG    C10   12  -1.246   0.187  -1.493
    1LIG    C11   13  -1.181   0.058  -1.296
    1LIG    C12   14  -1.254   0.071  -1.569
    1LIG    C13   15  -1.227  -0.052  -1.507
    1LIG    C14   16  -1.188  -0.058  -1.372
    1LIG    C15   17  -1.173   0.417  -1.583
    1LIG     N2   18  -1.229   0.338  -1.170
    1LIG     H1   19  -1.231   0.440  -1.162
    1LIG     H2   20  -1.136   0.312  -1.139
    1LIG     N3   21  -1.786   0.319  -1.580
    1LIG    C16   22  -1.852   0.407  -1.496
    1LIG      O   23  -1.813   0.518  -1.460
    1LIG     H3   24  -1.841   0.238  -1.608
    1LIG    C17   25  -1.986   0.358  -1.449
    1LIG    C18   26  -2.023   0.225  -1.471
    1LIG    C19   27  -2.151   0.183  -1.435
    1LIG    C20   28  -2.238   0.275  -1.378
    1LIG     CL   29  -2.399   0.229  -1.338
    1LIG    C21   30  -2.193   0.405  -1.357
    1LIG     N4   31  -2.069   0.449  -1.390
    1LIG    HN2   32  -2.039   0.545  -1.372
    1LIG     HC   33  -1.551   0.331  -1.445
    1LIG    HC1   34  -1.303   0.367  -1.793
    1LIG    HC2   35  -1.505   0.361  -1.935
    1LIG    HC3   36  -1.728   0.330  -1.834
    1LIG    HC4   37  -1.151   0.056  -1.192
    1LIG    HC5   38  -1.281   0.076  -1.673
    1LIG    HC6   39  -1.235  -0.143  -1.564
    1LIG    HC7   40  -1.164  -0.154  -1.327
    1LIG    HC8   41  -1.094   0.431  -1.509
    1LIG    HC9   42  -1.214   0.513  -1.612
    1LIG   HC10   43  -1.131   0.366  -1.670
    1LIG   HC11   44  -1.953   0.156  -1.516
    1LIG   HC12   45  -2.181   0.081  -1.451
    1LIG   HC13   46  -2.261   0.475  -1.310
    1LIG    H20   47  -1.147   0.346  -1.326
    1LIG    H21   48  -1.944   0.331  -1.352
    1LIG    LP1   49  -2.552   0.185  -1.300
   0.00000   0.00000   0.00000
