Gravel Rubs Often Many Awfully Cauterized Sores
   83
    1LIG     C1    1  -1.660   0.384  -0.909
    1LIG     C2    2  -1.731   0.525  -0.894
    1LIG     O1    3  -1.626   0.621  -0.866
    1LIG     H1    4  -1.633   0.647  -0.772
    1LIG     C3    5  -1.825   0.598  -0.998
    1LIG     N1    6  -1.766   0.683  -1.107
    1LIG     H2    7  -1.757   0.780  -1.072
    1LIG     H3    8  -1.672   0.649  -1.131
    1LIG     C4    9  -1.851   0.693  -1.242
    1LIG     C5   10  -1.912   0.554  -1.262
    1LIG     C6   11  -1.767   0.739  -1.366
    1LIG     O2   12  -1.727   0.855  -1.371
    1LIG     N2   13  -1.742   0.646  -1.467
    1LIG     H4   14  -1.792   0.558  -1.466
    1LIG     C7   15  -1.669   0.673  -1.597
    1LIG     C8   16  -1.526   0.724  -1.579
    1LIG     C9   17  -1.462   0.804  -1.693
    1LIG    C10   18  -1.554   0.877  -1.790
    1LIG    C11   19  -1.685   0.805  -1.818
    1LIG    C12   20  -1.757   0.752  -1.695
    1LIG    C13   21  -1.700   0.262  -0.817
    1LIG    C14   22  -1.632   0.130  -0.779
    1LIG    C15   23  -1.688   0.002  -0.780
    1LIG    C16   24  -1.617  -0.108  -0.727
    1LIG    C17   25  -1.490  -0.093  -0.672
    1LIG    C18   26  -1.431   0.033  -0.672
    1LIG    C19   27  -1.501   0.141  -0.724
    1LIG     N3   28  -1.643   0.348  -1.054
    1LIG    C20   29  -1.562   0.416  -1.148
    1LIG     O3   30  -1.490   0.509  -1.113
    1LIG     H5   31  -1.720   0.294  -1.090
    1LIG    C21   32  -1.569   0.373  -1.297
    1LIG    C22   33  -1.463   0.401  -1.390
    1LIG    C23   34  -1.472   0.361  -1.528
    1LIG    C24   35  -1.583   0.287  -1.568
    1LIG    C25   36  -1.685   0.258  -1.478
    1LIG    C26   37  -1.679   0.301  -1.345
    1LIG      S   38  -1.327   0.354  -1.640
    1LIG     O4   39  -1.350   0.465  -1.732
    1LIG     O5   40  -1.210   0.359  -1.554
    1LIG    C27   41  -1.314   0.210  -1.742
    1LIG    C28   42  -1.198   0.113  -1.732
    1LIG    C29   43  -1.067   0.146  -1.769
    1LIG    C30   44  -0.959   0.065  -1.730
    1LIG    C31   45  -0.978  -0.050  -1.653
    1LIG    C32   46  -1.106  -0.087  -1.618
    1LIG    C33   47  -1.215  -0.007  -1.657
    1LIG     H6   48  -1.804   0.495  -0.822
    1LIG     H7   49  -1.882   0.522  -1.046
    1LIG     H8   50  -1.878   0.669  -0.937
    1LIG     H9   51  -1.926   0.769  -1.232
    1LIG    H10   52  -1.834   0.482  -1.271
    1LIG    H11   53  -1.972   0.554  -1.351
    1LIG    H12   54  -1.974   0.530  -1.178
    1LIG    H13   55  -1.653   0.578  -1.644
    1LIG    H14   56  -1.525   0.786  -1.492
    1LIG    H15   57  -1.467   0.635  -1.574
    1LIG    H16   58  -1.399   0.878  -1.648
    1LIG    H17   59  -1.412   0.731  -1.753
    1LIG    H18   60  -1.577   0.973  -1.748
    1LIG    H19   61  -1.502   0.882  -1.883
    1LIG    H20   62  -1.664   0.722  -1.883
    1LIG    H21   63  -1.750   0.877  -1.863
    1LIG    H22   64  -1.836   0.688  -1.727
    1LIG    H23   65  -1.791   0.838  -1.641
    1LIG    H24   66  -1.793   0.230  -0.859
    1LIG    H25   67  -1.679   0.311  -0.725
    1LIG    H26   68  -1.781  -0.012  -0.821
    1LIG    H27   69  -1.661  -0.202  -0.729
    1LIG    H28   70  -1.440  -0.174  -0.631
    1LIG    H29   71  -1.336   0.046  -0.633
    1LIG    H30   72  -1.456   0.234  -0.723
    1LIG    H31   73  -1.379   0.452  -1.358
    1LIG    H32   74  -1.590   0.253  -1.666
    1LIG    H33   75  -1.767   0.204  -1.509
    1LIG    H34   76  -1.757   0.280  -1.281
    1LIG    H35   77  -1.403   0.152  -1.724
    1LIG    H36   78  -1.299   0.253  -1.839
    1LIG    H37   79  -1.050   0.231  -1.825
    1LIG    H38   80  -0.863   0.092  -1.760
    1LIG    H39   81  -0.897  -0.106  -1.624
    1LIG    H40   82  -1.122  -0.173  -1.563
    1LIG    H41   83  -1.310  -0.036  -1.630
   0.00000   0.00000   0.00000
