; Created by cgenff_charmm2gmx.py

[ moleculetype ]
; Name			   nrexcl
LIG				 3

[ atoms ]
;	 nr		  type	resnr residue  atom   cgnr	   charge		mass  typeB    chargeB		massB
; residue	 1 LIG rtp LIG q	qsum
     1     CG2DC1      1    LIG     C1      1      0.640     12.011   ;
     2      CG311      1    LIG     C2      2      0.226     12.011   ;
     3      OG311      1    LIG     O1      3     -0.614     15.999   ;
     4       HGP1      1    LIG     H1      4      0.408      1.008   ;
     5      CG324      1    LIG     C3      5      0.190     12.011   ;
     6      NG3P2      1    LIG     N1      6     -0.408     14.007   ;
     7       HGP2      1    LIG     H2      7      0.329      1.008   ;
     8       HGP2      1    LIG     H3      8      0.329      1.008   ;
     9      CG314      1    LIG     C4      9      0.189     12.011   ;
    10      CG331      1    LIG     C5     10     -0.216     12.011   ;
    11      CG2O1      1    LIG     C6     11      0.385     12.011   ;
    12      OG2D1      1    LIG     O2     12     -0.443     15.999   ;
    13      NG2S1      1    LIG     N2     13     -0.285     14.007   ;
    14       HGP1      1    LIG     H4     14      0.319      1.008   ;
    15      CG311      1    LIG     C7     15     -0.146     12.011   ;
    16      CG321      1    LIG     C8     16     -0.115     12.011   ;
    17      CG321      1    LIG     C9     17     -0.198     12.011   ;
    18      CG321      1    LIG    C10     18     -0.154     12.011   ;
    19      CG321      1    LIG    C11     19     -0.198     12.011   ;
    20      CG321      1    LIG    C12     20     -0.115     12.011   ;
    21      CG321      1    LIG    C13     21     -0.050     12.011   ;
    22     CG2R61      1    LIG    C14     22     -0.189     12.011   ;
    23     CG2R61      1    LIG    C15     23     -0.123     12.011   ;
    24     CG2R61      1    LIG    C16     24     -0.112     12.011   ;
    25     CG2R61      1    LIG    C17     25     -0.116     12.011   ;
    26     CG2R61      1    LIG    C18     26     -0.112     12.011   ;
    27     CG2R61      1    LIG    C19     27     -0.123     12.011   ;
    28      NG2P1      1    LIG     N3     28     -0.129     14.007   ;
    29      CG2O1      1    LIG    C20     29      0.489     12.011   ;
    30      OG2D1      1    LIG     O3     30     -0.463     15.999   ;
    31       HGP2      1    LIG     H5     31      0.414      1.008   ;
    32     CG2R61      1    LIG    C21     32     -0.102     12.011   ;
    33     CG2R61      1    LIG    C22     33     -0.046     12.011   ;
    34     CG2R61      1    LIG    C23     34      0.011     12.011   ;
    35     CG2R61      1    LIG    C24     35     -0.102     12.011   ;
    36     CG2R61      1    LIG    C25     36     -0.111     12.011   ;
    37     CG2R61      1    LIG    C26     37     -0.060     12.011   ;
    38      SG3O2      1    LIG      S     38      0.397     32.060   ;
    39      OG2P1      1    LIG     O4     39     -0.361     15.999   ;
    40      OG2P1      1    LIG     O5     40     -0.361     15.999   ;
    41      CG321      1    LIG    C27     41      0.336     12.011   ;
    42     CG2R61      1    LIG    C28     42     -0.236     12.011   ;
    43     CG2R61      1    LIG    C29     43     -0.119     12.011   ;
    44     CG2R61      1    LIG    C30     44     -0.112     12.011   ;
    45     CG2R61      1    LIG    C31     45     -0.116     12.011   ;
    46     CG2R61      1    LIG    C32     46     -0.112     12.011   ;
    47     CG2R61      1    LIG    C33     47     -0.119     12.011   ;
    48       HGA1      1    LIG     H6     48      0.090      1.008   ;
    49       HGA2      1    LIG     H7     49      0.090      1.008   ;
    50       HGA2      1    LIG     H8     50      0.090      1.008   ;
    51       HGA1      1    LIG     H9     51      0.090      1.008   ;
    52       HGA3      1    LIG    H10     52      0.090      1.008   ;
    53       HGA3      1    LIG    H11     53      0.090      1.008   ;
    54       HGA3      1    LIG    H12     54      0.090      1.008   ;
    55       HGA1      1    LIG    H13     55      0.090      1.008   ;
    56       HGA2      1    LIG    H14     56      0.090      1.008   ;
    57       HGA2      1    LIG    H15     57      0.090      1.008   ;
    58       HGA2      1    LIG    H16     58      0.090      1.008   ;
    59       HGA2      1    LIG    H17     59      0.090      1.008   ;
    60       HGA2      1    LIG    H18     60      0.090      1.008   ;
    61       HGA2      1    LIG    H19     61      0.090      1.008   ;
    62       HGA2      1    LIG    H20     62      0.090      1.008   ;
    63       HGA2      1    LIG    H21     63      0.090      1.008   ;
    64       HGA2      1    LIG    H22     64      0.090      1.008   ;
    65       HGA2      1    LIG    H23     65      0.090      1.008   ;
    66       HGA2      1    LIG    H24     66      0.090      1.008   ;
    67       HGA2      1    LIG    H25     67      0.090      1.008   ;
    68      HGR61      1    LIG    H26     68      0.116      1.008   ;
    69      HGR61      1    LIG    H27     69      0.116      1.008   ;
    70      HGR61      1    LIG    H28     70      0.116      1.008   ;
    71      HGR61      1    LIG    H29     71      0.116      1.008   ;
    72      HGR61      1    LIG    H30     72      0.116      1.008   ;
    73      HGR61      1    LIG    H31     73      0.116      1.008   ;
    74      HGR61      1    LIG    H32     74      0.116      1.008   ;
    75      HGR61      1    LIG    H33     75      0.116      1.008   ;
    76      HGR61      1    LIG    H34     76      0.116      1.008   ;
    77       HGA2      1    LIG    H35     77      0.090      1.008   ;
    78       HGA2      1    LIG    H36     78      0.090      1.008   ;
    79      HGR61      1    LIG    H37     79      0.116      1.008   ;
    80      HGR61      1    LIG    H38     80      0.116      1.008   ;
    81      HGR61      1    LIG    H39     81      0.116      1.008   ;
    82      HGR61      1    LIG    H40     82      0.116      1.008   ;
    83      HGR61      1    LIG    H41     83      0.116      1.008   ;

[ bonds ]
;	ai	  aj funct			  c0			c1			  c2			c3
    1    28	 1 ;      CG2DC1      NG2P1
    1     2	 1 ;      CG2DC1      CG311
    1    21	 1 ;      CG2DC1      CG321
    2     5	 1 ;       CG311      CG324
    2     3	 1 ;       CG311      OG311
    2    48	 1 ;       CG311       HGA1
    3     4	 1 ;       OG311       HGP1
    5     6	 1 ;       CG324      NG3P2
    5    49	 1 ;       CG324       HGA2
    5    50	 1 ;       CG324       HGA2
    6     9	 1 ;       NG3P2      CG314
    6     8	 1 ;       NG3P2       HGP2
    6     7	 1 ;       NG3P2       HGP2
    9    11	 1 ;       CG314      CG2O1
    9    10	 1 ;       CG314      CG331
    9    51	 1 ;       CG314       HGA1
   10    52	 1 ;       CG331       HGA3
   10    53	 1 ;       CG331       HGA3
   10    54	 1 ;       CG331       HGA3
   11    13	 1 ;       CG2O1      NG2S1
   11    12	 1 ;       CG2O1      OG2D1
   13    15	 1 ;       NG2S1      CG311
   13    14	 1 ;       NG2S1       HGP1
   15    20	 1 ;       CG311      CG321
   15    16	 1 ;       CG311      CG321
   15    55	 1 ;       CG311       HGA1
   16    17	 1 ;       CG321      CG321
   16    56	 1 ;       CG321       HGA2
   16    57	 1 ;       CG321       HGA2
   17    18	 1 ;       CG321      CG321
   17    58	 1 ;       CG321       HGA2
   17    59	 1 ;       CG321       HGA2
   18    19	 1 ;       CG321      CG321
   18    60	 1 ;       CG321       HGA2
   18    61	 1 ;       CG321       HGA2
   19    20	 1 ;       CG321      CG321
   19    62	 1 ;       CG321       HGA2
   19    63	 1 ;       CG321       HGA2
   20    64	 1 ;       CG321       HGA2
   20    65	 1 ;       CG321       HGA2
   21    22	 1 ;       CG321     CG2R61
   21    66	 1 ;       CG321       HGA2
   21    67	 1 ;       CG321       HGA2
   22    23	 1 ;      CG2R61     CG2R61
   22    27	 1 ;      CG2R61     CG2R61
   23    24	 1 ;      CG2R61     CG2R61
   23    68	 1 ;      CG2R61      HGR61
   24    25	 1 ;      CG2R61     CG2R61
   24    69	 1 ;      CG2R61      HGR61
   25    26	 1 ;      CG2R61     CG2R61
   25    70	 1 ;      CG2R61      HGR61
   26    27	 1 ;      CG2R61     CG2R61
   26    71	 1 ;      CG2R61      HGR61
   27    72	 1 ;      CG2R61      HGR61
   28    29	 1 ;       NG2P1      CG2O1
   28    31	 1 ;       NG2P1       HGP2
   29    32	 1 ;       CG2O1     CG2R61
   29    30	 1 ;       CG2O1      OG2D1
   32    33	 1 ;      CG2R61     CG2R61
   32    37	 1 ;      CG2R61     CG2R61
   33    34	 1 ;      CG2R61     CG2R61
   33    73	 1 ;      CG2R61      HGR61
   34    38	 1 ;      CG2R61      SG3O2
   34    35	 1 ;      CG2R61     CG2R61
   35    36	 1 ;      CG2R61     CG2R61
   35    74	 1 ;      CG2R61      HGR61
   36    37	 1 ;      CG2R61     CG2R61
   36    75	 1 ;      CG2R61      HGR61
   37    76	 1 ;      CG2R61      HGR61
   38    41	 1 ;       SG3O2      CG321
   38    39	 1 ;       SG3O2      OG2P1
   38    40	 1 ;       SG3O2      OG2P1
   41    42	 1 ;       CG321     CG2R61
   41    77	 1 ;       CG321       HGA2
   41    78	 1 ;       CG321       HGA2
   42    43	 1 ;      CG2R61     CG2R61
   42    47	 1 ;      CG2R61     CG2R61
   43    44	 1 ;      CG2R61     CG2R61
   43    79	 1 ;      CG2R61      HGR61
   44    45	 1 ;      CG2R61     CG2R61
   44    80	 1 ;      CG2R61      HGR61
   45    46	 1 ;      CG2R61     CG2R61
   45    81	 1 ;      CG2R61      HGR61
   46    47	 1 ;      CG2R61     CG2R61
   46    82	 1 ;      CG2R61      HGR61
   47    83	 1 ;      CG2R61      HGR61

[ pairs ]
;	ai	  aj funct			  c0			c1			  c2			c3
    1     6	 1
    1    49	 1
    1    50	 1
    1     4	 1
    1    23	 1
    1    27	 1
    1    32	 1
    1    30	 1
    2    29	 1
    2    31	 1
    2    22	 1
    2    66	 1
    2    67	 1
    2     9	 1
    2     8	 1
    2     7	 1
    3    28	 1
    3    21	 1
    3     6	 1
    3    49	 1
    3    50	 1
    4     5	 1
    4    48	 1
    5    28	 1
    5    21	 1
    5    11	 1
    5    10	 1
    5    51	 1
    6    48	 1
    6    13	 1
    6    12	 1
    6    52	 1
    6    53	 1
    6    54	 1
    7    49	 1
    7    50	 1
    7    11	 1
    7    10	 1
    7    51	 1
    8    49	 1
    8    50	 1
    8    11	 1
    8    10	 1
    8    51	 1
    9    49	 1
    9    50	 1
    9    15	 1
    9    14	 1
   10    13	 1
   10    12	 1
   11    52	 1
   11    53	 1
   11    54	 1
   11    20	 1
   11    16	 1
   11    55	 1
   12    51	 1
   12    15	 1
   12    14	 1
   13    51	 1
   13    19	 1
   13    64	 1
   13    65	 1
   13    17	 1
   13    56	 1
   13    57	 1
   14    20	 1
   14    16	 1
   14    55	 1
   15    18	 1
   15    58	 1
   15    59	 1
   15    62	 1
   15    63	 1
   16    19	 1
   16    64	 1
   16    65	 1
   16    60	 1
   16    61	 1
   17    20	 1
   17    55	 1
   17    62	 1
   17    63	 1
   18    56	 1
   18    57	 1
   18    64	 1
   18    65	 1
   19    55	 1
   19    58	 1
   19    59	 1
   20    56	 1
   20    57	 1
   20    60	 1
   20    61	 1
   21    29	 1
   21    31	 1
   21    48	 1
   21    24	 1
   21    68	 1
   21    26	 1
   21    72	 1
   22    28	 1
   22    25	 1
   22    69	 1
   22    71	 1
   23    66	 1
   23    67	 1
   23    26	 1
   23    72	 1
   23    70	 1
   24    27	 1
   24    71	 1
   25    68	 1
   25    72	 1
   26    69	 1
   27    66	 1
   27    67	 1
   27    68	 1
   27    70	 1
   28    48	 1
   28    66	 1
   28    67	 1
   28    33	 1
   28    37	 1
   29    34	 1
   29    73	 1
   29    36	 1
   29    76	 1
   30    31	 1
   30    33	 1
   30    37	 1
   31    32	 1
   32    38	 1
   32    35	 1
   32    75	 1
   33    36	 1
   33    76	 1
   33    41	 1
   33    39	 1
   33    40	 1
   33    74	 1
   34    37	 1
   34    75	 1
   34    42	 1
   34    77	 1
   34    78	 1
   35    73	 1
   35    41	 1
   35    39	 1
   35    40	 1
   35    76	 1
   36    38	 1
   37    73	 1
   37    74	 1
   38    73	 1
   38    74	 1
   38    43	 1
   38    47	 1
   39    42	 1
   39    77	 1
   39    78	 1
   40    42	 1
   40    77	 1
   40    78	 1
   41    44	 1
   41    79	 1
   41    46	 1
   41    83	 1
   42    45	 1
   42    80	 1
   42    82	 1
   43    77	 1
   43    78	 1
   43    46	 1
   43    83	 1
   43    81	 1
   44    47	 1
   44    82	 1
   45    79	 1
   45    83	 1
   46    80	 1
   47    77	 1
   47    78	 1
   47    79	 1
   47    81	 1
   48    49	 1
   48    50	 1
   51    52	 1
   51    53	 1
   51    54	 1
   55    64	 1
   55    65	 1
   55    56	 1
   55    57	 1
   56    58	 1
   56    59	 1
   57    58	 1
   57    59	 1
   58    60	 1
   58    61	 1
   59    60	 1
   59    61	 1
   60    62	 1
   60    63	 1
   61    62	 1
   61    63	 1
   62    64	 1
   62    65	 1
   63    64	 1
   63    65	 1
   68    69	 1
   69    70	 1
   70    71	 1
   71    72	 1
   74    75	 1
   75    76	 1
   79    80	 1
   80    81	 1
   81    82	 1
   82    83	 1

[ angles ]
;	ai	  aj	ak funct			c0			  c1			c2			  c3
   28     1     2	5 ;      NG2P1     CG2DC1      CG311
   28     1    21	5 ;      NG2P1     CG2DC1      CG321
    2     1    21	5 ;      CG311     CG2DC1      CG321
    5     2     1	5 ;      CG324      CG311     CG2DC1
    5     2     3	5 ;      CG324      CG311      OG311
    5     2    48	5 ;      CG324      CG311       HGA1
    1     2     3	5 ;     CG2DC1      CG311      OG311
    1     2    48	5 ;     CG2DC1      CG311       HGA1
    3     2    48	5 ;      OG311      CG311       HGA1
    2     3     4	5 ;      CG311      OG311       HGP1
    6     5     2	5 ;      NG3P2      CG324      CG311
    6     5    49	5 ;      NG3P2      CG324       HGA2
    6     5    50	5 ;      NG3P2      CG324       HGA2
    2     5    49	5 ;      CG311      CG324       HGA2
    2     5    50	5 ;      CG311      CG324       HGA2
   49     5    50	5 ;       HGA2      CG324       HGA2
    9     6     8	5 ;      CG314      NG3P2       HGP2
    9     6     7	5 ;      CG314      NG3P2       HGP2
    9     6     5	5 ;      CG314      NG3P2      CG324
    8     6     7	5 ;       HGP2      NG3P2       HGP2
    8     6     5	5 ;       HGP2      NG3P2      CG324
    7     6     5	5 ;       HGP2      NG3P2      CG324
   11     9    10	5 ;      CG2O1      CG314      CG331
   11     9     6	5 ;      CG2O1      CG314      NG3P2
   11     9    51	5 ;      CG2O1      CG314       HGA1
   10     9     6	5 ;      CG331      CG314      NG3P2
   10     9    51	5 ;      CG331      CG314       HGA1
    6     9    51	5 ;      NG3P2      CG314       HGA1
    9    10    52	5 ;      CG314      CG331       HGA3
    9    10    53	5 ;      CG314      CG331       HGA3
    9    10    54	5 ;      CG314      CG331       HGA3
   52    10    53	5 ;       HGA3      CG331       HGA3
   52    10    54	5 ;       HGA3      CG331       HGA3
   53    10    54	5 ;       HGA3      CG331       HGA3
   13    11    12	5 ;      NG2S1      CG2O1      OG2D1
   13    11     9	5 ;      NG2S1      CG2O1      CG314
   12    11     9	5 ;      OG2D1      CG2O1      CG314
   15    13    14	5 ;      CG311      NG2S1       HGP1
   15    13    11	5 ;      CG311      NG2S1      CG2O1
   14    13    11	5 ;       HGP1      NG2S1      CG2O1
   20    15    16	5 ;      CG321      CG311      CG321
   20    15    13	5 ;      CG321      CG311      NG2S1
   20    15    55	5 ;      CG321      CG311       HGA1
   16    15    13	5 ;      CG321      CG311      NG2S1
   16    15    55	5 ;      CG321      CG311       HGA1
   13    15    55	5 ;      NG2S1      CG311       HGA1
   17    16    15	5 ;      CG321      CG321      CG311
   17    16    56	5 ;      CG321      CG321       HGA2
   17    16    57	5 ;      CG321      CG321       HGA2
   15    16    56	5 ;      CG311      CG321       HGA2
   15    16    57	5 ;      CG311      CG321       HGA2
   56    16    57	5 ;       HGA2      CG321       HGA2
   18    17    16	5 ;      CG321      CG321      CG321
   18    17    58	5 ;      CG321      CG321       HGA2
   18    17    59	5 ;      CG321      CG321       HGA2
   16    17    58	5 ;      CG321      CG321       HGA2
   16    17    59	5 ;      CG321      CG321       HGA2
   58    17    59	5 ;       HGA2      CG321       HGA2
   19    18    17	5 ;      CG321      CG321      CG321
   19    18    60	5 ;      CG321      CG321       HGA2
   19    18    61	5 ;      CG321      CG321       HGA2
   17    18    60	5 ;      CG321      CG321       HGA2
   17    18    61	5 ;      CG321      CG321       HGA2
   60    18    61	5 ;       HGA2      CG321       HGA2
   18    19    20	5 ;      CG321      CG321      CG321
   18    19    62	5 ;      CG321      CG321       HGA2
   18    19    63	5 ;      CG321      CG321       HGA2
   20    19    62	5 ;      CG321      CG321       HGA2
   20    19    63	5 ;      CG321      CG321       HGA2
   62    19    63	5 ;       HGA2      CG321       HGA2
   19    20    15	5 ;      CG321      CG321      CG311
   19    20    64	5 ;      CG321      CG321       HGA2
   19    20    65	5 ;      CG321      CG321       HGA2
   15    20    64	5 ;      CG311      CG321       HGA2
   15    20    65	5 ;      CG311      CG321       HGA2
   64    20    65	5 ;       HGA2      CG321       HGA2
    1    21    22	5 ;     CG2DC1      CG321     CG2R61
    1    21    66	5 ;     CG2DC1      CG321       HGA2
    1    21    67	5 ;     CG2DC1      CG321       HGA2
   22    21    66	5 ;     CG2R61      CG321       HGA2
   22    21    67	5 ;     CG2R61      CG321       HGA2
   66    21    67	5 ;       HGA2      CG321       HGA2
   21    22    23	5 ;      CG321     CG2R61     CG2R61
   21    22    27	5 ;      CG321     CG2R61     CG2R61
   23    22    27	5 ;     CG2R61     CG2R61     CG2R61
   22    23    24	5 ;     CG2R61     CG2R61     CG2R61
   22    23    68	5 ;     CG2R61     CG2R61      HGR61
   24    23    68	5 ;     CG2R61     CG2R61      HGR61
   23    24    25	5 ;     CG2R61     CG2R61     CG2R61
   23    24    69	5 ;     CG2R61     CG2R61      HGR61
   25    24    69	5 ;     CG2R61     CG2R61      HGR61
   24    25    26	5 ;     CG2R61     CG2R61     CG2R61
   24    25    70	5 ;     CG2R61     CG2R61      HGR61
   26    25    70	5 ;     CG2R61     CG2R61      HGR61
   27    26    25	5 ;     CG2R61     CG2R61     CG2R61
   27    26    71	5 ;     CG2R61     CG2R61      HGR61
   25    26    71	5 ;     CG2R61     CG2R61      HGR61
   22    27    26	5 ;     CG2R61     CG2R61     CG2R61
   22    27    72	5 ;     CG2R61     CG2R61      HGR61
   26    27    72	5 ;     CG2R61     CG2R61      HGR61
   29    28    31	5 ;      CG2O1      NG2P1       HGP2
   29    28     1	5 ;      CG2O1      NG2P1     CG2DC1
   31    28     1	5 ;       HGP2      NG2P1     CG2DC1
   32    29    30	5 ;     CG2R61      CG2O1      OG2D1
   32    29    28	5 ;     CG2R61      CG2O1      NG2P1
   30    29    28	5 ;      OG2D1      CG2O1      NG2P1
   33    32    37	5 ;     CG2R61     CG2R61     CG2R61
   33    32    29	5 ;     CG2R61     CG2R61      CG2O1
   37    32    29	5 ;     CG2R61     CG2R61      CG2O1
   34    33    32	5 ;     CG2R61     CG2R61     CG2R61
   34    33    73	5 ;     CG2R61     CG2R61      HGR61
   32    33    73	5 ;     CG2R61     CG2R61      HGR61
   38    34    35	5 ;      SG3O2     CG2R61     CG2R61
   38    34    33	5 ;      SG3O2     CG2R61     CG2R61
   35    34    33	5 ;     CG2R61     CG2R61     CG2R61
   34    35    36	5 ;     CG2R61     CG2R61     CG2R61
   34    35    74	5 ;     CG2R61     CG2R61      HGR61
   36    35    74	5 ;     CG2R61     CG2R61      HGR61
   35    36    37	5 ;     CG2R61     CG2R61     CG2R61
   35    36    75	5 ;     CG2R61     CG2R61      HGR61
   37    36    75	5 ;     CG2R61     CG2R61      HGR61
   36    37    32	5 ;     CG2R61     CG2R61     CG2R61
   36    37    76	5 ;     CG2R61     CG2R61      HGR61
   32    37    76	5 ;     CG2R61     CG2R61      HGR61
   41    38    39	5 ;      CG321      SG3O2      OG2P1
   41    38    40	5 ;      CG321      SG3O2      OG2P1
   41    38    34	5 ;      CG321      SG3O2     CG2R61
   39    38    40	5 ;      OG2P1      SG3O2      OG2P1
   39    38    34	5 ;      OG2P1      SG3O2     CG2R61
   40    38    34	5 ;      OG2P1      SG3O2     CG2R61
   42    41    38	5 ;     CG2R61      CG321      SG3O2
   42    41    77	5 ;     CG2R61      CG321       HGA2
   42    41    78	5 ;     CG2R61      CG321       HGA2
   38    41    77	5 ;      SG3O2      CG321       HGA2
   38    41    78	5 ;      SG3O2      CG321       HGA2
   77    41    78	5 ;       HGA2      CG321       HGA2
   43    42    41	5 ;     CG2R61     CG2R61      CG321
   43    42    47	5 ;     CG2R61     CG2R61     CG2R61
   41    42    47	5 ;      CG321     CG2R61     CG2R61
   42    43    44	5 ;     CG2R61     CG2R61     CG2R61
   42    43    79	5 ;     CG2R61     CG2R61      HGR61
   44    43    79	5 ;     CG2R61     CG2R61      HGR61
   43    44    45	5 ;     CG2R61     CG2R61     CG2R61
   43    44    80	5 ;     CG2R61     CG2R61      HGR61
   45    44    80	5 ;     CG2R61     CG2R61      HGR61
   44    45    46	5 ;     CG2R61     CG2R61     CG2R61
   44    45    81	5 ;     CG2R61     CG2R61      HGR61
   46    45    81	5 ;     CG2R61     CG2R61      HGR61
   47    46    45	5 ;     CG2R61     CG2R61     CG2R61
   47    46    82	5 ;     CG2R61     CG2R61      HGR61
   45    46    82	5 ;     CG2R61     CG2R61      HGR61
   42    47    46	5 ;     CG2R61     CG2R61     CG2R61
   42    47    83	5 ;     CG2R61     CG2R61      HGR61
   46    47    83	5 ;     CG2R61     CG2R61      HGR61

[ dihedrals ]
;	ai	  aj	ak	  al funct			  c0			c1			  c2			c3			  c4			c5
    2     1    28    29	 9 ;      CG311     CG2DC1      NG2P1      CG2O1
    2     1    28    31	 9 ;      CG311     CG2DC1      NG2P1       HGP2
   21     1    28    29	 9 ;      CG321     CG2DC1      NG2P1      CG2O1
   21     1    28    31	 9 ;      CG321     CG2DC1      NG2P1       HGP2
   28     1     2     5	 9 ;      NG2P1     CG2DC1      CG311      CG324
   28     1     2     3	 9 ;      NG2P1     CG2DC1      CG311      OG311
   28     1     2    48	 9 ;      NG2P1     CG2DC1      CG311       HGA1
   21     1     2     5	 9 ;      CG321     CG2DC1      CG311      CG324
   21     1     2     3	 9 ;      CG321     CG2DC1      CG311      OG311
   21     1     2    48	 9 ;      CG321     CG2DC1      CG311       HGA1
   28     1    21    22	 9 ;      NG2P1     CG2DC1      CG321     CG2R61
   28     1    21    66	 9 ;      NG2P1     CG2DC1      CG321       HGA2
   28     1    21    67	 9 ;      NG2P1     CG2DC1      CG321       HGA2
    2     1    21    22	 9 ;      CG311     CG2DC1      CG321     CG2R61
    2     1    21    66	 9 ;      CG311     CG2DC1      CG321       HGA2
    2     1    21    67	 9 ;      CG311     CG2DC1      CG321       HGA2
    1     2     5     6	 9 ;     CG2DC1      CG311      CG324      NG3P2
    1     2     5    49	 9 ;     CG2DC1      CG311      CG324       HGA2
    1     2     5    50	 9 ;     CG2DC1      CG311      CG324       HGA2
    3     2     5     6	 9 ;      OG311      CG311      CG324      NG3P2
    3     2     5    49	 9 ;      OG311      CG311      CG324       HGA2
    3     2     5    50	 9 ;      OG311      CG311      CG324       HGA2
   48     2     5     6	 9 ;       HGA1      CG311      CG324      NG3P2
   48     2     5    49	 9 ;       HGA1      CG311      CG324       HGA2
   48     2     5    50	 9 ;       HGA1      CG311      CG324       HGA2
    5     2     3     4	 9 ;      CG324      CG311      OG311       HGP1
    1     2     3     4	 9 ;     CG2DC1      CG311      OG311       HGP1
   48     2     3     4	 9 ;       HGA1      CG311      OG311       HGP1
    2     5     6     9	 9 ;      CG311      CG324      NG3P2      CG314
    2     5     6     8	 9 ;      CG311      CG324      NG3P2       HGP2
    2     5     6     7	 9 ;      CG311      CG324      NG3P2       HGP2
   49     5     6     9	 9 ;       HGA2      CG324      NG3P2      CG314
   49     5     6     8	 9 ;       HGA2      CG324      NG3P2       HGP2
   49     5     6     7	 9 ;       HGA2      CG324      NG3P2       HGP2
   50     5     6     9	 9 ;       HGA2      CG324      NG3P2      CG314
   50     5     6     8	 9 ;       HGA2      CG324      NG3P2       HGP2
   50     5     6     7	 9 ;       HGA2      CG324      NG3P2       HGP2
    8     6     9    11	 9 ;       HGP2      NG3P2      CG314      CG2O1
    8     6     9    10	 9 ;       HGP2      NG3P2      CG314      CG331
    8     6     9    51	 9 ;       HGP2      NG3P2      CG314       HGA1
    7     6     9    11	 9 ;       HGP2      NG3P2      CG314      CG2O1
    7     6     9    10	 9 ;       HGP2      NG3P2      CG314      CG331
    7     6     9    51	 9 ;       HGP2      NG3P2      CG314       HGA1
    5     6     9    11	 9 ;      CG324      NG3P2      CG314      CG2O1
    5     6     9    10	 9 ;      CG324      NG3P2      CG314      CG331
    5     6     9    51	 9 ;      CG324      NG3P2      CG314       HGA1
   10     9    11    13	 9 ;      CG331      CG314      CG2O1      NG2S1
   10     9    11    12	 9 ;      CG331      CG314      CG2O1      OG2D1
    6     9    11    13	 9 ;      NG3P2      CG314      CG2O1      NG2S1
    6     9    11    12	 9 ;      NG3P2      CG314      CG2O1      OG2D1
   51     9    11    13	 9 ;       HGA1      CG314      CG2O1      NG2S1
   51     9    11    12	 9 ;       HGA1      CG314      CG2O1      OG2D1
   11     9    10    52	 9 ;      CG2O1      CG314      CG331       HGA3
   11     9    10    53	 9 ;      CG2O1      CG314      CG331       HGA3
   11     9    10    54	 9 ;      CG2O1      CG314      CG331       HGA3
    6     9    10    52	 9 ;      NG3P2      CG314      CG331       HGA3
    6     9    10    53	 9 ;      NG3P2      CG314      CG331       HGA3
    6     9    10    54	 9 ;      NG3P2      CG314      CG331       HGA3
   51     9    10    52	 9 ;       HGA1      CG314      CG331       HGA3
   51     9    10    53	 9 ;       HGA1      CG314      CG331       HGA3
   51     9    10    54	 9 ;       HGA1      CG314      CG331       HGA3
   12    11    13    15	 9 ;      OG2D1      CG2O1      NG2S1      CG311
   12    11    13    14	 9 ;      OG2D1      CG2O1      NG2S1       HGP1
    9    11    13    15	 9 ;      CG314      CG2O1      NG2S1      CG311
    9    11    13    14	 9 ;      CG314      CG2O1      NG2S1       HGP1
   14    13    15    20	 9 ;       HGP1      NG2S1      CG311      CG321
   14    13    15    16	 9 ;       HGP1      NG2S1      CG311      CG321
   14    13    15    55	 9 ;       HGP1      NG2S1      CG311       HGA1
   11    13    15    20	 9 ;      CG2O1      NG2S1      CG311      CG321
   11    13    15    16	 9 ;      CG2O1      NG2S1      CG311      CG321
   11    13    15    55	 9 ;      CG2O1      NG2S1      CG311       HGA1
   16    15    20    19	 9 ;      CG321      CG311      CG321      CG321
   16    15    20    64	 9 ;      CG321      CG311      CG321       HGA2
   16    15    20    65	 9 ;      CG321      CG311      CG321       HGA2
   13    15    20    19	 9 ;      NG2S1      CG311      CG321      CG321
   13    15    20    64	 9 ;      NG2S1      CG311      CG321       HGA2
   13    15    20    65	 9 ;      NG2S1      CG311      CG321       HGA2
   55    15    20    19	 9 ;       HGA1      CG311      CG321      CG321
   55    15    20    64	 9 ;       HGA1      CG311      CG321       HGA2
   55    15    20    65	 9 ;       HGA1      CG311      CG321       HGA2
   20    15    16    17	 9 ;      CG321      CG311      CG321      CG321
   20    15    16    56	 9 ;      CG321      CG311      CG321       HGA2
   20    15    16    57	 9 ;      CG321      CG311      CG321       HGA2
   13    15    16    17	 9 ;      NG2S1      CG311      CG321      CG321
   13    15    16    56	 9 ;      NG2S1      CG311      CG321       HGA2
   13    15    16    57	 9 ;      NG2S1      CG311      CG321       HGA2
   55    15    16    17	 9 ;       HGA1      CG311      CG321      CG321
   55    15    16    56	 9 ;       HGA1      CG311      CG321       HGA2
   55    15    16    57	 9 ;       HGA1      CG311      CG321       HGA2
   15    16    17    18	 9 ;      CG311      CG321      CG321      CG321
   15    16    17    58	 9 ;      CG311      CG321      CG321       HGA2
   15    16    17    59	 9 ;      CG311      CG321      CG321       HGA2
   56    16    17    18	 9 ;       HGA2      CG321      CG321      CG321
   56    16    17    58	 9 ;       HGA2      CG321      CG321       HGA2
   56    16    17    59	 9 ;       HGA2      CG321      CG321       HGA2
   57    16    17    18	 9 ;       HGA2      CG321      CG321      CG321
   57    16    17    58	 9 ;       HGA2      CG321      CG321       HGA2
   57    16    17    59	 9 ;       HGA2      CG321      CG321       HGA2
   16    17    18    19	 9 ;      CG321      CG321      CG321      CG321
   16    17    18    60	 9 ;      CG321      CG321      CG321       HGA2
   16    17    18    61	 9 ;      CG321      CG321      CG321       HGA2
   58    17    18    19	 9 ;       HGA2      CG321      CG321      CG321
   58    17    18    60	 9 ;       HGA2      CG321      CG321       HGA2
   58    17    18    61	 9 ;       HGA2      CG321      CG321       HGA2
   59    17    18    19	 9 ;       HGA2      CG321      CG321      CG321
   59    17    18    60	 9 ;       HGA2      CG321      CG321       HGA2
   59    17    18    61	 9 ;       HGA2      CG321      CG321       HGA2
   17    18    19    20	 9 ;      CG321      CG321      CG321      CG321
   17    18    19    62	 9 ;      CG321      CG321      CG321       HGA2
   17    18    19    63	 9 ;      CG321      CG321      CG321       HGA2
   60    18    19    20	 9 ;       HGA2      CG321      CG321      CG321
   60    18    19    62	 9 ;       HGA2      CG321      CG321       HGA2
   60    18    19    63	 9 ;       HGA2      CG321      CG321       HGA2
   61    18    19    20	 9 ;       HGA2      CG321      CG321      CG321
   61    18    19    62	 9 ;       HGA2      CG321      CG321       HGA2
   61    18    19    63	 9 ;       HGA2      CG321      CG321       HGA2
   18    19    20    15	 9 ;      CG321      CG321      CG321      CG311
   18    19    20    64	 9 ;      CG321      CG321      CG321       HGA2
   18    19    20    65	 9 ;      CG321      CG321      CG321       HGA2
   62    19    20    15	 9 ;       HGA2      CG321      CG321      CG311
   62    19    20    64	 9 ;       HGA2      CG321      CG321       HGA2
   62    19    20    65	 9 ;       HGA2      CG321      CG321       HGA2
   63    19    20    15	 9 ;       HGA2      CG321      CG321      CG311
   63    19    20    64	 9 ;       HGA2      CG321      CG321       HGA2
   63    19    20    65	 9 ;       HGA2      CG321      CG321       HGA2
    1    21    22    23	 9 ;     CG2DC1      CG321     CG2R61     CG2R61
    1    21    22    27	 9 ;     CG2DC1      CG321     CG2R61     CG2R61
   66    21    22    23	 9 ;       HGA2      CG321     CG2R61     CG2R61
   66    21    22    27	 9 ;       HGA2      CG321     CG2R61     CG2R61
   67    21    22    23	 9 ;       HGA2      CG321     CG2R61     CG2R61
   67    21    22    27	 9 ;       HGA2      CG321     CG2R61     CG2R61
   21    22    23    24	 9 ;      CG321     CG2R61     CG2R61     CG2R61
   21    22    23    68	 9 ;      CG321     CG2R61     CG2R61      HGR61
   27    22    23    24	 9 ;     CG2R61     CG2R61     CG2R61     CG2R61
   27    22    23    68	 9 ;     CG2R61     CG2R61     CG2R61      HGR61
   21    22    27    26	 9 ;      CG321     CG2R61     CG2R61     CG2R61
   21    22    27    72	 9 ;      CG321     CG2R61     CG2R61      HGR61
   23    22    27    26	 9 ;     CG2R61     CG2R61     CG2R61     CG2R61
   23    22    27    72	 9 ;     CG2R61     CG2R61     CG2R61      HGR61
   22    23    24    25	 9 ;     CG2R61     CG2R61     CG2R61     CG2R61
   22    23    24    69	 9 ;     CG2R61     CG2R61     CG2R61      HGR61
   68    23    24    25	 9 ;      HGR61     CG2R61     CG2R61     CG2R61
   68    23    24    69	 9 ;      HGR61     CG2R61     CG2R61      HGR61
   23    24    25    26	 9 ;     CG2R61     CG2R61     CG2R61     CG2R61
   23    24    25    70	 9 ;     CG2R61     CG2R61     CG2R61      HGR61
   69    24    25    26	 9 ;      HGR61     CG2R61     CG2R61     CG2R61
   69    24    25    70	 9 ;      HGR61     CG2R61     CG2R61      HGR61
   24    25    26    27	 9 ;     CG2R61     CG2R61     CG2R61     CG2R61
   24    25    26    71	 9 ;     CG2R61     CG2R61     CG2R61      HGR61
   70    25    26    27	 9 ;      HGR61     CG2R61     CG2R61     CG2R61
   70    25    26    71	 9 ;      HGR61     CG2R61     CG2R61      HGR61
   25    26    27    22	 9 ;     CG2R61     CG2R61     CG2R61     CG2R61
   25    26    27    72	 9 ;     CG2R61     CG2R61     CG2R61      HGR61
   71    26    27    22	 9 ;      HGR61     CG2R61     CG2R61     CG2R61
   71    26    27    72	 9 ;      HGR61     CG2R61     CG2R61      HGR61
   31    28    29    32	 9 ;       HGP2      NG2P1      CG2O1     CG2R61
   31    28    29    30	 9 ;       HGP2      NG2P1      CG2O1      OG2D1
    1    28    29    32	 9 ;     CG2DC1      NG2P1      CG2O1     CG2R61
    1    28    29    30	 9 ;     CG2DC1      NG2P1      CG2O1      OG2D1
   30    29    32    33	 9 ;      OG2D1      CG2O1     CG2R61     CG2R61
   30    29    32    37	 9 ;      OG2D1      CG2O1     CG2R61     CG2R61
   28    29    32    33	 9 ;      NG2P1      CG2O1     CG2R61     CG2R61
   28    29    32    37	 9 ;      NG2P1      CG2O1     CG2R61     CG2R61
   37    32    33    34	 9 ;     CG2R61     CG2R61     CG2R61     CG2R61
   37    32    33    73	 9 ;     CG2R61     CG2R61     CG2R61      HGR61
   29    32    33    34	 9 ;      CG2O1     CG2R61     CG2R61     CG2R61
   29    32    33    73	 9 ;      CG2O1     CG2R61     CG2R61      HGR61
   33    32    37    36	 9 ;     CG2R61     CG2R61     CG2R61     CG2R61
   33    32    37    76	 9 ;     CG2R61     CG2R61     CG2R61      HGR61
   29    32    37    36	 9 ;      CG2O1     CG2R61     CG2R61     CG2R61
   29    32    37    76	 9 ;      CG2O1     CG2R61     CG2R61      HGR61
   32    33    34    38	 9 ;     CG2R61     CG2R61     CG2R61      SG3O2
   32    33    34    35	 9 ;     CG2R61     CG2R61     CG2R61     CG2R61
   73    33    34    38	 9 ;      HGR61     CG2R61     CG2R61      SG3O2
   73    33    34    35	 9 ;      HGR61     CG2R61     CG2R61     CG2R61
   35    34    38    41	 9 ;     CG2R61     CG2R61      SG3O2      CG321
   35    34    38    39	 9 ;     CG2R61     CG2R61      SG3O2      OG2P1
   35    34    38    40	 9 ;     CG2R61     CG2R61      SG3O2      OG2P1
   33    34    38    41	 9 ;     CG2R61     CG2R61      SG3O2      CG321
   33    34    38    39	 9 ;     CG2R61     CG2R61      SG3O2      OG2P1
   33    34    38    40	 9 ;     CG2R61     CG2R61      SG3O2      OG2P1
   38    34    35    36	 9 ;      SG3O2     CG2R61     CG2R61     CG2R61
   38    34    35    74	 9 ;      SG3O2     CG2R61     CG2R61      HGR61
   33    34    35    36	 9 ;     CG2R61     CG2R61     CG2R61     CG2R61
   33    34    35    74	 9 ;     CG2R61     CG2R61     CG2R61      HGR61
   34    35    36    37	 9 ;     CG2R61     CG2R61     CG2R61     CG2R61
   34    35    36    75	 9 ;     CG2R61     CG2R61     CG2R61      HGR61
   74    35    36    37	 9 ;      HGR61     CG2R61     CG2R61     CG2R61
   74    35    36    75	 9 ;      HGR61     CG2R61     CG2R61      HGR61
   35    36    37    32	 9 ;     CG2R61     CG2R61     CG2R61     CG2R61
   35    36    37    76	 9 ;     CG2R61     CG2R61     CG2R61      HGR61
   75    36    37    32	 9 ;      HGR61     CG2R61     CG2R61     CG2R61
   75    36    37    76	 9 ;      HGR61     CG2R61     CG2R61      HGR61
   39    38    41    42	 9 ;      OG2P1      SG3O2      CG321     CG2R61
   39    38    41    77	 9 ;      OG2P1      SG3O2      CG321       HGA2
   39    38    41    78	 9 ;      OG2P1      SG3O2      CG321       HGA2
   40    38    41    42	 9 ;      OG2P1      SG3O2      CG321     CG2R61
   40    38    41    77	 9 ;      OG2P1      SG3O2      CG321       HGA2
   40    38    41    78	 9 ;      OG2P1      SG3O2      CG321       HGA2
   34    38    41    42	 9 ;     CG2R61      SG3O2      CG321     CG2R61
   34    38    41    77	 9 ;     CG2R61      SG3O2      CG321       HGA2
   34    38    41    78	 9 ;     CG2R61      SG3O2      CG321       HGA2
   38    41    42    43	 9 ;      SG3O2      CG321     CG2R61     CG2R61
   38    41    42    47	 9 ;      SG3O2      CG321     CG2R61     CG2R61
   77    41    42    43	 9 ;       HGA2      CG321     CG2R61     CG2R61
   77    41    42    47	 9 ;       HGA2      CG321     CG2R61     CG2R61
   78    41    42    43	 9 ;       HGA2      CG321     CG2R61     CG2R61
   78    41    42    47	 9 ;       HGA2      CG321     CG2R61     CG2R61
   41    42    43    44	 9 ;      CG321     CG2R61     CG2R61     CG2R61
   41    42    43    79	 9 ;      CG321     CG2R61     CG2R61      HGR61
   47    42    43    44	 9 ;     CG2R61     CG2R61     CG2R61     CG2R61
   47    42    43    79	 9 ;     CG2R61     CG2R61     CG2R61      HGR61
   43    42    47    46	 9 ;     CG2R61     CG2R61     CG2R61     CG2R61
   43    42    47    83	 9 ;     CG2R61     CG2R61     CG2R61      HGR61
   41    42    47    46	 9 ;      CG321     CG2R61     CG2R61     CG2R61
   41    42    47    83	 9 ;      CG321     CG2R61     CG2R61      HGR61
   42    43    44    45	 9 ;     CG2R61     CG2R61     CG2R61     CG2R61
   42    43    44    80	 9 ;     CG2R61     CG2R61     CG2R61      HGR61
   79    43    44    45	 9 ;      HGR61     CG2R61     CG2R61     CG2R61
   79    43    44    80	 9 ;      HGR61     CG2R61     CG2R61      HGR61
   43    44    45    46	 9 ;     CG2R61     CG2R61     CG2R61     CG2R61
   43    44    45    81	 9 ;     CG2R61     CG2R61     CG2R61      HGR61
   80    44    45    46	 9 ;      HGR61     CG2R61     CG2R61     CG2R61
   80    44    45    81	 9 ;      HGR61     CG2R61     CG2R61      HGR61
   44    45    46    47	 9 ;     CG2R61     CG2R61     CG2R61     CG2R61
   44    45    46    82	 9 ;     CG2R61     CG2R61     CG2R61      HGR61
   81    45    46    47	 9 ;      HGR61     CG2R61     CG2R61     CG2R61
   81    45    46    82	 9 ;      HGR61     CG2R61     CG2R61      HGR61
   45    46    47    42	 9 ;     CG2R61     CG2R61     CG2R61     CG2R61
   45    46    47    83	 9 ;     CG2R61     CG2R61     CG2R61      HGR61
   82    46    47    42	 9 ;      HGR61     CG2R61     CG2R61     CG2R61
   82    46    47    83	 9 ;      HGR61     CG2R61     CG2R61      HGR61

[ dihedrals ]
;	ai	  aj	ak	  al funct			  c0			c1			  c2			c3
    1     2    21    28	 2
   11     9    13    12	 2
   29    32    28    30	 2

