Georgetown Riga Oslo Madrid Amsterdam Chisinau Stockholm
   92
    1LIG     C1    1  -1.273   0.352  -1.377
    1LIG     C2    2  -1.225   0.502  -1.378
    1LIG     C3    3  -1.129   0.539  -1.495
    1LIG     N1    4  -1.201   0.601  -1.614
    1LIG     H1    5  -1.133   0.656  -1.668
    1LIG     H2    6  -1.233   0.528  -1.678
    1LIG     C4    7  -1.316   0.693  -1.586
    1LIG     C5    8  -1.353   0.770  -1.710
    1LIG     C6    9  -1.451   0.870  -1.701
    1LIG     C7   10  -1.493   0.941  -1.815
    1LIG     C8   11  -1.435   0.909  -1.939
    1LIG     C9   12  -1.337   0.810  -1.948
    1LIG    C10   13  -1.296   0.740  -1.835
    1LIG    C11   14  -1.601   1.046  -1.801
    1LIG    C12   15  -1.738   0.994  -1.842
    1LIG    C13   16  -1.602   1.103  -1.658
    1LIG     O1   17  -1.153   0.528  -1.256
    1LIG     H3   18  -1.152   0.446  -1.203
    1LIG    C14   19  -1.252   0.296  -1.234
    1LIG    C15   20  -1.227   0.152  -1.201
    1LIG    C16   21  -1.313   0.068  -1.130
    1LIG    C17   22  -1.277  -0.066  -1.109
    1LIG    C18   23  -1.157  -0.117  -1.157
    1LIG    C19   24  -1.071  -0.035  -1.230
    1LIG    C20   25  -1.107   0.098  -1.251
    1LIG     N2   26  -1.416   0.350  -1.418
    1LIG    C21   27  -1.454   0.350  -1.551
    1LIG     O2   28  -1.371   0.331  -1.640
    1LIG     H4   29  -1.488   0.362  -1.348
    1LIG    C22   30  -1.599   0.391  -1.584
    1LIG    C23   31  -1.664   0.448  -1.457
    1LIG    C24   32  -1.814   0.488  -1.467
    1LIG    C25   33  -1.892   0.370  -1.530
    1LIG    C26   34  -1.832   0.310  -1.657
    1LIG    C27   35  -1.683   0.279  -1.647
    1LIG    C28   36  -1.846   0.635  -1.522
    1LIG    C29   37  -1.728   0.731  -1.496
    1LIG    C30   38  -1.861   0.631  -1.677
    1LIG     N3   39  -1.977   0.691  -1.465
    1LIG    C31   40  -2.019   0.659  -1.334
    1LIG     O3   41  -1.948   0.598  -1.254
    1LIG    C32   42  -2.073   0.748  -1.561
    1LIG    C33   43  -2.158   0.707  -1.292
    1LIG    C34   44  -2.265   0.599  -1.297
    1LIG     HC   45  -1.214   0.294  -1.447
    1LIG    HC1   46  -1.312   0.567  -1.383
    1LIG    HC2   47  -1.056   0.611  -1.458
    1LIG    HC3   48  -1.077   0.449  -1.528
    1LIG    HC4   49  -1.288   0.763  -1.508
    1LIG    HC5   50  -1.402   0.634  -1.553
    1LIG    HC6   51  -1.494   0.893  -1.605
    1LIG    HC7   52  -1.467   0.961  -2.027
    1LIG    HC8   53  -1.293   0.788  -2.044
    1LIG    HC9   54  -1.220   0.664  -1.843
    1LIG   HC10   55  -1.576   1.128  -1.868
    1LIG   HC11   56  -1.342   0.324  -1.178
    1LIG   HC12   57  -1.170   0.353  -1.190
    1LIG   HC13   58  -1.407   0.105  -1.091
    1LIG   HC14   59  -1.343  -0.131  -1.053
    1LIG   HC15   60  -1.131  -0.220  -1.139
    1LIG   HC16   61  -0.978  -0.074  -1.269
    1LIG   HC17   62  -1.041   0.162  -1.308
    1LIG   HC18   63  -1.594   0.472  -1.656
    1LIG   HC19   64  -1.609   0.538  -1.429
    1LIG   HC20   65  -1.654   0.375  -1.377
    1LIG   HC21   66  -1.848   0.490  -1.364
    1LIG   HC22   67  -1.992   0.405  -1.554
    1LIG   HC23   68  -1.900   0.291  -1.455
    1LIG   HC24   69  -1.885   0.218  -1.679
    1LIG   HC25   70  -1.848   0.380  -1.739
    1LIG   HC26   71  -1.671   0.189  -1.587
    1LIG   HC27   72  -1.644   0.259  -1.747
    1LIG   HC28   73  -2.188   0.788  -1.358
    1LIG   HC29   74  -2.152   0.746  -1.190
    1LIG   HC30   75  -2.360   0.641  -1.265
    1LIG   HC31   76  -2.273   0.562  -1.399
    1LIG   HC32   77  -2.237   0.518  -1.230
    1LIG   HC33   78  -1.773   0.583  -1.721
    1LIG   HC34   79  -1.869   0.733  -1.715
    1LIG   HC35   80  -1.950   0.575  -1.704
    1LIG   HC36   81  -1.733   0.954  -1.943
    1LIG   HC37   82  -1.811   1.075  -1.838
    1LIG   HC38   83  -1.769   0.914  -1.773
    1LIG   HC39   84  -2.156   0.794  -1.507
    1LIG   HC40   85  -2.111   0.669  -1.626
    1LIG   HC41   86  -2.023   0.824  -1.622
    1LIG   HC42   87  -1.664   1.193  -1.656
    1LIG   HC43   88  -1.500   1.128  -1.629
    1LIG   HC44   89  -1.643   1.029  -1.590
    1LIG   HC45   90  -1.760   0.834  -1.513
    1LIG   HC46   91  -1.646   0.707  -1.564
    1LIG   HC47   92  -1.694   0.720  -1.393
   0.00000   0.00000   0.00000
