; Created by cgenff_charmm2gmx.py

[ moleculetype ]
; Name			   nrexcl
LIG				 3

[ atoms ]
;	 nr		  type	resnr residue  atom   cgnr	   charge		mass  typeB    chargeB		massB
; residue	 1 LIG rtp LIG q	qsum
     1      CG311      1    LIG     C1      1     -0.003     12.011   ;
     2      CG311      1    LIG     C2      2      0.094     12.011   ;
     3      CG324      1    LIG     C3      3      0.178     12.011   ;
     4      NG3P2      1    LIG     N1      4     -0.444     14.007   ;
     5       HGP2      1    LIG     H1      5      0.348      1.008   ;
     6       HGP2      1    LIG     H2      6      0.348      1.008   ;
     7      CG324      1    LIG     C4      7      0.171     12.011   ;
     8     CG2R61      1    LIG     C5      8      0.035     12.011   ;
     9     CG2R61      1    LIG     C6      9     -0.117     12.011   ;
    10     CG2R61      1    LIG     C7     10     -0.017     12.011   ;
    11     CG2R61      1    LIG     C8     11     -0.114     12.011   ;
    12     CG2R61      1    LIG     C9     12     -0.109     12.011   ;
    13     CG2R61      1    LIG    C10     13     -0.119     12.011   ;
    14      CG311      1    LIG    C11     14     -0.088     12.011   ;
    15      CG331      1    LIG    C12     15     -0.264     12.011   ;
    16      CG331      1    LIG    C13     16     -0.264     12.011   ;
    17      OG311      1    LIG     O1     17     -0.625     15.999   ;
    18       HGP1      1    LIG     H3     18      0.415      1.008   ;
    19      CG321      1    LIG    C14     19     -0.111     12.011   ;
    20     CG2R61      1    LIG    C15     20     -0.019     12.011   ;
    21     CG2R61      1    LIG    C16     21     -0.123     12.011   ;
    22     CG2R61      1    LIG    C17     22     -0.112     12.011   ;
    23     CG2R61      1    LIG    C18     23     -0.116     12.011   ;
    24     CG2R61      1    LIG    C19     24     -0.112     12.011   ;
    25     CG2R61      1    LIG    C20     25     -0.123     12.011   ;
    26      NG2S1      1    LIG     N2     26     -0.388     14.007   ;
    27      CG2O1      1    LIG    C21     27      0.469     12.011   ;
    28      OG2D1      1    LIG     O2     28     -0.508     15.999   ;
    29       HGP1      1    LIG     H4     29      0.269      1.008   ;
    30      CG311      1    LIG    C22     30      0.084     12.011   ;
    31      CG321      1    LIG    C23     31     -0.216     12.011   ;
    32      CG311      1    LIG    C24     32     -0.057     12.011   ;
    33      CG321      1    LIG    C25     33     -0.153     12.011   ;
    34      CG321      1    LIG    C26     34     -0.215     12.011   ;
    35      CG321      1    LIG    C27     35     -0.231     12.011   ;
    36      CG301      1    LIG    C28     36      0.156     12.011   ;
    37      CG331      1    LIG    C29     37     -0.278     12.011   ;
    38      CG331      1    LIG    C30     38     -0.278     12.011   ;
    39      NG2S0      1    LIG     N3     39     -0.098     14.007   ;
    40      CG2O1      1    LIG    C31     40      0.314     12.011   ;
    41      OG2D1      1    LIG     O3     41     -0.520     15.999   ;
    42      CG331      1    LIG    C32     42     -0.254     12.011   ;
    43      CG321      1    LIG    C33     43     -0.086     12.011   ;
    44      CG331      1    LIG    C34     44     -0.273     12.011   ;
    45       HGA1      1    LIG     HC     45      0.090      1.008   ;
    46       HGA1      1    LIG    HC1     46      0.090      1.008   ;
    47       HGA2      1    LIG    HC2     47      0.090      1.008   ;
    48       HGA2      1    LIG    HC3     48      0.090      1.008   ;
    49       HGA2      1    LIG    HC4     49      0.090      1.008   ;
    50       HGA2      1    LIG    HC5     50      0.090      1.008   ;
    51      HGR61      1    LIG    HC6     51      0.116      1.008   ;
    52      HGR61      1    LIG    HC7     52      0.116      1.008   ;
    53      HGR61      1    LIG    HC8     53      0.116      1.008   ;
    54      HGR61      1    LIG    HC9     54      0.116      1.008   ;
    55       HGA1      1    LIG   HC10     55      0.090      1.008   ;
    56       HGA2      1    LIG   HC11     56      0.090      1.008   ;
    57       HGA2      1    LIG   HC12     57      0.090      1.008   ;
    58      HGR61      1    LIG   HC13     58      0.116      1.008   ;
    59      HGR61      1    LIG   HC14     59      0.116      1.008   ;
    60      HGR61      1    LIG   HC15     60      0.116      1.008   ;
    61      HGR61      1    LIG   HC16     61      0.116      1.008   ;
    62      HGR61      1    LIG   HC17     62      0.116      1.008   ;
    63       HGA1      1    LIG   HC18     63      0.090      1.008   ;
    64       HGA2      1    LIG   HC19     64      0.090      1.008   ;
    65       HGA2      1    LIG   HC20     65      0.090      1.008   ;
    66       HGA1      1    LIG   HC21     66      0.090      1.008   ;
    67       HGA2      1    LIG   HC22     67      0.090      1.008   ;
    68       HGA2      1    LIG   HC23     68      0.090      1.008   ;
    69       HGA2      1    LIG   HC24     69      0.090      1.008   ;
    70       HGA2      1    LIG   HC25     70      0.090      1.008   ;
    71       HGA2      1    LIG   HC26     71      0.090      1.008   ;
    72       HGA2      1    LIG   HC27     72      0.090      1.008   ;
    73       HGA2      1    LIG   HC28     73      0.090      1.008   ;
    74       HGA2      1    LIG   HC29     74      0.090      1.008   ;
    75       HGA3      1    LIG   HC30     75      0.090      1.008   ;
    76       HGA3      1    LIG   HC31     76      0.090      1.008   ;
    77       HGA3      1    LIG   HC32     77      0.090      1.008   ;
    78       HGA3      1    LIG   HC33     78      0.090      1.008   ;
    79       HGA3      1    LIG   HC34     79      0.090      1.008   ;
    80       HGA3      1    LIG   HC35     80      0.090      1.008   ;
    81       HGA3      1    LIG   HC36     81      0.090      1.008   ;
    82       HGA3      1    LIG   HC37     82      0.090      1.008   ;
    83       HGA3      1    LIG   HC38     83      0.090      1.008   ;
    84       HGA3      1    LIG   HC39     84      0.090      1.008   ;
    85       HGA3      1    LIG   HC40     85      0.090      1.008   ;
    86       HGA3      1    LIG   HC41     86      0.090      1.008   ;
    87       HGA3      1    LIG   HC42     87      0.090      1.008   ;
    88       HGA3      1    LIG   HC43     88      0.090      1.008   ;
    89       HGA3      1    LIG   HC44     89      0.090      1.008   ;
    90       HGA3      1    LIG   HC45     90      0.090      1.008   ;
    91       HGA3      1    LIG   HC46     91      0.090      1.008   ;
    92       HGA3      1    LIG   HC47     92      0.090      1.008   ;

[ bonds ]
;	ai	  aj funct			  c0			c1			  c2			c3
    1     2	 1 ;       CG311      CG311
    1    19	 1 ;       CG311      CG321
    1    26	 1 ;       CG311      NG2S1
    1    45	 1 ;       CG311       HGA1
    2     3	 1 ;       CG311      CG324
    2    17	 1 ;       CG311      OG311
    2    46	 1 ;       CG311       HGA1
    3     4	 1 ;       CG324      NG3P2
    3    47	 1 ;       CG324       HGA2
    3    48	 1 ;       CG324       HGA2
    4     5	 1 ;       NG3P2       HGP2
    4     6	 1 ;       NG3P2       HGP2
    4     7	 1 ;       NG3P2      CG324
    7     8	 1 ;       CG324     CG2R61
    7    49	 1 ;       CG324       HGA2
    7    50	 1 ;       CG324       HGA2
    8    13	 1 ;      CG2R61     CG2R61
    8     9	 1 ;      CG2R61     CG2R61
    9    10	 1 ;      CG2R61     CG2R61
    9    51	 1 ;      CG2R61      HGR61
   10    11	 1 ;      CG2R61     CG2R61
   10    14	 1 ;      CG2R61      CG311
   11    12	 1 ;      CG2R61     CG2R61
   11    52	 1 ;      CG2R61      HGR61
   12    13	 1 ;      CG2R61     CG2R61
   12    53	 1 ;      CG2R61      HGR61
   13    54	 1 ;      CG2R61      HGR61
   14    15	 1 ;       CG311      CG331
   14    16	 1 ;       CG311      CG331
   14    55	 1 ;       CG311       HGA1
   15    81	 1 ;       CG331       HGA3
   15    82	 1 ;       CG331       HGA3
   15    83	 1 ;       CG331       HGA3
   16    87	 1 ;       CG331       HGA3
   16    88	 1 ;       CG331       HGA3
   16    89	 1 ;       CG331       HGA3
   17    18	 1 ;       OG311       HGP1
   19    20	 1 ;       CG321     CG2R61
   19    56	 1 ;       CG321       HGA2
   19    57	 1 ;       CG321       HGA2
   20    25	 1 ;      CG2R61     CG2R61
   20    21	 1 ;      CG2R61     CG2R61
   21    22	 1 ;      CG2R61     CG2R61
   21    58	 1 ;      CG2R61      HGR61
   22    23	 1 ;      CG2R61     CG2R61
   22    59	 1 ;      CG2R61      HGR61
   23    24	 1 ;      CG2R61     CG2R61
   23    60	 1 ;      CG2R61      HGR61
   24    25	 1 ;      CG2R61     CG2R61
   24    61	 1 ;      CG2R61      HGR61
   25    62	 1 ;      CG2R61      HGR61
   26    27	 1 ;       NG2S1      CG2O1
   26    29	 1 ;       NG2S1       HGP1
   27    28	 1 ;       CG2O1      OG2D1
   27    30	 1 ;       CG2O1      CG311
   30    35	 1 ;       CG311      CG321
   30    31	 1 ;       CG311      CG321
   30    63	 1 ;       CG311       HGA1
   31    32	 1 ;       CG321      CG311
   31    64	 1 ;       CG321       HGA2
   31    65	 1 ;       CG321       HGA2
   32    33	 1 ;       CG311      CG321
   32    36	 1 ;       CG311      CG301
   32    66	 1 ;       CG311       HGA1
   33    34	 1 ;       CG321      CG321
   33    67	 1 ;       CG321       HGA2
   33    68	 1 ;       CG321       HGA2
   34    35	 1 ;       CG321      CG321
   34    69	 1 ;       CG321       HGA2
   34    70	 1 ;       CG321       HGA2
   35    71	 1 ;       CG321       HGA2
   35    72	 1 ;       CG321       HGA2
   36    38	 1 ;       CG301      CG331
   36    37	 1 ;       CG301      CG331
   36    39	 1 ;       CG301      NG2S0
   37    90	 1 ;       CG331       HGA3
   37    91	 1 ;       CG331       HGA3
   37    92	 1 ;       CG331       HGA3
   38    78	 1 ;       CG331       HGA3
   38    79	 1 ;       CG331       HGA3
   38    80	 1 ;       CG331       HGA3
   39    42	 1 ;       NG2S0      CG331
   39    40	 1 ;       NG2S0      CG2O1
   40    41	 1 ;       CG2O1      OG2D1
   40    43	 1 ;       CG2O1      CG321
   42    84	 1 ;       CG331       HGA3
   42    85	 1 ;       CG331       HGA3
   42    86	 1 ;       CG331       HGA3
   43    44	 1 ;       CG321      CG331
   43    73	 1 ;       CG321       HGA2
   43    74	 1 ;       CG321       HGA2
   44    75	 1 ;       CG331       HGA3
   44    76	 1 ;       CG331       HGA3
   44    77	 1 ;       CG331       HGA3

[ pairs ]
;	ai	  aj funct			  c0			c1			  c2			c3
    1     4	 1
    1    47	 1
    1    48	 1
    1    18	 1
    1    25	 1
    1    21	 1
    1    28	 1
    1    30	 1
    2    20	 1
    2    56	 1
    2    57	 1
    2    27	 1
    2    29	 1
    2     5	 1
    2     6	 1
    2     7	 1
    3    19	 1
    3    26	 1
    3    45	 1
    3    18	 1
    3     8	 1
    3    49	 1
    3    50	 1
    4    17	 1
    4    46	 1
    4    13	 1
    4     9	 1
    5    47	 1
    5    48	 1
    5     8	 1
    5    49	 1
    5    50	 1
    6    47	 1
    6    48	 1
    6     8	 1
    6    49	 1
    6    50	 1
    7    47	 1
    7    48	 1
    7    12	 1
    7    54	 1
    7    10	 1
    7    51	 1
    8    11	 1
    8    14	 1
    8    53	 1
    9    49	 1
    9    50	 1
    9    12	 1
    9    54	 1
    9    52	 1
    9    15	 1
    9    16	 1
    9    55	 1
   10    13	 1
   10    53	 1
   10    81	 1
   10    82	 1
   10    83	 1
   10    87	 1
   10    88	 1
   10    89	 1
   11    51	 1
   11    15	 1
   11    16	 1
   11    55	 1
   11    54	 1
   12    14	 1
   13    49	 1
   13    50	 1
   13    51	 1
   13    52	 1
   14    51	 1
   14    52	 1
   15    87	 1
   15    88	 1
   15    89	 1
   16    81	 1
   16    82	 1
   16    83	 1
   17    19	 1
   17    26	 1
   17    45	 1
   17    47	 1
   17    48	 1
   18    46	 1
   19    46	 1
   19    27	 1
   19    29	 1
   19    24	 1
   19    62	 1
   19    22	 1
   19    58	 1
   20    26	 1
   20    45	 1
   20    23	 1
   20    59	 1
   20    61	 1
   21    56	 1
   21    57	 1
   21    24	 1
   21    62	 1
   21    60	 1
   22    25	 1
   22    61	 1
   23    58	 1
   23    62	 1
   24    59	 1
   25    56	 1
   25    57	 1
   25    58	 1
   25    60	 1
   26    46	 1
   26    56	 1
   26    57	 1
   26    35	 1
   26    31	 1
   26    63	 1
   27    45	 1
   27    34	 1
   27    71	 1
   27    72	 1
   27    32	 1
   27    64	 1
   27    65	 1
   28    29	 1
   28    35	 1
   28    31	 1
   28    63	 1
   29    45	 1
   29    30	 1
   30    33	 1
   30    36	 1
   30    66	 1
   30    69	 1
   30    70	 1
   31    34	 1
   31    71	 1
   31    72	 1
   31    67	 1
   31    68	 1
   31    38	 1
   31    37	 1
   31    39	 1
   32    35	 1
   32    63	 1
   32    69	 1
   32    70	 1
   32    78	 1
   32    79	 1
   32    80	 1
   32    90	 1
   32    91	 1
   32    92	 1
   32    42	 1
   32    40	 1
   33    64	 1
   33    65	 1
   33    38	 1
   33    37	 1
   33    39	 1
   33    71	 1
   33    72	 1
   34    63	 1
   34    36	 1
   34    66	 1
   35    64	 1
   35    65	 1
   35    67	 1
   35    68	 1
   36    64	 1
   36    65	 1
   36    67	 1
   36    68	 1
   36    84	 1
   36    85	 1
   36    86	 1
   36    41	 1
   36    43	 1
   37    66	 1
   37    78	 1
   37    79	 1
   37    80	 1
   37    42	 1
   37    40	 1
   38    66	 1
   38    90	 1
   38    91	 1
   38    92	 1
   38    42	 1
   38    40	 1
   39    66	 1
   39    78	 1
   39    79	 1
   39    80	 1
   39    90	 1
   39    91	 1
   39    92	 1
   39    44	 1
   39    73	 1
   39    74	 1
   40    84	 1
   40    85	 1
   40    86	 1
   40    75	 1
   40    76	 1
   40    77	 1
   41    42	 1
   41    44	 1
   41    73	 1
   41    74	 1
   42    43	 1
   45    46	 1
   45    56	 1
   45    57	 1
   46    47	 1
   46    48	 1
   52    53	 1
   53    54	 1
   55    81	 1
   55    82	 1
   55    83	 1
   55    87	 1
   55    88	 1
   55    89	 1
   58    59	 1
   59    60	 1
   60    61	 1
   61    62	 1
   63    71	 1
   63    72	 1
   63    64	 1
   63    65	 1
   64    66	 1
   65    66	 1
   66    67	 1
   66    68	 1
   67    69	 1
   67    70	 1
   68    69	 1
   68    70	 1
   69    71	 1
   69    72	 1
   70    71	 1
   70    72	 1
   73    75	 1
   73    76	 1
   73    77	 1
   74    75	 1
   74    76	 1
   74    77	 1

[ angles ]
;	ai	  aj	ak funct			c0			  c1			c2			  c3
    2     1    19	5 ;      CG311      CG311      CG321
    2     1    26	5 ;      CG311      CG311      NG2S1
    2     1    45	5 ;      CG311      CG311       HGA1
   19     1    26	5 ;      CG321      CG311      NG2S1
   19     1    45	5 ;      CG321      CG311       HGA1
   26     1    45	5 ;      NG2S1      CG311       HGA1
    3     2     1	5 ;      CG324      CG311      CG311
    3     2    17	5 ;      CG324      CG311      OG311
    3     2    46	5 ;      CG324      CG311       HGA1
    1     2    17	5 ;      CG311      CG311      OG311
    1     2    46	5 ;      CG311      CG311       HGA1
   17     2    46	5 ;      OG311      CG311       HGA1
    4     3     2	5 ;      NG3P2      CG324      CG311
    4     3    47	5 ;      NG3P2      CG324       HGA2
    4     3    48	5 ;      NG3P2      CG324       HGA2
    2     3    47	5 ;      CG311      CG324       HGA2
    2     3    48	5 ;      CG311      CG324       HGA2
   47     3    48	5 ;       HGA2      CG324       HGA2
    5     4     6	5 ;       HGP2      NG3P2       HGP2
    5     4     3	5 ;       HGP2      NG3P2      CG324
    5     4     7	5 ;       HGP2      NG3P2      CG324
    6     4     3	5 ;       HGP2      NG3P2      CG324
    6     4     7	5 ;       HGP2      NG3P2      CG324
    3     4     7	5 ;      CG324      NG3P2      CG324
    4     7     8	5 ;      NG3P2      CG324     CG2R61
    4     7    49	5 ;      NG3P2      CG324       HGA2
    4     7    50	5 ;      NG3P2      CG324       HGA2
    8     7    49	5 ;     CG2R61      CG324       HGA2
    8     7    50	5 ;     CG2R61      CG324       HGA2
   49     7    50	5 ;       HGA2      CG324       HGA2
   13     8     7	5 ;     CG2R61     CG2R61      CG324
   13     8     9	5 ;     CG2R61     CG2R61     CG2R61
    7     8     9	5 ;      CG324     CG2R61     CG2R61
    8     9    10	5 ;     CG2R61     CG2R61     CG2R61
    8     9    51	5 ;     CG2R61     CG2R61      HGR61
   10     9    51	5 ;     CG2R61     CG2R61      HGR61
   11    10     9	5 ;     CG2R61     CG2R61     CG2R61
   11    10    14	5 ;     CG2R61     CG2R61      CG311
    9    10    14	5 ;     CG2R61     CG2R61      CG311
   12    11    10	5 ;     CG2R61     CG2R61     CG2R61
   12    11    52	5 ;     CG2R61     CG2R61      HGR61
   10    11    52	5 ;     CG2R61     CG2R61      HGR61
   13    12    11	5 ;     CG2R61     CG2R61     CG2R61
   13    12    53	5 ;     CG2R61     CG2R61      HGR61
   11    12    53	5 ;     CG2R61     CG2R61      HGR61
   12    13     8	5 ;     CG2R61     CG2R61     CG2R61
   12    13    54	5 ;     CG2R61     CG2R61      HGR61
    8    13    54	5 ;     CG2R61     CG2R61      HGR61
   10    14    15	5 ;     CG2R61      CG311      CG331
   10    14    16	5 ;     CG2R61      CG311      CG331
   10    14    55	5 ;     CG2R61      CG311       HGA1
   15    14    16	5 ;      CG331      CG311      CG331
   15    14    55	5 ;      CG331      CG311       HGA1
   16    14    55	5 ;      CG331      CG311       HGA1
   14    15    81	5 ;      CG311      CG331       HGA3
   14    15    82	5 ;      CG311      CG331       HGA3
   14    15    83	5 ;      CG311      CG331       HGA3
   81    15    82	5 ;       HGA3      CG331       HGA3
   81    15    83	5 ;       HGA3      CG331       HGA3
   82    15    83	5 ;       HGA3      CG331       HGA3
   14    16    87	5 ;      CG311      CG331       HGA3
   14    16    88	5 ;      CG311      CG331       HGA3
   14    16    89	5 ;      CG311      CG331       HGA3
   87    16    88	5 ;       HGA3      CG331       HGA3
   87    16    89	5 ;       HGA3      CG331       HGA3
   88    16    89	5 ;       HGA3      CG331       HGA3
    2    17    18	5 ;      CG311      OG311       HGP1
    1    19    20	5 ;      CG311      CG321     CG2R61
    1    19    56	5 ;      CG311      CG321       HGA2
    1    19    57	5 ;      CG311      CG321       HGA2
   20    19    56	5 ;     CG2R61      CG321       HGA2
   20    19    57	5 ;     CG2R61      CG321       HGA2
   56    19    57	5 ;       HGA2      CG321       HGA2
   25    20    19	5 ;     CG2R61     CG2R61      CG321
   25    20    21	5 ;     CG2R61     CG2R61     CG2R61
   19    20    21	5 ;      CG321     CG2R61     CG2R61
   20    21    22	5 ;     CG2R61     CG2R61     CG2R61
   20    21    58	5 ;     CG2R61     CG2R61      HGR61
   22    21    58	5 ;     CG2R61     CG2R61      HGR61
   23    22    21	5 ;     CG2R61     CG2R61     CG2R61
   23    22    59	5 ;     CG2R61     CG2R61      HGR61
   21    22    59	5 ;     CG2R61     CG2R61      HGR61
   24    23    22	5 ;     CG2R61     CG2R61     CG2R61
   24    23    60	5 ;     CG2R61     CG2R61      HGR61
   22    23    60	5 ;     CG2R61     CG2R61      HGR61
   25    24    23	5 ;     CG2R61     CG2R61     CG2R61
   25    24    61	5 ;     CG2R61     CG2R61      HGR61
   23    24    61	5 ;     CG2R61     CG2R61      HGR61
   24    25    20	5 ;     CG2R61     CG2R61     CG2R61
   24    25    62	5 ;     CG2R61     CG2R61      HGR61
   20    25    62	5 ;     CG2R61     CG2R61      HGR61
    1    26    27	5 ;      CG311      NG2S1      CG2O1
    1    26    29	5 ;      CG311      NG2S1       HGP1
   27    26    29	5 ;      CG2O1      NG2S1       HGP1
   28    27    26	5 ;      OG2D1      CG2O1      NG2S1
   28    27    30	5 ;      OG2D1      CG2O1      CG311
   26    27    30	5 ;      NG2S1      CG2O1      CG311
   27    30    35	5 ;      CG2O1      CG311      CG321
   27    30    31	5 ;      CG2O1      CG311      CG321
   27    30    63	5 ;      CG2O1      CG311       HGA1
   35    30    31	5 ;      CG321      CG311      CG321
   35    30    63	5 ;      CG321      CG311       HGA1
   31    30    63	5 ;      CG321      CG311       HGA1
   30    31    32	5 ;      CG311      CG321      CG311
   30    31    64	5 ;      CG311      CG321       HGA2
   30    31    65	5 ;      CG311      CG321       HGA2
   32    31    64	5 ;      CG311      CG321       HGA2
   32    31    65	5 ;      CG311      CG321       HGA2
   64    31    65	5 ;       HGA2      CG321       HGA2
   31    32    33	5 ;      CG321      CG311      CG321
   31    32    36	5 ;      CG321      CG311      CG301
   31    32    66	5 ;      CG321      CG311       HGA1
   33    32    36	5 ;      CG321      CG311      CG301
   33    32    66	5 ;      CG321      CG311       HGA1
   36    32    66	5 ;      CG301      CG311       HGA1
   34    33    32	5 ;      CG321      CG321      CG311
   34    33    67	5 ;      CG321      CG321       HGA2
   34    33    68	5 ;      CG321      CG321       HGA2
   32    33    67	5 ;      CG311      CG321       HGA2
   32    33    68	5 ;      CG311      CG321       HGA2
   67    33    68	5 ;       HGA2      CG321       HGA2
   35    34    33	5 ;      CG321      CG321      CG321
   35    34    69	5 ;      CG321      CG321       HGA2
   35    34    70	5 ;      CG321      CG321       HGA2
   33    34    69	5 ;      CG321      CG321       HGA2
   33    34    70	5 ;      CG321      CG321       HGA2
   69    34    70	5 ;       HGA2      CG321       HGA2
   30    35    34	5 ;      CG311      CG321      CG321
   30    35    71	5 ;      CG311      CG321       HGA2
   30    35    72	5 ;      CG311      CG321       HGA2
   34    35    71	5 ;      CG321      CG321       HGA2
   34    35    72	5 ;      CG321      CG321       HGA2
   71    35    72	5 ;       HGA2      CG321       HGA2
   38    36    37	5 ;      CG331      CG301      CG331
   38    36    32	5 ;      CG331      CG301      CG311
   38    36    39	5 ;      CG331      CG301      NG2S0
   37    36    32	5 ;      CG331      CG301      CG311
   37    36    39	5 ;      CG331      CG301      NG2S0
   32    36    39	5 ;      CG311      CG301      NG2S0
   36    37    90	5 ;      CG301      CG331       HGA3
   36    37    91	5 ;      CG301      CG331       HGA3
   36    37    92	5 ;      CG301      CG331       HGA3
   90    37    91	5 ;       HGA3      CG331       HGA3
   90    37    92	5 ;       HGA3      CG331       HGA3
   91    37    92	5 ;       HGA3      CG331       HGA3
   36    38    78	5 ;      CG301      CG331       HGA3
   36    38    79	5 ;      CG301      CG331       HGA3
   36    38    80	5 ;      CG301      CG331       HGA3
   78    38    79	5 ;       HGA3      CG331       HGA3
   78    38    80	5 ;       HGA3      CG331       HGA3
   79    38    80	5 ;       HGA3      CG331       HGA3
   36    39    42	5 ;      CG301      NG2S0      CG331
   36    39    40	5 ;      CG301      NG2S0      CG2O1
   42    39    40	5 ;      CG331      NG2S0      CG2O1
   39    40    41	5 ;      NG2S0      CG2O1      OG2D1
   39    40    43	5 ;      NG2S0      CG2O1      CG321
   41    40    43	5 ;      OG2D1      CG2O1      CG321
   39    42    84	5 ;      NG2S0      CG331       HGA3
   39    42    85	5 ;      NG2S0      CG331       HGA3
   39    42    86	5 ;      NG2S0      CG331       HGA3
   84    42    85	5 ;       HGA3      CG331       HGA3
   84    42    86	5 ;       HGA3      CG331       HGA3
   85    42    86	5 ;       HGA3      CG331       HGA3
   40    43    44	5 ;      CG2O1      CG321      CG331
   40    43    73	5 ;      CG2O1      CG321       HGA2
   40    43    74	5 ;      CG2O1      CG321       HGA2
   44    43    73	5 ;      CG331      CG321       HGA2
   44    43    74	5 ;      CG331      CG321       HGA2
   73    43    74	5 ;       HGA2      CG321       HGA2
   43    44    75	5 ;      CG321      CG331       HGA3
   43    44    76	5 ;      CG321      CG331       HGA3
   43    44    77	5 ;      CG321      CG331       HGA3
   75    44    76	5 ;       HGA3      CG331       HGA3
   75    44    77	5 ;       HGA3      CG331       HGA3
   76    44    77	5 ;       HGA3      CG331       HGA3

[ dihedrals ]
;	ai	  aj	ak	  al funct			  c0			c1			  c2			c3			  c4			c5
   19     1     2     3	 9 ;      CG321      CG311      CG311      CG324
   19     1     2    17	 9 ;      CG321      CG311      CG311      OG311
   19     1     2    46	 9 ;      CG321      CG311      CG311       HGA1
   26     1     2     3	 9 ;      NG2S1      CG311      CG311      CG324
   26     1     2    17	 9 ;      NG2S1      CG311      CG311      OG311
   26     1     2    46	 9 ;      NG2S1      CG311      CG311       HGA1
   45     1     2     3	 9 ;       HGA1      CG311      CG311      CG324
   45     1     2    17	 9 ;       HGA1      CG311      CG311      OG311
   45     1     2    46	 9 ;       HGA1      CG311      CG311       HGA1
    2     1    19    20	 9 ;      CG311      CG311      CG321     CG2R61
    2     1    19    56	 9 ;      CG311      CG311      CG321       HGA2
    2     1    19    57	 9 ;      CG311      CG311      CG321       HGA2
   26     1    19    20	 9 ;      NG2S1      CG311      CG321     CG2R61
   26     1    19    56	 9 ;      NG2S1      CG311      CG321       HGA2
   26     1    19    57	 9 ;      NG2S1      CG311      CG321       HGA2
   45     1    19    20	 9 ;       HGA1      CG311      CG321     CG2R61
   45     1    19    56	 9 ;       HGA1      CG311      CG321       HGA2
   45     1    19    57	 9 ;       HGA1      CG311      CG321       HGA2
    2     1    26    27	 9 ;      CG311      CG311      NG2S1      CG2O1
    2     1    26    29	 9 ;      CG311      CG311      NG2S1       HGP1
   19     1    26    27	 9 ;      CG321      CG311      NG2S1      CG2O1
   19     1    26    29	 9 ;      CG321      CG311      NG2S1       HGP1
   45     1    26    27	 9 ;       HGA1      CG311      NG2S1      CG2O1
   45     1    26    29	 9 ;       HGA1      CG311      NG2S1       HGP1
    1     2     3     4	 9 ;      CG311      CG311      CG324      NG3P2
    1     2     3    47	 9 ;      CG311      CG311      CG324       HGA2
    1     2     3    48	 9 ;      CG311      CG311      CG324       HGA2
   17     2     3     4	 9 ;      OG311      CG311      CG324      NG3P2
   17     2     3    47	 9 ;      OG311      CG311      CG324       HGA2
   17     2     3    48	 9 ;      OG311      CG311      CG324       HGA2
   46     2     3     4	 9 ;       HGA1      CG311      CG324      NG3P2
   46     2     3    47	 9 ;       HGA1      CG311      CG324       HGA2
   46     2     3    48	 9 ;       HGA1      CG311      CG324       HGA2
    3     2    17    18	 9 ;      CG324      CG311      OG311       HGP1
    1     2    17    18	 9 ;      CG311      CG311      OG311       HGP1
   46     2    17    18	 9 ;       HGA1      CG311      OG311       HGP1
    2     3     4     5	 9 ;      CG311      CG324      NG3P2       HGP2
    2     3     4     6	 9 ;      CG311      CG324      NG3P2       HGP2
    2     3     4     7	 9 ;      CG311      CG324      NG3P2      CG324
   47     3     4     5	 9 ;       HGA2      CG324      NG3P2       HGP2
   47     3     4     6	 9 ;       HGA2      CG324      NG3P2       HGP2
   47     3     4     7	 9 ;       HGA2      CG324      NG3P2      CG324
   48     3     4     5	 9 ;       HGA2      CG324      NG3P2       HGP2
   48     3     4     6	 9 ;       HGA2      CG324      NG3P2       HGP2
   48     3     4     7	 9 ;       HGA2      CG324      NG3P2      CG324
    5     4     7     8	 9 ;       HGP2      NG3P2      CG324     CG2R61
    5     4     7    49	 9 ;       HGP2      NG3P2      CG324       HGA2
    5     4     7    50	 9 ;       HGP2      NG3P2      CG324       HGA2
    6     4     7     8	 9 ;       HGP2      NG3P2      CG324     CG2R61
    6     4     7    49	 9 ;       HGP2      NG3P2      CG324       HGA2
    6     4     7    50	 9 ;       HGP2      NG3P2      CG324       HGA2
    3     4     7     8	 9 ;      CG324      NG3P2      CG324     CG2R61
    3     4     7    49	 9 ;      CG324      NG3P2      CG324       HGA2
    3     4     7    50	 9 ;      CG324      NG3P2      CG324       HGA2
    4     7     8    13	 9 ;      NG3P2      CG324     CG2R61     CG2R61
    4     7     8     9	 9 ;      NG3P2      CG324     CG2R61     CG2R61
   49     7     8    13	 9 ;       HGA2      CG324     CG2R61     CG2R61
   49     7     8     9	 9 ;       HGA2      CG324     CG2R61     CG2R61
   50     7     8    13	 9 ;       HGA2      CG324     CG2R61     CG2R61
   50     7     8     9	 9 ;       HGA2      CG324     CG2R61     CG2R61
    7     8    13    12	 9 ;      CG324     CG2R61     CG2R61     CG2R61
    7     8    13    54	 9 ;      CG324     CG2R61     CG2R61      HGR61
    9     8    13    12	 9 ;     CG2R61     CG2R61     CG2R61     CG2R61
    9     8    13    54	 9 ;     CG2R61     CG2R61     CG2R61      HGR61
   13     8     9    10	 9 ;     CG2R61     CG2R61     CG2R61     CG2R61
   13     8     9    51	 9 ;     CG2R61     CG2R61     CG2R61      HGR61
    7     8     9    10	 9 ;      CG324     CG2R61     CG2R61     CG2R61
    7     8     9    51	 9 ;      CG324     CG2R61     CG2R61      HGR61
    8     9    10    11	 9 ;     CG2R61     CG2R61     CG2R61     CG2R61
    8     9    10    14	 9 ;     CG2R61     CG2R61     CG2R61      CG311
   51     9    10    11	 9 ;      HGR61     CG2R61     CG2R61     CG2R61
   51     9    10    14	 9 ;      HGR61     CG2R61     CG2R61      CG311
    9    10    11    12	 9 ;     CG2R61     CG2R61     CG2R61     CG2R61
    9    10    11    52	 9 ;     CG2R61     CG2R61     CG2R61      HGR61
   14    10    11    12	 9 ;      CG311     CG2R61     CG2R61     CG2R61
   14    10    11    52	 9 ;      CG311     CG2R61     CG2R61      HGR61
   11    10    14    15	 9 ;     CG2R61     CG2R61      CG311      CG331
   11    10    14    16	 9 ;     CG2R61     CG2R61      CG311      CG331
   11    10    14    55	 9 ;     CG2R61     CG2R61      CG311       HGA1
    9    10    14    15	 9 ;     CG2R61     CG2R61      CG311      CG331
    9    10    14    16	 9 ;     CG2R61     CG2R61      CG311      CG331
    9    10    14    55	 9 ;     CG2R61     CG2R61      CG311       HGA1
   10    11    12    13	 9 ;     CG2R61     CG2R61     CG2R61     CG2R61
   10    11    12    53	 9 ;     CG2R61     CG2R61     CG2R61      HGR61
   52    11    12    13	 9 ;      HGR61     CG2R61     CG2R61     CG2R61
   52    11    12    53	 9 ;      HGR61     CG2R61     CG2R61      HGR61
   11    12    13     8	 9 ;     CG2R61     CG2R61     CG2R61     CG2R61
   11    12    13    54	 9 ;     CG2R61     CG2R61     CG2R61      HGR61
   53    12    13     8	 9 ;      HGR61     CG2R61     CG2R61     CG2R61
   53    12    13    54	 9 ;      HGR61     CG2R61     CG2R61      HGR61
   10    14    15    81	 9 ;     CG2R61      CG311      CG331       HGA3
   10    14    15    82	 9 ;     CG2R61      CG311      CG331       HGA3
   10    14    15    83	 9 ;     CG2R61      CG311      CG331       HGA3
   16    14    15    81	 9 ;      CG331      CG311      CG331       HGA3
   16    14    15    82	 9 ;      CG331      CG311      CG331       HGA3
   16    14    15    83	 9 ;      CG331      CG311      CG331       HGA3
   55    14    15    81	 9 ;       HGA1      CG311      CG331       HGA3
   55    14    15    82	 9 ;       HGA1      CG311      CG331       HGA3
   55    14    15    83	 9 ;       HGA1      CG311      CG331       HGA3
   10    14    16    87	 9 ;     CG2R61      CG311      CG331       HGA3
   10    14    16    88	 9 ;     CG2R61      CG311      CG331       HGA3
   10    14    16    89	 9 ;     CG2R61      CG311      CG331       HGA3
   15    14    16    87	 9 ;      CG331      CG311      CG331       HGA3
   15    14    16    88	 9 ;      CG331      CG311      CG331       HGA3
   15    14    16    89	 9 ;      CG331      CG311      CG331       HGA3
   55    14    16    87	 9 ;       HGA1      CG311      CG331       HGA3
   55    14    16    88	 9 ;       HGA1      CG311      CG331       HGA3
   55    14    16    89	 9 ;       HGA1      CG311      CG331       HGA3
    1    19    20    25	 9 ;      CG311      CG321     CG2R61     CG2R61
    1    19    20    21	 9 ;      CG311      CG321     CG2R61     CG2R61
   56    19    20    25	 9 ;       HGA2      CG321     CG2R61     CG2R61
   56    19    20    21	 9 ;       HGA2      CG321     CG2R61     CG2R61
   57    19    20    25	 9 ;       HGA2      CG321     CG2R61     CG2R61
   57    19    20    21	 9 ;       HGA2      CG321     CG2R61     CG2R61
   19    20    25    24	 9 ;      CG321     CG2R61     CG2R61     CG2R61
   19    20    25    62	 9 ;      CG321     CG2R61     CG2R61      HGR61
   21    20    25    24	 9 ;     CG2R61     CG2R61     CG2R61     CG2R61
   21    20    25    62	 9 ;     CG2R61     CG2R61     CG2R61      HGR61
   25    20    21    22	 9 ;     CG2R61     CG2R61     CG2R61     CG2R61
   25    20    21    58	 9 ;     CG2R61     CG2R61     CG2R61      HGR61
   19    20    21    22	 9 ;      CG321     CG2R61     CG2R61     CG2R61
   19    20    21    58	 9 ;      CG321     CG2R61     CG2R61      HGR61
   20    21    22    23	 9 ;     CG2R61     CG2R61     CG2R61     CG2R61
   20    21    22    59	 9 ;     CG2R61     CG2R61     CG2R61      HGR61
   58    21    22    23	 9 ;      HGR61     CG2R61     CG2R61     CG2R61
   58    21    22    59	 9 ;      HGR61     CG2R61     CG2R61      HGR61
   21    22    23    24	 9 ;     CG2R61     CG2R61     CG2R61     CG2R61
   21    22    23    60	 9 ;     CG2R61     CG2R61     CG2R61      HGR61
   59    22    23    24	 9 ;      HGR61     CG2R61     CG2R61     CG2R61
   59    22    23    60	 9 ;      HGR61     CG2R61     CG2R61      HGR61
   22    23    24    25	 9 ;     CG2R61     CG2R61     CG2R61     CG2R61
   22    23    24    61	 9 ;     CG2R61     CG2R61     CG2R61      HGR61
   60    23    24    25	 9 ;      HGR61     CG2R61     CG2R61     CG2R61
   60    23    24    61	 9 ;      HGR61     CG2R61     CG2R61      HGR61
   23    24    25    20	 9 ;     CG2R61     CG2R61     CG2R61     CG2R61
   23    24    25    62	 9 ;     CG2R61     CG2R61     CG2R61      HGR61
   61    24    25    20	 9 ;      HGR61     CG2R61     CG2R61     CG2R61
   61    24    25    62	 9 ;      HGR61     CG2R61     CG2R61      HGR61
    1    26    27    28	 9 ;      CG311      NG2S1      CG2O1      OG2D1
    1    26    27    30	 9 ;      CG311      NG2S1      CG2O1      CG311
   29    26    27    28	 9 ;       HGP1      NG2S1      CG2O1      OG2D1
   29    26    27    30	 9 ;       HGP1      NG2S1      CG2O1      CG311
   28    27    30    35	 9 ;      OG2D1      CG2O1      CG311      CG321
   28    27    30    31	 9 ;      OG2D1      CG2O1      CG311      CG321
   28    27    30    63	 9 ;      OG2D1      CG2O1      CG311       HGA1
   26    27    30    35	 9 ;      NG2S1      CG2O1      CG311      CG321
   26    27    30    31	 9 ;      NG2S1      CG2O1      CG311      CG321
   26    27    30    63	 9 ;      NG2S1      CG2O1      CG311       HGA1
   27    30    35    34	 9 ;      CG2O1      CG311      CG321      CG321
   27    30    35    71	 9 ;      CG2O1      CG311      CG321       HGA2
   27    30    35    72	 9 ;      CG2O1      CG311      CG321       HGA2
   31    30    35    34	 9 ;      CG321      CG311      CG321      CG321
   31    30    35    71	 9 ;      CG321      CG311      CG321       HGA2
   31    30    35    72	 9 ;      CG321      CG311      CG321       HGA2
   63    30    35    34	 9 ;       HGA1      CG311      CG321      CG321
   63    30    35    71	 9 ;       HGA1      CG311      CG321       HGA2
   63    30    35    72	 9 ;       HGA1      CG311      CG321       HGA2
   27    30    31    32	 9 ;      CG2O1      CG311      CG321      CG311
   27    30    31    64	 9 ;      CG2O1      CG311      CG321       HGA2
   27    30    31    65	 9 ;      CG2O1      CG311      CG321       HGA2
   35    30    31    32	 9 ;      CG321      CG311      CG321      CG311
   35    30    31    64	 9 ;      CG321      CG311      CG321       HGA2
   35    30    31    65	 9 ;      CG321      CG311      CG321       HGA2
   63    30    31    32	 9 ;       HGA1      CG311      CG321      CG311
   63    30    31    64	 9 ;       HGA1      CG311      CG321       HGA2
   63    30    31    65	 9 ;       HGA1      CG311      CG321       HGA2
   30    31    32    33	 9 ;      CG311      CG321      CG311      CG321
   30    31    32    36	 9 ;      CG311      CG321      CG311      CG301
   30    31    32    66	 9 ;      CG311      CG321      CG311       HGA1
   64    31    32    33	 9 ;       HGA2      CG321      CG311      CG321
   64    31    32    36	 9 ;       HGA2      CG321      CG311      CG301
   64    31    32    66	 9 ;       HGA2      CG321      CG311       HGA1
   65    31    32    33	 9 ;       HGA2      CG321      CG311      CG321
   65    31    32    36	 9 ;       HGA2      CG321      CG311      CG301
   65    31    32    66	 9 ;       HGA2      CG321      CG311       HGA1
   31    32    33    34	 9 ;      CG321      CG311      CG321      CG321
   31    32    33    67	 9 ;      CG321      CG311      CG321       HGA2
   31    32    33    68	 9 ;      CG321      CG311      CG321       HGA2
   36    32    33    34	 9 ;      CG301      CG311      CG321      CG321
   36    32    33    67	 9 ;      CG301      CG311      CG321       HGA2
   36    32    33    68	 9 ;      CG301      CG311      CG321       HGA2
   66    32    33    34	 9 ;       HGA1      CG311      CG321      CG321
   66    32    33    67	 9 ;       HGA1      CG311      CG321       HGA2
   66    32    33    68	 9 ;       HGA1      CG311      CG321       HGA2
   31    32    36    38	 9 ;      CG321      CG311      CG301      CG331
   31    32    36    37	 9 ;      CG321      CG311      CG301      CG331
   31    32    36    39	 9 ;      CG321      CG311      CG301      NG2S0
   33    32    36    38	 9 ;      CG321      CG311      CG301      CG331
   33    32    36    37	 9 ;      CG321      CG311      CG301      CG331
   33    32    36    39	 9 ;      CG321      CG311      CG301      NG2S0
   66    32    36    38	 9 ;       HGA1      CG311      CG301      CG331
   66    32    36    37	 9 ;       HGA1      CG311      CG301      CG331
   66    32    36    39	 9 ;       HGA1      CG311      CG301      NG2S0
   32    33    34    35	 9 ;      CG311      CG321      CG321      CG321
   32    33    34    69	 9 ;      CG311      CG321      CG321       HGA2
   32    33    34    70	 9 ;      CG311      CG321      CG321       HGA2
   67    33    34    35	 9 ;       HGA2      CG321      CG321      CG321
   67    33    34    69	 9 ;       HGA2      CG321      CG321       HGA2
   67    33    34    70	 9 ;       HGA2      CG321      CG321       HGA2
   68    33    34    35	 9 ;       HGA2      CG321      CG321      CG321
   68    33    34    69	 9 ;       HGA2      CG321      CG321       HGA2
   68    33    34    70	 9 ;       HGA2      CG321      CG321       HGA2
   33    34    35    30	 9 ;      CG321      CG321      CG321      CG311
   33    34    35    71	 9 ;      CG321      CG321      CG321       HGA2
   33    34    35    72	 9 ;      CG321      CG321      CG321       HGA2
   69    34    35    30	 9 ;       HGA2      CG321      CG321      CG311
   69    34    35    71	 9 ;       HGA2      CG321      CG321       HGA2
   69    34    35    72	 9 ;       HGA2      CG321      CG321       HGA2
   70    34    35    30	 9 ;       HGA2      CG321      CG321      CG311
   70    34    35    71	 9 ;       HGA2      CG321      CG321       HGA2
   70    34    35    72	 9 ;       HGA2      CG321      CG321       HGA2
   37    36    38    78	 9 ;      CG331      CG301      CG331       HGA3
   37    36    38    79	 9 ;      CG331      CG301      CG331       HGA3
   37    36    38    80	 9 ;      CG331      CG301      CG331       HGA3
   32    36    38    78	 9 ;      CG311      CG301      CG331       HGA3
   32    36    38    79	 9 ;      CG311      CG301      CG331       HGA3
   32    36    38    80	 9 ;      CG311      CG301      CG331       HGA3
   39    36    38    78	 9 ;      NG2S0      CG301      CG331       HGA3
   39    36    38    79	 9 ;      NG2S0      CG301      CG331       HGA3
   39    36    38    80	 9 ;      NG2S0      CG301      CG331       HGA3
   38    36    37    90	 9 ;      CG331      CG301      CG331       HGA3
   38    36    37    91	 9 ;      CG331      CG301      CG331       HGA3
   38    36    37    92	 9 ;      CG331      CG301      CG331       HGA3
   32    36    37    90	 9 ;      CG311      CG301      CG331       HGA3
   32    36    37    91	 9 ;      CG311      CG301      CG331       HGA3
   32    36    37    92	 9 ;      CG311      CG301      CG331       HGA3
   39    36    37    90	 9 ;      NG2S0      CG301      CG331       HGA3
   39    36    37    91	 9 ;      NG2S0      CG301      CG331       HGA3
   39    36    37    92	 9 ;      NG2S0      CG301      CG331       HGA3
   38    36    39    42	 9 ;      CG331      CG301      NG2S0      CG331
   38    36    39    40	 9 ;      CG331      CG301      NG2S0      CG2O1
   37    36    39    42	 9 ;      CG331      CG301      NG2S0      CG331
   37    36    39    40	 9 ;      CG331      CG301      NG2S0      CG2O1
   32    36    39    42	 9 ;      CG311      CG301      NG2S0      CG331
   32    36    39    40	 9 ;      CG311      CG301      NG2S0      CG2O1
   36    39    42    84	 9 ;      CG301      NG2S0      CG331       HGA3
   36    39    42    85	 9 ;      CG301      NG2S0      CG331       HGA3
   36    39    42    86	 9 ;      CG301      NG2S0      CG331       HGA3
   40    39    42    84	 9 ;      CG2O1      NG2S0      CG331       HGA3
   40    39    42    85	 9 ;      CG2O1      NG2S0      CG331       HGA3
   40    39    42    86	 9 ;      CG2O1      NG2S0      CG331       HGA3
   36    39    40    41	 9 ;      CG301      NG2S0      CG2O1      OG2D1
   36    39    40    43	 9 ;      CG301      NG2S0      CG2O1      CG321
   42    39    40    41	 9 ;      CG331      NG2S0      CG2O1      OG2D1
   42    39    40    43	 9 ;      CG331      NG2S0      CG2O1      CG321
   39    40    43    44	 9 ;      NG2S0      CG2O1      CG321      CG331
   39    40    43    73	 9 ;      NG2S0      CG2O1      CG321       HGA2
   39    40    43    74	 9 ;      NG2S0      CG2O1      CG321       HGA2
   41    40    43    44	 9 ;      OG2D1      CG2O1      CG321      CG331
   41    40    43    73	 9 ;      OG2D1      CG2O1      CG321       HGA2
   41    40    43    74	 9 ;      OG2D1      CG2O1      CG321       HGA2
   40    43    44    75	 9 ;      CG2O1      CG321      CG331       HGA3
   40    43    44    76	 9 ;      CG2O1      CG321      CG331       HGA3
   40    43    44    77	 9 ;      CG2O1      CG321      CG331       HGA3
   73    43    44    75	 9 ;       HGA2      CG321      CG331       HGA3
   73    43    44    76	 9 ;       HGA2      CG321      CG331       HGA3
   73    43    44    77	 9 ;       HGA2      CG321      CG331       HGA3
   74    43    44    75	 9 ;       HGA2      CG321      CG331       HGA3
   74    43    44    76	 9 ;       HGA2      CG321      CG331       HGA3
   74    43    44    77	 9 ;       HGA2      CG321      CG331       HGA3

[ dihedrals ]
;	ai	  aj	ak	  al funct			  c0			c1			  c2			c3
   27    30    26    28	 2
   40    43    39    41	 2

