GROningen Mixture of Alchemy and Childrens' Stories
   29
    1LIG     O2    1   1.991   4.279  -1.246
    1LIG     C2    2   2.190   4.152  -1.210
    1LIG     C3    3   2.061   4.213  -1.172
    1LIG     O3    4   2.424   4.016  -1.256
    1LIG     C4    5   2.405   4.035  -1.491
    1LIG     C5    6   2.330   4.084  -1.599
    1LIG     C6    7   2.529   3.974  -1.513
    1LIG     C7    8   2.383   4.074  -1.729
    1LIG     C8    9   2.580   3.963  -1.643
    1LIG     C9   10   2.507   4.012  -1.750
    1LIG    C10   11   2.218   4.104  -1.333
    1LIG    C11   12   2.128   4.097  -1.453
    1LIG    C12   13   2.355   4.049  -1.351
    1LIG    C13   14   2.198   4.153  -1.577
    1LIG     C1   15   2.711   3.785  -1.733
    1LIG     O1   16   2.702   3.901  -1.651
    1LIG     O4   17   2.030   4.185  -1.044
    1LIG    H12   18   1.964   4.245  -1.004
    1LIG     H1   19   2.264   4.146  -1.138
    1LIG     H2   20   2.583   3.938  -1.433
    1LIG     H3   21   2.329   4.111  -1.809
    1LIG     H4   22   2.544   4.004  -1.846
    1LIG     H5   23   2.101   3.996  -1.471
    1LIG     H6   24   2.040   4.156  -1.434
    1LIG     H7   25   2.136   4.138  -1.662
    1LIG     H8   26   2.216   4.257  -1.562
    1LIG     H9   27   2.811   3.747  -1.730
    1LIG    H10   28   2.685   3.811  -1.833
    1LIG    H11   29   2.644   3.711  -1.696
   0.00000   0.00000   0.00000
