Green Red Orange Magenta Azure Cyan Skyblue
   93
    1LIG     N1    1  -1.535   0.516  -1.227
    1LIG     C1    2  -1.601   0.634  -1.266
    1LIG     C2    3  -1.653   0.657  -1.389
    1LIG     C3    4  -1.638   0.538  -1.490
    1LIG     C4    5  -1.530   0.415  -1.454
    1LIG     C5    6  -1.493   0.419  -1.323
    1LIG     C6    7  -1.489   0.287  -1.562
    1LIG     O1    8  -1.554   0.183  -1.566
    1LIG     N2    9  -1.381   0.290  -1.653
    1LIG     H1   10  -1.318   0.368  -1.642
    1LIG     C7   11  -1.327   0.179  -1.764
    1LIG     C8   12  -1.329   0.221  -1.918
    1LIG     C9   13  -1.386   0.355  -1.965
    1LIG    C10   14  -1.529   0.377  -1.965
    1LIG    C11   15  -1.587   0.503  -1.990
    1LIG    C12   16  -1.509   0.614  -2.018
    1LIG    C13   17  -1.370   0.599  -2.019
    1LIG    C14   18  -1.311   0.472  -1.993
    1LIG    C15   19  -1.205   0.072  -1.729
    1LIG    C16   20  -1.061   0.101  -1.670
    1LIG     N3   21  -1.049   0.236  -1.605
    1LIG     H2   22  -1.134   0.253  -1.549
    1LIG     H3   23  -0.973   0.228  -1.536
    1LIG    C17   24  -1.018   0.356  -1.690
    1LIG    C18   25  -0.979   0.477  -1.608
    1LIG    C19   26  -1.108   0.476  -1.685
    1LIG     O2   27  -1.253  -0.047  -1.663
    1LIG     H4   28  -1.341  -0.025  -1.624
    1LIG    C20   29  -1.607   0.610  -1.619
    1LIG    C21   30  -1.463   0.640  -1.643
    1LIG    C22   31  -1.446   0.780  -1.700
    1LIG    C23   32  -1.700   0.806  -1.425
    1LIG     O3   33  -1.619   0.898  -1.411
    1LIG     N4   34  -1.827   0.834  -1.480
    1LIG     H5   35  -1.897   0.762  -1.475
    1LIG    C24   36  -1.857   0.946  -1.580
    1LIG    C25   37  -1.996   1.015  -1.564
    1LIG    C26   38  -1.827   0.898  -1.723
    1LIG    C27   39  -1.892   0.783  -1.765
    1LIG    C28   40  -1.889   0.742  -1.899
    1LIG    C29   41  -1.822   0.817  -1.995
    1LIG    C30   42  -1.746   0.929  -1.953
    1LIG    C31   43  -1.748   0.969  -1.819
    1LIG    C32   44  -1.517   0.489  -1.080
    1LIG    C33   45  -1.651   0.498  -1.006
    1LIG     O4   46  -1.676   0.584  -0.922
    1LIG     O5   47  -1.734   0.397  -1.042
    1LIG    C34   48  -1.860   0.423  -1.109
    1LIG    C35   49  -1.863   0.358  -1.247
    1LIG    C36   50  -1.984   0.390  -1.027
    1LIG     H6   51  -1.682   0.645  -1.198
    1LIG     H7   52  -1.518   0.702  -1.268
    1LIG     H8   53  -1.428   0.346  -1.291
    1LIG     H9   54  -1.227   0.219  -1.951
    1LIG    H10   55  -1.399   0.151  -1.959
    1LIG    H11   56  -1.591   0.297  -1.946
    1LIG    H12   57  -1.690   0.513  -1.987
    1LIG    H13   58  -1.552   0.706  -2.037
    1LIG    H14   59  -1.309   0.680  -2.039
    1LIG    H15   60  -1.208   0.465  -1.995
    1LIG    H16   61  -1.179   0.070  -1.833
    1LIG    H17   62  -0.989   0.095  -1.750
    1LIG    H18   63  -1.042   0.027  -1.594
    1LIG    H19   64  -0.979   0.298  -1.771
    1LIG    H20   65  -0.898   0.539  -1.640
    1LIG    H21   66  -0.951   0.494  -1.506
    1LIG    H22   67  -1.201   0.471  -1.632
    1LIG    H23   68  -1.152   0.540  -1.758
    1LIG    H24   69  -1.643   0.550  -1.700
    1LIG    H25   70  -1.656   0.705  -1.612
    1LIG    H26   71  -1.409   0.632  -1.551
    1LIG    H27   72  -1.424   0.569  -1.714
    1LIG    H28   73  -1.484   0.852  -1.630
    1LIG    H29   74  -1.500   0.788  -1.792
    1LIG    H30   75  -1.342   0.800  -1.717
    1LIG    H31   76  -1.790   1.026  -1.557
    1LIG    H32   77  -2.073   0.943  -1.585
    1LIG    H33   78  -2.003   1.096  -1.633
    1LIG    H34   79  -2.007   1.051  -1.464
    1LIG    H35   80  -1.944   0.726  -1.697
    1LIG    H36   81  -1.937   0.655  -1.926
    1LIG    H37   82  -1.828   0.791  -2.095
    1LIG    H38   83  -1.690   0.981  -2.021
    1LIG    H39   84  -1.691   1.050  -1.789
    1LIG    H40   85  -1.449   0.561  -1.039
    1LIG    H41   86  -1.479   0.390  -1.068
    1LIG    H42   87  -1.864   0.529  -1.122
    1LIG    H43   88  -1.859   0.252  -1.237
    1LIG    H44   89  -1.779   0.392  -1.304
    1LIG    H45   90  -1.954   0.386  -1.297
    1LIG    H46   91  -1.988   0.285  -1.009
    1LIG    H47   92  -2.071   0.421  -1.080
    1LIG    H48   93  -1.979   0.442  -0.933
   0.00000   0.00000   0.00000
