; Created by cgenff_charmm2gmx.py

[ moleculetype ]
; Name			   nrexcl
LIG				 3

[ atoms ]
;	 nr		  type	resnr residue  atom   cgnr	   charge		mass  typeB    chargeB		massB
; residue	 1 LIG rtp LIG q	qsum
     1      NG301      1    LIG     N1      1     -0.480     14.007   ;
     2      CG321      1    LIG     C1      2     -0.085     12.011   ;
     3     CG2DC1      1    LIG     C2      3      0.133     12.011   ;
     4     CG2DC1      1    LIG     C3      4     -0.001     12.011   ;
     5     CG2DC2      1    LIG     C4      5      0.230     12.011   ;
     6     CG2D2O      1    LIG     C5      6     -0.106     12.011   ;
     7      CG2O1      1    LIG     C6      7      0.525     12.011   ;
     8      OG2D1      1    LIG     O1      8     -0.527     15.999   ;
     9      NG2P1      1    LIG     N2      9     -0.245     14.007   ;
    10       HGP2      1    LIG     H1     10      0.414      1.008   ;
    11     CG2DC1      1    LIG     C7     11      0.640     12.011   ;
    12      CG321      1    LIG     C8     12     -0.050     12.011   ;
    13     CG2R61      1    LIG     C9     13     -0.189     12.011   ;
    14     CG2R61      1    LIG    C10     14     -0.123     12.011   ;
    15     CG2R61      1    LIG    C11     15     -0.112     12.011   ;
    16     CG2R61      1    LIG    C12     16     -0.116     12.011   ;
    17     CG2R61      1    LIG    C13     17     -0.112     12.011   ;
    18     CG2R61      1    LIG    C14     18     -0.123     12.011   ;
    19      CG311      1    LIG    C15     19      0.230     12.011   ;
    20      CG324      1    LIG    C16     20      0.175     12.011   ;
    21      NG3P2      1    LIG     N3     21     -0.411     14.007   ;
    22       HGP2      1    LIG     H2     22      0.335      1.008   ;
    23       HGP2      1    LIG     H3     23      0.335      1.008   ;
    24     CG3C31      1    LIG    C17     24      0.283     12.011   ;
    25     CG3C31      1    LIG    C18     25     -0.179     12.011   ;
    26     CG3C31      1    LIG    C19     26     -0.179     12.011   ;
    27      OG311      1    LIG     O2     27     -0.614     15.999   ;
    28       HGP1      1    LIG     H4     28      0.408      1.008   ;
    29      CG321      1    LIG    C20     29     -0.138     12.011   ;
    30      CG321      1    LIG    C21     30     -0.158     12.011   ;
    31      CG331      1    LIG    C22     31     -0.270     12.011   ;
    32      CG2O1      1    LIG    C23     32      0.459     12.011   ;
    33      OG2D1      1    LIG     O3     33     -0.490     15.999   ;
    34      NG2S1      1    LIG     N4     34     -0.468     14.007   ;
    35       HGP1      1    LIG     H5     35      0.284      1.008   ;
    36      CG311      1    LIG    C24     36      0.110     12.011   ;
    37      CG331      1    LIG    C25     37     -0.265     12.011   ;
    38     CG2R61      1    LIG    C26     38     -0.111     12.011   ;
    39     CG2R61      1    LIG    C27     39     -0.086     12.011   ;
    40     CG2R61      1    LIG    C28     40     -0.114     12.011   ;
    41     CG2R61      1    LIG    C29     41     -0.116     12.011   ;
    42     CG2R61      1    LIG    C30     42     -0.114     12.011   ;
    43     CG2R61      1    LIG    C31     43     -0.086     12.011   ;
    44      CG321      1    LIG    C32     44     -0.074     12.011   ;
    45      CG2O2      1    LIG    C33     45      0.901     12.011   ;
    46      OG2D1      1    LIG     O4     46     -0.615     15.999   ;
    47      OG302      1    LIG     O5     47     -0.479     15.999   ;
    48      CG311      1    LIG    C34     48      0.165     12.011   ;
    49      CG331      1    LIG    C35     49     -0.273     12.011   ;
    50      CG331      1    LIG    C36     50     -0.273     12.011   ;
    51       HGA2      1    LIG     H6     51      0.090      1.008   ;
    52       HGA2      1    LIG     H7     52      0.090      1.008   ;
    53       HGA4      1    LIG     H8     53      0.115      1.008   ;
    54       HGA2      1    LIG     H9     54      0.090      1.008   ;
    55       HGA2      1    LIG    H10     55      0.090      1.008   ;
    56      HGR61      1    LIG    H11     56      0.116      1.008   ;
    57      HGR61      1    LIG    H12     57      0.116      1.008   ;
    58      HGR61      1    LIG    H13     58      0.116      1.008   ;
    59      HGR61      1    LIG    H14     59      0.116      1.008   ;
    60      HGR61      1    LIG    H15     60      0.116      1.008   ;
    61       HGA1      1    LIG    H16     61      0.090      1.008   ;
    62       HGA2      1    LIG    H17     62      0.090      1.008   ;
    63       HGA2      1    LIG    H18     63      0.090      1.008   ;
    64       HGA1      1    LIG    H19     64      0.090      1.008   ;
    65       HGA2      1    LIG    H20     65      0.090      1.008   ;
    66       HGA2      1    LIG    H21     66      0.090      1.008   ;
    67       HGA2      1    LIG    H22     67      0.090      1.008   ;
    68       HGA2      1    LIG    H23     68      0.090      1.008   ;
    69       HGA2      1    LIG    H24     69      0.090      1.008   ;
    70       HGA2      1    LIG    H25     70      0.090      1.008   ;
    71       HGA2      1    LIG    H26     71      0.090      1.008   ;
    72       HGA2      1    LIG    H27     72      0.090      1.008   ;
    73       HGA3      1    LIG    H28     73      0.090      1.008   ;
    74       HGA3      1    LIG    H29     74      0.090      1.008   ;
    75       HGA3      1    LIG    H30     75      0.090      1.008   ;
    76       HGA1      1    LIG    H31     76      0.090      1.008   ;
    77       HGA3      1    LIG    H32     77      0.090      1.008   ;
    78       HGA3      1    LIG    H33     78      0.090      1.008   ;
    79       HGA3      1    LIG    H34     79      0.090      1.008   ;
    80      HGR61      1    LIG    H35     80      0.116      1.008   ;
    81      HGR61      1    LIG    H36     81      0.116      1.008   ;
    82      HGR61      1    LIG    H37     82      0.116      1.008   ;
    83      HGR61      1    LIG    H38     83      0.116      1.008   ;
    84      HGR61      1    LIG    H39     84      0.116      1.008   ;
    85       HGA2      1    LIG    H40     85      0.090      1.008   ;
    86       HGA2      1    LIG    H41     86      0.090      1.008   ;
    87       HGA1      1    LIG    H42     87      0.090      1.008   ;
    88       HGA3      1    LIG    H43     88      0.090      1.008   ;
    89       HGA3      1    LIG    H44     89      0.090      1.008   ;
    90       HGA3      1    LIG    H45     90      0.090      1.008   ;
    91       HGA3      1    LIG    H46     91      0.090      1.008   ;
    92       HGA3      1    LIG    H47     92      0.090      1.008   ;
    93       HGA3      1    LIG    H48     93      0.090      1.008   ;

[ bonds ]
;	ai	  aj funct			  c0			c1			  c2			c3
    1     6	 1 ;       NG301     CG2D2O
    1     2	 1 ;       NG301      CG321
    1    44	 1 ;       NG301      CG321
    2     3	 1 ;       CG321     CG2DC1
    2    51	 1 ;       CG321       HGA2
    2    52	 1 ;       CG321       HGA2
    3     4	 1 ;      CG2DC1     CG2DC1
    3    32	 1 ;      CG2DC1      CG2O1
    4    29	 1 ;      CG2DC1      CG321
    4     5	 1 ;      CG2DC1     CG2DC2
    5     7	 1 ;      CG2DC2      CG2O1
    5     6	 1 ;      CG2DC2     CG2D2O
    6    53	 1 ;      CG2D2O       HGA4
    7     9	 1 ;       CG2O1      NG2P1
    7     8	 1 ;       CG2O1      OG2D1
    9    11	 1 ;       NG2P1     CG2DC1
    9    10	 1 ;       NG2P1       HGP2
   11    12	 1 ;      CG2DC1      CG321
   11    19	 1 ;      CG2DC1      CG311
   12    13	 1 ;       CG321     CG2R61
   12    54	 1 ;       CG321       HGA2
   12    55	 1 ;       CG321       HGA2
   13    18	 1 ;      CG2R61     CG2R61
   13    14	 1 ;      CG2R61     CG2R61
   14    15	 1 ;      CG2R61     CG2R61
   14    56	 1 ;      CG2R61      HGR61
   15    16	 1 ;      CG2R61     CG2R61
   15    57	 1 ;      CG2R61      HGR61
   16    17	 1 ;      CG2R61     CG2R61
   16    58	 1 ;      CG2R61      HGR61
   17    18	 1 ;      CG2R61     CG2R61
   17    59	 1 ;      CG2R61      HGR61
   18    60	 1 ;      CG2R61      HGR61
   19    20	 1 ;       CG311      CG324
   19    27	 1 ;       CG311      OG311
   19    61	 1 ;       CG311       HGA1
   20    21	 1 ;       CG324      NG3P2
   20    62	 1 ;       CG324       HGA2
   20    63	 1 ;       CG324       HGA2
   21    24	 1 ;       NG3P2     CG3C31
   21    22	 1 ;       NG3P2       HGP2
   21    23	 1 ;       NG3P2       HGP2
   24    26	 1 ;      CG3C31     CG3C31
   24    25	 1 ;      CG3C31     CG3C31
   24    64	 1 ;      CG3C31       HGA1
   25    26	 1 ;      CG3C31     CG3C31
   25    65	 1 ;      CG3C31       HGA2
   25    66	 1 ;      CG3C31       HGA2
   26    67	 1 ;      CG3C31       HGA2
   26    68	 1 ;      CG3C31       HGA2
   27    28	 1 ;       OG311       HGP1
   29    30	 1 ;       CG321      CG321
   29    69	 1 ;       CG321       HGA2
   29    70	 1 ;       CG321       HGA2
   30    31	 1 ;       CG321      CG331
   30    71	 1 ;       CG321       HGA2
   30    72	 1 ;       CG321       HGA2
   31    73	 1 ;       CG331       HGA3
   31    74	 1 ;       CG331       HGA3
   31    75	 1 ;       CG331       HGA3
   32    34	 1 ;       CG2O1      NG2S1
   32    33	 1 ;       CG2O1      OG2D1
   34    36	 1 ;       NG2S1      CG311
   34    35	 1 ;       NG2S1       HGP1
   36    38	 1 ;       CG311     CG2R61
   36    37	 1 ;       CG311      CG331
   36    76	 1 ;       CG311       HGA1
   37    77	 1 ;       CG331       HGA3
   37    78	 1 ;       CG331       HGA3
   37    79	 1 ;       CG331       HGA3
   38    43	 1 ;      CG2R61     CG2R61
   38    39	 1 ;      CG2R61     CG2R61
   39    40	 1 ;      CG2R61     CG2R61
   39    80	 1 ;      CG2R61      HGR61
   40    41	 1 ;      CG2R61     CG2R61
   40    81	 1 ;      CG2R61      HGR61
   41    42	 1 ;      CG2R61     CG2R61
   41    82	 1 ;      CG2R61      HGR61
   42    43	 1 ;      CG2R61     CG2R61
   42    83	 1 ;      CG2R61      HGR61
   43    84	 1 ;      CG2R61      HGR61
   44    45	 1 ;       CG321      CG2O2
   44    85	 1 ;       CG321       HGA2
   44    86	 1 ;       CG321       HGA2
   45    47	 1 ;       CG2O2      OG302
   45    46	 1 ;       CG2O2      OG2D1
   47    48	 1 ;       OG302      CG311
   48    49	 1 ;       CG311      CG331
   48    50	 1 ;       CG311      CG331
   48    87	 1 ;       CG311       HGA1
   49    88	 1 ;       CG331       HGA3
   49    89	 1 ;       CG331       HGA3
   49    90	 1 ;       CG331       HGA3
   50    91	 1 ;       CG331       HGA3
   50    92	 1 ;       CG331       HGA3
   50    93	 1 ;       CG331       HGA3

[ pairs ]
;	ai	  aj funct			  c0			c1			  c2			c3
    1     4	 1
    1    32	 1
    1     7	 1
    1    47	 1
    1    46	 1
    2     5	 1
    2    53	 1
    2    45	 1
    2    85	 1
    2    86	 1
    2    29	 1
    2    34	 1
    2    33	 1
    3     6	 1
    3    44	 1
    3    30	 1
    3    69	 1
    3    70	 1
    3     7	 1
    3    36	 1
    3    35	 1
    4    51	 1
    4    52	 1
    4    34	 1
    4    33	 1
    4     9	 1
    4     8	 1
    4    53	 1
    4    31	 1
    4    71	 1
    4    72	 1
    5    44	 1
    5    32	 1
    5    30	 1
    5    69	 1
    5    70	 1
    5    11	 1
    5    10	 1
    6    51	 1
    6    52	 1
    6    45	 1
    6    85	 1
    6    86	 1
    6    29	 1
    6     9	 1
    6     8	 1
    7    29	 1
    7    53	 1
    7    12	 1
    7    19	 1
    8    11	 1
    8    10	 1
    9    13	 1
    9    54	 1
    9    55	 1
    9    20	 1
    9    27	 1
    9    61	 1
   10    12	 1
   10    19	 1
   11    18	 1
   11    14	 1
   11    21	 1
   11    62	 1
   11    63	 1
   11    28	 1
   12    20	 1
   12    27	 1
   12    61	 1
   12    17	 1
   12    60	 1
   12    15	 1
   12    56	 1
   13    19	 1
   13    16	 1
   13    57	 1
   13    59	 1
   14    54	 1
   14    55	 1
   14    17	 1
   14    60	 1
   14    58	 1
   15    18	 1
   15    59	 1
   16    56	 1
   16    60	 1
   17    57	 1
   18    54	 1
   18    55	 1
   18    56	 1
   18    58	 1
   19    54	 1
   19    55	 1
   19    24	 1
   19    22	 1
   19    23	 1
   20    28	 1
   20    26	 1
   20    25	 1
   20    64	 1
   21    27	 1
   21    61	 1
   21    67	 1
   21    68	 1
   21    65	 1
   21    66	 1
   22    62	 1
   22    63	 1
   22    26	 1
   22    25	 1
   22    64	 1
   23    62	 1
   23    63	 1
   23    26	 1
   23    25	 1
   23    64	 1
   24    62	 1
   24    63	 1
   27    62	 1
   27    63	 1
   28    61	 1
   29    32	 1
   29    73	 1
   29    74	 1
   29    75	 1
   31    69	 1
   31    70	 1
   32    51	 1
   32    52	 1
   32    38	 1
   32    37	 1
   32    76	 1
   33    36	 1
   33    35	 1
   34    43	 1
   34    39	 1
   34    77	 1
   34    78	 1
   34    79	 1
   35    38	 1
   35    37	 1
   35    76	 1
   36    42	 1
   36    84	 1
   36    40	 1
   36    80	 1
   37    43	 1
   37    39	 1
   38    77	 1
   38    78	 1
   38    79	 1
   38    41	 1
   38    81	 1
   38    83	 1
   39    76	 1
   39    42	 1
   39    84	 1
   39    82	 1
   40    43	 1
   40    83	 1
   41    80	 1
   41    84	 1
   42    81	 1
   43    76	 1
   43    80	 1
   43    82	 1
   44    53	 1
   44    51	 1
   44    52	 1
   44    48	 1
   45    49	 1
   45    50	 1
   45    87	 1
   46    85	 1
   46    86	 1
   46    48	 1
   47    85	 1
   47    86	 1
   47    88	 1
   47    89	 1
   47    90	 1
   47    91	 1
   47    92	 1
   47    93	 1
   49    91	 1
   49    92	 1
   49    93	 1
   50    88	 1
   50    89	 1
   50    90	 1
   56    57	 1
   57    58	 1
   58    59	 1
   59    60	 1
   61    62	 1
   61    63	 1
   64    67	 1
   64    68	 1
   64    65	 1
   64    66	 1
   65    67	 1
   65    68	 1
   66    67	 1
   66    68	 1
   69    71	 1
   69    72	 1
   70    71	 1
   70    72	 1
   71    73	 1
   71    74	 1
   71    75	 1
   72    73	 1
   72    74	 1
   72    75	 1
   76    77	 1
   76    78	 1
   76    79	 1
   80    81	 1
   81    82	 1
   82    83	 1
   83    84	 1
   87    88	 1
   87    89	 1
   87    90	 1
   87    91	 1
   87    92	 1
   87    93	 1

[ angles ]
;	ai	  aj	ak funct			c0			  c1			c2			  c3
    6     1     2	5 ;     CG2D2O      NG301      CG321
    6     1    44	5 ;     CG2D2O      NG301      CG321
    2     1    44	5 ;      CG321      NG301      CG321
    3     2     1	5 ;     CG2DC1      CG321      NG301
    3     2    51	5 ;     CG2DC1      CG321       HGA2
    3     2    52	5 ;     CG2DC1      CG321       HGA2
    1     2    51	5 ;      NG301      CG321       HGA2
    1     2    52	5 ;      NG301      CG321       HGA2
   51     2    52	5 ;       HGA2      CG321       HGA2
    4     3    32	5 ;     CG2DC1     CG2DC1      CG2O1
    4     3     2	5 ;     CG2DC1     CG2DC1      CG321
   32     3     2	5 ;      CG2O1     CG2DC1      CG321
   29     4     5	5 ;      CG321     CG2DC1     CG2DC2
   29     4     3	5 ;      CG321     CG2DC1     CG2DC1
    5     4     3	5 ;     CG2DC2     CG2DC1     CG2DC1
    7     5     4	5 ;      CG2O1     CG2DC2     CG2DC1
    7     5     6	5 ;      CG2O1     CG2DC2     CG2D2O
    4     5     6	5 ;     CG2DC1     CG2DC2     CG2D2O
    5     6     1	5 ;     CG2DC2     CG2D2O      NG301
    5     6    53	5 ;     CG2DC2     CG2D2O       HGA4
    1     6    53	5 ;      NG301     CG2D2O       HGA4
    9     7     8	5 ;      NG2P1      CG2O1      OG2D1
    9     7     5	5 ;      NG2P1      CG2O1     CG2DC2
    8     7     5	5 ;      OG2D1      CG2O1     CG2DC2
   11     9    10	5 ;     CG2DC1      NG2P1       HGP2
   11     9     7	5 ;     CG2DC1      NG2P1      CG2O1
   10     9     7	5 ;       HGP2      NG2P1      CG2O1
   12    11    19	5 ;      CG321     CG2DC1      CG311
   12    11     9	5 ;      CG321     CG2DC1      NG2P1
   19    11     9	5 ;      CG311     CG2DC1      NG2P1
   13    12    11	5 ;     CG2R61      CG321     CG2DC1
   13    12    54	5 ;     CG2R61      CG321       HGA2
   13    12    55	5 ;     CG2R61      CG321       HGA2
   11    12    54	5 ;     CG2DC1      CG321       HGA2
   11    12    55	5 ;     CG2DC1      CG321       HGA2
   54    12    55	5 ;       HGA2      CG321       HGA2
   18    13    14	5 ;     CG2R61     CG2R61     CG2R61
   18    13    12	5 ;     CG2R61     CG2R61      CG321
   14    13    12	5 ;     CG2R61     CG2R61      CG321
   15    14    13	5 ;     CG2R61     CG2R61     CG2R61
   15    14    56	5 ;     CG2R61     CG2R61      HGR61
   13    14    56	5 ;     CG2R61     CG2R61      HGR61
   16    15    14	5 ;     CG2R61     CG2R61     CG2R61
   16    15    57	5 ;     CG2R61     CG2R61      HGR61
   14    15    57	5 ;     CG2R61     CG2R61      HGR61
   17    16    15	5 ;     CG2R61     CG2R61     CG2R61
   17    16    58	5 ;     CG2R61     CG2R61      HGR61
   15    16    58	5 ;     CG2R61     CG2R61      HGR61
   16    17    18	5 ;     CG2R61     CG2R61     CG2R61
   16    17    59	5 ;     CG2R61     CG2R61      HGR61
   18    17    59	5 ;     CG2R61     CG2R61      HGR61
   17    18    13	5 ;     CG2R61     CG2R61     CG2R61
   17    18    60	5 ;     CG2R61     CG2R61      HGR61
   13    18    60	5 ;     CG2R61     CG2R61      HGR61
   11    19    20	5 ;     CG2DC1      CG311      CG324
   11    19    27	5 ;     CG2DC1      CG311      OG311
   11    19    61	5 ;     CG2DC1      CG311       HGA1
   20    19    27	5 ;      CG324      CG311      OG311
   20    19    61	5 ;      CG324      CG311       HGA1
   27    19    61	5 ;      OG311      CG311       HGA1
   19    20    21	5 ;      CG311      CG324      NG3P2
   19    20    62	5 ;      CG311      CG324       HGA2
   19    20    63	5 ;      CG311      CG324       HGA2
   21    20    62	5 ;      NG3P2      CG324       HGA2
   21    20    63	5 ;      NG3P2      CG324       HGA2
   62    20    63	5 ;       HGA2      CG324       HGA2
   24    21    20	5 ;     CG3C31      NG3P2      CG324
   24    21    22	5 ;     CG3C31      NG3P2       HGP2
   24    21    23	5 ;     CG3C31      NG3P2       HGP2
   20    21    22	5 ;      CG324      NG3P2       HGP2
   20    21    23	5 ;      CG324      NG3P2       HGP2
   22    21    23	5 ;       HGP2      NG3P2       HGP2
   26    24    25	5 ;     CG3C31     CG3C31     CG3C31
   26    24    21	5 ;     CG3C31     CG3C31      NG3P2
   26    24    64	5 ;     CG3C31     CG3C31       HGA1
   25    24    21	5 ;     CG3C31     CG3C31      NG3P2
   25    24    64	5 ;     CG3C31     CG3C31       HGA1
   21    24    64	5 ;      NG3P2     CG3C31       HGA1
   24    25    26	5 ;     CG3C31     CG3C31     CG3C31
   24    25    65	5 ;     CG3C31     CG3C31       HGA2
   24    25    66	5 ;     CG3C31     CG3C31       HGA2
   26    25    65	5 ;     CG3C31     CG3C31       HGA2
   26    25    66	5 ;     CG3C31     CG3C31       HGA2
   65    25    66	5 ;       HGA2     CG3C31       HGA2
   24    26    25	5 ;     CG3C31     CG3C31     CG3C31
   24    26    67	5 ;     CG3C31     CG3C31       HGA2
   24    26    68	5 ;     CG3C31     CG3C31       HGA2
   25    26    67	5 ;     CG3C31     CG3C31       HGA2
   25    26    68	5 ;     CG3C31     CG3C31       HGA2
   67    26    68	5 ;       HGA2     CG3C31       HGA2
   19    27    28	5 ;      CG311      OG311       HGP1
   30    29     4	5 ;      CG321      CG321     CG2DC1
   30    29    69	5 ;      CG321      CG321       HGA2
   30    29    70	5 ;      CG321      CG321       HGA2
    4    29    69	5 ;     CG2DC1      CG321       HGA2
    4    29    70	5 ;     CG2DC1      CG321       HGA2
   69    29    70	5 ;       HGA2      CG321       HGA2
   31    30    29	5 ;      CG331      CG321      CG321
   31    30    71	5 ;      CG331      CG321       HGA2
   31    30    72	5 ;      CG331      CG321       HGA2
   29    30    71	5 ;      CG321      CG321       HGA2
   29    30    72	5 ;      CG321      CG321       HGA2
   71    30    72	5 ;       HGA2      CG321       HGA2
   30    31    73	5 ;      CG321      CG331       HGA3
   30    31    74	5 ;      CG321      CG331       HGA3
   30    31    75	5 ;      CG321      CG331       HGA3
   73    31    74	5 ;       HGA3      CG331       HGA3
   73    31    75	5 ;       HGA3      CG331       HGA3
   74    31    75	5 ;       HGA3      CG331       HGA3
   34    32    33	5 ;      NG2S1      CG2O1      OG2D1
   34    32     3	5 ;      NG2S1      CG2O1     CG2DC1
   33    32     3	5 ;      OG2D1      CG2O1     CG2DC1
   36    34    35	5 ;      CG311      NG2S1       HGP1
   36    34    32	5 ;      CG311      NG2S1      CG2O1
   35    34    32	5 ;       HGP1      NG2S1      CG2O1
   38    36    37	5 ;     CG2R61      CG311      CG331
   38    36    34	5 ;     CG2R61      CG311      NG2S1
   38    36    76	5 ;     CG2R61      CG311       HGA1
   37    36    34	5 ;      CG331      CG311      NG2S1
   37    36    76	5 ;      CG331      CG311       HGA1
   34    36    76	5 ;      NG2S1      CG311       HGA1
   36    37    77	5 ;      CG311      CG331       HGA3
   36    37    78	5 ;      CG311      CG331       HGA3
   36    37    79	5 ;      CG311      CG331       HGA3
   77    37    78	5 ;       HGA3      CG331       HGA3
   77    37    79	5 ;       HGA3      CG331       HGA3
   78    37    79	5 ;       HGA3      CG331       HGA3
   43    38    39	5 ;     CG2R61     CG2R61     CG2R61
   43    38    36	5 ;     CG2R61     CG2R61      CG311
   39    38    36	5 ;     CG2R61     CG2R61      CG311
   40    39    38	5 ;     CG2R61     CG2R61     CG2R61
   40    39    80	5 ;     CG2R61     CG2R61      HGR61
   38    39    80	5 ;     CG2R61     CG2R61      HGR61
   41    40    39	5 ;     CG2R61     CG2R61     CG2R61
   41    40    81	5 ;     CG2R61     CG2R61      HGR61
   39    40    81	5 ;     CG2R61     CG2R61      HGR61
   42    41    40	5 ;     CG2R61     CG2R61     CG2R61
   42    41    82	5 ;     CG2R61     CG2R61      HGR61
   40    41    82	5 ;     CG2R61     CG2R61      HGR61
   41    42    43	5 ;     CG2R61     CG2R61     CG2R61
   41    42    83	5 ;     CG2R61     CG2R61      HGR61
   43    42    83	5 ;     CG2R61     CG2R61      HGR61
   42    43    38	5 ;     CG2R61     CG2R61     CG2R61
   42    43    84	5 ;     CG2R61     CG2R61      HGR61
   38    43    84	5 ;     CG2R61     CG2R61      HGR61
    1    44    45	5 ;      NG301      CG321      CG2O2
    1    44    85	5 ;      NG301      CG321       HGA2
    1    44    86	5 ;      NG301      CG321       HGA2
   45    44    85	5 ;      CG2O2      CG321       HGA2
   45    44    86	5 ;      CG2O2      CG321       HGA2
   85    44    86	5 ;       HGA2      CG321       HGA2
   44    45    47	5 ;      CG321      CG2O2      OG302
   44    45    46	5 ;      CG321      CG2O2      OG2D1
   47    45    46	5 ;      OG302      CG2O2      OG2D1
   48    47    45	5 ;      CG311      OG302      CG2O2
   49    48    47	5 ;      CG331      CG311      OG302
   49    48    50	5 ;      CG331      CG311      CG331
   49    48    87	5 ;      CG331      CG311       HGA1
   47    48    50	5 ;      OG302      CG311      CG331
   47    48    87	5 ;      OG302      CG311       HGA1
   50    48    87	5 ;      CG331      CG311       HGA1
   48    49    88	5 ;      CG311      CG331       HGA3
   48    49    89	5 ;      CG311      CG331       HGA3
   48    49    90	5 ;      CG311      CG331       HGA3
   88    49    89	5 ;       HGA3      CG331       HGA3
   88    49    90	5 ;       HGA3      CG331       HGA3
   89    49    90	5 ;       HGA3      CG331       HGA3
   48    50    91	5 ;      CG311      CG331       HGA3
   48    50    92	5 ;      CG311      CG331       HGA3
   48    50    93	5 ;      CG311      CG331       HGA3
   91    50    92	5 ;       HGA3      CG331       HGA3
   91    50    93	5 ;       HGA3      CG331       HGA3
   92    50    93	5 ;       HGA3      CG331       HGA3

[ dihedrals ]
;	ai	  aj	ak	  al funct			  c0			c1			  c2			c3			  c4			c5
    2     1     6     5	 9 ;      CG321      NG301     CG2D2O     CG2DC2
    2     1     6    53	 9 ;      CG321      NG301     CG2D2O       HGA4
   44     1     6     5	 9 ;      CG321      NG301     CG2D2O     CG2DC2
   44     1     6    53	 9 ;      CG321      NG301     CG2D2O       HGA4
    6     1     2     3	 9 ;     CG2D2O      NG301      CG321     CG2DC1
    6     1     2    51	 9 ;     CG2D2O      NG301      CG321       HGA2
    6     1     2    52	 9 ;     CG2D2O      NG301      CG321       HGA2
   44     1     2     3	 9 ;      CG321      NG301      CG321     CG2DC1
   44     1     2    51	 9 ;      CG321      NG301      CG321       HGA2
   44     1     2    52	 9 ;      CG321      NG301      CG321       HGA2
    6     1    44    45	 9 ;     CG2D2O      NG301      CG321      CG2O2
    6     1    44    85	 9 ;     CG2D2O      NG301      CG321       HGA2
    6     1    44    86	 9 ;     CG2D2O      NG301      CG321       HGA2
    2     1    44    45	 9 ;      CG321      NG301      CG321      CG2O2
    2     1    44    85	 9 ;      CG321      NG301      CG321       HGA2
    2     1    44    86	 9 ;      CG321      NG301      CG321       HGA2
    1     2     3     4	 9 ;      NG301      CG321     CG2DC1     CG2DC1
    1     2     3    32	 9 ;      NG301      CG321     CG2DC1      CG2O1
   51     2     3     4	 9 ;       HGA2      CG321     CG2DC1     CG2DC1
   51     2     3    32	 9 ;       HGA2      CG321     CG2DC1      CG2O1
   52     2     3     4	 9 ;       HGA2      CG321     CG2DC1     CG2DC1
   52     2     3    32	 9 ;       HGA2      CG321     CG2DC1      CG2O1
   32     3     4    29	 9 ;      CG2O1     CG2DC1     CG2DC1      CG321
   32     3     4     5	 9 ;      CG2O1     CG2DC1     CG2DC1     CG2DC2
    2     3     4    29	 9 ;      CG321     CG2DC1     CG2DC1      CG321
    2     3     4     5	 9 ;      CG321     CG2DC1     CG2DC1     CG2DC2
    4     3    32    34	 9 ;     CG2DC1     CG2DC1      CG2O1      NG2S1
    4     3    32    33	 9 ;     CG2DC1     CG2DC1      CG2O1      OG2D1
    2     3    32    34	 9 ;      CG321     CG2DC1      CG2O1      NG2S1
    2     3    32    33	 9 ;      CG321     CG2DC1      CG2O1      OG2D1
    5     4    29    30	 9 ;     CG2DC2     CG2DC1      CG321      CG321
    5     4    29    69	 9 ;     CG2DC2     CG2DC1      CG321       HGA2
    5     4    29    70	 9 ;     CG2DC2     CG2DC1      CG321       HGA2
    3     4    29    30	 9 ;     CG2DC1     CG2DC1      CG321      CG321
    3     4    29    69	 9 ;     CG2DC1     CG2DC1      CG321       HGA2
    3     4    29    70	 9 ;     CG2DC1     CG2DC1      CG321       HGA2
   29     4     5     7	 9 ;      CG321     CG2DC1     CG2DC2      CG2O1
   29     4     5     6	 9 ;      CG321     CG2DC1     CG2DC2     CG2D2O
    3     4     5     7	 9 ;     CG2DC1     CG2DC1     CG2DC2      CG2O1
    3     4     5     6	 9 ;     CG2DC1     CG2DC1     CG2DC2     CG2D2O
    4     5     7     9	 9 ;     CG2DC1     CG2DC2      CG2O1      NG2P1
    4     5     7     8	 9 ;     CG2DC1     CG2DC2      CG2O1      OG2D1
    6     5     7     9	 9 ;     CG2D2O     CG2DC2      CG2O1      NG2P1
    6     5     7     8	 9 ;     CG2D2O     CG2DC2      CG2O1      OG2D1
    7     5     6     1	 9 ;      CG2O1     CG2DC2     CG2D2O      NG301
    7     5     6    53	 9 ;      CG2O1     CG2DC2     CG2D2O       HGA4
    4     5     6     1	 9 ;     CG2DC1     CG2DC2     CG2D2O      NG301
    4     5     6    53	 9 ;     CG2DC1     CG2DC2     CG2D2O       HGA4
    8     7     9    11	 9 ;      OG2D1      CG2O1      NG2P1     CG2DC1
    8     7     9    10	 9 ;      OG2D1      CG2O1      NG2P1       HGP2
    5     7     9    11	 9 ;     CG2DC2      CG2O1      NG2P1     CG2DC1
    5     7     9    10	 9 ;     CG2DC2      CG2O1      NG2P1       HGP2
   10     9    11    12	 9 ;       HGP2      NG2P1     CG2DC1      CG321
   10     9    11    19	 9 ;       HGP2      NG2P1     CG2DC1      CG311
    7     9    11    12	 9 ;      CG2O1      NG2P1     CG2DC1      CG321
    7     9    11    19	 9 ;      CG2O1      NG2P1     CG2DC1      CG311
   19    11    12    13	 9 ;      CG311     CG2DC1      CG321     CG2R61
   19    11    12    54	 9 ;      CG311     CG2DC1      CG321       HGA2
   19    11    12    55	 9 ;      CG311     CG2DC1      CG321       HGA2
    9    11    12    13	 9 ;      NG2P1     CG2DC1      CG321     CG2R61
    9    11    12    54	 9 ;      NG2P1     CG2DC1      CG321       HGA2
    9    11    12    55	 9 ;      NG2P1     CG2DC1      CG321       HGA2
   12    11    19    20	 9 ;      CG321     CG2DC1      CG311      CG324
   12    11    19    27	 9 ;      CG321     CG2DC1      CG311      OG311
   12    11    19    61	 9 ;      CG321     CG2DC1      CG311       HGA1
    9    11    19    20	 9 ;      NG2P1     CG2DC1      CG311      CG324
    9    11    19    27	 9 ;      NG2P1     CG2DC1      CG311      OG311
    9    11    19    61	 9 ;      NG2P1     CG2DC1      CG311       HGA1
   11    12    13    18	 9 ;     CG2DC1      CG321     CG2R61     CG2R61
   11    12    13    14	 9 ;     CG2DC1      CG321     CG2R61     CG2R61
   54    12    13    18	 9 ;       HGA2      CG321     CG2R61     CG2R61
   54    12    13    14	 9 ;       HGA2      CG321     CG2R61     CG2R61
   55    12    13    18	 9 ;       HGA2      CG321     CG2R61     CG2R61
   55    12    13    14	 9 ;       HGA2      CG321     CG2R61     CG2R61
   14    13    18    17	 9 ;     CG2R61     CG2R61     CG2R61     CG2R61
   14    13    18    60	 9 ;     CG2R61     CG2R61     CG2R61      HGR61
   12    13    18    17	 9 ;      CG321     CG2R61     CG2R61     CG2R61
   12    13    18    60	 9 ;      CG321     CG2R61     CG2R61      HGR61
   18    13    14    15	 9 ;     CG2R61     CG2R61     CG2R61     CG2R61
   18    13    14    56	 9 ;     CG2R61     CG2R61     CG2R61      HGR61
   12    13    14    15	 9 ;      CG321     CG2R61     CG2R61     CG2R61
   12    13    14    56	 9 ;      CG321     CG2R61     CG2R61      HGR61
   13    14    15    16	 9 ;     CG2R61     CG2R61     CG2R61     CG2R61
   13    14    15    57	 9 ;     CG2R61     CG2R61     CG2R61      HGR61
   56    14    15    16	 9 ;      HGR61     CG2R61     CG2R61     CG2R61
   56    14    15    57	 9 ;      HGR61     CG2R61     CG2R61      HGR61
   14    15    16    17	 9 ;     CG2R61     CG2R61     CG2R61     CG2R61
   14    15    16    58	 9 ;     CG2R61     CG2R61     CG2R61      HGR61
   57    15    16    17	 9 ;      HGR61     CG2R61     CG2R61     CG2R61
   57    15    16    58	 9 ;      HGR61     CG2R61     CG2R61      HGR61
   15    16    17    18	 9 ;     CG2R61     CG2R61     CG2R61     CG2R61
   15    16    17    59	 9 ;     CG2R61     CG2R61     CG2R61      HGR61
   58    16    17    18	 9 ;      HGR61     CG2R61     CG2R61     CG2R61
   58    16    17    59	 9 ;      HGR61     CG2R61     CG2R61      HGR61
   16    17    18    13	 9 ;     CG2R61     CG2R61     CG2R61     CG2R61
   16    17    18    60	 9 ;     CG2R61     CG2R61     CG2R61      HGR61
   59    17    18    13	 9 ;      HGR61     CG2R61     CG2R61     CG2R61
   59    17    18    60	 9 ;      HGR61     CG2R61     CG2R61      HGR61
   11    19    20    21	 9 ;     CG2DC1      CG311      CG324      NG3P2
   11    19    20    62	 9 ;     CG2DC1      CG311      CG324       HGA2
   11    19    20    63	 9 ;     CG2DC1      CG311      CG324       HGA2
   27    19    20    21	 9 ;      OG311      CG311      CG324      NG3P2
   27    19    20    62	 9 ;      OG311      CG311      CG324       HGA2
   27    19    20    63	 9 ;      OG311      CG311      CG324       HGA2
   61    19    20    21	 9 ;       HGA1      CG311      CG324      NG3P2
   61    19    20    62	 9 ;       HGA1      CG311      CG324       HGA2
   61    19    20    63	 9 ;       HGA1      CG311      CG324       HGA2
   11    19    27    28	 9 ;     CG2DC1      CG311      OG311       HGP1
   20    19    27    28	 9 ;      CG324      CG311      OG311       HGP1
   61    19    27    28	 9 ;       HGA1      CG311      OG311       HGP1
   19    20    21    24	 9 ;      CG311      CG324      NG3P2     CG3C31
   19    20    21    22	 9 ;      CG311      CG324      NG3P2       HGP2
   19    20    21    23	 9 ;      CG311      CG324      NG3P2       HGP2
   62    20    21    24	 9 ;       HGA2      CG324      NG3P2     CG3C31
   62    20    21    22	 9 ;       HGA2      CG324      NG3P2       HGP2
   62    20    21    23	 9 ;       HGA2      CG324      NG3P2       HGP2
   63    20    21    24	 9 ;       HGA2      CG324      NG3P2     CG3C31
   63    20    21    22	 9 ;       HGA2      CG324      NG3P2       HGP2
   63    20    21    23	 9 ;       HGA2      CG324      NG3P2       HGP2
   20    21    24    26	 9 ;      CG324      NG3P2     CG3C31     CG3C31
   20    21    24    25	 9 ;      CG324      NG3P2     CG3C31     CG3C31
   20    21    24    64	 9 ;      CG324      NG3P2     CG3C31       HGA1
   22    21    24    26	 9 ;       HGP2      NG3P2     CG3C31     CG3C31
   22    21    24    25	 9 ;       HGP2      NG3P2     CG3C31     CG3C31
   22    21    24    64	 9 ;       HGP2      NG3P2     CG3C31       HGA1
   23    21    24    26	 9 ;       HGP2      NG3P2     CG3C31     CG3C31
   23    21    24    25	 9 ;       HGP2      NG3P2     CG3C31     CG3C31
   23    21    24    64	 9 ;       HGP2      NG3P2     CG3C31       HGA1
   25    24    26    67	 9 ;     CG3C31     CG3C31     CG3C31       HGA2
   25    24    26    68	 9 ;     CG3C31     CG3C31     CG3C31       HGA2
   21    24    26    25	 9 ;      NG3P2     CG3C31     CG3C31     CG3C31
   21    24    26    67	 9 ;      NG3P2     CG3C31     CG3C31       HGA2
   21    24    26    68	 9 ;      NG3P2     CG3C31     CG3C31       HGA2
   64    24    26    25	 9 ;       HGA1     CG3C31     CG3C31     CG3C31
   64    24    26    67	 9 ;       HGA1     CG3C31     CG3C31       HGA2
   64    24    26    68	 9 ;       HGA1     CG3C31     CG3C31       HGA2
   26    24    25    65	 9 ;     CG3C31     CG3C31     CG3C31       HGA2
   26    24    25    66	 9 ;     CG3C31     CG3C31     CG3C31       HGA2
   21    24    25    26	 9 ;      NG3P2     CG3C31     CG3C31     CG3C31
   21    24    25    65	 9 ;      NG3P2     CG3C31     CG3C31       HGA2
   21    24    25    66	 9 ;      NG3P2     CG3C31     CG3C31       HGA2
   64    24    25    26	 9 ;       HGA1     CG3C31     CG3C31     CG3C31
   64    24    25    65	 9 ;       HGA1     CG3C31     CG3C31       HGA2
   64    24    25    66	 9 ;       HGA1     CG3C31     CG3C31       HGA2
   24    25    26    67	 9 ;     CG3C31     CG3C31     CG3C31       HGA2
   24    25    26    68	 9 ;     CG3C31     CG3C31     CG3C31       HGA2
   65    25    26    24	 9 ;       HGA2     CG3C31     CG3C31     CG3C31
   65    25    26    67	 9 ;       HGA2     CG3C31     CG3C31       HGA2
   65    25    26    68	 9 ;       HGA2     CG3C31     CG3C31       HGA2
   66    25    26    24	 9 ;       HGA2     CG3C31     CG3C31     CG3C31
   66    25    26    67	 9 ;       HGA2     CG3C31     CG3C31       HGA2
   66    25    26    68	 9 ;       HGA2     CG3C31     CG3C31       HGA2
    4    29    30    31	 9 ;     CG2DC1      CG321      CG321      CG331
    4    29    30    71	 9 ;     CG2DC1      CG321      CG321       HGA2
    4    29    30    72	 9 ;     CG2DC1      CG321      CG321       HGA2
   69    29    30    31	 9 ;       HGA2      CG321      CG321      CG331
   69    29    30    71	 9 ;       HGA2      CG321      CG321       HGA2
   69    29    30    72	 9 ;       HGA2      CG321      CG321       HGA2
   70    29    30    31	 9 ;       HGA2      CG321      CG321      CG331
   70    29    30    71	 9 ;       HGA2      CG321      CG321       HGA2
   70    29    30    72	 9 ;       HGA2      CG321      CG321       HGA2
   29    30    31    73	 9 ;      CG321      CG321      CG331       HGA3
   29    30    31    74	 9 ;      CG321      CG321      CG331       HGA3
   29    30    31    75	 9 ;      CG321      CG321      CG331       HGA3
   71    30    31    73	 9 ;       HGA2      CG321      CG331       HGA3
   71    30    31    74	 9 ;       HGA2      CG321      CG331       HGA3
   71    30    31    75	 9 ;       HGA2      CG321      CG331       HGA3
   72    30    31    73	 9 ;       HGA2      CG321      CG331       HGA3
   72    30    31    74	 9 ;       HGA2      CG321      CG331       HGA3
   72    30    31    75	 9 ;       HGA2      CG321      CG331       HGA3
   33    32    34    36	 9 ;      OG2D1      CG2O1      NG2S1      CG311
   33    32    34    35	 9 ;      OG2D1      CG2O1      NG2S1       HGP1
    3    32    34    36	 9 ;     CG2DC1      CG2O1      NG2S1      CG311
    3    32    34    35	 9 ;     CG2DC1      CG2O1      NG2S1       HGP1
   35    34    36    38	 9 ;       HGP1      NG2S1      CG311     CG2R61
   35    34    36    37	 9 ;       HGP1      NG2S1      CG311      CG331
   35    34    36    76	 9 ;       HGP1      NG2S1      CG311       HGA1
   32    34    36    38	 9 ;      CG2O1      NG2S1      CG311     CG2R61
   32    34    36    37	 9 ;      CG2O1      NG2S1      CG311      CG331
   32    34    36    76	 9 ;      CG2O1      NG2S1      CG311       HGA1
   37    36    38    43	 9 ;      CG331      CG311     CG2R61     CG2R61
   37    36    38    39	 9 ;      CG331      CG311     CG2R61     CG2R61
   34    36    38    43	 9 ;      NG2S1      CG311     CG2R61     CG2R61
   34    36    38    39	 9 ;      NG2S1      CG311     CG2R61     CG2R61
   76    36    38    43	 9 ;       HGA1      CG311     CG2R61     CG2R61
   76    36    38    39	 9 ;       HGA1      CG311     CG2R61     CG2R61
   38    36    37    77	 9 ;     CG2R61      CG311      CG331       HGA3
   38    36    37    78	 9 ;     CG2R61      CG311      CG331       HGA3
   38    36    37    79	 9 ;     CG2R61      CG311      CG331       HGA3
   34    36    37    77	 9 ;      NG2S1      CG311      CG331       HGA3
   34    36    37    78	 9 ;      NG2S1      CG311      CG331       HGA3
   34    36    37    79	 9 ;      NG2S1      CG311      CG331       HGA3
   76    36    37    77	 9 ;       HGA1      CG311      CG331       HGA3
   76    36    37    78	 9 ;       HGA1      CG311      CG331       HGA3
   76    36    37    79	 9 ;       HGA1      CG311      CG331       HGA3
   39    38    43    42	 9 ;     CG2R61     CG2R61     CG2R61     CG2R61
   39    38    43    84	 9 ;     CG2R61     CG2R61     CG2R61      HGR61
   36    38    43    42	 9 ;      CG311     CG2R61     CG2R61     CG2R61
   36    38    43    84	 9 ;      CG311     CG2R61     CG2R61      HGR61
   43    38    39    40	 9 ;     CG2R61     CG2R61     CG2R61     CG2R61
   43    38    39    80	 9 ;     CG2R61     CG2R61     CG2R61      HGR61
   36    38    39    40	 9 ;      CG311     CG2R61     CG2R61     CG2R61
   36    38    39    80	 9 ;      CG311     CG2R61     CG2R61      HGR61
   38    39    40    41	 9 ;     CG2R61     CG2R61     CG2R61     CG2R61
   38    39    40    81	 9 ;     CG2R61     CG2R61     CG2R61      HGR61
   80    39    40    41	 9 ;      HGR61     CG2R61     CG2R61     CG2R61
   80    39    40    81	 9 ;      HGR61     CG2R61     CG2R61      HGR61
   39    40    41    42	 9 ;     CG2R61     CG2R61     CG2R61     CG2R61
   39    40    41    82	 9 ;     CG2R61     CG2R61     CG2R61      HGR61
   81    40    41    42	 9 ;      HGR61     CG2R61     CG2R61     CG2R61
   81    40    41    82	 9 ;      HGR61     CG2R61     CG2R61      HGR61
   40    41    42    43	 9 ;     CG2R61     CG2R61     CG2R61     CG2R61
   40    41    42    83	 9 ;     CG2R61     CG2R61     CG2R61      HGR61
   82    41    42    43	 9 ;      HGR61     CG2R61     CG2R61     CG2R61
   82    41    42    83	 9 ;      HGR61     CG2R61     CG2R61      HGR61
   41    42    43    38	 9 ;     CG2R61     CG2R61     CG2R61     CG2R61
   41    42    43    84	 9 ;     CG2R61     CG2R61     CG2R61      HGR61
   83    42    43    38	 9 ;      HGR61     CG2R61     CG2R61     CG2R61
   83    42    43    84	 9 ;      HGR61     CG2R61     CG2R61      HGR61
    1    44    45    47	 9 ;      NG301      CG321      CG2O2      OG302
    1    44    45    46	 9 ;      NG301      CG321      CG2O2      OG2D1
   85    44    45    47	 9 ;       HGA2      CG321      CG2O2      OG302
   85    44    45    46	 9 ;       HGA2      CG321      CG2O2      OG2D1
   86    44    45    47	 9 ;       HGA2      CG321      CG2O2      OG302
   86    44    45    46	 9 ;       HGA2      CG321      CG2O2      OG2D1
   44    45    47    48	 9 ;      CG321      CG2O2      OG302      CG311
   46    45    47    48	 9 ;      OG2D1      CG2O2      OG302      CG311
   45    47    48    49	 9 ;      CG2O2      OG302      CG311      CG331
   45    47    48    50	 9 ;      CG2O2      OG302      CG311      CG331
   45    47    48    87	 9 ;      CG2O2      OG302      CG311       HGA1
   47    48    49    88	 9 ;      OG302      CG311      CG331       HGA3
   47    48    49    89	 9 ;      OG302      CG311      CG331       HGA3
   47    48    49    90	 9 ;      OG302      CG311      CG331       HGA3
   50    48    49    88	 9 ;      CG331      CG311      CG331       HGA3
   50    48    49    89	 9 ;      CG331      CG311      CG331       HGA3
   50    48    49    90	 9 ;      CG331      CG311      CG331       HGA3
   87    48    49    88	 9 ;       HGA1      CG311      CG331       HGA3
   87    48    49    89	 9 ;       HGA1      CG311      CG331       HGA3
   87    48    49    90	 9 ;       HGA1      CG311      CG331       HGA3
   49    48    50    91	 9 ;      CG331      CG311      CG331       HGA3
   49    48    50    92	 9 ;      CG331      CG311      CG331       HGA3
   49    48    50    93	 9 ;      CG331      CG311      CG331       HGA3
   47    48    50    91	 9 ;      OG302      CG311      CG331       HGA3
   47    48    50    92	 9 ;      OG302      CG311      CG331       HGA3
   47    48    50    93	 9 ;      OG302      CG311      CG331       HGA3
   87    48    50    91	 9 ;       HGA1      CG311      CG331       HGA3
   87    48    50    92	 9 ;       HGA1      CG311      CG331       HGA3
   87    48    50    93	 9 ;       HGA1      CG311      CG331       HGA3

[ dihedrals ]
;	ai	  aj	ak	  al funct			  c0			c1			  c2			c3
    6     5     1    53	 2
    7     5     9     8	 2
   11    19    12     9	 2
   32     3    34    33	 2
   45    44    46    47	 2

