Gravel Rubs Often Many Awfully Cauterized Sores
   51
    1LIG      O    1  -1.644   0.461  -1.843
    1LIG     C1    2  -1.512   0.425  -1.801
    1LIG     C2    3  -1.485   0.527  -1.690
    1LIG     N1    4  -1.620   0.538  -1.629
    1LIG    HN3    5  -1.645   0.555  -1.532
    1LIG     C3    6  -1.696   0.519  -1.732
    1LIG     C4    7  -1.459   0.666  -1.756
    1LIG     C5    8  -1.443   0.780  -1.654
    1LIG     C6    9  -1.310   0.751  -1.581
    1LIG     C7   10  -1.296   0.605  -1.536
    1LIG     C8   11  -1.373   0.500  -1.590
    1LIG     C9   12  -1.343   0.368  -1.549
    1LIG    C10   13  -1.241   0.337  -1.456
    1LIG    C11   14  -1.171   0.446  -1.400
    1LIG    C12   15  -1.198   0.577  -1.441
    1LIG    C13   16  -1.554   0.793  -1.546
    1LIG    C14   17  -1.440   0.913  -1.733
    1LIG     N2   18  -1.823   0.561  -1.745
    1LIG     H1   19  -1.890   0.484  -1.734
    1LIG     H2   20  -1.836   0.608  -1.834
    1LIG    C15   21  -1.207   0.197  -1.420
    1LIG    C16   22  -1.247   0.137  -1.301
    1LIG     N3   23  -1.216   0.011  -1.264
    1LIG    C17   24  -1.141  -0.059  -1.350
    1LIG    HN4   25  -1.247  -0.028  -1.175
    1LIG     N4   26  -1.096  -0.014  -1.467
    1LIG    C18   27  -1.132   0.113  -1.500
    1LIG    HN5   28  -1.039  -0.071  -1.529
    1LIG    HC2   29  -1.441   0.435  -1.883
    1LIG    HC3   30  -1.512   0.324  -1.761
    1LIG    HN2   31  -1.619   0.438  -1.612
    1LIG     HC   32  -1.729   0.422  -1.694
    1LIG    HC4   33  -1.543   0.689  -1.822
    1LIG    HC5   34  -1.368   0.660  -1.816
    1LIG    HC6   35  -1.304   0.815  -1.493
    1LIG    HC7   36  -1.227   0.775  -1.647
    1LIG    HC1   37  -1.401   0.286  -1.590
    1LIG    HC8   38  -1.096   0.427  -1.325
    1LIG    HC9   39  -1.141   0.658  -1.398
    1LIG   HC10   40  -1.546   0.891  -1.498
    1LIG   HC11   41  -1.651   0.783  -1.593
    1LIG   HC12   42  -1.541   0.715  -1.471
    1LIG   HC13   43  -1.363   0.908  -1.810
    1LIG   HC14   44  -1.538   0.929  -1.780
    1LIG   HC15   45  -1.418   0.995  -1.665
    1LIG    HN1   46  -1.841   0.628  -1.672
    1LIG   HC16   47  -1.306   0.196  -1.233
    1LIG   HC17   48  -1.116  -0.160  -1.322
    1LIG   HC18   49  -1.097   0.152  -1.594
    1LIG    H27   50  -1.156   0.174  -1.253
    1LIG    H28   51  -1.051  -0.022  -1.301
   0.00000   0.00000   0.00000
