; Created by cgenff_charmm2gmx.py

[ moleculetype ]
; Name			   nrexcl
LIG				 3

[ atoms ]
;	 nr		  type	resnr residue  atom   cgnr	   charge		mass  typeB    chargeB		massB
; residue	 1 LIG rtp LIG q	qsum
     1      CG324      1    LIG     C1      1      0.186     12.011   ;
     2      CG311      1    LIG     C2      2      0.093     12.011   ;
     3      CG311      1    LIG     C3      3     -0.007     12.011   ;
     4      NG2S1      1    LIG     N1      4     -0.339     14.007   ;
     5      CG2O1      1    LIG     C4      5      0.488     12.011   ;
     6      OG2D1      1    LIG     O1      6     -0.509     15.999   ;
     7      CG331      1    LIG     C5      7     -0.270     12.011   ;
     8       HGP1      1    LIG     H1      8      0.261      1.008   ;
     9      CG321      1    LIG     C6      9     -0.153     12.011   ;
    10     CG2R61      1    LIG     C7     10      0.057     12.011   ;
    11     CG2R61      1    LIG     C8     11     -0.218     12.011   ;
    12     CG2R66      1    LIG     C9     12      0.261     12.011   ;
    13       FGR1      1    LIG     F1     13     -0.210     18.998   ;
    14     CG2R61      1    LIG    C10     14     -0.240     12.011   ;
    15     CG2R66      1    LIG    C11     15      0.261     12.011   ;
    16     CG2R61      1    LIG    C12     16     -0.218     12.011   ;
    17       FGR1      1    LIG     F2     17     -0.210     18.998   ;
    18      OG311      1    LIG     O2     18     -0.625     15.999   ;
    19       HGP1      1    LIG     H2     19      0.415      1.008   ;
    20      NG3P2      1    LIG     N2     20     -0.483     14.007   ;
    21       HGP2      1    LIG     H3     21      0.343      1.008   ;
    22       HGP2      1    LIG     H4     22      0.343      1.008   ;
    23     CG3C31      1    LIG    C13     23      0.393     12.011   ;
    24     CG3C31      1    LIG    C14     24     -0.149     12.011   ;
    25     CG3C31      1    LIG    C15     25     -0.149     12.011   ;
    26     CG2R61      1    LIG    C16     26     -0.101     12.011   ;
    27     CG2R61      1    LIG    C17     27     -0.070     12.011   ;
    28     CG2R61      1    LIG    C18     28     -0.051     12.011   ;
    29     CG2R61      1    LIG    C19     29     -0.109     12.011   ;
    30     CG2R61      1    LIG    C20     30     -0.114     12.011   ;
    31     CG2R61      1    LIG    C21     31     -0.077     12.011   ;
    32      CG311      1    LIG    C22     32     -0.075     12.011   ;
    33     OG3C61      1    LIG     O3     33     -0.320     15.999   ;
    34      CG321      1    LIG    C23     34      0.080     12.011   ;
    35      CG321      1    LIG    C24     35     -0.173     12.011   ;
    36      CG321      1    LIG    C25     36     -0.184     12.011   ;
    37      CG321      1    LIG    C26     37     -0.105     12.011   ;
    38       HGA2      1    LIG    HC2     38      0.090      1.008   ;
    39       HGA2      1    LIG    HC3     39      0.090      1.008   ;
    40       HGA1      1    LIG     HC     40      0.090      1.008   ;
    41       HGA1      1    LIG    HC1     41      0.090      1.008   ;
    42       HGA3      1    LIG    HC4     42      0.090      1.008   ;
    43       HGA3      1    LIG    HC5     43      0.090      1.008   ;
    44       HGA3      1    LIG    HC6     44      0.090      1.008   ;
    45       HGA2      1    LIG    HC7     45      0.090      1.008   ;
    46       HGA2      1    LIG    HC8     46      0.090      1.008   ;
    47      HGR62      1    LIG    HC9     47      0.174      1.008   ;
    48      HGR62      1    LIG   HC10     48      0.186      1.008   ;
    49      HGR62      1    LIG   HC11     49      0.174      1.008   ;
    50       HGA2      1    LIG   HC12     50      0.090      1.008   ;
    51       HGA2      1    LIG   HC13     51      0.090      1.008   ;
    52       HGA2      1    LIG   HC14     52      0.090      1.008   ;
    53       HGA2      1    LIG   HC15     53      0.090      1.008   ;
    54      HGR61      1    LIG   HC16     54      0.116      1.008   ;
    55      HGR61      1    LIG   HC17     55      0.116      1.008   ;
    56      HGR61      1    LIG   HC18     56      0.116      1.008   ;
    57      HGR61      1    LIG   HC19     57      0.116      1.008   ;
    58       HGA1      1    LIG   HC20     58      0.090      1.008   ;
    59       HGA2      1    LIG   HC21     59      0.090      1.008   ;
    60       HGA2      1    LIG   HC22     60      0.090      1.008   ;
    61       HGA2      1    LIG   HC23     61      0.090      1.008   ;
    62       HGA2      1    LIG   HC24     62      0.090      1.008   ;
    63       HGA2      1    LIG   HC25     63      0.090      1.008   ;
    64       HGA2      1    LIG   HC26     64      0.090      1.008   ;
    65       HGA2      1    LIG   HC27     65      0.090      1.008   ;
    66       HGA2      1    LIG   HC28     66      0.090      1.008   ;

[ bonds ]
;	ai	  aj funct			  c0			c1			  c2			c3
    1     2	 1 ;       CG324      CG311
    1    20	 1 ;       CG324      NG3P2
    1    38	 1 ;       CG324       HGA2
    1    39	 1 ;       CG324       HGA2
    2     3	 1 ;       CG311      CG311
    2    18	 1 ;       CG311      OG311
    2    40	 1 ;       CG311       HGA1
    3     9	 1 ;       CG311      CG321
    3     4	 1 ;       CG311      NG2S1
    3    41	 1 ;       CG311       HGA1
    4     8	 1 ;       NG2S1       HGP1
    4     5	 1 ;       NG2S1      CG2O1
    5     7	 1 ;       CG2O1      CG331
    5     6	 1 ;       CG2O1      OG2D1
    7    42	 1 ;       CG331       HGA3
    7    43	 1 ;       CG331       HGA3
    7    44	 1 ;       CG331       HGA3
    9    10	 1 ;       CG321     CG2R61
    9    45	 1 ;       CG321       HGA2
    9    46	 1 ;       CG321       HGA2
   10    16	 1 ;      CG2R61     CG2R61
   10    11	 1 ;      CG2R61     CG2R61
   11    12	 1 ;      CG2R61     CG2R66
   11    47	 1 ;      CG2R61      HGR62
   12    14	 1 ;      CG2R66     CG2R61
   12    13	 1 ;      CG2R66       FGR1
   14    15	 1 ;      CG2R61     CG2R66
   14    48	 1 ;      CG2R61      HGR62
   15    17	 1 ;      CG2R66       FGR1
   15    16	 1 ;      CG2R66     CG2R61
   16    49	 1 ;      CG2R61      HGR62
   18    19	 1 ;       OG311       HGP1
   20    22	 1 ;       NG3P2       HGP2
   20    23	 1 ;       NG3P2     CG3C31
   20    21	 1 ;       NG3P2       HGP2
   23    26	 1 ;      CG3C31     CG2R61
   23    24	 1 ;      CG3C31     CG3C31
   23    25	 1 ;      CG3C31     CG3C31
   24    25	 1 ;      CG3C31     CG3C31
   24    50	 1 ;      CG3C31       HGA2
   24    51	 1 ;      CG3C31       HGA2
   25    52	 1 ;      CG3C31       HGA2
   25    53	 1 ;      CG3C31       HGA2
   26    31	 1 ;      CG2R61     CG2R61
   26    27	 1 ;      CG2R61     CG2R61
   27    28	 1 ;      CG2R61     CG2R61
   27    54	 1 ;      CG2R61      HGR61
   28    29	 1 ;      CG2R61     CG2R61
   28    32	 1 ;      CG2R61      CG311
   29    30	 1 ;      CG2R61     CG2R61
   29    55	 1 ;      CG2R61      HGR61
   30    31	 1 ;      CG2R61     CG2R61
   30    56	 1 ;      CG2R61      HGR61
   31    57	 1 ;      CG2R61      HGR61
   32    37	 1 ;       CG311      CG321
   32    33	 1 ;       CG311     OG3C61
   32    58	 1 ;       CG311       HGA1
   33    34	 1 ;      OG3C61      CG321
   34    35	 1 ;       CG321      CG321
   34    59	 1 ;       CG321       HGA2
   34    60	 1 ;       CG321       HGA2
   35    36	 1 ;       CG321      CG321
   35    61	 1 ;       CG321       HGA2
   35    62	 1 ;       CG321       HGA2
   36    37	 1 ;       CG321      CG321
   36    63	 1 ;       CG321       HGA2
   36    64	 1 ;       CG321       HGA2
   37    65	 1 ;       CG321       HGA2
   37    66	 1 ;       CG321       HGA2

[ pairs ]
;	ai	  aj funct			  c0			c1			  c2			c3
    1     9	 1
    1     4	 1
    1    41	 1
    1    19	 1
    1    26	 1
    1    24	 1
    1    25	 1
    2    22	 1
    2    23	 1
    2    21	 1
    2    10	 1
    2    45	 1
    2    46	 1
    2     8	 1
    2     5	 1
    3    20	 1
    3    38	 1
    3    39	 1
    3    19	 1
    3     7	 1
    3     6	 1
    3    16	 1
    3    11	 1
    4    18	 1
    4    40	 1
    4    10	 1
    4    45	 1
    4    46	 1
    4    42	 1
    4    43	 1
    4    44	 1
    5     9	 1
    5    41	 1
    6     8	 1
    6    42	 1
    6    43	 1
    6    44	 1
    7     8	 1
    8     9	 1
    8    41	 1
    9    18	 1
    9    40	 1
    9    15	 1
    9    49	 1
    9    12	 1
    9    47	 1
   10    41	 1
   10    14	 1
   10    13	 1
   10    17	 1
   11    45	 1
   11    46	 1
   11    15	 1
   11    49	 1
   11    48	 1
   12    16	 1
   12    17	 1
   13    47	 1
   13    15	 1
   13    48	 1
   14    47	 1
   14    49	 1
   16    45	 1
   16    46	 1
   16    47	 1
   16    48	 1
   17    48	 1
   17    49	 1
   18    20	 1
   18    38	 1
   18    39	 1
   18    41	 1
   19    40	 1
   20    40	 1
   20    31	 1
   20    27	 1
   20    50	 1
   20    51	 1
   20    52	 1
   20    53	 1
   21    38	 1
   21    39	 1
   21    26	 1
   21    24	 1
   21    25	 1
   22    38	 1
   22    39	 1
   22    26	 1
   22    24	 1
   22    25	 1
   23    38	 1
   23    39	 1
   23    30	 1
   23    57	 1
   23    28	 1
   23    54	 1
   24    31	 1
   24    27	 1
   25    31	 1
   25    27	 1
   26    50	 1
   26    51	 1
   26    52	 1
   26    53	 1
   26    29	 1
   26    32	 1
   26    56	 1
   27    30	 1
   27    57	 1
   27    55	 1
   27    37	 1
   27    33	 1
   27    58	 1
   28    31	 1
   28    56	 1
   28    36	 1
   28    65	 1
   28    66	 1
   28    34	 1
   29    54	 1
   29    37	 1
   29    33	 1
   29    58	 1
   29    57	 1
   30    32	 1
   31    54	 1
   31    55	 1
   32    54	 1
   32    55	 1
   32    35	 1
   32    59	 1
   32    60	 1
   32    63	 1
   32    64	 1
   33    36	 1
   33    65	 1
   33    66	 1
   33    61	 1
   33    62	 1
   34    37	 1
   34    58	 1
   34    63	 1
   34    64	 1
   35    65	 1
   35    66	 1
   36    58	 1
   36    59	 1
   36    60	 1
   37    61	 1
   37    62	 1
   38    40	 1
   39    40	 1
   40    41	 1
   41    45	 1
   41    46	 1
   50    52	 1
   50    53	 1
   51    52	 1
   51    53	 1
   55    56	 1
   56    57	 1
   58    65	 1
   58    66	 1
   59    61	 1
   59    62	 1
   60    61	 1
   60    62	 1
   61    63	 1
   61    64	 1
   62    63	 1
   62    64	 1
   63    65	 1
   63    66	 1
   64    65	 1
   64    66	 1

[ angles ]
;	ai	  aj	ak funct			c0			  c1			c2			  c3
    2     1    20	5 ;      CG311      CG324      NG3P2
    2     1    38	5 ;      CG311      CG324       HGA2
    2     1    39	5 ;      CG311      CG324       HGA2
   20     1    38	5 ;      NG3P2      CG324       HGA2
   20     1    39	5 ;      NG3P2      CG324       HGA2
   38     1    39	5 ;       HGA2      CG324       HGA2
    3     2    18	5 ;      CG311      CG311      OG311
    3     2     1	5 ;      CG311      CG311      CG324
    3     2    40	5 ;      CG311      CG311       HGA1
   18     2     1	5 ;      OG311      CG311      CG324
   18     2    40	5 ;      OG311      CG311       HGA1
    1     2    40	5 ;      CG324      CG311       HGA1
    9     3     4	5 ;      CG321      CG311      NG2S1
    9     3     2	5 ;      CG321      CG311      CG311
    9     3    41	5 ;      CG321      CG311       HGA1
    4     3     2	5 ;      NG2S1      CG311      CG311
    4     3    41	5 ;      NG2S1      CG311       HGA1
    2     3    41	5 ;      CG311      CG311       HGA1
    8     4     5	5 ;       HGP1      NG2S1      CG2O1
    8     4     3	5 ;       HGP1      NG2S1      CG311
    5     4     3	5 ;      CG2O1      NG2S1      CG311
    7     5     4	5 ;      CG331      CG2O1      NG2S1
    7     5     6	5 ;      CG331      CG2O1      OG2D1
    4     5     6	5 ;      NG2S1      CG2O1      OG2D1
    5     7    42	5 ;      CG2O1      CG331       HGA3
    5     7    43	5 ;      CG2O1      CG331       HGA3
    5     7    44	5 ;      CG2O1      CG331       HGA3
   42     7    43	5 ;       HGA3      CG331       HGA3
   42     7    44	5 ;       HGA3      CG331       HGA3
   43     7    44	5 ;       HGA3      CG331       HGA3
   10     9     3	5 ;     CG2R61      CG321      CG311
   10     9    45	5 ;     CG2R61      CG321       HGA2
   10     9    46	5 ;     CG2R61      CG321       HGA2
    3     9    45	5 ;      CG311      CG321       HGA2
    3     9    46	5 ;      CG311      CG321       HGA2
   45     9    46	5 ;       HGA2      CG321       HGA2
   16    10     9	5 ;     CG2R61     CG2R61      CG321
   16    10    11	5 ;     CG2R61     CG2R61     CG2R61
    9    10    11	5 ;      CG321     CG2R61     CG2R61
   10    11    12	5 ;     CG2R61     CG2R61     CG2R66
   10    11    47	5 ;     CG2R61     CG2R61      HGR62
   12    11    47	5 ;     CG2R66     CG2R61      HGR62
   14    12    11	5 ;     CG2R61     CG2R66     CG2R61
   14    12    13	5 ;     CG2R61     CG2R66       FGR1
   11    12    13	5 ;     CG2R61     CG2R66       FGR1
   15    14    12	5 ;     CG2R66     CG2R61     CG2R66
   15    14    48	5 ;     CG2R66     CG2R61      HGR62
   12    14    48	5 ;     CG2R66     CG2R61      HGR62
   17    15    16	5 ;       FGR1     CG2R66     CG2R61
   17    15    14	5 ;       FGR1     CG2R66     CG2R61
   16    15    14	5 ;     CG2R61     CG2R66     CG2R61
   15    16    10	5 ;     CG2R66     CG2R61     CG2R61
   15    16    49	5 ;     CG2R66     CG2R61      HGR62
   10    16    49	5 ;     CG2R61     CG2R61      HGR62
    2    18    19	5 ;      CG311      OG311       HGP1
   22    20    23	5 ;       HGP2      NG3P2     CG3C31
   22    20    21	5 ;       HGP2      NG3P2       HGP2
   22    20     1	5 ;       HGP2      NG3P2      CG324
   23    20    21	5 ;     CG3C31      NG3P2       HGP2
   23    20     1	5 ;     CG3C31      NG3P2      CG324
   21    20     1	5 ;       HGP2      NG3P2      CG324
   26    23    20	5 ;     CG2R61     CG3C31      NG3P2
   26    23    24	5 ;     CG2R61     CG3C31     CG3C31
   26    23    25	5 ;     CG2R61     CG3C31     CG3C31
   20    23    24	5 ;      NG3P2     CG3C31     CG3C31
   20    23    25	5 ;      NG3P2     CG3C31     CG3C31
   24    23    25	5 ;     CG3C31     CG3C31     CG3C31
   23    24    25	5 ;     CG3C31     CG3C31     CG3C31
   23    24    50	5 ;     CG3C31     CG3C31       HGA2
   23    24    51	5 ;     CG3C31     CG3C31       HGA2
   25    24    50	5 ;     CG3C31     CG3C31       HGA2
   25    24    51	5 ;     CG3C31     CG3C31       HGA2
   50    24    51	5 ;       HGA2     CG3C31       HGA2
   23    25    24	5 ;     CG3C31     CG3C31     CG3C31
   23    25    52	5 ;     CG3C31     CG3C31       HGA2
   23    25    53	5 ;     CG3C31     CG3C31       HGA2
   24    25    52	5 ;     CG3C31     CG3C31       HGA2
   24    25    53	5 ;     CG3C31     CG3C31       HGA2
   52    25    53	5 ;       HGA2     CG3C31       HGA2
   31    26    27	5 ;     CG2R61     CG2R61     CG2R61
   31    26    23	5 ;     CG2R61     CG2R61     CG3C31
   27    26    23	5 ;     CG2R61     CG2R61     CG3C31
   28    27    26	5 ;     CG2R61     CG2R61     CG2R61
   28    27    54	5 ;     CG2R61     CG2R61      HGR61
   26    27    54	5 ;     CG2R61     CG2R61      HGR61
   29    28    32	5 ;     CG2R61     CG2R61      CG311
   29    28    27	5 ;     CG2R61     CG2R61     CG2R61
   32    28    27	5 ;      CG311     CG2R61     CG2R61
   30    29    28	5 ;     CG2R61     CG2R61     CG2R61
   30    29    55	5 ;     CG2R61     CG2R61      HGR61
   28    29    55	5 ;     CG2R61     CG2R61      HGR61
   29    30    31	5 ;     CG2R61     CG2R61     CG2R61
   29    30    56	5 ;     CG2R61     CG2R61      HGR61
   31    30    56	5 ;     CG2R61     CG2R61      HGR61
   30    31    26	5 ;     CG2R61     CG2R61     CG2R61
   30    31    57	5 ;     CG2R61     CG2R61      HGR61
   26    31    57	5 ;     CG2R61     CG2R61      HGR61
   37    32    33	5 ;      CG321      CG311     OG3C61
   37    32    28	5 ;      CG321      CG311     CG2R61
   37    32    58	5 ;      CG321      CG311       HGA1
   33    32    28	5 ;     OG3C61      CG311     CG2R61
   33    32    58	5 ;     OG3C61      CG311       HGA1
   28    32    58	5 ;     CG2R61      CG311       HGA1
   34    33    32	5 ;      CG321     OG3C61      CG311
   35    34    33	5 ;      CG321      CG321     OG3C61
   35    34    59	5 ;      CG321      CG321       HGA2
   35    34    60	5 ;      CG321      CG321       HGA2
   33    34    59	5 ;     OG3C61      CG321       HGA2
   33    34    60	5 ;     OG3C61      CG321       HGA2
   59    34    60	5 ;       HGA2      CG321       HGA2
   36    35    34	5 ;      CG321      CG321      CG321
   36    35    61	5 ;      CG321      CG321       HGA2
   36    35    62	5 ;      CG321      CG321       HGA2
   34    35    61	5 ;      CG321      CG321       HGA2
   34    35    62	5 ;      CG321      CG321       HGA2
   61    35    62	5 ;       HGA2      CG321       HGA2
   35    36    37	5 ;      CG321      CG321      CG321
   35    36    63	5 ;      CG321      CG321       HGA2
   35    36    64	5 ;      CG321      CG321       HGA2
   37    36    63	5 ;      CG321      CG321       HGA2
   37    36    64	5 ;      CG321      CG321       HGA2
   63    36    64	5 ;       HGA2      CG321       HGA2
   36    37    32	5 ;      CG321      CG321      CG311
   36    37    65	5 ;      CG321      CG321       HGA2
   36    37    66	5 ;      CG321      CG321       HGA2
   32    37    65	5 ;      CG311      CG321       HGA2
   32    37    66	5 ;      CG311      CG321       HGA2
   65    37    66	5 ;       HGA2      CG321       HGA2

[ dihedrals ]
;	ai	  aj	ak	  al funct			  c0			c1			  c2			c3			  c4			c5
   20     1     2     3	 9 ;      NG3P2      CG324      CG311      CG311
   20     1     2    18	 9 ;      NG3P2      CG324      CG311      OG311
   20     1     2    40	 9 ;      NG3P2      CG324      CG311       HGA1
   38     1     2     3	 9 ;       HGA2      CG324      CG311      CG311
   38     1     2    18	 9 ;       HGA2      CG324      CG311      OG311
   38     1     2    40	 9 ;       HGA2      CG324      CG311       HGA1
   39     1     2     3	 9 ;       HGA2      CG324      CG311      CG311
   39     1     2    18	 9 ;       HGA2      CG324      CG311      OG311
   39     1     2    40	 9 ;       HGA2      CG324      CG311       HGA1
    2     1    20    22	 9 ;      CG311      CG324      NG3P2       HGP2
    2     1    20    23	 9 ;      CG311      CG324      NG3P2     CG3C31
    2     1    20    21	 9 ;      CG311      CG324      NG3P2       HGP2
   38     1    20    22	 9 ;       HGA2      CG324      NG3P2       HGP2
   38     1    20    23	 9 ;       HGA2      CG324      NG3P2     CG3C31
   38     1    20    21	 9 ;       HGA2      CG324      NG3P2       HGP2
   39     1    20    22	 9 ;       HGA2      CG324      NG3P2       HGP2
   39     1    20    23	 9 ;       HGA2      CG324      NG3P2     CG3C31
   39     1    20    21	 9 ;       HGA2      CG324      NG3P2       HGP2
   18     2     3     9	 9 ;      OG311      CG311      CG311      CG321
   18     2     3     4	 9 ;      OG311      CG311      CG311      NG2S1
   18     2     3    41	 9 ;      OG311      CG311      CG311       HGA1
    1     2     3     9	 9 ;      CG324      CG311      CG311      CG321
    1     2     3     4	 9 ;      CG324      CG311      CG311      NG2S1
    1     2     3    41	 9 ;      CG324      CG311      CG311       HGA1
   40     2     3     9	 9 ;       HGA1      CG311      CG311      CG321
   40     2     3     4	 9 ;       HGA1      CG311      CG311      NG2S1
   40     2     3    41	 9 ;       HGA1      CG311      CG311       HGA1
    3     2    18    19	 9 ;      CG311      CG311      OG311       HGP1
    1     2    18    19	 9 ;      CG324      CG311      OG311       HGP1
   40     2    18    19	 9 ;       HGA1      CG311      OG311       HGP1
    4     3     9    10	 9 ;      NG2S1      CG311      CG321     CG2R61
    4     3     9    45	 9 ;      NG2S1      CG311      CG321       HGA2
    4     3     9    46	 9 ;      NG2S1      CG311      CG321       HGA2
    2     3     9    10	 9 ;      CG311      CG311      CG321     CG2R61
    2     3     9    45	 9 ;      CG311      CG311      CG321       HGA2
    2     3     9    46	 9 ;      CG311      CG311      CG321       HGA2
   41     3     9    10	 9 ;       HGA1      CG311      CG321     CG2R61
   41     3     9    45	 9 ;       HGA1      CG311      CG321       HGA2
   41     3     9    46	 9 ;       HGA1      CG311      CG321       HGA2
    9     3     4     8	 9 ;      CG321      CG311      NG2S1       HGP1
    9     3     4     5	 9 ;      CG321      CG311      NG2S1      CG2O1
    2     3     4     8	 9 ;      CG311      CG311      NG2S1       HGP1
    2     3     4     5	 9 ;      CG311      CG311      NG2S1      CG2O1
   41     3     4     8	 9 ;       HGA1      CG311      NG2S1       HGP1
   41     3     4     5	 9 ;       HGA1      CG311      NG2S1      CG2O1
    8     4     5     7	 9 ;       HGP1      NG2S1      CG2O1      CG331
    8     4     5     6	 9 ;       HGP1      NG2S1      CG2O1      OG2D1
    3     4     5     7	 9 ;      CG311      NG2S1      CG2O1      CG331
    3     4     5     6	 9 ;      CG311      NG2S1      CG2O1      OG2D1
    4     5     7    42	 9 ;      NG2S1      CG2O1      CG331       HGA3
    4     5     7    43	 9 ;      NG2S1      CG2O1      CG331       HGA3
    4     5     7    44	 9 ;      NG2S1      CG2O1      CG331       HGA3
    6     5     7    42	 9 ;      OG2D1      CG2O1      CG331       HGA3
    6     5     7    43	 9 ;      OG2D1      CG2O1      CG331       HGA3
    6     5     7    44	 9 ;      OG2D1      CG2O1      CG331       HGA3
    3     9    10    16	 9 ;      CG311      CG321     CG2R61     CG2R61
    3     9    10    11	 9 ;      CG311      CG321     CG2R61     CG2R61
   45     9    10    16	 9 ;       HGA2      CG321     CG2R61     CG2R61
   45     9    10    11	 9 ;       HGA2      CG321     CG2R61     CG2R61
   46     9    10    16	 9 ;       HGA2      CG321     CG2R61     CG2R61
   46     9    10    11	 9 ;       HGA2      CG321     CG2R61     CG2R61
    9    10    16    15	 9 ;      CG321     CG2R61     CG2R61     CG2R66
    9    10    16    49	 9 ;      CG321     CG2R61     CG2R61      HGR62
   11    10    16    15	 9 ;     CG2R61     CG2R61     CG2R61     CG2R66
   11    10    16    49	 9 ;     CG2R61     CG2R61     CG2R61      HGR62
   16    10    11    12	 9 ;     CG2R61     CG2R61     CG2R61     CG2R66
   16    10    11    47	 9 ;     CG2R61     CG2R61     CG2R61      HGR62
    9    10    11    12	 9 ;      CG321     CG2R61     CG2R61     CG2R66
    9    10    11    47	 9 ;      CG321     CG2R61     CG2R61      HGR62
   10    11    12    14	 9 ;     CG2R61     CG2R61     CG2R66     CG2R61
   10    11    12    13	 9 ;     CG2R61     CG2R61     CG2R66       FGR1
   47    11    12    14	 9 ;      HGR62     CG2R61     CG2R66     CG2R61
   47    11    12    13	 9 ;      HGR62     CG2R61     CG2R66       FGR1
   11    12    14    15	 9 ;     CG2R61     CG2R66     CG2R61     CG2R66
   11    12    14    48	 9 ;     CG2R61     CG2R66     CG2R61      HGR62
   13    12    14    15	 9 ;       FGR1     CG2R66     CG2R61     CG2R66
   13    12    14    48	 9 ;       FGR1     CG2R66     CG2R61      HGR62
   12    14    15    17	 9 ;     CG2R66     CG2R61     CG2R66       FGR1
   12    14    15    16	 9 ;     CG2R66     CG2R61     CG2R66     CG2R61
   48    14    15    17	 9 ;      HGR62     CG2R61     CG2R66       FGR1
   48    14    15    16	 9 ;      HGR62     CG2R61     CG2R66     CG2R61
   17    15    16    10	 9 ;       FGR1     CG2R66     CG2R61     CG2R61
   17    15    16    49	 9 ;       FGR1     CG2R66     CG2R61      HGR62
   14    15    16    10	 9 ;     CG2R61     CG2R66     CG2R61     CG2R61
   14    15    16    49	 9 ;     CG2R61     CG2R66     CG2R61      HGR62
   22    20    23    26	 9 ;       HGP2      NG3P2     CG3C31     CG2R61
   22    20    23    24	 9 ;       HGP2      NG3P2     CG3C31     CG3C31
   22    20    23    25	 9 ;       HGP2      NG3P2     CG3C31     CG3C31
   21    20    23    26	 9 ;       HGP2      NG3P2     CG3C31     CG2R61
   21    20    23    24	 9 ;       HGP2      NG3P2     CG3C31     CG3C31
   21    20    23    25	 9 ;       HGP2      NG3P2     CG3C31     CG3C31
    1    20    23    26	 9 ;      CG324      NG3P2     CG3C31     CG2R61
    1    20    23    24	 9 ;      CG324      NG3P2     CG3C31     CG3C31
    1    20    23    25	 9 ;      CG324      NG3P2     CG3C31     CG3C31
   20    23    26    31	 9 ;      NG3P2     CG3C31     CG2R61     CG2R61
   20    23    26    27	 9 ;      NG3P2     CG3C31     CG2R61     CG2R61
   24    23    26    31	 9 ;     CG3C31     CG3C31     CG2R61     CG2R61
   24    23    26    27	 9 ;     CG3C31     CG3C31     CG2R61     CG2R61
   25    23    26    31	 9 ;     CG3C31     CG3C31     CG2R61     CG2R61
   25    23    26    27	 9 ;     CG3C31     CG3C31     CG2R61     CG2R61
   26    23    24    25	 9 ;     CG2R61     CG3C31     CG3C31     CG3C31
   26    23    24    50	 9 ;     CG2R61     CG3C31     CG3C31       HGA2
   26    23    24    51	 9 ;     CG2R61     CG3C31     CG3C31       HGA2
   20    23    24    25	 9 ;      NG3P2     CG3C31     CG3C31     CG3C31
   20    23    24    50	 9 ;      NG3P2     CG3C31     CG3C31       HGA2
   20    23    24    51	 9 ;      NG3P2     CG3C31     CG3C31       HGA2
   25    23    24    50	 9 ;     CG3C31     CG3C31     CG3C31       HGA2
   25    23    24    51	 9 ;     CG3C31     CG3C31     CG3C31       HGA2
   26    23    25    24	 9 ;     CG2R61     CG3C31     CG3C31     CG3C31
   26    23    25    52	 9 ;     CG2R61     CG3C31     CG3C31       HGA2
   26    23    25    53	 9 ;     CG2R61     CG3C31     CG3C31       HGA2
   20    23    25    24	 9 ;      NG3P2     CG3C31     CG3C31     CG3C31
   20    23    25    52	 9 ;      NG3P2     CG3C31     CG3C31       HGA2
   20    23    25    53	 9 ;      NG3P2     CG3C31     CG3C31       HGA2
   24    23    25    52	 9 ;     CG3C31     CG3C31     CG3C31       HGA2
   24    23    25    53	 9 ;     CG3C31     CG3C31     CG3C31       HGA2
   23    24    25    52	 9 ;     CG3C31     CG3C31     CG3C31       HGA2
   23    24    25    53	 9 ;     CG3C31     CG3C31     CG3C31       HGA2
   50    24    25    23	 9 ;       HGA2     CG3C31     CG3C31     CG3C31
   50    24    25    52	 9 ;       HGA2     CG3C31     CG3C31       HGA2
   50    24    25    53	 9 ;       HGA2     CG3C31     CG3C31       HGA2
   51    24    25    23	 9 ;       HGA2     CG3C31     CG3C31     CG3C31
   51    24    25    52	 9 ;       HGA2     CG3C31     CG3C31       HGA2
   51    24    25    53	 9 ;       HGA2     CG3C31     CG3C31       HGA2
   27    26    31    30	 9 ;     CG2R61     CG2R61     CG2R61     CG2R61
   27    26    31    57	 9 ;     CG2R61     CG2R61     CG2R61      HGR61
   23    26    31    30	 9 ;     CG3C31     CG2R61     CG2R61     CG2R61
   23    26    31    57	 9 ;     CG3C31     CG2R61     CG2R61      HGR61
   31    26    27    28	 9 ;     CG2R61     CG2R61     CG2R61     CG2R61
   31    26    27    54	 9 ;     CG2R61     CG2R61     CG2R61      HGR61
   23    26    27    28	 9 ;     CG3C31     CG2R61     CG2R61     CG2R61
   23    26    27    54	 9 ;     CG3C31     CG2R61     CG2R61      HGR61
   26    27    28    29	 9 ;     CG2R61     CG2R61     CG2R61     CG2R61
   26    27    28    32	 9 ;     CG2R61     CG2R61     CG2R61      CG311
   54    27    28    29	 9 ;      HGR61     CG2R61     CG2R61     CG2R61
   54    27    28    32	 9 ;      HGR61     CG2R61     CG2R61      CG311
   32    28    29    30	 9 ;      CG311     CG2R61     CG2R61     CG2R61
   32    28    29    55	 9 ;      CG311     CG2R61     CG2R61      HGR61
   27    28    29    30	 9 ;     CG2R61     CG2R61     CG2R61     CG2R61
   27    28    29    55	 9 ;     CG2R61     CG2R61     CG2R61      HGR61
   29    28    32    37	 9 ;     CG2R61     CG2R61      CG311      CG321
   29    28    32    33	 9 ;     CG2R61     CG2R61      CG311     OG3C61
   29    28    32    58	 9 ;     CG2R61     CG2R61      CG311       HGA1
   27    28    32    37	 9 ;     CG2R61     CG2R61      CG311      CG321
   27    28    32    33	 9 ;     CG2R61     CG2R61      CG311     OG3C61
   27    28    32    58	 9 ;     CG2R61     CG2R61      CG311       HGA1
   28    29    30    31	 9 ;     CG2R61     CG2R61     CG2R61     CG2R61
   28    29    30    56	 9 ;     CG2R61     CG2R61     CG2R61      HGR61
   55    29    30    31	 9 ;      HGR61     CG2R61     CG2R61     CG2R61
   55    29    30    56	 9 ;      HGR61     CG2R61     CG2R61      HGR61
   29    30    31    26	 9 ;     CG2R61     CG2R61     CG2R61     CG2R61
   29    30    31    57	 9 ;     CG2R61     CG2R61     CG2R61      HGR61
   56    30    31    26	 9 ;      HGR61     CG2R61     CG2R61     CG2R61
   56    30    31    57	 9 ;      HGR61     CG2R61     CG2R61      HGR61
   33    32    37    36	 9 ;     OG3C61      CG311      CG321      CG321
   33    32    37    65	 9 ;     OG3C61      CG311      CG321       HGA2
   33    32    37    66	 9 ;     OG3C61      CG311      CG321       HGA2
   28    32    37    36	 9 ;     CG2R61      CG311      CG321      CG321
   28    32    37    65	 9 ;     CG2R61      CG311      CG321       HGA2
   28    32    37    66	 9 ;     CG2R61      CG311      CG321       HGA2
   58    32    37    36	 9 ;       HGA1      CG311      CG321      CG321
   58    32    37    65	 9 ;       HGA1      CG311      CG321       HGA2
   58    32    37    66	 9 ;       HGA1      CG311      CG321       HGA2
   37    32    33    34	 9 ;      CG321      CG311     OG3C61      CG321
   28    32    33    34	 9 ;     CG2R61      CG311     OG3C61      CG321
   58    32    33    34	 9 ;       HGA1      CG311     OG3C61      CG321
   32    33    34    35	 9 ;      CG311     OG3C61      CG321      CG321
   32    33    34    59	 9 ;      CG311     OG3C61      CG321       HGA2
   32    33    34    60	 9 ;      CG311     OG3C61      CG321       HGA2
   33    34    35    36	 9 ;     OG3C61      CG321      CG321      CG321
   33    34    35    61	 9 ;     OG3C61      CG321      CG321       HGA2
   33    34    35    62	 9 ;     OG3C61      CG321      CG321       HGA2
   59    34    35    36	 9 ;       HGA2      CG321      CG321      CG321
   59    34    35    61	 9 ;       HGA2      CG321      CG321       HGA2
   59    34    35    62	 9 ;       HGA2      CG321      CG321       HGA2
   60    34    35    36	 9 ;       HGA2      CG321      CG321      CG321
   60    34    35    61	 9 ;       HGA2      CG321      CG321       HGA2
   60    34    35    62	 9 ;       HGA2      CG321      CG321       HGA2
   34    35    36    37	 9 ;      CG321      CG321      CG321      CG321
   34    35    36    63	 9 ;      CG321      CG321      CG321       HGA2
   34    35    36    64	 9 ;      CG321      CG321      CG321       HGA2
   61    35    36    37	 9 ;       HGA2      CG321      CG321      CG321
   61    35    36    63	 9 ;       HGA2      CG321      CG321       HGA2
   61    35    36    64	 9 ;       HGA2      CG321      CG321       HGA2
   62    35    36    37	 9 ;       HGA2      CG321      CG321      CG321
   62    35    36    63	 9 ;       HGA2      CG321      CG321       HGA2
   62    35    36    64	 9 ;       HGA2      CG321      CG321       HGA2
   35    36    37    32	 9 ;      CG321      CG321      CG321      CG311
   35    36    37    65	 9 ;      CG321      CG321      CG321       HGA2
   35    36    37    66	 9 ;      CG321      CG321      CG321       HGA2
   63    36    37    32	 9 ;       HGA2      CG321      CG321      CG311
   63    36    37    65	 9 ;       HGA2      CG321      CG321       HGA2
   63    36    37    66	 9 ;       HGA2      CG321      CG321       HGA2
   64    36    37    32	 9 ;       HGA2      CG321      CG321      CG311
   64    36    37    65	 9 ;       HGA2      CG321      CG321       HGA2
   64    36    37    66	 9 ;       HGA2      CG321      CG321       HGA2

[ dihedrals ]
;	ai	  aj	ak	  al funct			  c0			c1			  c2			c3
    5     7     4     6	 2

