Gyas ROwers Mature At Cryogenic Speed
   66
    1LIG     C1    1  -1.780   0.689  -1.559
    1LIG     C2    2  -1.660   0.795  -1.545
    1LIG     C3    3  -1.561   0.805  -1.670
    1LIG     N1    4  -1.611   0.880  -1.787
    1LIG     C4    5  -1.635   0.808  -1.904
    1LIG     O1    6  -1.654   0.687  -1.903
    1LIG     C5    7  -1.637   0.888  -2.032
    1LIG     H1    8  -1.576   0.975  -1.801
    1LIG     C6    9  -1.419   0.867  -1.635
    1LIG     C7   10  -1.313   0.762  -1.617
    1LIG     C8   11  -1.313   0.683  -1.502
    1LIG     C9   12  -1.205   0.601  -1.473
    1LIG     F1   13  -1.201   0.535  -1.357
    1LIG    C10   14  -1.097   0.592  -1.561
    1LIG    C11   15  -1.102   0.662  -1.681
    1LIG    C12   16  -1.209   0.746  -1.711
    1LIG     F2   17  -1.000   0.653  -1.766
    1LIG     O2   18  -1.713   0.925  -1.509
    1LIG     H2   19  -1.807   0.928  -1.538
    1LIG     N2   20  -1.740   0.567  -1.646
    1LIG     H3   21  -1.817   0.545  -1.711
    1LIG     H4   22  -1.665   0.602  -1.707
    1LIG    C13   23  -1.690   0.433  -1.590
    1LIG    C14   24  -1.789   0.317  -1.601
    1LIG    C15   25  -1.752   0.371  -1.467
    1LIG    C16   26  -1.542   0.397  -1.622
    1LIG    C17   27  -1.462   0.325  -1.531
    1LIG    C18   28  -1.332   0.276  -1.564
    1LIG    C19   29  -1.275   0.316  -1.685
    1LIG    C20   30  -1.347   0.398  -1.771
    1LIG    C21   31  -1.479   0.436  -1.741
    1LIG    C22   32  -1.267   0.174  -1.470
    1LIG     O3   33  -1.257   0.056  -1.552
    1LIG    C23   34  -1.202  -0.056  -1.485
    1LIG    C24   35  -1.058  -0.027  -1.445
    1LIG    C25   36  -1.054   0.094  -1.353
    1LIG    C26   37  -1.127   0.213  -1.416
    1LIG    HC2   38  -1.808   0.654  -1.459
    1LIG    HC3   39  -1.866   0.739  -1.604
    1LIG     HC   40  -1.600   0.762  -1.460
    1LIG    HC1   41  -1.542   0.703  -1.704
    1LIG    HC4   42  -1.657   0.821  -2.116
    1LIG    HC5   43  -1.541   0.937  -2.046
    1LIG    HC6   44  -1.716   0.963  -2.027
    1LIG    HC7   45  -1.390   0.934  -1.715
    1LIG    HC8   46  -1.428   0.924  -1.543
    1LIG    HC9   47  -1.397   0.687  -1.434
    1LIG   HC10   48  -1.011   0.531  -1.536
    1LIG   HC11   49  -1.212   0.799  -1.805
    1LIG   HC12   50  -1.889   0.334  -1.641
    1LIG   HC13   51  -1.744   0.220  -1.626
    1LIG   HC14   52  -1.825   0.427  -1.409
    1LIG   HC15   53  -1.685   0.308  -1.408
    1LIG   HC16   54  -1.500   0.306  -1.432
    1LIG   HC17   55  -1.176   0.284  -1.711
    1LIG   HC18   56  -1.302   0.432  -1.863
    1LIG   HC19   57  -1.534   0.497  -1.811
    1LIG   HC20   58  -1.334   0.154  -1.386
    1LIG   HC21   59  -1.204  -0.143  -1.552
    1LIG   HC22   60  -1.260  -0.078  -1.396
    1LIG   HC23   61  -1.017  -0.114  -1.393
    1LIG   HC24   62  -0.999  -0.007  -1.535
    1LIG   HC25   63  -0.951   0.122  -1.335
    1LIG   HC26   64  -1.102   0.068  -1.258
    1LIG   HC27   65  -1.139   0.290  -1.341
    1LIG   HC28   66  -1.067   0.252  -1.498
   0.00000   0.00000   0.00000
