GROup of MAchos and Cynical Suckers
   42
    1LIG     C1    1   2.114   3.898  -1.621
    1LIG     O5    2   2.202   3.752  -1.838
    1LIG     C3    3   2.430   3.789  -1.787
    1LIG     C4    4   2.523   3.846  -1.700
    1LIG     C5    5   2.472   3.708  -1.893
    1LIG     C6    6   2.660   3.820  -1.719
    1LIG     C7    7   2.608   3.685  -1.911
    1LIG     C8    8   2.702   3.740  -1.824
    1LIG     C9    9   2.242   3.908  -1.662
    1LIG    C10   10   2.348   4.004  -1.616
    1LIG    C11   11   2.284   3.811  -1.768
    1LIG    C12   12   2.478   3.931  -1.583
    1LIG     N1   13   2.070   3.927  -1.390
    1LIG     O4   14   1.995   4.087  -1.539
    1LIG     C2   15   2.054   3.982  -1.516
    1LIG     H3   16   2.087   3.827  -1.391
    1LIG    C13   17   1.997   3.984  -1.275
    1LIG    C15   18   2.091   4.045  -1.167
    1LIG    C16   19   2.234   4.067  -1.216
    1LIG    C17   20   2.036   4.179  -1.116
    1LIG     O2   21   1.804   3.878  -1.167
    1LIG    C14   22   1.917   3.868  -1.212
    1LIG     O3   23   1.989   3.753  -1.202
    1LIG     H2   24   2.025   3.724  -1.288
    1LIG     O1   25   2.654   3.607  -2.013
    1LIG     H1   26   2.691   3.525  -1.975
    1LIG     H4   27   2.055   3.828  -1.667
    1LIG     H5   28   2.404   3.666  -1.958
    1LIG     H6   29   2.729   3.861  -1.654
    1LIG     H7   30   2.803   3.722  -1.839
    1LIG     H8   31   2.313   4.055  -1.528
    1LIG     H9   32   2.367   4.074  -1.695
    1LIG    H10   33   2.554   4.003  -1.560
    1LIG    H11   34   2.461   3.866  -1.499
    1LIG     HA   35   1.935   4.064  -1.309
    1LIG     HB   36   2.094   3.973  -1.088
    1LIG   HG11   37   2.234   4.139  -1.295
    1LIG   HG12   38   2.274   3.975  -1.252
    1LIG   HG13   39   2.295   4.103  -1.135
    1LIG   HG21   40   2.034   4.250  -1.196
    1LIG   HG22   41   2.099   4.216  -1.038
    1LIG   HG23   42   1.937   4.165  -1.078
   0.00000   0.00000   0.00000
