Great Red Oystrich Makes All Chemists Sane
   31
    1LIG     C1    1  -1.238   0.360  -1.654
    1LIG     C2    2  -1.373   0.423  -1.616
    1LIG     C3    3  -1.423   0.537  -1.704
    1LIG      N    4  -1.314   0.633  -1.743
    1LIG     C4    5  -1.183   0.575  -1.782
    1LIG     C5    6  -1.136   0.472  -1.681
    1LIG     H1    7  -1.300   0.699  -1.665
    1LIG     H2    8  -1.349   0.688  -1.821
    1LIG     C6    9  -1.241   0.247  -1.761
    1LIG     C7   10  -1.156   0.125  -1.734
    1LIG     C8   11  -1.211   0.011  -1.673
    1LIG     C9   12  -1.127  -0.088  -1.621
    1LIG    C10   13  -0.989  -0.074  -1.633
    1LIG      F   14  -0.908  -0.160  -1.571
    1LIG    C11   15  -0.935   0.031  -1.706
    1LIG    C12   16  -1.019   0.128  -1.760
    1LIG     H3   17  -1.206   0.304  -1.570
    1LIG     H4   18  -1.447   0.346  -1.619
    1LIG     H5   19  -1.358   0.466  -1.520
    1LIG     H6   20  -1.465   0.496  -1.794
    1LIG     H7   21  -1.495   0.592  -1.648
    1LIG     H8   22  -1.111   0.654  -1.788
    1LIG     H9   23  -1.194   0.527  -1.877
    1LIG    H10   24  -1.116   0.522  -1.589
    1LIG    H11   25  -1.049   0.426  -1.722
    1LIG    H12   26  -1.343   0.213  -1.770
    1LIG    H13   27  -1.201   0.290  -1.850
    1LIG    H14   28  -1.313   0.000  -1.667
    1LIG    H15   29  -1.167  -0.170  -1.573
    1LIG    H16   30  -0.833   0.037  -1.720
    1LIG    H17   31  -0.979   0.203  -1.819
   0.00000   0.00000   0.00000
