Gnomes, ROck Monsters And Chili Sauce
   29
    1M4-C    O2    1  -0.958   0.041  -1.551
    1M4-C    C2    2  -1.136   0.080  -1.706
    1M4-C    C3    3  -1.055  -0.000  -1.612
    1M4-C    O3    4  -1.313   0.206  -1.874
    1M4-C    C4    5  -1.237   0.422  -1.812
    1M4-C    C5    6  -1.148   0.497  -1.734
    1M4-C    C6    7  -1.321   0.486  -1.905
    1M4-C    C7    8  -1.142   0.636  -1.752
    1M4-C    C8    9  -1.316   0.624  -1.921
    1M4-C    C9   10  -1.226   0.699  -1.845
    1M4-C   C10   11  -1.160   0.211  -1.691
    1M4-C   C11   12  -1.117   0.302  -1.580
    1M4-C   C12   13  -1.243   0.274  -1.799
    1M4-C   C13   14  -1.055   0.430  -1.636
    1M4-C    C1   15  -1.428   0.592  -2.128
    1M4-C    O1   16  -1.402   0.673  -2.015
    1M4-C    O4   17  -1.102  -0.126  -1.602
    1M4-C   H12   18  -1.139  -0.149  -1.515
    1M4-C    H1   19  -1.176   0.032  -1.788
    1M4-C    H2   20  -1.386   0.430  -1.961
    1M4-C    H3   21  -1.076   0.692  -1.697
    1M4-C    H4   22  -1.222   0.801  -1.857
    1M4-C    H5   23  -1.046   0.252  -1.519
    1M4-C    H6   24  -1.203   0.329  -1.522
    1M4-C    H7   25  -1.035   0.497  -1.556
    1M4-C    H8   26  -0.965   0.404  -1.687
    1M4-C    H9   27  -1.497   0.642  -2.193
    1M4-C   H10   28  -1.469   0.499  -2.097
    1M4-C   H11   29  -1.336   0.575  -2.181
   0.00000   0.00000   0.00000
