Great Red Owns Many ACres of Sand 
   87
    1LIG     C1    1  -1.361   0.664  -1.691
    1LIG     N1    2  -1.423   0.557  -1.608
    1LIG     C2    3  -1.549   0.508  -1.635
    1LIG     O1    4  -1.616   0.556  -1.727
    1LIG     H1    5  -1.359   0.494  -1.562
    1LIG     C3    6  -1.600   0.385  -1.555
    1LIG     C4    7  -1.743   0.384  -1.493
    1LIG     C5    8  -1.859   0.357  -1.593
    1LIG     C6    9  -1.824   0.239  -1.687
    1LIG     C7   10  -1.689   0.259  -1.753
    1LIG     C8   11  -1.582   0.261  -1.645
    1LIG     C9   12  -2.004   0.337  -1.534
    1LIG    C10   13  -1.989   0.260  -1.398
    1LIG    C11   14  -2.114   0.176  -1.378
    1LIG    C12   15  -2.185   0.173  -1.511
    1LIG    C13   16  -2.089   0.235  -1.613
    1LIG     N2   17  -2.072   0.465  -1.501
    1LIG    C14   18  -2.115   0.575  -1.569
    1LIG     O2   19  -2.145   0.675  -1.503
    1LIG    C15   20  -2.132   0.572  -1.718
    1LIG     H2   21  -2.068   0.490  -1.402
    1LIG    C16   22  -1.372   0.803  -1.623
    1LIG    C17   23  -1.497   0.887  -1.640
    1LIG    C18   24  -1.614   0.867  -1.565
    1LIG    C19   25  -1.722   0.955  -1.575
    1LIG    C20   26  -1.717   1.062  -1.662
    1LIG    C21   27  -1.604   1.080  -1.742
    1LIG    C22   28  -1.496   0.993  -1.731
    1LIG    C23   29  -1.219   0.618  -1.741
    1LIG    C24   30  -1.199   0.478  -1.805
    1LIG    C25   31  -1.094   0.382  -1.745
    1LIG    C26   32  -1.038   0.291  -1.855
    1LIG    C27   33  -1.148   0.291  -1.634
    1LIG     O3   34  -1.240   0.323  -1.560
    1LIG     N3   35  -1.086   0.168  -1.632
    1LIG     H3   36  -1.002   0.156  -1.687
    1LIG    C28   37  -1.117   0.063  -1.537
    1LIG    C29   38  -1.045   0.078  -1.403
    1LIG    C30   39  -1.037  -0.052  -1.323
    1LIG    C31   40  -1.170  -0.126  -1.322
    1LIG     O4   41  -1.137   0.621  -1.622
    1LIG     H4   42  -1.194   0.599  -1.546
    1LIG     HC   43  -1.423   0.671  -1.781
    1LIG    HC1   44  -1.531   0.372  -1.472
    1LIG    HC2   45  -1.761   0.482  -1.448
    1LIG    HC3   46  -1.747   0.309  -1.414
    1LIG    HC4   47  -1.864   0.445  -1.656
    1LIG    HC5   48  -1.901   0.232  -1.764
    1LIG    HC6   49  -1.822   0.147  -1.630
    1LIG    HC7   50  -1.670   0.178  -1.823
    1LIG    HC8   51  -1.689   0.354  -1.807
    1LIG    HC9   52  -1.484   0.264  -1.691
    1LIG   HC10   53  -1.591   0.171  -1.584
    1LIG   HC11   54  -1.978   0.331  -1.317
    1LIG   HC12   55  -1.901   0.196  -1.403
    1LIG   HC13   56  -2.177   0.221  -1.302
    1LIG   HC14   57  -2.086   0.075  -1.348
    1LIG   HC15   58  -2.208   0.070  -1.539
    1LIG   HC16   59  -2.277   0.231  -1.506
    1LIG   HC17   60  -2.145   0.286  -1.691
    1LIG   HC18   61  -2.025   0.159  -1.656
    1LIG   HC19   62  -2.146   0.673  -1.755
    1LIG   HC20   63  -2.220   0.512  -1.743
    1LIG   HC21   64  -2.044   0.528  -1.764
    1LIG   HC22   65  -1.359   0.787  -1.517
    1LIG   HC23   66  -1.288   0.863  -1.658
    1LIG   HC24   67  -1.620   0.782  -1.498
    1LIG   HC25   68  -1.810   0.939  -1.514
    1LIG   HC26   69  -1.799   1.132  -1.668
    1LIG   HC27   70  -1.601   1.162  -1.814
    1LIG   HC28   71  -1.409   1.008  -1.793
    1LIG   HC29   72  -1.181   0.693  -1.810
    1LIG   HC30   73  -1.295   0.427  -1.801
    1LIG   HC31   74  -1.174   0.493  -1.910
    1LIG   HC32   75  -1.013   0.441  -1.704
    1LIG   HC33   76  -1.046   0.341  -1.952
    1LIG   HC34   77  -1.094   0.198  -1.858
    1LIG   HC35   78  -0.933   0.269  -1.835
    1LIG   HC36   79  -1.225   0.064  -1.518
    1LIG   HC37   80  -1.090  -0.034  -1.580
    1LIG   HC38   81  -0.944   0.114  -1.422
    1LIG   HC39   82  -1.098   0.153  -1.343
    1LIG   HC40   83  -1.009  -0.029  -1.220
    1LIG   HC41   84  -0.961  -0.116  -1.367
    1LIG   HC42   85  -1.174  -0.193  -1.236
    1LIG   HC43   86  -1.179  -0.185  -1.414
    1LIG   HC44   87  -1.252  -0.054  -1.317
   0.00000   0.00000   0.00000
