; Created by cgenff_charmm2gmx.py

[ moleculetype ]
; Name			   nrexcl
LIG				 3

[ atoms ]
;	 nr		  type	resnr residue  atom   cgnr	   charge		mass  typeB    chargeB		massB
; residue	 1 LIG rtp LIG q	qsum
     1      CG324      1    LIG     C1      1      0.236     12.011   ;
     2      CG1T1      1    LIG     C2      2      0.134     12.011   ;
     3      CG1T2      1    LIG     C3      3     -0.409     12.011   ;
     4      NG3P2      1    LIG     N1      4     -0.506     14.007   ;
     5       HGP2      1    LIG     H1      5      0.353      1.008   ;
     6       HGP2      1    LIG     H2      6      0.353      1.008   ;
     7      CG324      1    LIG     C4      7      0.186     12.011   ;
     8      CG311      1    LIG     C5      8      0.094     12.011   ;
     9      CG311      1    LIG     C6      9      0.010     12.011   ;
    10      CG321      1    LIG     C7     10     -0.111     12.011   ;
    11     CG2R61      1    LIG     C8     11     -0.019     12.011   ;
    12     CG2R61      1    LIG     C9     12     -0.123     12.011   ;
    13     CG2R61      1    LIG    C10     13     -0.112     12.011   ;
    14     CG2R61      1    LIG    C11     14     -0.116     12.011   ;
    15     CG2R61      1    LIG    C12     15     -0.112     12.011   ;
    16     CG2R61      1    LIG    C13     16     -0.123     12.011   ;
    17      NG2S1      1    LIG     N2     17     -0.226     14.007   ;
    18      CG2O1      1    LIG    C14     18      0.282     12.011   ;
    19      OG2D1      1    LIG     O1     19     -0.463     15.999   ;
    20       HGP1      1    LIG     H3     20      0.262      1.008   ;
    21     CG2R61      1    LIG    C15     21     -0.156     12.011   ;
    22     CG2R61      1    LIG    C16     22     -0.127     12.011   ;
    23     CG2R61      1    LIG    C17     23      0.215     12.011   ;
    24      OG303      1    LIG     O2     24     -0.221     15.999   ;
    25     CG2RC0      1    LIG    C18     25      0.143     12.011   ;
    26      SG3O2      1    LIG      S     26      0.258     32.060   ;
    27      OG2P1      1    LIG     O3     27     -0.281     15.999   ;
    28      OG2P1      1    LIG     O4     28     -0.281     15.999   ;
    29      CG321      1    LIG    C19     29      0.014     12.011   ;
    30      CG321      1    LIG    C20     30     -0.091     12.011   ;
    31     NG2R51      1    LIG     N3     31      0.000     14.007   ;
    32     CG2R51      1    LIG    C21     32     -0.194     12.011   ;
    33     CG2R51      1    LIG    C22     33     -0.060     12.011   ;
    34     CG2RC0      1    LIG    C23     34      0.153     12.011   ;
    35     CG2R61      1    LIG    C24     35     -0.202     12.011   ;
    36      CG321      1    LIG    C25     36     -0.169     12.011   ;
    37      CG331      1    LIG    C26     37     -0.267     12.011   ;
    38      OG311      1    LIG     O5     38     -0.625     15.999   ;
    39       HGP1      1    LIG     H4     39      0.415      1.008   ;
    40       HGA2      1    LIG    HC2     40      0.090      1.008   ;
    41       HGA2      1    LIG    HC3     41      0.090      1.008   ;
    42     HGPAM1      1    LIG     HC     42      0.291      1.008   ;
    43       HGA2      1    LIG    HC4     43      0.090      1.008   ;
    44       HGA2      1    LIG    HC5     44      0.090      1.008   ;
    45       HGA1      1    LIG    HC1     45      0.090      1.008   ;
    46       HGA1      1    LIG    HC6     46      0.090      1.008   ;
    47       HGA2      1    LIG    HC7     47      0.090      1.008   ;
    48       HGA2      1    LIG    HC8     48      0.090      1.008   ;
    49      HGR61      1    LIG    HC9     49      0.116      1.008   ;
    50      HGR61      1    LIG   HC10     50      0.116      1.008   ;
    51      HGR61      1    LIG   HC11     51      0.116      1.008   ;
    52      HGR61      1    LIG   HC12     52      0.116      1.008   ;
    53      HGR61      1    LIG   HC13     53      0.116      1.008   ;
    54      HGR61      1    LIG   HC14     54      0.134      1.008   ;
    55       HGA2      1    LIG   HC15     55      0.090      1.008   ;
    56       HGA2      1    LIG   HC16     56      0.090      1.008   ;
    57       HGA2      1    LIG   HC17     57      0.090      1.008   ;
    58       HGA2      1    LIG   HC18     58      0.090      1.008   ;
    59      HGR52      1    LIG   HC19     59      0.154      1.008   ;
    60      HGR61      1    LIG   HC20     60      0.197      1.008   ;
    61       HGA2      1    LIG   HC21     61      0.090      1.008   ;
    62       HGA2      1    LIG   HC22     62      0.090      1.008   ;
    63       HGA3      1    LIG   HC23     63      0.090      1.008   ;
    64       HGA3      1    LIG   HC24     64      0.090      1.008   ;
    65       HGA3      1    LIG   HC25     65      0.090      1.008   ;

[ bonds ]
;	ai	  aj funct			  c0			c1			  c2			c3
    1     4	 1 ;       CG324      NG3P2
    1     2	 1 ;       CG324      CG1T1
    1    40	 1 ;       CG324       HGA2
    1    41	 1 ;       CG324       HGA2
    2     3	 1 ;       CG1T1      CG1T2
    3    42	 1 ;       CG1T2     HGPAM1
    4     6	 1 ;       NG3P2       HGP2
    4     5	 1 ;       NG3P2       HGP2
    4     7	 1 ;       NG3P2      CG324
    7     8	 1 ;       CG324      CG311
    7    43	 1 ;       CG324       HGA2
    7    44	 1 ;       CG324       HGA2
    8     9	 1 ;       CG311      CG311
    8    38	 1 ;       CG311      OG311
    8    45	 1 ;       CG311       HGA1
    9    17	 1 ;       CG311      NG2S1
    9    10	 1 ;       CG311      CG321
    9    46	 1 ;       CG311       HGA1
   10    11	 1 ;       CG321     CG2R61
   10    47	 1 ;       CG321       HGA2
   10    48	 1 ;       CG321       HGA2
   11    12	 1 ;      CG2R61     CG2R61
   11    16	 1 ;      CG2R61     CG2R61
   12    13	 1 ;      CG2R61     CG2R61
   12    49	 1 ;      CG2R61      HGR61
   13    14	 1 ;      CG2R61     CG2R61
   13    50	 1 ;      CG2R61      HGR61
   14    15	 1 ;      CG2R61     CG2R61
   14    51	 1 ;      CG2R61      HGR61
   15    16	 1 ;      CG2R61     CG2R61
   15    52	 1 ;      CG2R61      HGR61
   16    53	 1 ;      CG2R61      HGR61
   17    20	 1 ;       NG2S1       HGP1
   17    18	 1 ;       NG2S1      CG2O1
   18    21	 1 ;       CG2O1     CG2R61
   18    19	 1 ;       CG2O1      OG2D1
   21    35	 1 ;      CG2R61     CG2R61
   21    22	 1 ;      CG2R61     CG2R61
   22    23	 1 ;      CG2R61     CG2R61
   22    54	 1 ;      CG2R61      HGR61
   23    25	 1 ;      CG2R61     CG2RC0
   23    24	 1 ;      CG2R61      OG303
   24    26	 1 ;       OG303      SG3O2
   25    31	 1 ;      CG2RC0     NG2R51
   25    34	 1 ;      CG2RC0     CG2RC0
   26    29	 1 ;       SG3O2      CG321
   26    27	 1 ;       SG3O2      OG2P1
   26    28	 1 ;       SG3O2      OG2P1
   29    30	 1 ;       CG321      CG321
   29    55	 1 ;       CG321       HGA2
   29    56	 1 ;       CG321       HGA2
   30    31	 1 ;       CG321     NG2R51
   30    57	 1 ;       CG321       HGA2
   30    58	 1 ;       CG321       HGA2
   31    32	 1 ;      NG2R51     CG2R51
   32    33	 1 ;      CG2R51     CG2R51
   32    59	 1 ;      CG2R51      HGR52
   33    36	 1 ;      CG2R51      CG321
   33    34	 1 ;      CG2R51     CG2RC0
   34    35	 1 ;      CG2RC0     CG2R61
   35    60	 1 ;      CG2R61      HGR61
   36    37	 1 ;       CG321      CG331
   36    61	 1 ;       CG321       HGA2
   36    62	 1 ;       CG321       HGA2
   37    63	 1 ;       CG331       HGA3
   37    64	 1 ;       CG331       HGA3
   37    65	 1 ;       CG331       HGA3
   38    39	 1 ;       OG311       HGP1

[ pairs ]
;	ai	  aj funct			  c0			c1			  c2			c3
    1    42	 1
    1     8	 1
    1    43	 1
    1    44	 1
    2     6	 1
    2     5	 1
    2     7	 1
    3     4	 1
    3    40	 1
    3    41	 1
    4     9	 1
    4    38	 1
    4    45	 1
    5    40	 1
    5    41	 1
    5     8	 1
    5    43	 1
    5    44	 1
    6    40	 1
    6    41	 1
    6     8	 1
    6    43	 1
    6    44	 1
    7    40	 1
    7    41	 1
    7    17	 1
    7    10	 1
    7    46	 1
    7    39	 1
    8    20	 1
    8    18	 1
    8    11	 1
    8    47	 1
    8    48	 1
    9    43	 1
    9    44	 1
    9    39	 1
    9    12	 1
    9    16	 1
    9    21	 1
    9    19	 1
   10    38	 1
   10    45	 1
   10    20	 1
   10    18	 1
   10    13	 1
   10    49	 1
   10    15	 1
   10    53	 1
   11    17	 1
   11    46	 1
   11    14	 1
   11    50	 1
   11    52	 1
   12    47	 1
   12    48	 1
   12    15	 1
   12    53	 1
   12    51	 1
   13    16	 1
   13    52	 1
   14    49	 1
   14    53	 1
   15    50	 1
   16    47	 1
   16    48	 1
   16    49	 1
   16    51	 1
   17    38	 1
   17    45	 1
   17    47	 1
   17    48	 1
   17    35	 1
   17    22	 1
   18    46	 1
   18    34	 1
   18    60	 1
   18    23	 1
   18    54	 1
   19    20	 1
   19    35	 1
   19    22	 1
   20    46	 1
   20    21	 1
   21    25	 1
   21    24	 1
   21    33	 1
   22    34	 1
   22    60	 1
   22    31	 1
   22    26	 1
   23    35	 1
   23    29	 1
   23    27	 1
   23    28	 1
   23    30	 1
   23    32	 1
   23    33	 1
   24    54	 1
   24    31	 1
   24    34	 1
   24    30	 1
   24    55	 1
   24    56	 1
   25    54	 1
   25    26	 1
   25    29	 1
   25    57	 1
   25    58	 1
   25    59	 1
   25    36	 1
   25    60	 1
   26    31	 1
   26    57	 1
   26    58	 1
   27    30	 1
   27    55	 1
   27    56	 1
   28    30	 1
   28    55	 1
   28    56	 1
   29    32	 1
   30    34	 1
   30    33	 1
   30    59	 1
   31    35	 1
   31    55	 1
   31    56	 1
   31    36	 1
   32    57	 1
   32    58	 1
   32    37	 1
   32    61	 1
   32    62	 1
   32    35	 1
   33    60	 1
   33    63	 1
   33    64	 1
   33    65	 1
   34    59	 1
   34    37	 1
   34    61	 1
   34    62	 1
   35    54	 1
   35    36	 1
   36    59	 1
   38    43	 1
   38    44	 1
   38    46	 1
   39    45	 1
   43    45	 1
   44    45	 1
   45    46	 1
   46    47	 1
   46    48	 1
   49    50	 1
   50    51	 1
   51    52	 1
   52    53	 1
   55    57	 1
   55    58	 1
   56    57	 1
   56    58	 1
   61    63	 1
   61    64	 1
   61    65	 1
   62    63	 1
   62    64	 1
   62    65	 1

[ angles ]
;	ai	  aj	ak funct			c0			  c1			c2			  c3
    4     1     2	5 ;      NG3P2      CG324      CG1T1
    4     1    40	5 ;      NG3P2      CG324       HGA2
    4     1    41	5 ;      NG3P2      CG324       HGA2
    2     1    40	5 ;      CG1T1      CG324       HGA2
    2     1    41	5 ;      CG1T1      CG324       HGA2
   40     1    41	5 ;       HGA2      CG324       HGA2
    1     2     3	5 ;      CG324      CG1T1      CG1T2
    2     3    42	5 ;      CG1T1      CG1T2     HGPAM1
    6     4     5	5 ;       HGP2      NG3P2       HGP2
    6     4     7	5 ;       HGP2      NG3P2      CG324
    6     4     1	5 ;       HGP2      NG3P2      CG324
    5     4     7	5 ;       HGP2      NG3P2      CG324
    5     4     1	5 ;       HGP2      NG3P2      CG324
    7     4     1	5 ;      CG324      NG3P2      CG324
    4     7     8	5 ;      NG3P2      CG324      CG311
    4     7    43	5 ;      NG3P2      CG324       HGA2
    4     7    44	5 ;      NG3P2      CG324       HGA2
    8     7    43	5 ;      CG311      CG324       HGA2
    8     7    44	5 ;      CG311      CG324       HGA2
   43     7    44	5 ;       HGA2      CG324       HGA2
    7     8     9	5 ;      CG324      CG311      CG311
    7     8    38	5 ;      CG324      CG311      OG311
    7     8    45	5 ;      CG324      CG311       HGA1
    9     8    38	5 ;      CG311      CG311      OG311
    9     8    45	5 ;      CG311      CG311       HGA1
   38     8    45	5 ;      OG311      CG311       HGA1
   17     9    10	5 ;      NG2S1      CG311      CG321
   17     9     8	5 ;      NG2S1      CG311      CG311
   17     9    46	5 ;      NG2S1      CG311       HGA1
   10     9     8	5 ;      CG321      CG311      CG311
   10     9    46	5 ;      CG321      CG311       HGA1
    8     9    46	5 ;      CG311      CG311       HGA1
    9    10    11	5 ;      CG311      CG321     CG2R61
    9    10    47	5 ;      CG311      CG321       HGA2
    9    10    48	5 ;      CG311      CG321       HGA2
   11    10    47	5 ;     CG2R61      CG321       HGA2
   11    10    48	5 ;     CG2R61      CG321       HGA2
   47    10    48	5 ;       HGA2      CG321       HGA2
   10    11    12	5 ;      CG321     CG2R61     CG2R61
   10    11    16	5 ;      CG321     CG2R61     CG2R61
   12    11    16	5 ;     CG2R61     CG2R61     CG2R61
   11    12    13	5 ;     CG2R61     CG2R61     CG2R61
   11    12    49	5 ;     CG2R61     CG2R61      HGR61
   13    12    49	5 ;     CG2R61     CG2R61      HGR61
   12    13    14	5 ;     CG2R61     CG2R61     CG2R61
   12    13    50	5 ;     CG2R61     CG2R61      HGR61
   14    13    50	5 ;     CG2R61     CG2R61      HGR61
   13    14    15	5 ;     CG2R61     CG2R61     CG2R61
   13    14    51	5 ;     CG2R61     CG2R61      HGR61
   15    14    51	5 ;     CG2R61     CG2R61      HGR61
   16    15    14	5 ;     CG2R61     CG2R61     CG2R61
   16    15    52	5 ;     CG2R61     CG2R61      HGR61
   14    15    52	5 ;     CG2R61     CG2R61      HGR61
   11    16    15	5 ;     CG2R61     CG2R61     CG2R61
   11    16    53	5 ;     CG2R61     CG2R61      HGR61
   15    16    53	5 ;     CG2R61     CG2R61      HGR61
   20    17    18	5 ;       HGP1      NG2S1      CG2O1
   20    17     9	5 ;       HGP1      NG2S1      CG311
   18    17     9	5 ;      CG2O1      NG2S1      CG311
   21    18    17	5 ;     CG2R61      CG2O1      NG2S1
   21    18    19	5 ;     CG2R61      CG2O1      OG2D1
   17    18    19	5 ;      NG2S1      CG2O1      OG2D1
   35    21    22	5 ;     CG2R61     CG2R61     CG2R61
   35    21    18	5 ;     CG2R61     CG2R61      CG2O1
   22    21    18	5 ;     CG2R61     CG2R61      CG2O1
   23    22    21	5 ;     CG2R61     CG2R61     CG2R61
   23    22    54	5 ;     CG2R61     CG2R61      HGR61
   21    22    54	5 ;     CG2R61     CG2R61      HGR61
   25    23    24	5 ;     CG2RC0     CG2R61      OG303
   25    23    22	5 ;     CG2RC0     CG2R61     CG2R61
   24    23    22	5 ;      OG303     CG2R61     CG2R61
   26    24    23	5 ;      SG3O2      OG303     CG2R61
   31    25    34	5 ;     NG2R51     CG2RC0     CG2RC0
   31    25    23	5 ;     NG2R51     CG2RC0     CG2R61
   34    25    23	5 ;     CG2RC0     CG2RC0     CG2R61
   29    26    27	5 ;      CG321      SG3O2      OG2P1
   29    26    28	5 ;      CG321      SG3O2      OG2P1
   29    26    24	5 ;      CG321      SG3O2      OG303
   27    26    28	5 ;      OG2P1      SG3O2      OG2P1
   27    26    24	5 ;      OG2P1      SG3O2      OG303
   28    26    24	5 ;      OG2P1      SG3O2      OG303
   30    29    26	5 ;      CG321      CG321      SG3O2
   30    29    55	5 ;      CG321      CG321       HGA2
   30    29    56	5 ;      CG321      CG321       HGA2
   26    29    55	5 ;      SG3O2      CG321       HGA2
   26    29    56	5 ;      SG3O2      CG321       HGA2
   55    29    56	5 ;       HGA2      CG321       HGA2
   29    30    31	5 ;      CG321      CG321     NG2R51
   29    30    57	5 ;      CG321      CG321       HGA2
   29    30    58	5 ;      CG321      CG321       HGA2
   31    30    57	5 ;     NG2R51      CG321       HGA2
   31    30    58	5 ;     NG2R51      CG321       HGA2
   57    30    58	5 ;       HGA2      CG321       HGA2
   30    31    32	5 ;      CG321     NG2R51     CG2R51
   30    31    25	5 ;      CG321     NG2R51     CG2RC0
   32    31    25	5 ;     CG2R51     NG2R51     CG2RC0
   31    32    33	5 ;     NG2R51     CG2R51     CG2R51
   31    32    59	5 ;     NG2R51     CG2R51      HGR52
   33    32    59	5 ;     CG2R51     CG2R51      HGR52
   32    33    36	5 ;     CG2R51     CG2R51      CG321
   32    33    34	5 ;     CG2R51     CG2R51     CG2RC0
   36    33    34	5 ;      CG321     CG2R51     CG2RC0
   33    34    25	5 ;     CG2R51     CG2RC0     CG2RC0
   33    34    35	5 ;     CG2R51     CG2RC0     CG2R61
   25    34    35	5 ;     CG2RC0     CG2RC0     CG2R61
   34    35    21	5 ;     CG2RC0     CG2R61     CG2R61
   34    35    60	5 ;     CG2RC0     CG2R61      HGR61
   21    35    60	5 ;     CG2R61     CG2R61      HGR61
   33    36    37	5 ;     CG2R51      CG321      CG331
   33    36    61	5 ;     CG2R51      CG321       HGA2
   33    36    62	5 ;     CG2R51      CG321       HGA2
   37    36    61	5 ;      CG331      CG321       HGA2
   37    36    62	5 ;      CG331      CG321       HGA2
   61    36    62	5 ;       HGA2      CG321       HGA2
   36    37    63	5 ;      CG321      CG331       HGA3
   36    37    64	5 ;      CG321      CG331       HGA3
   36    37    65	5 ;      CG321      CG331       HGA3
   63    37    64	5 ;       HGA3      CG331       HGA3
   63    37    65	5 ;       HGA3      CG331       HGA3
   64    37    65	5 ;       HGA3      CG331       HGA3
    8    38    39	5 ;      CG311      OG311       HGP1

[ dihedrals ]
;	ai	  aj	ak	  al funct			  c0			c1			  c2			c3			  c4			c5
    2     1     4     6	 9 ;      CG1T1      CG324      NG3P2       HGP2
    2     1     4     5	 9 ;      CG1T1      CG324      NG3P2       HGP2
    2     1     4     7	 9 ;      CG1T1      CG324      NG3P2      CG324
   40     1     4     6	 9 ;       HGA2      CG324      NG3P2       HGP2
   40     1     4     5	 9 ;       HGA2      CG324      NG3P2       HGP2
   40     1     4     7	 9 ;       HGA2      CG324      NG3P2      CG324
   41     1     4     6	 9 ;       HGA2      CG324      NG3P2       HGP2
   41     1     4     5	 9 ;       HGA2      CG324      NG3P2       HGP2
   41     1     4     7	 9 ;       HGA2      CG324      NG3P2      CG324
    6     4     7     8	 9 ;       HGP2      NG3P2      CG324      CG311
    6     4     7    43	 9 ;       HGP2      NG3P2      CG324       HGA2
    6     4     7    44	 9 ;       HGP2      NG3P2      CG324       HGA2
    5     4     7     8	 9 ;       HGP2      NG3P2      CG324      CG311
    5     4     7    43	 9 ;       HGP2      NG3P2      CG324       HGA2
    5     4     7    44	 9 ;       HGP2      NG3P2      CG324       HGA2
    1     4     7     8	 9 ;      CG324      NG3P2      CG324      CG311
    1     4     7    43	 9 ;      CG324      NG3P2      CG324       HGA2
    1     4     7    44	 9 ;      CG324      NG3P2      CG324       HGA2
    4     7     8     9	 9 ;      NG3P2      CG324      CG311      CG311
    4     7     8    38	 9 ;      NG3P2      CG324      CG311      OG311
    4     7     8    45	 9 ;      NG3P2      CG324      CG311       HGA1
   43     7     8     9	 9 ;       HGA2      CG324      CG311      CG311
   43     7     8    38	 9 ;       HGA2      CG324      CG311      OG311
   43     7     8    45	 9 ;       HGA2      CG324      CG311       HGA1
   44     7     8     9	 9 ;       HGA2      CG324      CG311      CG311
   44     7     8    38	 9 ;       HGA2      CG324      CG311      OG311
   44     7     8    45	 9 ;       HGA2      CG324      CG311       HGA1
    7     8     9    17	 9 ;      CG324      CG311      CG311      NG2S1
    7     8     9    10	 9 ;      CG324      CG311      CG311      CG321
    7     8     9    46	 9 ;      CG324      CG311      CG311       HGA1
   38     8     9    17	 9 ;      OG311      CG311      CG311      NG2S1
   38     8     9    10	 9 ;      OG311      CG311      CG311      CG321
   38     8     9    46	 9 ;      OG311      CG311      CG311       HGA1
   45     8     9    17	 9 ;       HGA1      CG311      CG311      NG2S1
   45     8     9    10	 9 ;       HGA1      CG311      CG311      CG321
   45     8     9    46	 9 ;       HGA1      CG311      CG311       HGA1
    7     8    38    39	 9 ;      CG324      CG311      OG311       HGP1
    9     8    38    39	 9 ;      CG311      CG311      OG311       HGP1
   45     8    38    39	 9 ;       HGA1      CG311      OG311       HGP1
   10     9    17    20	 9 ;      CG321      CG311      NG2S1       HGP1
   10     9    17    18	 9 ;      CG321      CG311      NG2S1      CG2O1
    8     9    17    20	 9 ;      CG311      CG311      NG2S1       HGP1
    8     9    17    18	 9 ;      CG311      CG311      NG2S1      CG2O1
   46     9    17    20	 9 ;       HGA1      CG311      NG2S1       HGP1
   46     9    17    18	 9 ;       HGA1      CG311      NG2S1      CG2O1
   17     9    10    11	 9 ;      NG2S1      CG311      CG321     CG2R61
   17     9    10    47	 9 ;      NG2S1      CG311      CG321       HGA2
   17     9    10    48	 9 ;      NG2S1      CG311      CG321       HGA2
    8     9    10    11	 9 ;      CG311      CG311      CG321     CG2R61
    8     9    10    47	 9 ;      CG311      CG311      CG321       HGA2
    8     9    10    48	 9 ;      CG311      CG311      CG321       HGA2
   46     9    10    11	 9 ;       HGA1      CG311      CG321     CG2R61
   46     9    10    47	 9 ;       HGA1      CG311      CG321       HGA2
   46     9    10    48	 9 ;       HGA1      CG311      CG321       HGA2
    9    10    11    12	 9 ;      CG311      CG321     CG2R61     CG2R61
    9    10    11    16	 9 ;      CG311      CG321     CG2R61     CG2R61
   47    10    11    12	 9 ;       HGA2      CG321     CG2R61     CG2R61
   47    10    11    16	 9 ;       HGA2      CG321     CG2R61     CG2R61
   48    10    11    12	 9 ;       HGA2      CG321     CG2R61     CG2R61
   48    10    11    16	 9 ;       HGA2      CG321     CG2R61     CG2R61
   10    11    12    13	 9 ;      CG321     CG2R61     CG2R61     CG2R61
   10    11    12    49	 9 ;      CG321     CG2R61     CG2R61      HGR61
   16    11    12    13	 9 ;     CG2R61     CG2R61     CG2R61     CG2R61
   16    11    12    49	 9 ;     CG2R61     CG2R61     CG2R61      HGR61
   10    11    16    15	 9 ;      CG321     CG2R61     CG2R61     CG2R61
   10    11    16    53	 9 ;      CG321     CG2R61     CG2R61      HGR61
   12    11    16    15	 9 ;     CG2R61     CG2R61     CG2R61     CG2R61
   12    11    16    53	 9 ;     CG2R61     CG2R61     CG2R61      HGR61
   11    12    13    14	 9 ;     CG2R61     CG2R61     CG2R61     CG2R61
   11    12    13    50	 9 ;     CG2R61     CG2R61     CG2R61      HGR61
   49    12    13    14	 9 ;      HGR61     CG2R61     CG2R61     CG2R61
   49    12    13    50	 9 ;      HGR61     CG2R61     CG2R61      HGR61
   12    13    14    15	 9 ;     CG2R61     CG2R61     CG2R61     CG2R61
   12    13    14    51	 9 ;     CG2R61     CG2R61     CG2R61      HGR61
   50    13    14    15	 9 ;      HGR61     CG2R61     CG2R61     CG2R61
   50    13    14    51	 9 ;      HGR61     CG2R61     CG2R61      HGR61
   13    14    15    16	 9 ;     CG2R61     CG2R61     CG2R61     CG2R61
   13    14    15    52	 9 ;     CG2R61     CG2R61     CG2R61      HGR61
   51    14    15    16	 9 ;      HGR61     CG2R61     CG2R61     CG2R61
   51    14    15    52	 9 ;      HGR61     CG2R61     CG2R61      HGR61
   14    15    16    11	 9 ;     CG2R61     CG2R61     CG2R61     CG2R61
   14    15    16    53	 9 ;     CG2R61     CG2R61     CG2R61      HGR61
   52    15    16    11	 9 ;      HGR61     CG2R61     CG2R61     CG2R61
   52    15    16    53	 9 ;      HGR61     CG2R61     CG2R61      HGR61
   20    17    18    21	 9 ;       HGP1      NG2S1      CG2O1     CG2R61
   20    17    18    19	 9 ;       HGP1      NG2S1      CG2O1      OG2D1
    9    17    18    21	 9 ;      CG311      NG2S1      CG2O1     CG2R61
    9    17    18    19	 9 ;      CG311      NG2S1      CG2O1      OG2D1
   17    18    21    35	 9 ;      NG2S1      CG2O1     CG2R61     CG2R61
   17    18    21    22	 9 ;      NG2S1      CG2O1     CG2R61     CG2R61
   19    18    21    35	 9 ;      OG2D1      CG2O1     CG2R61     CG2R61
   19    18    21    22	 9 ;      OG2D1      CG2O1     CG2R61     CG2R61
   22    21    35    34	 9 ;     CG2R61     CG2R61     CG2R61     CG2RC0
   22    21    35    60	 9 ;     CG2R61     CG2R61     CG2R61      HGR61
   18    21    35    34	 9 ;      CG2O1     CG2R61     CG2R61     CG2RC0
   18    21    35    60	 9 ;      CG2O1     CG2R61     CG2R61      HGR61
   35    21    22    23	 9 ;     CG2R61     CG2R61     CG2R61     CG2R61
   35    21    22    54	 9 ;     CG2R61     CG2R61     CG2R61      HGR61
   18    21    22    23	 9 ;      CG2O1     CG2R61     CG2R61     CG2R61
   18    21    22    54	 9 ;      CG2O1     CG2R61     CG2R61      HGR61
   21    22    23    25	 9 ;     CG2R61     CG2R61     CG2R61     CG2RC0
   21    22    23    24	 9 ;     CG2R61     CG2R61     CG2R61      OG303
   54    22    23    25	 9 ;      HGR61     CG2R61     CG2R61     CG2RC0
   54    22    23    24	 9 ;      HGR61     CG2R61     CG2R61      OG303
   24    23    25    31	 9 ;      OG303     CG2R61     CG2RC0     NG2R51
   24    23    25    34	 9 ;      OG303     CG2R61     CG2RC0     CG2RC0
   22    23    25    31	 9 ;     CG2R61     CG2R61     CG2RC0     NG2R51
   22    23    25    34	 9 ;     CG2R61     CG2R61     CG2RC0     CG2RC0
   25    23    24    26	 9 ;     CG2RC0     CG2R61      OG303      SG3O2
   22    23    24    26	 9 ;     CG2R61     CG2R61      OG303      SG3O2
   23    24    26    29	 9 ;     CG2R61      OG303      SG3O2      CG321
   23    24    26    27	 9 ;     CG2R61      OG303      SG3O2      OG2P1
   23    24    26    28	 9 ;     CG2R61      OG303      SG3O2      OG2P1
   34    25    31    30	 9 ;     CG2RC0     CG2RC0     NG2R51      CG321
   34    25    31    32	 9 ;     CG2RC0     CG2RC0     NG2R51     CG2R51
   23    25    31    30	 9 ;     CG2R61     CG2RC0     NG2R51      CG321
   23    25    31    32	 9 ;     CG2R61     CG2RC0     NG2R51     CG2R51
   31    25    34    33	 9 ;     NG2R51     CG2RC0     CG2RC0     CG2R51
   31    25    34    35	 9 ;     NG2R51     CG2RC0     CG2RC0     CG2R61
   23    25    34    33	 9 ;     CG2R61     CG2RC0     CG2RC0     CG2R51
   23    25    34    35	 9 ;     CG2R61     CG2RC0     CG2RC0     CG2R61
   27    26    29    30	 9 ;      OG2P1      SG3O2      CG321      CG321
   27    26    29    55	 9 ;      OG2P1      SG3O2      CG321       HGA2
   27    26    29    56	 9 ;      OG2P1      SG3O2      CG321       HGA2
   28    26    29    30	 9 ;      OG2P1      SG3O2      CG321      CG321
   28    26    29    55	 9 ;      OG2P1      SG3O2      CG321       HGA2
   28    26    29    56	 9 ;      OG2P1      SG3O2      CG321       HGA2
   24    26    29    30	 9 ;      OG303      SG3O2      CG321      CG321
   24    26    29    55	 9 ;      OG303      SG3O2      CG321       HGA2
   24    26    29    56	 9 ;      OG303      SG3O2      CG321       HGA2
   26    29    30    31	 9 ;      SG3O2      CG321      CG321     NG2R51
   26    29    30    57	 9 ;      SG3O2      CG321      CG321       HGA2
   26    29    30    58	 9 ;      SG3O2      CG321      CG321       HGA2
   55    29    30    31	 9 ;       HGA2      CG321      CG321     NG2R51
   55    29    30    57	 9 ;       HGA2      CG321      CG321       HGA2
   55    29    30    58	 9 ;       HGA2      CG321      CG321       HGA2
   56    29    30    31	 9 ;       HGA2      CG321      CG321     NG2R51
   56    29    30    57	 9 ;       HGA2      CG321      CG321       HGA2
   56    29    30    58	 9 ;       HGA2      CG321      CG321       HGA2
   29    30    31    32	 9 ;      CG321      CG321     NG2R51     CG2R51
   29    30    31    25	 9 ;      CG321      CG321     NG2R51     CG2RC0
   57    30    31    32	 9 ;       HGA2      CG321     NG2R51     CG2R51
   57    30    31    25	 9 ;       HGA2      CG321     NG2R51     CG2RC0
   58    30    31    32	 9 ;       HGA2      CG321     NG2R51     CG2R51
   58    30    31    25	 9 ;       HGA2      CG321     NG2R51     CG2RC0
   30    31    32    33	 9 ;      CG321     NG2R51     CG2R51     CG2R51
   30    31    32    59	 9 ;      CG321     NG2R51     CG2R51      HGR52
   25    31    32    33	 9 ;     CG2RC0     NG2R51     CG2R51     CG2R51
   25    31    32    59	 9 ;     CG2RC0     NG2R51     CG2R51      HGR52
   31    32    33    36	 9 ;     NG2R51     CG2R51     CG2R51      CG321
   31    32    33    34	 9 ;     NG2R51     CG2R51     CG2R51     CG2RC0
   59    32    33    36	 9 ;      HGR52     CG2R51     CG2R51      CG321
   59    32    33    34	 9 ;      HGR52     CG2R51     CG2R51     CG2RC0
   32    33    36    37	 9 ;     CG2R51     CG2R51      CG321      CG331
   32    33    36    61	 9 ;     CG2R51     CG2R51      CG321       HGA2
   32    33    36    62	 9 ;     CG2R51     CG2R51      CG321       HGA2
   34    33    36    37	 9 ;     CG2RC0     CG2R51      CG321      CG331
   34    33    36    61	 9 ;     CG2RC0     CG2R51      CG321       HGA2
   34    33    36    62	 9 ;     CG2RC0     CG2R51      CG321       HGA2
   32    33    34    25	 9 ;     CG2R51     CG2R51     CG2RC0     CG2RC0
   32    33    34    35	 9 ;     CG2R51     CG2R51     CG2RC0     CG2R61
   36    33    34    25	 9 ;      CG321     CG2R51     CG2RC0     CG2RC0
   36    33    34    35	 9 ;      CG321     CG2R51     CG2RC0     CG2R61
   33    34    35    21	 9 ;     CG2R51     CG2RC0     CG2R61     CG2R61
   33    34    35    60	 9 ;     CG2R51     CG2RC0     CG2R61      HGR61
   25    34    35    21	 9 ;     CG2RC0     CG2RC0     CG2R61     CG2R61
   25    34    35    60	 9 ;     CG2RC0     CG2RC0     CG2R61      HGR61
   33    36    37    63	 9 ;     CG2R51      CG321      CG331       HGA3
   33    36    37    64	 9 ;     CG2R51      CG321      CG331       HGA3
   33    36    37    65	 9 ;     CG2R51      CG321      CG331       HGA3
   61    36    37    63	 9 ;       HGA2      CG321      CG331       HGA3
   61    36    37    64	 9 ;       HGA2      CG321      CG331       HGA3
   61    36    37    65	 9 ;       HGA2      CG321      CG331       HGA3
   62    36    37    63	 9 ;       HGA2      CG321      CG331       HGA3
   62    36    37    64	 9 ;       HGA2      CG321      CG331       HGA3
   62    36    37    65	 9 ;       HGA2      CG321      CG331       HGA3

[ dihedrals ]
;	ai	  aj	ak	  al funct			  c0			c1			  c2			c3
   18    21    17    19	 2

