Grunge ROck MAChoS
   65
    1LIG     C1    1  -1.298  -0.001  -1.354
    1LIG     C2    2  -1.259  -0.054  -1.222
    1LIG     C3    3  -1.221  -0.091  -1.115
    1LIG     N1    4  -1.188   0.091  -1.391
    1LIG     H1    5  -1.207   0.130  -1.485
    1LIG     H2    6  -1.104   0.035  -1.405
    1LIG     C4    7  -1.153   0.211  -1.305
    1LIG     C5    8  -1.282   0.296  -1.311
    1LIG     C6    9  -1.304   0.392  -1.431
    1LIG     C7   10  -1.399   0.320  -1.532
    1LIG     C8   11  -1.548   0.349  -1.522
    1LIG     C9   12  -1.638   0.262  -1.586
    1LIG    C10   13  -1.776   0.280  -1.574
    1LIG    C11   14  -1.824   0.384  -1.497
    1LIG    C12   15  -1.737   0.472  -1.433
    1LIG    C13   16  -1.599   0.454  -1.445
    1LIG     N2   17  -1.178   0.421  -1.501
    1LIG    C14   18  -1.138   0.546  -1.542
    1LIG     O1   19  -1.197   0.647  -1.504
    1LIG     H3   20  -1.136   0.342  -1.547
    1LIG    C15   21  -1.015   0.554  -1.629
    1LIG    C16   22  -0.920   0.655  -1.607
    1LIG    C17   23  -0.801   0.655  -1.679
    1LIG     O2   24  -0.717   0.764  -1.681
    1LIG    C18   25  -0.769   0.543  -1.756
    1LIG      S   26  -0.684   0.829  -1.830
    1LIG     O3   27  -0.631   0.962  -1.810
    1LIG     O4   28  -0.797   0.807  -1.918
    1LIG    C19   29  -0.548   0.725  -1.885
    1LIG    C20   30  -0.533   0.593  -1.812
    1LIG     N3   31  -0.652   0.511  -1.820
    1LIG    C21   32  -0.666   0.394  -1.888
    1LIG    C22   33  -0.798   0.352  -1.875
    1LIG    C23   34  -0.862   0.445  -1.786
    1LIG    C24   35  -0.990   0.457  -1.729
    1LIG    C25   36  -0.856   0.229  -1.936
    1LIG    C26   37  -0.888   0.121  -1.834
    1LIG     O5   38  -1.288   0.363  -1.182
    1LIG     H4   39  -1.248   0.307  -1.114
    1LIG    HC2   40  -1.306  -0.082  -1.426
    1LIG    HC3   41  -1.392   0.053  -1.347
    1LIG     HC   42  -1.187  -0.124  -1.020
    1LIG    HC4   43  -1.069   0.266  -1.346
    1LIG    HC5   44  -1.133   0.180  -1.203
    1LIG    HC1   45  -1.365   0.226  -1.312
    1LIG    HC6   46  -1.350   0.484  -1.396
    1LIG    HC7   47  -1.386   0.213  -1.519
    1LIG    HC8   48  -1.367   0.346  -1.633
    1LIG    HC9   49  -1.599   0.180  -1.646
    1LIG   HC10   50  -1.844   0.212  -1.623
    1LIG   HC11   51  -1.931   0.398  -1.487
    1LIG   HC12   52  -1.775   0.553  -1.374
    1LIG   HC13   53  -1.531   0.521  -1.394
    1LIG   HC14   54  -0.940   0.733  -1.534
    1LIG   HC15   55  -0.563   0.702  -1.991
    1LIG   HC16   56  -0.455   0.781  -1.875
    1LIG   HC17   57  -0.449   0.538  -1.855
    1LIG   HC18   58  -0.511   0.613  -1.707
    1LIG   HC19   59  -0.589   0.343  -1.944
    1LIG   HC20   60  -1.070   0.391  -1.762
    1LIG   HC21   61  -0.785   0.189  -2.008
    1LIG   HC22   62  -0.948   0.256  -1.988
    1LIG   HC23   63  -0.931   0.034  -1.885
    1LIG   HC24   64  -0.797   0.091  -1.783
    1LIG   HC25   65  -0.960   0.159  -1.762
   0.00000   0.00000   0.00000
