GRowing Old MAkes el Chrono Sweat
   45
    1LIG     C1    1   8.541   1.728   9.503
    1LIG     O5    2   8.660   1.479   9.500
    1LIG     C3    3   8.536   1.409   9.311
    1LIG     C4    4   8.441   1.443   9.212
    1LIG     C5    5   8.606   1.288   9.304
    1LIG     C6    6   8.421   1.354   9.106
    1LIG     C7    7   8.582   1.199   9.200
    1LIG     C8    8   8.489   1.232   9.101
    1LIG     C9    9   8.486   1.627   9.433
    1LIG    C10   10   8.352   1.620   9.367
    1LIG    C11   11   8.569   1.503   9.422
    1LIG    C12   12   8.366   1.574   9.222
    1LIG     N1   13   8.377   1.857   9.616
    1LIG     O4   14   8.515   1.962   9.465
    1LIG     C2   15   8.479   1.861   9.524
    1LIG     H2   16   8.338   1.767   9.639
    1LIG    C13   17   8.290   1.974   9.636
    1LIG    C15   18   8.237   1.979   9.781
    1LIG    C16   19   8.353   1.969   9.882
    1LIG    C17   20   8.158   2.108   9.809
    1LIG     O2   21   8.086   1.875   9.545
    1LIG    C14   22   8.175   1.959   9.536
    1LIG     O3   23   8.183   2.053   9.438
    1LIG    C18   24   8.195   1.999   9.306
    1LIG     O1   25   8.336   1.378   9.003
    1LIG     H1   26   8.347   1.470   8.972
    1LIG     H3   27   8.634   1.711   9.546
    1LIG     H4   28   8.675   1.264   9.376
    1LIG     H5   29   8.632   1.108   9.196
    1LIG     H6   30   8.471   1.167   9.023
    1LIG     H7   31   8.290   1.551   9.420
    1LIG     H8   32   8.309   1.718   9.367
    1LIG     H9   33   8.269   1.561   9.180
    1LIG    H10   34   8.422   1.648   9.168
    1LIG    H11   35   8.343   2.065   9.620
    1LIG    H12   36   8.172   1.895   9.792
    1LIG    H13   37   8.418   2.053   9.870
    1LIG    H14   38   8.407   1.878   9.864
    1LIG    H15   39   8.313   1.968   9.981
    1LIG    H16   40   8.223   2.192   9.797
    1LIG    H17   41   8.120   2.105   9.908
    1LIG    H18   42   8.077   2.115   9.739
    1LIG    H19   43   8.201   2.079   9.235
    1LIG    H20   44   8.109   1.939   9.284
    1LIG    H21   45   8.284   1.940   9.300
   0.00000   0.00000   0.00000
