Great Red Oystrich Makes All Chemists Sane
   52
    1LIG     O1    1  -1.603   0.724  -1.595
    1LIG     C1    2  -1.543   0.600  -1.600
    1LIG     C2    3  -1.526   0.521  -1.488
    1LIG     C3    4  -1.423   0.422  -1.494
    1LIG     C4    5  -1.368   0.376  -1.613
    1LIG     C5    6  -1.404   0.444  -1.729
    1LIG     C6    7  -1.487   0.559  -1.721
    1LIG     C7    8  -1.601   0.549  -1.358
    1LIG     N1    9  -1.750   0.528  -1.339
    1LIG     HN   10  -1.825   0.587  -1.375
    1LIG     C8   11  -1.763   0.420  -1.270
    1LIG     N2   12  -1.656   0.339  -1.274
    1LIG     C9   13  -1.670   0.268  -1.404
    1LIG    C10   14  -1.560   0.438  -1.258
    1LIG     O2   15  -1.480   0.449  -1.167
    1LIG    C11   16  -1.589   0.700  -1.343
    1LIG    C12   17  -1.662   0.765  -1.468
    1LIG    C13   18  -1.814   0.735  -1.483
    1LIG    C14   19  -1.651   0.918  -1.458
    1LIG     N3   20  -1.283   0.262  -1.619
    1LIG    C15   21  -1.145   0.260  -1.598
    1LIG     O3   22  -1.078   0.359  -1.571
    1LIG     H1   23  -1.325   0.172  -1.636
    1LIG    C16   24  -1.079   0.130  -1.608
    1LIG     O4   25  -1.060   0.067  -1.728
    1LIG    C17   26  -0.997  -0.052  -1.701
    1LIG    C18   27  -0.975  -0.065  -1.566
    1LIG    C19   28  -0.967  -0.142  -1.815
    1LIG    C20   29  -1.028   0.051  -1.506
    1LIG     N4   30  -1.875   0.377  -1.209
    1LIG     H2   31  -1.954   0.384  -1.274
    1LIG     H3   32  -1.867   0.279  -1.184
    1LIG     H4   33  -1.388   0.383  -1.406
    1LIG     H5   34  -1.371   0.410  -1.820
    1LIG     H6   35  -1.505   0.614  -1.807
    1LIG     H7   36  -1.809   0.476  -1.192
    1LIG     H8   37  -1.748   0.195  -1.397
    1LIG     H9   38  -1.578   0.219  -1.428
    1LIG    H10   39  -1.694   0.338  -1.481
    1LIG    H11   40  -1.637   0.732  -1.252
    1LIG    H12   41  -1.487   0.730  -1.339
    1LIG    H13   42  -1.851   0.784  -1.571
    1LIG    H14   43  -1.865   0.772  -1.397
    1LIG    H15   44  -1.829   0.629  -1.492
    1LIG    H16   45  -1.700   0.962  -1.542
    1LIG    H17   46  -1.548   0.946  -1.457
    1LIG    H18   47  -1.699   0.951  -1.368
    1LIG    H19   48  -0.929  -0.144  -1.518
    1LIG    H20   49  -1.000  -0.096  -1.906
    1LIG    H21   50  -1.018  -0.235  -1.801
    1LIG    H22   51  -0.862  -0.159  -1.819
    1LIG    H23   52  -1.028   0.073  -1.405
   0.00000   0.00000   0.00000
