; Created by cgenff_charmm2gmx.py

[ moleculetype ]
; Name			   nrexcl
LIG				 3

[ atoms ]
;	 nr		  type	resnr residue  atom   cgnr	   charge		mass  typeB    chargeB		massB
; residue	 1 LIG rtp LIG q	qsum
     1     OG3R60      1    LIG     O1      1     -0.368     15.999   ;
     2     CG2R61      1    LIG     C1      2      0.073     12.011   ;
     3     CG2R61      1    LIG     C2      3     -0.045     12.011   ;
     4     CG2R61      1    LIG     C3      4     -0.181     12.011   ;
     5     CG2R61      1    LIG     C4      5      0.108     12.011   ;
     6     CG2R61      1    LIG     C5      6     -0.115     12.011   ;
     7     CG2R61      1    LIG     C6      7     -0.106     12.011   ;
     8     CG3C50      1    LIG     C7      8      0.970     12.011   ;
     9     NG3C51      1    LIG     N1      9     -0.729     14.007   ;
    10       HGP1      1    LIG     HN     10      0.231      1.008   ;
    11     CG3C51      1    LIG     C8     11      0.353     12.011   ;
    12     NG2R53      1    LIG     N2     12     -0.365     14.007   ;
    13      CG331      1    LIG     C9     13     -0.126     12.011   ;
    14     CG2R53      1    LIG    C10     14      0.099     12.011   ;
    15      OG2D1      1    LIG     O2     15     -0.402     15.999   ;
    16      CG321      1    LIG    C11     16     -0.252     12.011   ;
    17      CG301      1    LIG    C12     17      0.257     12.011   ;
    18      CG331      1    LIG    C13     18     -0.287     12.011   ;
    19      CG331      1    LIG    C14     19     -0.287     12.011   ;
    20      NG2S1      1    LIG     N3     20     -0.555     14.007   ;
    21      CG2O1      1    LIG    C15     21      0.957     12.011   ;
    22      OG2D1      1    LIG     O3     22     -0.491     15.999   ;
    23       HGP1      1    LIG     H1     23      0.323      1.008   ;
    24     CG2R51      1    LIG    C16     24     -0.576     12.011   ;
    25     OG2R50      1    LIG     O4     25     -0.088     15.999   ;
    26     CG2R51      1    LIG    C17     26      0.445     12.011   ;
    27     CG2R51      1    LIG    C18     27     -0.272     12.011   ;
    28      CG331      1    LIG    C19     28     -0.339     12.011   ;
    29     CG2R51      1    LIG    C20     29     -0.177     12.011   ;
    30      NG321      1    LIG     N4     30     -0.877     14.007   ;
    31     HGPAM2      1    LIG     H2     31      0.349      1.008   ;
    32     HGPAM2      1    LIG     H3     32      0.349      1.008   ;
    33      HGR61      1    LIG     H4     33      0.116      1.008   ;
    34      HGR61      1    LIG     H5     34      0.116      1.008   ;
    35      HGR61      1    LIG     H6     35      0.116      1.008   ;
    36       HGA1      1    LIG     H7     36      0.110      1.008   ;
    37       HGA3      1    LIG     H8     37      0.090      1.008   ;
    38       HGA3      1    LIG     H9     38      0.090      1.008   ;
    39       HGA3      1    LIG    H10     39      0.090      1.008   ;
    40       HGA2      1    LIG    H11     40      0.090      1.008   ;
    41       HGA2      1    LIG    H12     41      0.090      1.008   ;
    42       HGA3      1    LIG    H13     42      0.090      1.008   ;
    43       HGA3      1    LIG    H14     43      0.090      1.008   ;
    44       HGA3      1    LIG    H15     44      0.090      1.008   ;
    45       HGA3      1    LIG    H16     45      0.090      1.008   ;
    46       HGA3      1    LIG    H17     46      0.090      1.008   ;
    47       HGA3      1    LIG    H18     47      0.090      1.008   ;
    48      HGR51      1    LIG    H19     48      0.175      1.008   ;
    49       HGA3      1    LIG    H20     49      0.090      1.008   ;
    50       HGA3      1    LIG    H21     50      0.090      1.008   ;
    51       HGA3      1    LIG    H22     51      0.090      1.008   ;
    52      HGR51      1    LIG    H23     52      0.231      1.008   ;

[ bonds ]
;	ai	  aj funct			  c0			c1			  c2			c3
    1     2	 1 ;      OG3R60     CG2R61
    1    17	 1 ;      OG3R60      CG301
    2     7	 1 ;      CG2R61     CG2R61
    2     3	 1 ;      CG2R61     CG2R61
    3     4	 1 ;      CG2R61     CG2R61
    3     8	 1 ;      CG2R61     CG3C50
    4     5	 1 ;      CG2R61     CG2R61
    4    33	 1 ;      CG2R61      HGR61
    5     6	 1 ;      CG2R61     CG2R61
    5    20	 1 ;      CG2R61      NG2S1
    6     7	 1 ;      CG2R61     CG2R61
    6    34	 1 ;      CG2R61      HGR61
    7    35	 1 ;      CG2R61      HGR61
    8    16	 1 ;      CG3C50      CG321
    8     9	 1 ;      CG3C50     NG3C51
    8    14	 1 ;      CG3C50     CG2R53
    9    10	 1 ;      NG3C51       HGP1
    9    11	 1 ;      NG3C51     CG3C51
   11    12	 1 ;      CG3C51     NG2R53
   11    30	 1 ;      CG3C51      NG321
   11    36	 1 ;      CG3C51       HGA1
   12    13	 1 ;      NG2R53      CG331
   12    14	 1 ;      NG2R53     CG2R53
   13    37	 1 ;       CG331       HGA3
   13    38	 1 ;       CG331       HGA3
   13    39	 1 ;       CG331       HGA3
   14    15	 1 ;      CG2R53      OG2D1
   16    17	 1 ;       CG321      CG301
   16    40	 1 ;       CG321       HGA2
   16    41	 1 ;       CG321       HGA2
   17    18	 1 ;       CG301      CG331
   17    19	 1 ;       CG301      CG331
   18    42	 1 ;       CG331       HGA3
   18    43	 1 ;       CG331       HGA3
   18    44	 1 ;       CG331       HGA3
   19    45	 1 ;       CG331       HGA3
   19    46	 1 ;       CG331       HGA3
   19    47	 1 ;       CG331       HGA3
   20    23	 1 ;       NG2S1       HGP1
   20    21	 1 ;       NG2S1      CG2O1
   21    24	 1 ;       CG2O1     CG2R51
   21    22	 1 ;       CG2O1      OG2D1
   24    25	 1 ;      CG2R51     OG2R50
   24    29	 1 ;      CG2R51     CG2R51
   25    26	 1 ;      OG2R50     CG2R51
   26    28	 1 ;      CG2R51      CG331
   26    27	 1 ;      CG2R51     CG2R51
   27    29	 1 ;      CG2R51     CG2R51
   27    48	 1 ;      CG2R51      HGR51
   28    49	 1 ;       CG331       HGA3
   28    50	 1 ;       CG331       HGA3
   28    51	 1 ;       CG331       HGA3
   29    52	 1 ;      CG2R51      HGR51
   30    31	 1 ;       NG321     HGPAM2
   30    32	 1 ;       NG321     HGPAM2

[ pairs ]
;	ai	  aj funct			  c0			c1			  c2			c3
    1     6	 1
    1    35	 1
    1     4	 1
    1     8	 1
    1    40	 1
    1    41	 1
    1    42	 1
    1    43	 1
    1    44	 1
    1    45	 1
    1    46	 1
    1    47	 1
    2    18	 1
    2    19	 1
    2    16	 1
    2     5	 1
    2    33	 1
    2     9	 1
    2    14	 1
    2    34	 1
    3    17	 1
    3     6	 1
    3    35	 1
    3    20	 1
    3    40	 1
    3    41	 1
    3    10	 1
    3    11	 1
    3    12	 1
    3    15	 1
    4     7	 1
    4    16	 1
    4     9	 1
    4    14	 1
    4    34	 1
    4    23	 1
    4    21	 1
    5     8	 1
    5    35	 1
    5    24	 1
    5    22	 1
    6    33	 1
    6    23	 1
    6    21	 1
    7    17	 1
    7     8	 1
    7    20	 1
    8    33	 1
    8    30	 1
    8    36	 1
    8    13	 1
    8    18	 1
    8    19	 1
    9    17	 1
    9    40	 1
    9    41	 1
    9    15	 1
    9    13	 1
    9    31	 1
    9    32	 1
   10    16	 1
   10    14	 1
   10    12	 1
   10    30	 1
   10    36	 1
   11    16	 1
   11    37	 1
   11    38	 1
   11    39	 1
   11    15	 1
   12    16	 1
   12    31	 1
   12    32	 1
   13    30	 1
   13    36	 1
   13    15	 1
   14    17	 1
   14    40	 1
   14    41	 1
   14    30	 1
   14    36	 1
   14    37	 1
   14    38	 1
   14    39	 1
   15    16	 1
   16    42	 1
   16    43	 1
   16    44	 1
   16    45	 1
   16    46	 1
   16    47	 1
   18    40	 1
   18    41	 1
   18    45	 1
   18    46	 1
   18    47	 1
   19    40	 1
   19    41	 1
   19    42	 1
   19    43	 1
   19    44	 1
   20    33	 1
   20    34	 1
   20    25	 1
   20    29	 1
   21    26	 1
   21    27	 1
   21    52	 1
   22    23	 1
   22    25	 1
   22    29	 1
   23    24	 1
   24    28	 1
   24    48	 1
   25    52	 1
   25    49	 1
   25    50	 1
   25    51	 1
   25    48	 1
   26    52	 1
   27    49	 1
   27    50	 1
   27    51	 1
   28    29	 1
   28    48	 1
   31    36	 1
   32    36	 1
   34    35	 1
   48    52	 1

[ angles ]
;	ai	  aj	ak funct			c0			  c1			c2			  c3
    2     1    17	5 ;     CG2R61     OG3R60      CG301
    7     2     1	5 ;     CG2R61     CG2R61     OG3R60
    7     2     3	5 ;     CG2R61     CG2R61     CG2R61
    1     2     3	5 ;     OG3R60     CG2R61     CG2R61
    2     3     4	5 ;     CG2R61     CG2R61     CG2R61
    2     3     8	5 ;     CG2R61     CG2R61     CG3C50
    4     3     8	5 ;     CG2R61     CG2R61     CG3C50
    5     4     3	5 ;     CG2R61     CG2R61     CG2R61
    5     4    33	5 ;     CG2R61     CG2R61      HGR61
    3     4    33	5 ;     CG2R61     CG2R61      HGR61
    6     5    20	5 ;     CG2R61     CG2R61      NG2S1
    6     5     4	5 ;     CG2R61     CG2R61     CG2R61
   20     5     4	5 ;      NG2S1     CG2R61     CG2R61
    7     6     5	5 ;     CG2R61     CG2R61     CG2R61
    7     6    34	5 ;     CG2R61     CG2R61      HGR61
    5     6    34	5 ;     CG2R61     CG2R61      HGR61
    6     7     2	5 ;     CG2R61     CG2R61     CG2R61
    6     7    35	5 ;     CG2R61     CG2R61      HGR61
    2     7    35	5 ;     CG2R61     CG2R61      HGR61
    3     8    16	5 ;     CG2R61     CG3C50      CG321
    3     8     9	5 ;     CG2R61     CG3C50     NG3C51
    3     8    14	5 ;     CG2R61     CG3C50     CG2R53
   16     8     9	5 ;      CG321     CG3C50     NG3C51
   16     8    14	5 ;      CG321     CG3C50     CG2R53
    9     8    14	5 ;     NG3C51     CG3C50     CG2R53
   10     9     8	5 ;       HGP1     NG3C51     CG3C50
   10     9    11	5 ;       HGP1     NG3C51     CG3C51
    8     9    11	5 ;     CG3C50     NG3C51     CG3C51
    9    11    12	5 ;     NG3C51     CG3C51     NG2R53
    9    11    30	5 ;     NG3C51     CG3C51      NG321
    9    11    36	5 ;     NG3C51     CG3C51       HGA1
   12    11    30	5 ;     NG2R53     CG3C51      NG321
   12    11    36	5 ;     NG2R53     CG3C51       HGA1
   30    11    36	5 ;      NG321     CG3C51       HGA1
   13    12    11	5 ;      CG331     NG2R53     CG3C51
   13    12    14	5 ;      CG331     NG2R53     CG2R53
   11    12    14	5 ;     CG3C51     NG2R53     CG2R53
   12    13    37	5 ;     NG2R53      CG331       HGA3
   12    13    38	5 ;     NG2R53      CG331       HGA3
   12    13    39	5 ;     NG2R53      CG331       HGA3
   37    13    38	5 ;       HGA3      CG331       HGA3
   37    13    39	5 ;       HGA3      CG331       HGA3
   38    13    39	5 ;       HGA3      CG331       HGA3
    8    14    12	5 ;     CG3C50     CG2R53     NG2R53
    8    14    15	5 ;     CG3C50     CG2R53      OG2D1
   12    14    15	5 ;     NG2R53     CG2R53      OG2D1
   17    16     8	5 ;      CG301      CG321     CG3C50
   17    16    40	5 ;      CG301      CG321       HGA2
   17    16    41	5 ;      CG301      CG321       HGA2
    8    16    40	5 ;     CG3C50      CG321       HGA2
    8    16    41	5 ;     CG3C50      CG321       HGA2
   40    16    41	5 ;       HGA2      CG321       HGA2
    1    17    18	5 ;     OG3R60      CG301      CG331
    1    17    19	5 ;     OG3R60      CG301      CG331
    1    17    16	5 ;     OG3R60      CG301      CG321
   18    17    19	5 ;      CG331      CG301      CG331
   18    17    16	5 ;      CG331      CG301      CG321
   19    17    16	5 ;      CG331      CG301      CG321
   17    18    42	5 ;      CG301      CG331       HGA3
   17    18    43	5 ;      CG301      CG331       HGA3
   17    18    44	5 ;      CG301      CG331       HGA3
   42    18    43	5 ;       HGA3      CG331       HGA3
   42    18    44	5 ;       HGA3      CG331       HGA3
   43    18    44	5 ;       HGA3      CG331       HGA3
   17    19    45	5 ;      CG301      CG331       HGA3
   17    19    46	5 ;      CG301      CG331       HGA3
   17    19    47	5 ;      CG301      CG331       HGA3
   45    19    46	5 ;       HGA3      CG331       HGA3
   45    19    47	5 ;       HGA3      CG331       HGA3
   46    19    47	5 ;       HGA3      CG331       HGA3
   23    20     5	5 ;       HGP1      NG2S1     CG2R61
   23    20    21	5 ;       HGP1      NG2S1      CG2O1
    5    20    21	5 ;     CG2R61      NG2S1      CG2O1
   20    21    24	5 ;      NG2S1      CG2O1     CG2R51
   20    21    22	5 ;      NG2S1      CG2O1      OG2D1
   24    21    22	5 ;     CG2R51      CG2O1      OG2D1
   25    24    21	5 ;     OG2R50     CG2R51      CG2O1
   25    24    29	5 ;     OG2R50     CG2R51     CG2R51
   21    24    29	5 ;      CG2O1     CG2R51     CG2R51
   26    25    24	5 ;     CG2R51     OG2R50     CG2R51
   28    26    25	5 ;      CG331     CG2R51     OG2R50
   28    26    27	5 ;      CG331     CG2R51     CG2R51
   25    26    27	5 ;     OG2R50     CG2R51     CG2R51
   26    27    29	5 ;     CG2R51     CG2R51     CG2R51
   26    27    48	5 ;     CG2R51     CG2R51      HGR51
   29    27    48	5 ;     CG2R51     CG2R51      HGR51
   26    28    49	5 ;     CG2R51      CG331       HGA3
   26    28    50	5 ;     CG2R51      CG331       HGA3
   26    28    51	5 ;     CG2R51      CG331       HGA3
   49    28    50	5 ;       HGA3      CG331       HGA3
   49    28    51	5 ;       HGA3      CG331       HGA3
   50    28    51	5 ;       HGA3      CG331       HGA3
   24    29    27	5 ;     CG2R51     CG2R51     CG2R51
   24    29    52	5 ;     CG2R51     CG2R51      HGR51
   27    29    52	5 ;     CG2R51     CG2R51      HGR51
   31    30    11	5 ;     HGPAM2      NG321     CG3C51
   31    30    32	5 ;     HGPAM2      NG321     HGPAM2
   11    30    32	5 ;     CG3C51      NG321     HGPAM2

[ dihedrals ]
;	ai	  aj	ak	  al funct			  c0			c1			  c2			c3			  c4			c5
   17     1     2     7	 9 ;      CG301     OG3R60     CG2R61     CG2R61
   17     1     2     3	 9 ;      CG301     OG3R60     CG2R61     CG2R61
    2     1    17    18	 9 ;     CG2R61     OG3R60      CG301      CG331
    2     1    17    19	 9 ;     CG2R61     OG3R60      CG301      CG331
    2     1    17    16	 9 ;     CG2R61     OG3R60      CG301      CG321
    1     2     7     6	 9 ;     OG3R60     CG2R61     CG2R61     CG2R61
    1     2     7    35	 9 ;     OG3R60     CG2R61     CG2R61      HGR61
    3     2     7     6	 9 ;     CG2R61     CG2R61     CG2R61     CG2R61
    3     2     7    35	 9 ;     CG2R61     CG2R61     CG2R61      HGR61
    7     2     3     4	 9 ;     CG2R61     CG2R61     CG2R61     CG2R61
    7     2     3     8	 9 ;     CG2R61     CG2R61     CG2R61     CG3C50
    1     2     3     4	 9 ;     OG3R60     CG2R61     CG2R61     CG2R61
    1     2     3     8	 9 ;     OG3R60     CG2R61     CG2R61     CG3C50
    2     3     4     5	 9 ;     CG2R61     CG2R61     CG2R61     CG2R61
    2     3     4    33	 9 ;     CG2R61     CG2R61     CG2R61      HGR61
    8     3     4     5	 9 ;     CG3C50     CG2R61     CG2R61     CG2R61
    8     3     4    33	 9 ;     CG3C50     CG2R61     CG2R61      HGR61
    2     3     8    16	 9 ;     CG2R61     CG2R61     CG3C50      CG321
    2     3     8     9	 9 ;     CG2R61     CG2R61     CG3C50     NG3C51
    2     3     8    14	 9 ;     CG2R61     CG2R61     CG3C50     CG2R53
    4     3     8    16	 9 ;     CG2R61     CG2R61     CG3C50      CG321
    4     3     8     9	 9 ;     CG2R61     CG2R61     CG3C50     NG3C51
    4     3     8    14	 9 ;     CG2R61     CG2R61     CG3C50     CG2R53
    3     4     5     6	 9 ;     CG2R61     CG2R61     CG2R61     CG2R61
    3     4     5    20	 9 ;     CG2R61     CG2R61     CG2R61      NG2S1
   33     4     5     6	 9 ;      HGR61     CG2R61     CG2R61     CG2R61
   33     4     5    20	 9 ;      HGR61     CG2R61     CG2R61      NG2S1
   20     5     6     7	 9 ;      NG2S1     CG2R61     CG2R61     CG2R61
   20     5     6    34	 9 ;      NG2S1     CG2R61     CG2R61      HGR61
    4     5     6     7	 9 ;     CG2R61     CG2R61     CG2R61     CG2R61
    4     5     6    34	 9 ;     CG2R61     CG2R61     CG2R61      HGR61
    6     5    20    23	 9 ;     CG2R61     CG2R61      NG2S1       HGP1
    6     5    20    21	 9 ;     CG2R61     CG2R61      NG2S1      CG2O1
    4     5    20    23	 9 ;     CG2R61     CG2R61      NG2S1       HGP1
    4     5    20    21	 9 ;     CG2R61     CG2R61      NG2S1      CG2O1
    5     6     7     2	 9 ;     CG2R61     CG2R61     CG2R61     CG2R61
    5     6     7    35	 9 ;     CG2R61     CG2R61     CG2R61      HGR61
   34     6     7     2	 9 ;      HGR61     CG2R61     CG2R61     CG2R61
   34     6     7    35	 9 ;      HGR61     CG2R61     CG2R61      HGR61
    3     8    16    17	 9 ;     CG2R61     CG3C50      CG321      CG301
    3     8    16    40	 9 ;     CG2R61     CG3C50      CG321       HGA2
    3     8    16    41	 9 ;     CG2R61     CG3C50      CG321       HGA2
    9     8    16    17	 9 ;     NG3C51     CG3C50      CG321      CG301
    9     8    16    40	 9 ;     NG3C51     CG3C50      CG321       HGA2
    9     8    16    41	 9 ;     NG3C51     CG3C50      CG321       HGA2
   14     8    16    17	 9 ;     CG2R53     CG3C50      CG321      CG301
   14     8    16    40	 9 ;     CG2R53     CG3C50      CG321       HGA2
   14     8    16    41	 9 ;     CG2R53     CG3C50      CG321       HGA2
    3     8     9    10	 9 ;     CG2R61     CG3C50     NG3C51       HGP1
    3     8     9    11	 9 ;     CG2R61     CG3C50     NG3C51     CG3C51
   16     8     9    10	 9 ;      CG321     CG3C50     NG3C51       HGP1
   16     8     9    11	 9 ;      CG321     CG3C50     NG3C51     CG3C51
   14     8     9    10	 9 ;     CG2R53     CG3C50     NG3C51       HGP1
   14     8     9    11	 9 ;     CG2R53     CG3C50     NG3C51     CG3C51
    3     8    14    12	 9 ;     CG2R61     CG3C50     CG2R53     NG2R53
    3     8    14    15	 9 ;     CG2R61     CG3C50     CG2R53      OG2D1
   16     8    14    12	 9 ;      CG321     CG3C50     CG2R53     NG2R53
   16     8    14    15	 9 ;      CG321     CG3C50     CG2R53      OG2D1
    9     8    14    12	 9 ;     NG3C51     CG3C50     CG2R53     NG2R53
    9     8    14    15	 9 ;     NG3C51     CG3C50     CG2R53      OG2D1
   10     9    11    12	 9 ;       HGP1     NG3C51     CG3C51     NG2R53
   10     9    11    30	 9 ;       HGP1     NG3C51     CG3C51      NG321
   10     9    11    36	 9 ;       HGP1     NG3C51     CG3C51       HGA1
    8     9    11    12	 9 ;     CG3C50     NG3C51     CG3C51     NG2R53
    8     9    11    30	 9 ;     CG3C50     NG3C51     CG3C51      NG321
    8     9    11    36	 9 ;     CG3C50     NG3C51     CG3C51       HGA1
    9    11    12    13	 9 ;     NG3C51     CG3C51     NG2R53      CG331
    9    11    12    14	 9 ;     NG3C51     CG3C51     NG2R53     CG2R53
   30    11    12    13	 9 ;      NG321     CG3C51     NG2R53      CG331
   30    11    12    14	 9 ;      NG321     CG3C51     NG2R53     CG2R53
   36    11    12    13	 9 ;       HGA1     CG3C51     NG2R53      CG331
   36    11    12    14	 9 ;       HGA1     CG3C51     NG2R53     CG2R53
    9    11    30    31	 9 ;     NG3C51     CG3C51      NG321     HGPAM2
    9    11    30    32	 9 ;     NG3C51     CG3C51      NG321     HGPAM2
   12    11    30    31	 9 ;     NG2R53     CG3C51      NG321     HGPAM2
   12    11    30    32	 9 ;     NG2R53     CG3C51      NG321     HGPAM2
   36    11    30    31	 9 ;       HGA1     CG3C51      NG321     HGPAM2
   36    11    30    32	 9 ;       HGA1     CG3C51      NG321     HGPAM2
   11    12    13    37	 9 ;     CG3C51     NG2R53      CG331       HGA3
   11    12    13    38	 9 ;     CG3C51     NG2R53      CG331       HGA3
   11    12    13    39	 9 ;     CG3C51     NG2R53      CG331       HGA3
   14    12    13    37	 9 ;     CG2R53     NG2R53      CG331       HGA3
   14    12    13    38	 9 ;     CG2R53     NG2R53      CG331       HGA3
   14    12    13    39	 9 ;     CG2R53     NG2R53      CG331       HGA3
   13    12    14     8	 9 ;      CG331     NG2R53     CG2R53     CG3C50
   13    12    14    15	 9 ;      CG331     NG2R53     CG2R53      OG2D1
   11    12    14     8	 9 ;     CG3C51     NG2R53     CG2R53     CG3C50
   11    12    14    15	 9 ;     CG3C51     NG2R53     CG2R53      OG2D1
    8    16    17     1	 9 ;     CG3C50      CG321      CG301     OG3R60
    8    16    17    18	 9 ;     CG3C50      CG321      CG301      CG331
    8    16    17    19	 9 ;     CG3C50      CG321      CG301      CG331
   40    16    17     1	 9 ;       HGA2      CG321      CG301     OG3R60
   40    16    17    18	 9 ;       HGA2      CG321      CG301      CG331
   40    16    17    19	 9 ;       HGA2      CG321      CG301      CG331
   41    16    17     1	 9 ;       HGA2      CG321      CG301     OG3R60
   41    16    17    18	 9 ;       HGA2      CG321      CG301      CG331
   41    16    17    19	 9 ;       HGA2      CG321      CG301      CG331
    1    17    18    42	 9 ;     OG3R60      CG301      CG331       HGA3
    1    17    18    43	 9 ;     OG3R60      CG301      CG331       HGA3
    1    17    18    44	 9 ;     OG3R60      CG301      CG331       HGA3
   19    17    18    42	 9 ;      CG331      CG301      CG331       HGA3
   19    17    18    43	 9 ;      CG331      CG301      CG331       HGA3
   19    17    18    44	 9 ;      CG331      CG301      CG331       HGA3
   16    17    18    42	 9 ;      CG321      CG301      CG331       HGA3
   16    17    18    43	 9 ;      CG321      CG301      CG331       HGA3
   16    17    18    44	 9 ;      CG321      CG301      CG331       HGA3
    1    17    19    45	 9 ;     OG3R60      CG301      CG331       HGA3
    1    17    19    46	 9 ;     OG3R60      CG301      CG331       HGA3
    1    17    19    47	 9 ;     OG3R60      CG301      CG331       HGA3
   18    17    19    45	 9 ;      CG331      CG301      CG331       HGA3
   18    17    19    46	 9 ;      CG331      CG301      CG331       HGA3
   18    17    19    47	 9 ;      CG331      CG301      CG331       HGA3
   16    17    19    45	 9 ;      CG321      CG301      CG331       HGA3
   16    17    19    46	 9 ;      CG321      CG301      CG331       HGA3
   16    17    19    47	 9 ;      CG321      CG301      CG331       HGA3
   23    20    21    24	 9 ;       HGP1      NG2S1      CG2O1     CG2R51
   23    20    21    22	 9 ;       HGP1      NG2S1      CG2O1      OG2D1
    5    20    21    24	 9 ;     CG2R61      NG2S1      CG2O1     CG2R51
    5    20    21    22	 9 ;     CG2R61      NG2S1      CG2O1      OG2D1
   20    21    24    25	 9 ;      NG2S1      CG2O1     CG2R51     OG2R50
   20    21    24    29	 9 ;      NG2S1      CG2O1     CG2R51     CG2R51
   22    21    24    25	 9 ;      OG2D1      CG2O1     CG2R51     OG2R50
   22    21    24    29	 9 ;      OG2D1      CG2O1     CG2R51     CG2R51
   21    24    25    26	 9 ;      CG2O1     CG2R51     OG2R50     CG2R51
   29    24    25    26	 9 ;     CG2R51     CG2R51     OG2R50     CG2R51
   25    24    29    27	 9 ;     OG2R50     CG2R51     CG2R51     CG2R51
   25    24    29    52	 9 ;     OG2R50     CG2R51     CG2R51      HGR51
   21    24    29    27	 9 ;      CG2O1     CG2R51     CG2R51     CG2R51
   21    24    29    52	 9 ;      CG2O1     CG2R51     CG2R51      HGR51
   24    25    26    28	 9 ;     CG2R51     OG2R50     CG2R51      CG331
   24    25    26    27	 9 ;     CG2R51     OG2R50     CG2R51     CG2R51
   25    26    28    49	 9 ;     OG2R50     CG2R51      CG331       HGA3
   25    26    28    50	 9 ;     OG2R50     CG2R51      CG331       HGA3
   25    26    28    51	 9 ;     OG2R50     CG2R51      CG331       HGA3
   27    26    28    49	 9 ;     CG2R51     CG2R51      CG331       HGA3
   27    26    28    50	 9 ;     CG2R51     CG2R51      CG331       HGA3
   27    26    28    51	 9 ;     CG2R51     CG2R51      CG331       HGA3
   28    26    27    29	 9 ;      CG331     CG2R51     CG2R51     CG2R51
   28    26    27    48	 9 ;      CG331     CG2R51     CG2R51      HGR51
   25    26    27    29	 9 ;     OG2R50     CG2R51     CG2R51     CG2R51
   25    26    27    48	 9 ;     OG2R50     CG2R51     CG2R51      HGR51
   26    27    29    24	 9 ;     CG2R51     CG2R51     CG2R51     CG2R51
   26    27    29    52	 9 ;     CG2R51     CG2R51     CG2R51      HGR51
   48    27    29    24	 9 ;      HGR51     CG2R51     CG2R51     CG2R51
   48    27    29    52	 9 ;      HGR51     CG2R51     CG2R51      HGR51

[ dihedrals ]
;	ai	  aj	ak	  al funct			  c0			c1			  c2			c3
   14     8    12    15	 2
   21    24    20    22	 2

