Guyana Rwanda Oman Macau Angola Cameroon Senegal
   67
    1LIG     C1    1  -1.186   0.677  -1.560
    1LIG     N1    2  -1.252   0.662  -1.693
    1LIG     H1    3  -1.239   0.566  -1.727
    1LIG     H2    4  -1.195   0.720  -1.757
    1LIG     C2    5  -1.394   0.703  -1.711
    1LIG     C3    6  -1.414   0.842  -1.652
    1LIG     C4    7  -1.431   0.822  -1.799
    1LIG     C5    8  -1.504   0.595  -1.733
    1LIG     N2    9  -1.590   0.572  -1.636
    1LIG     C6   10  -1.620   0.436  -1.633
    1LIG     HN   11  -1.629   0.643  -1.573
    1LIG     C7   12  -1.577   0.366  -1.745
    1LIG      S   13  -1.491   0.470  -1.850
    1LIG     C8   14  -1.686   0.377  -1.512
    1LIG     C9   15  -1.842   0.387  -1.510
    1LIG    C10   16  -1.889   0.528  -1.553
    1LIG    C11   17  -1.900   0.286  -1.611
    1LIG    C12   18  -1.899   0.355  -1.371
    1LIG    C13   19  -1.146   0.536  -1.513
    1LIG     O1   20  -1.182   0.527  -1.373
    1LIG     H3   21  -1.203   0.433  -1.352
    1LIG    C14   22  -1.207   0.422  -1.601
    1LIG     N3   23  -1.105   0.351  -1.680
    1LIG    C15   24  -1.084   0.375  -1.816
    1LIG     O2   25  -1.144   0.465  -1.875
    1LIG    C16   26  -0.977   0.293  -1.879
    1LIG     H4   27  -1.074   0.260  -1.648
    1LIG    C17   28  -1.281   0.318  -1.512
    1LIG    C18   29  -1.218   0.182  -1.488
    1LIG    C19   30  -1.106   0.164  -1.405
    1LIG    C20   31  -1.059   0.035  -1.377
    1LIG     F1   32  -0.953   0.021  -1.297
    1LIG    C21   33  -1.120  -0.077  -1.430
    1LIG    C22   34  -1.230  -0.060  -1.513
    1LIG     F2   35  -1.291  -0.167  -1.564
    1LIG    C23   36  -1.279   0.068  -1.541
    1LIG    HC2   37  -1.097   0.739  -1.570
    1LIG    HC3   38  -1.255   0.722  -1.489
    1LIG    HC4   39  -1.500   0.863  -1.589
    1LIG    HC5   40  -1.322   0.893  -1.623
    1LIG    HC6   41  -1.358   0.864  -1.868
    1LIG    HC7   42  -1.535   0.824  -1.834
    1LIG     HC   43  -1.595   0.261  -1.763
    1LIG    HC8   44  -1.648   0.428  -1.424
    1LIG    HC9   45  -1.659   0.271  -1.506
    1LIG    HC1   46  -1.850   0.602  -1.483
    1LIG   HC10   47  -1.854   0.549  -1.653
    1LIG   HC11   48  -1.998   0.531  -1.551
    1LIG   HC12   49  -1.869   0.185  -1.584
    1LIG   HC13   50  -1.864   0.309  -1.711
    1LIG   HC14   51  -2.009   0.291  -1.610
    1LIG   HC15   52  -1.859   0.425  -1.298
    1LIG   HC16   53  -1.870   0.253  -1.343
    1LIG   HC17   54  -2.007   0.362  -1.373
    1LIG   HC18   55  -1.038   0.529  -1.519
    1LIG   HC19   56  -1.279   0.466  -1.670
    1LIG   HC20   57  -0.969   0.319  -1.985
    1LIG   HC21   58  -1.002   0.187  -1.870
    1LIG   HC22   59  -0.882   0.312  -1.829
    1LIG   HC23   60  -1.378   0.299  -1.558
    1LIG   HC24   61  -1.299   0.364  -1.415
    1LIG   HC25   62  -1.057   0.250  -1.362
    1LIG   HC26   63  -1.082  -0.176  -1.408
    1LIG   HC27   64  -1.365   0.078  -1.605
    1LIG    H34   65  -1.570   0.658  -1.792
    1LIG    H35   66  -1.717   0.454  -1.680
    1LIG    H36   67  -1.484   0.342  -1.694
   0.00000   0.00000   0.00000
