; Created by cgenff_charmm2gmx.py

[ moleculetype ]
; Name			   nrexcl
LIG				 3

[ atoms ]
;	 nr		  type	resnr residue  atom   cgnr	   charge		mass  typeB    chargeB		massB
; residue	 1 LIG rtp LIG q	qsum
     1      CG311      1    LIG     C1      1     -0.016     12.011   ;
     2      NG2S1      1    LIG     N1      2     -0.226     14.007   ;
     3      CG2O1      1    LIG     C2      3      0.302     12.011   ;
     4      OG2D1      1    LIG     O1      4     -0.463     15.999   ;
     5       HGP1      1    LIG     H1      5      0.262      1.008   ;
     6     CG2R61      1    LIG     C3      6     -0.120     12.011   ;
     7     CG2R61      1    LIG     C4      7     -0.003     12.011   ;
     8     CG2R61      1    LIG     C5      8     -0.179     12.011   ;
     9     CG2R61      1    LIG     C6      9     -0.064     12.011   ;
    10     CG2R61      1    LIG     C7     10      0.038     12.011   ;
    11     CG2R61      1    LIG     C8     11     -0.065     12.011   ;
    12      CG331      1    LIG     C9     12     -0.264     12.011   ;
    13      CG2O1      1    LIG    C10     13      0.400     12.011   ;
    14      OG2D1      1    LIG     O2     14     -0.476     15.999   ;
    15      NG2S0      1    LIG     N2     15     -0.418     14.007   ;
    16      CG321      1    LIG    C11     16      0.096     12.011   ;
    17      CG321      1    LIG    C12     17     -0.170     12.011   ;
    18      CG331      1    LIG    C13     18     -0.285     12.011   ;
    19      CG321      1    LIG    C14     19      0.096     12.011   ;
    20      CG321      1    LIG    C15     20     -0.170     12.011   ;
    21      CG331      1    LIG    C16     21     -0.285     12.011   ;
    22      CG321      1    LIG    C17     22     -0.095     12.011   ;
    23     CG2R61      1    LIG    C18     23      0.057     12.011   ;
    24     CG2R61      1    LIG    C19     24     -0.218     12.011   ;
    25     CG2R66      1    LIG    C20     25      0.261     12.011   ;
    26       FGR1      1    LIG     F1     26     -0.210     18.998   ;
    27     CG2R61      1    LIG    C21     27     -0.240     12.011   ;
    28     CG2R66      1    LIG    C22     28      0.261     12.011   ;
    29     CG2R61      1    LIG    C23     29     -0.218     12.011   ;
    30       FGR1      1    LIG     F2     30     -0.210     18.998   ;
    31      CG311      1    LIG    C24     31      0.109     12.011   ;
    32      OG311      1    LIG     O3     32     -0.598     15.999   ;
    33       HGP1      1    LIG     H2     33      0.422      1.008   ;
    34      CG314      1    LIG    C25     34      0.078     12.011   ;
    35      NG3P2      1    LIG     N3     35     -0.361     14.007   ;
    36      CG324      1    LIG    C26     36      0.181     12.011   ;
    37       HGP2      1    LIG     H3     37      0.318      1.008   ;
    38       HGP2      1    LIG     H4     38      0.318      1.008   ;
    39      CG321      1    LIG    C27     39     -0.237     12.011   ;
    40      CG311      1    LIG    C28     40      0.225     12.011   ;
    41      CG321      1    LIG    C29     41     -0.151     12.011   ;
    42      OG301      1    LIG     O4     42     -0.370     15.999   ;
    43      CG321      1    LIG    C30     43     -0.003     12.011   ;
    44      CG331      1    LIG    C31     44     -0.270     12.011   ;
    45       HGA1      1    LIG     HC     45      0.090      1.008   ;
    46      HGR61      1    LIG    HC1     46      0.116      1.008   ;
    47      HGR61      1    LIG    HC2     47      0.116      1.008   ;
    48      HGR61      1    LIG    HC3     48      0.116      1.008   ;
    49       HGA2      1    LIG    HC4     49      0.090      1.008   ;
    50       HGA2      1    LIG    HC5     50      0.090      1.008   ;
    51       HGA2      1    LIG    HC6     51      0.090      1.008   ;
    52       HGA2      1    LIG    HC7     52      0.090      1.008   ;
    53       HGA2      1    LIG    HC8     53      0.090      1.008   ;
    54       HGA2      1    LIG    HC9     54      0.090      1.008   ;
    55       HGA2      1    LIG   HC10     55      0.090      1.008   ;
    56       HGA2      1    LIG   HC11     56      0.090      1.008   ;
    57       HGA2      1    LIG   HC12     57      0.090      1.008   ;
    58       HGA2      1    LIG   HC13     58      0.090      1.008   ;
    59      HGR62      1    LIG   HC14     59      0.174      1.008   ;
    60      HGR62      1    LIG   HC15     60      0.186      1.008   ;
    61      HGR62      1    LIG   HC16     61      0.174      1.008   ;
    62       HGA1      1    LIG   HC17     62      0.090      1.008   ;
    63       HGA1      1    LIG   HC18     63      0.109      1.008   ;
    64       HGA2      1    LIG   HC19     64      0.090      1.008   ;
    65       HGA2      1    LIG   HC20     65      0.090      1.008   ;
    66       HGA2      1    LIG   HC21     66      0.090      1.008   ;
    67       HGA2      1    LIG   HC22     67      0.090      1.008   ;
    68       HGA1      1    LIG   HC23     68      0.090      1.008   ;
    69       HGA2      1    LIG   HC24     69      0.090      1.008   ;
    70       HGA2      1    LIG   HC25     70      0.090      1.008   ;
    71       HGA2      1    LIG   HC26     71      0.090      1.008   ;
    72       HGA2      1    LIG   HC27     72      0.090      1.008   ;
    73       HGA3      1    LIG   HC28     73      0.090      1.008   ;
    74       HGA3      1    LIG   HC29     74      0.090      1.008   ;
    75       HGA3      1    LIG   HC30     75      0.090      1.008   ;
    76       HGA3      1    LIG   HC31     76      0.090      1.008   ;
    77       HGA3      1    LIG   HC32     77      0.090      1.008   ;
    78       HGA3      1    LIG   HC33     78      0.090      1.008   ;
    79       HGA3      1    LIG   HC34     79      0.090      1.008   ;
    80       HGA3      1    LIG   HC35     80      0.090      1.008   ;
    81       HGA3      1    LIG   HC36     81      0.090      1.008   ;
    82       HGA3      1    LIG   HC37     82      0.090      1.008   ;
    83       HGA3      1    LIG   HC38     83      0.090      1.008   ;
    84       HGA3      1    LIG   HC39     84      0.090      1.008   ;

[ bonds ]
;	ai	  aj funct			  c0			c1			  c2			c3
    1     2	 1 ;       CG311      NG2S1
    1    31	 1 ;       CG311      CG311
    1    22	 1 ;       CG311      CG321
    1    45	 1 ;       CG311       HGA1
    2     3	 1 ;       NG2S1      CG2O1
    2     5	 1 ;       NG2S1       HGP1
    3     6	 1 ;       CG2O1     CG2R61
    3     4	 1 ;       CG2O1      OG2D1
    6    11	 1 ;      CG2R61     CG2R61
    6     7	 1 ;      CG2R61     CG2R61
    7     8	 1 ;      CG2R61     CG2R61
    7    46	 1 ;      CG2R61      HGR61
    8     9	 1 ;      CG2R61     CG2R61
    8    13	 1 ;      CG2R61      CG2O1
    9    10	 1 ;      CG2R61     CG2R61
    9    47	 1 ;      CG2R61      HGR61
   10    12	 1 ;      CG2R61      CG331
   10    11	 1 ;      CG2R61     CG2R61
   11    48	 1 ;      CG2R61      HGR61
   12    82	 1 ;       CG331       HGA3
   12    83	 1 ;       CG331       HGA3
   12    84	 1 ;       CG331       HGA3
   13    14	 1 ;       CG2O1      OG2D1
   13    15	 1 ;       CG2O1      NG2S0
   15    19	 1 ;       NG2S0      CG321
   15    16	 1 ;       NG2S0      CG321
   16    17	 1 ;       CG321      CG321
   16    49	 1 ;       CG321       HGA2
   16    50	 1 ;       CG321       HGA2
   17    18	 1 ;       CG321      CG331
   17    51	 1 ;       CG321       HGA2
   17    52	 1 ;       CG321       HGA2
   18    76	 1 ;       CG331       HGA3
   18    77	 1 ;       CG331       HGA3
   18    78	 1 ;       CG331       HGA3
   19    20	 1 ;       CG321      CG321
   19    53	 1 ;       CG321       HGA2
   19    54	 1 ;       CG321       HGA2
   20    21	 1 ;       CG321      CG331
   20    55	 1 ;       CG321       HGA2
   20    56	 1 ;       CG321       HGA2
   21    73	 1 ;       CG331       HGA3
   21    74	 1 ;       CG331       HGA3
   21    75	 1 ;       CG331       HGA3
   22    23	 1 ;       CG321     CG2R61
   22    57	 1 ;       CG321       HGA2
   22    58	 1 ;       CG321       HGA2
   23    24	 1 ;      CG2R61     CG2R61
   23    29	 1 ;      CG2R61     CG2R61
   24    25	 1 ;      CG2R61     CG2R66
   24    59	 1 ;      CG2R61      HGR62
   25    26	 1 ;      CG2R66       FGR1
   25    27	 1 ;      CG2R66     CG2R61
   27    28	 1 ;      CG2R61     CG2R66
   27    60	 1 ;      CG2R61      HGR62
   28    29	 1 ;      CG2R66     CG2R61
   28    30	 1 ;      CG2R66       FGR1
   29    61	 1 ;      CG2R61      HGR62
   31    34	 1 ;       CG311      CG314
   31    32	 1 ;       CG311      OG311
   31    62	 1 ;       CG311       HGA1
   32    33	 1 ;       OG311       HGP1
   34    41	 1 ;       CG314      CG321
   34    35	 1 ;       CG314      NG3P2
   34    63	 1 ;       CG314       HGA1
   35    36	 1 ;       NG3P2      CG324
   35    37	 1 ;       NG3P2       HGP2
   35    38	 1 ;       NG3P2       HGP2
   36    39	 1 ;       CG324      CG321
   36    64	 1 ;       CG324       HGA2
   36    65	 1 ;       CG324       HGA2
   39    40	 1 ;       CG321      CG311
   39    66	 1 ;       CG321       HGA2
   39    67	 1 ;       CG321       HGA2
   40    42	 1 ;       CG311      OG301
   40    41	 1 ;       CG311      CG321
   40    68	 1 ;       CG311       HGA1
   41    69	 1 ;       CG321       HGA2
   41    70	 1 ;       CG321       HGA2
   42    43	 1 ;       OG301      CG321
   43    44	 1 ;       CG321      CG331
   43    71	 1 ;       CG321       HGA2
   43    72	 1 ;       CG321       HGA2
   44    79	 1 ;       CG331       HGA3
   44    80	 1 ;       CG331       HGA3
   44    81	 1 ;       CG331       HGA3

[ pairs ]
;	ai	  aj funct			  c0			c1			  c2			c3
    1     6	 1
    1     4	 1
    1    24	 1
    1    29	 1
    1    41	 1
    1    35	 1
    1    63	 1
    1    33	 1
    2    34	 1
    2    32	 1
    2    62	 1
    2    23	 1
    2    57	 1
    2    58	 1
    2    11	 1
    2     7	 1
    3    31	 1
    3    22	 1
    3    45	 1
    3    10	 1
    3    48	 1
    3     8	 1
    3    46	 1
    4     5	 1
    4    11	 1
    4     7	 1
    5    31	 1
    5    22	 1
    5    45	 1
    5     6	 1
    6     9	 1
    6    13	 1
    6    12	 1
    7    10	 1
    7    48	 1
    7    47	 1
    7    14	 1
    7    15	 1
    8    11	 1
    8    12	 1
    8    19	 1
    8    16	 1
    9    46	 1
    9    14	 1
    9    15	 1
    9    82	 1
    9    83	 1
    9    84	 1
    9    48	 1
   10    13	 1
   11    46	 1
   11    47	 1
   11    82	 1
   11    83	 1
   11    84	 1
   12    47	 1
   12    48	 1
   13    46	 1
   13    47	 1
   13    20	 1
   13    53	 1
   13    54	 1
   13    17	 1
   13    49	 1
   13    50	 1
   14    19	 1
   14    16	 1
   15    18	 1
   15    51	 1
   15    52	 1
   15    21	 1
   15    55	 1
   15    56	 1
   16    20	 1
   16    53	 1
   16    54	 1
   16    76	 1
   16    77	 1
   16    78	 1
   17    19	 1
   18    49	 1
   18    50	 1
   19    49	 1
   19    50	 1
   19    73	 1
   19    74	 1
   19    75	 1
   21    53	 1
   21    54	 1
   22    34	 1
   22    32	 1
   22    62	 1
   22    25	 1
   22    59	 1
   22    28	 1
   22    61	 1
   23    31	 1
   23    45	 1
   23    26	 1
   23    27	 1
   23    30	 1
   24    57	 1
   24    58	 1
   24    28	 1
   24    61	 1
   24    60	 1
   25    29	 1
   25    30	 1
   26    59	 1
   26    28	 1
   26    60	 1
   27    59	 1
   27    61	 1
   29    57	 1
   29    58	 1
   29    59	 1
   29    60	 1
   30    60	 1
   30    61	 1
   31    57	 1
   31    58	 1
   31    40	 1
   31    69	 1
   31    70	 1
   31    36	 1
   31    37	 1
   31    38	 1
   32    45	 1
   32    41	 1
   32    35	 1
   32    63	 1
   33    34	 1
   33    62	 1
   34    45	 1
   34    39	 1
   34    64	 1
   34    65	 1
   34    42	 1
   34    68	 1
   35    62	 1
   35    40	 1
   35    69	 1
   35    70	 1
   35    66	 1
   35    67	 1
   36    41	 1
   36    63	 1
   36    42	 1
   36    68	 1
   37    41	 1
   37    63	 1
   37    39	 1
   37    64	 1
   37    65	 1
   38    41	 1
   38    63	 1
   38    39	 1
   38    64	 1
   38    65	 1
   39    43	 1
   39    69	 1
   39    70	 1
   40    63	 1
   40    64	 1
   40    65	 1
   40    44	 1
   40    71	 1
   40    72	 1
   41    62	 1
   41    66	 1
   41    67	 1
   41    43	 1
   42    66	 1
   42    67	 1
   42    69	 1
   42    70	 1
   42    79	 1
   42    80	 1
   42    81	 1
   43    68	 1
   45    62	 1
   45    57	 1
   45    58	 1
   49    51	 1
   49    52	 1
   50    51	 1
   50    52	 1
   51    76	 1
   51    77	 1
   51    78	 1
   52    76	 1
   52    77	 1
   52    78	 1
   53    55	 1
   53    56	 1
   54    55	 1
   54    56	 1
   55    73	 1
   55    74	 1
   55    75	 1
   56    73	 1
   56    74	 1
   56    75	 1
   62    63	 1
   63    69	 1
   63    70	 1
   64    66	 1
   64    67	 1
   65    66	 1
   65    67	 1
   66    68	 1
   67    68	 1
   68    69	 1
   68    70	 1
   71    79	 1
   71    80	 1
   71    81	 1
   72    79	 1
   72    80	 1
   72    81	 1

[ angles ]
;	ai	  aj	ak funct			c0			  c1			c2			  c3
    2     1    31	5 ;      NG2S1      CG311      CG311
    2     1    22	5 ;      NG2S1      CG311      CG321
    2     1    45	5 ;      NG2S1      CG311       HGA1
   31     1    22	5 ;      CG311      CG311      CG321
   31     1    45	5 ;      CG311      CG311       HGA1
   22     1    45	5 ;      CG321      CG311       HGA1
    3     2     5	5 ;      CG2O1      NG2S1       HGP1
    3     2     1	5 ;      CG2O1      NG2S1      CG311
    5     2     1	5 ;       HGP1      NG2S1      CG311
    6     3     4	5 ;     CG2R61      CG2O1      OG2D1
    6     3     2	5 ;     CG2R61      CG2O1      NG2S1
    4     3     2	5 ;      OG2D1      CG2O1      NG2S1
   11     6     7	5 ;     CG2R61     CG2R61     CG2R61
   11     6     3	5 ;     CG2R61     CG2R61      CG2O1
    7     6     3	5 ;     CG2R61     CG2R61      CG2O1
    8     7     6	5 ;     CG2R61     CG2R61     CG2R61
    8     7    46	5 ;     CG2R61     CG2R61      HGR61
    6     7    46	5 ;     CG2R61     CG2R61      HGR61
    9     8    13	5 ;     CG2R61     CG2R61      CG2O1
    9     8     7	5 ;     CG2R61     CG2R61     CG2R61
   13     8     7	5 ;      CG2O1     CG2R61     CG2R61
   10     9     8	5 ;     CG2R61     CG2R61     CG2R61
   10     9    47	5 ;     CG2R61     CG2R61      HGR61
    8     9    47	5 ;     CG2R61     CG2R61      HGR61
   12    10     9	5 ;      CG331     CG2R61     CG2R61
   12    10    11	5 ;      CG331     CG2R61     CG2R61
    9    10    11	5 ;     CG2R61     CG2R61     CG2R61
   10    11     6	5 ;     CG2R61     CG2R61     CG2R61
   10    11    48	5 ;     CG2R61     CG2R61      HGR61
    6    11    48	5 ;     CG2R61     CG2R61      HGR61
   10    12    82	5 ;     CG2R61      CG331       HGA3
   10    12    83	5 ;     CG2R61      CG331       HGA3
   10    12    84	5 ;     CG2R61      CG331       HGA3
   82    12    83	5 ;       HGA3      CG331       HGA3
   82    12    84	5 ;       HGA3      CG331       HGA3
   83    12    84	5 ;       HGA3      CG331       HGA3
    8    13    14	5 ;     CG2R61      CG2O1      OG2D1
    8    13    15	5 ;     CG2R61      CG2O1      NG2S0
   14    13    15	5 ;      OG2D1      CG2O1      NG2S0
   13    15    19	5 ;      CG2O1      NG2S0      CG321
   13    15    16	5 ;      CG2O1      NG2S0      CG321
   19    15    16	5 ;      CG321      NG2S0      CG321
   17    16    15	5 ;      CG321      CG321      NG2S0
   17    16    49	5 ;      CG321      CG321       HGA2
   17    16    50	5 ;      CG321      CG321       HGA2
   15    16    49	5 ;      NG2S0      CG321       HGA2
   15    16    50	5 ;      NG2S0      CG321       HGA2
   49    16    50	5 ;       HGA2      CG321       HGA2
   18    17    16	5 ;      CG331      CG321      CG321
   18    17    51	5 ;      CG331      CG321       HGA2
   18    17    52	5 ;      CG331      CG321       HGA2
   16    17    51	5 ;      CG321      CG321       HGA2
   16    17    52	5 ;      CG321      CG321       HGA2
   51    17    52	5 ;       HGA2      CG321       HGA2
   17    18    76	5 ;      CG321      CG331       HGA3
   17    18    77	5 ;      CG321      CG331       HGA3
   17    18    78	5 ;      CG321      CG331       HGA3
   76    18    77	5 ;       HGA3      CG331       HGA3
   76    18    78	5 ;       HGA3      CG331       HGA3
   77    18    78	5 ;       HGA3      CG331       HGA3
   20    19    15	5 ;      CG321      CG321      NG2S0
   20    19    53	5 ;      CG321      CG321       HGA2
   20    19    54	5 ;      CG321      CG321       HGA2
   15    19    53	5 ;      NG2S0      CG321       HGA2
   15    19    54	5 ;      NG2S0      CG321       HGA2
   53    19    54	5 ;       HGA2      CG321       HGA2
   21    20    19	5 ;      CG331      CG321      CG321
   21    20    55	5 ;      CG331      CG321       HGA2
   21    20    56	5 ;      CG331      CG321       HGA2
   19    20    55	5 ;      CG321      CG321       HGA2
   19    20    56	5 ;      CG321      CG321       HGA2
   55    20    56	5 ;       HGA2      CG321       HGA2
   20    21    73	5 ;      CG321      CG331       HGA3
   20    21    74	5 ;      CG321      CG331       HGA3
   20    21    75	5 ;      CG321      CG331       HGA3
   73    21    74	5 ;       HGA3      CG331       HGA3
   73    21    75	5 ;       HGA3      CG331       HGA3
   74    21    75	5 ;       HGA3      CG331       HGA3
    1    22    23	5 ;      CG311      CG321     CG2R61
    1    22    57	5 ;      CG311      CG321       HGA2
    1    22    58	5 ;      CG311      CG321       HGA2
   23    22    57	5 ;     CG2R61      CG321       HGA2
   23    22    58	5 ;     CG2R61      CG321       HGA2
   57    22    58	5 ;       HGA2      CG321       HGA2
   22    23    24	5 ;      CG321     CG2R61     CG2R61
   22    23    29	5 ;      CG321     CG2R61     CG2R61
   24    23    29	5 ;     CG2R61     CG2R61     CG2R61
   23    24    25	5 ;     CG2R61     CG2R61     CG2R66
   23    24    59	5 ;     CG2R61     CG2R61      HGR62
   25    24    59	5 ;     CG2R66     CG2R61      HGR62
   24    25    26	5 ;     CG2R61     CG2R66       FGR1
   24    25    27	5 ;     CG2R61     CG2R66     CG2R61
   26    25    27	5 ;       FGR1     CG2R66     CG2R61
   25    27    28	5 ;     CG2R66     CG2R61     CG2R66
   25    27    60	5 ;     CG2R66     CG2R61      HGR62
   28    27    60	5 ;     CG2R66     CG2R61      HGR62
   29    28    27	5 ;     CG2R61     CG2R66     CG2R61
   29    28    30	5 ;     CG2R61     CG2R66       FGR1
   27    28    30	5 ;     CG2R61     CG2R66       FGR1
   23    29    28	5 ;     CG2R61     CG2R61     CG2R66
   23    29    61	5 ;     CG2R61     CG2R61      HGR62
   28    29    61	5 ;     CG2R66     CG2R61      HGR62
   34    31     1	5 ;      CG314      CG311      CG311
   34    31    32	5 ;      CG314      CG311      OG311
   34    31    62	5 ;      CG314      CG311       HGA1
    1    31    32	5 ;      CG311      CG311      OG311
    1    31    62	5 ;      CG311      CG311       HGA1
   32    31    62	5 ;      OG311      CG311       HGA1
   31    32    33	5 ;      CG311      OG311       HGP1
   41    34    35	5 ;      CG321      CG314      NG3P2
   41    34    31	5 ;      CG321      CG314      CG311
   41    34    63	5 ;      CG321      CG314       HGA1
   35    34    31	5 ;      NG3P2      CG314      CG311
   35    34    63	5 ;      NG3P2      CG314       HGA1
   31    34    63	5 ;      CG311      CG314       HGA1
   36    35    37	5 ;      CG324      NG3P2       HGP2
   36    35    34	5 ;      CG324      NG3P2      CG314
   36    35    38	5 ;      CG324      NG3P2       HGP2
   37    35    34	5 ;       HGP2      NG3P2      CG314
   37    35    38	5 ;       HGP2      NG3P2       HGP2
   34    35    38	5 ;      CG314      NG3P2       HGP2
   39    36    35	5 ;      CG321      CG324      NG3P2
   39    36    64	5 ;      CG321      CG324       HGA2
   39    36    65	5 ;      CG321      CG324       HGA2
   35    36    64	5 ;      NG3P2      CG324       HGA2
   35    36    65	5 ;      NG3P2      CG324       HGA2
   64    36    65	5 ;       HGA2      CG324       HGA2
   40    39    36	5 ;      CG311      CG321      CG324
   40    39    66	5 ;      CG311      CG321       HGA2
   40    39    67	5 ;      CG311      CG321       HGA2
   36    39    66	5 ;      CG324      CG321       HGA2
   36    39    67	5 ;      CG324      CG321       HGA2
   66    39    67	5 ;       HGA2      CG321       HGA2
   42    40    39	5 ;      OG301      CG311      CG321
   42    40    41	5 ;      OG301      CG311      CG321
   42    40    68	5 ;      OG301      CG311       HGA1
   39    40    41	5 ;      CG321      CG311      CG321
   39    40    68	5 ;      CG321      CG311       HGA1
   41    40    68	5 ;      CG321      CG311       HGA1
   40    41    34	5 ;      CG311      CG321      CG314
   40    41    69	5 ;      CG311      CG321       HGA2
   40    41    70	5 ;      CG311      CG321       HGA2
   34    41    69	5 ;      CG314      CG321       HGA2
   34    41    70	5 ;      CG314      CG321       HGA2
   69    41    70	5 ;       HGA2      CG321       HGA2
   43    42    40	5 ;      CG321      OG301      CG311
   44    43    42	5 ;      CG331      CG321      OG301
   44    43    71	5 ;      CG331      CG321       HGA2
   44    43    72	5 ;      CG331      CG321       HGA2
   42    43    71	5 ;      OG301      CG321       HGA2
   42    43    72	5 ;      OG301      CG321       HGA2
   71    43    72	5 ;       HGA2      CG321       HGA2
   43    44    79	5 ;      CG321      CG331       HGA3
   43    44    80	5 ;      CG321      CG331       HGA3
   43    44    81	5 ;      CG321      CG331       HGA3
   79    44    80	5 ;       HGA3      CG331       HGA3
   79    44    81	5 ;       HGA3      CG331       HGA3
   80    44    81	5 ;       HGA3      CG331       HGA3

[ dihedrals ]
;	ai	  aj	ak	  al funct			  c0			c1			  c2			c3			  c4			c5
   31     1     2     3	 9 ;      CG311      CG311      NG2S1      CG2O1
   31     1     2     5	 9 ;      CG311      CG311      NG2S1       HGP1
   22     1     2     3	 9 ;      CG321      CG311      NG2S1      CG2O1
   22     1     2     5	 9 ;      CG321      CG311      NG2S1       HGP1
   45     1     2     3	 9 ;       HGA1      CG311      NG2S1      CG2O1
   45     1     2     5	 9 ;       HGA1      CG311      NG2S1       HGP1
    2     1    31    34	 9 ;      NG2S1      CG311      CG311      CG314
    2     1    31    32	 9 ;      NG2S1      CG311      CG311      OG311
    2     1    31    62	 9 ;      NG2S1      CG311      CG311       HGA1
   22     1    31    34	 9 ;      CG321      CG311      CG311      CG314
   22     1    31    32	 9 ;      CG321      CG311      CG311      OG311
   22     1    31    62	 9 ;      CG321      CG311      CG311       HGA1
   45     1    31    34	 9 ;       HGA1      CG311      CG311      CG314
   45     1    31    32	 9 ;       HGA1      CG311      CG311      OG311
   45     1    31    62	 9 ;       HGA1      CG311      CG311       HGA1
    2     1    22    23	 9 ;      NG2S1      CG311      CG321     CG2R61
    2     1    22    57	 9 ;      NG2S1      CG311      CG321       HGA2
    2     1    22    58	 9 ;      NG2S1      CG311      CG321       HGA2
   31     1    22    23	 9 ;      CG311      CG311      CG321     CG2R61
   31     1    22    57	 9 ;      CG311      CG311      CG321       HGA2
   31     1    22    58	 9 ;      CG311      CG311      CG321       HGA2
   45     1    22    23	 9 ;       HGA1      CG311      CG321     CG2R61
   45     1    22    57	 9 ;       HGA1      CG311      CG321       HGA2
   45     1    22    58	 9 ;       HGA1      CG311      CG321       HGA2
    5     2     3     6	 9 ;       HGP1      NG2S1      CG2O1     CG2R61
    5     2     3     4	 9 ;       HGP1      NG2S1      CG2O1      OG2D1
    1     2     3     6	 9 ;      CG311      NG2S1      CG2O1     CG2R61
    1     2     3     4	 9 ;      CG311      NG2S1      CG2O1      OG2D1
    4     3     6    11	 9 ;      OG2D1      CG2O1     CG2R61     CG2R61
    4     3     6     7	 9 ;      OG2D1      CG2O1     CG2R61     CG2R61
    2     3     6    11	 9 ;      NG2S1      CG2O1     CG2R61     CG2R61
    2     3     6     7	 9 ;      NG2S1      CG2O1     CG2R61     CG2R61
    7     6    11    10	 9 ;     CG2R61     CG2R61     CG2R61     CG2R61
    7     6    11    48	 9 ;     CG2R61     CG2R61     CG2R61      HGR61
    3     6    11    10	 9 ;      CG2O1     CG2R61     CG2R61     CG2R61
    3     6    11    48	 9 ;      CG2O1     CG2R61     CG2R61      HGR61
   11     6     7     8	 9 ;     CG2R61     CG2R61     CG2R61     CG2R61
   11     6     7    46	 9 ;     CG2R61     CG2R61     CG2R61      HGR61
    3     6     7     8	 9 ;      CG2O1     CG2R61     CG2R61     CG2R61
    3     6     7    46	 9 ;      CG2O1     CG2R61     CG2R61      HGR61
    6     7     8     9	 9 ;     CG2R61     CG2R61     CG2R61     CG2R61
    6     7     8    13	 9 ;     CG2R61     CG2R61     CG2R61      CG2O1
   46     7     8     9	 9 ;      HGR61     CG2R61     CG2R61     CG2R61
   46     7     8    13	 9 ;      HGR61     CG2R61     CG2R61      CG2O1
   13     8     9    10	 9 ;      CG2O1     CG2R61     CG2R61     CG2R61
   13     8     9    47	 9 ;      CG2O1     CG2R61     CG2R61      HGR61
    7     8     9    10	 9 ;     CG2R61     CG2R61     CG2R61     CG2R61
    7     8     9    47	 9 ;     CG2R61     CG2R61     CG2R61      HGR61
    9     8    13    14	 9 ;     CG2R61     CG2R61      CG2O1      OG2D1
    9     8    13    15	 9 ;     CG2R61     CG2R61      CG2O1      NG2S0
    7     8    13    14	 9 ;     CG2R61     CG2R61      CG2O1      OG2D1
    7     8    13    15	 9 ;     CG2R61     CG2R61      CG2O1      NG2S0
    8     9    10    12	 9 ;     CG2R61     CG2R61     CG2R61      CG331
    8     9    10    11	 9 ;     CG2R61     CG2R61     CG2R61     CG2R61
   47     9    10    12	 9 ;      HGR61     CG2R61     CG2R61      CG331
   47     9    10    11	 9 ;      HGR61     CG2R61     CG2R61     CG2R61
    9    10    12    82	 9 ;     CG2R61     CG2R61      CG331       HGA3
    9    10    12    83	 9 ;     CG2R61     CG2R61      CG331       HGA3
    9    10    12    84	 9 ;     CG2R61     CG2R61      CG331       HGA3
   11    10    12    82	 9 ;     CG2R61     CG2R61      CG331       HGA3
   11    10    12    83	 9 ;     CG2R61     CG2R61      CG331       HGA3
   11    10    12    84	 9 ;     CG2R61     CG2R61      CG331       HGA3
   12    10    11     6	 9 ;      CG331     CG2R61     CG2R61     CG2R61
   12    10    11    48	 9 ;      CG331     CG2R61     CG2R61      HGR61
    9    10    11     6	 9 ;     CG2R61     CG2R61     CG2R61     CG2R61
    9    10    11    48	 9 ;     CG2R61     CG2R61     CG2R61      HGR61
    8    13    15    19	 9 ;     CG2R61      CG2O1      NG2S0      CG321
    8    13    15    16	 9 ;     CG2R61      CG2O1      NG2S0      CG321
   14    13    15    19	 9 ;      OG2D1      CG2O1      NG2S0      CG321
   14    13    15    16	 9 ;      OG2D1      CG2O1      NG2S0      CG321
   13    15    19    20	 9 ;      CG2O1      NG2S0      CG321      CG321
   13    15    19    53	 9 ;      CG2O1      NG2S0      CG321       HGA2
   13    15    19    54	 9 ;      CG2O1      NG2S0      CG321       HGA2
   16    15    19    20	 9 ;      CG321      NG2S0      CG321      CG321
   16    15    19    53	 9 ;      CG321      NG2S0      CG321       HGA2
   16    15    19    54	 9 ;      CG321      NG2S0      CG321       HGA2
   13    15    16    17	 9 ;      CG2O1      NG2S0      CG321      CG321
   13    15    16    49	 9 ;      CG2O1      NG2S0      CG321       HGA2
   13    15    16    50	 9 ;      CG2O1      NG2S0      CG321       HGA2
   19    15    16    17	 9 ;      CG321      NG2S0      CG321      CG321
   19    15    16    49	 9 ;      CG321      NG2S0      CG321       HGA2
   19    15    16    50	 9 ;      CG321      NG2S0      CG321       HGA2
   15    16    17    18	 9 ;      NG2S0      CG321      CG321      CG331
   15    16    17    51	 9 ;      NG2S0      CG321      CG321       HGA2
   15    16    17    52	 9 ;      NG2S0      CG321      CG321       HGA2
   49    16    17    18	 9 ;       HGA2      CG321      CG321      CG331
   49    16    17    51	 9 ;       HGA2      CG321      CG321       HGA2
   49    16    17    52	 9 ;       HGA2      CG321      CG321       HGA2
   50    16    17    18	 9 ;       HGA2      CG321      CG321      CG331
   50    16    17    51	 9 ;       HGA2      CG321      CG321       HGA2
   50    16    17    52	 9 ;       HGA2      CG321      CG321       HGA2
   16    17    18    76	 9 ;      CG321      CG321      CG331       HGA3
   16    17    18    77	 9 ;      CG321      CG321      CG331       HGA3
   16    17    18    78	 9 ;      CG321      CG321      CG331       HGA3
   51    17    18    76	 9 ;       HGA2      CG321      CG331       HGA3
   51    17    18    77	 9 ;       HGA2      CG321      CG331       HGA3
   51    17    18    78	 9 ;       HGA2      CG321      CG331       HGA3
   52    17    18    76	 9 ;       HGA2      CG321      CG331       HGA3
   52    17    18    77	 9 ;       HGA2      CG321      CG331       HGA3
   52    17    18    78	 9 ;       HGA2      CG321      CG331       HGA3
   15    19    20    21	 9 ;      NG2S0      CG321      CG321      CG331
   15    19    20    55	 9 ;      NG2S0      CG321      CG321       HGA2
   15    19    20    56	 9 ;      NG2S0      CG321      CG321       HGA2
   53    19    20    21	 9 ;       HGA2      CG321      CG321      CG331
   53    19    20    55	 9 ;       HGA2      CG321      CG321       HGA2
   53    19    20    56	 9 ;       HGA2      CG321      CG321       HGA2
   54    19    20    21	 9 ;       HGA2      CG321      CG321      CG331
   54    19    20    55	 9 ;       HGA2      CG321      CG321       HGA2
   54    19    20    56	 9 ;       HGA2      CG321      CG321       HGA2
   19    20    21    73	 9 ;      CG321      CG321      CG331       HGA3
   19    20    21    74	 9 ;      CG321      CG321      CG331       HGA3
   19    20    21    75	 9 ;      CG321      CG321      CG331       HGA3
   55    20    21    73	 9 ;       HGA2      CG321      CG331       HGA3
   55    20    21    74	 9 ;       HGA2      CG321      CG331       HGA3
   55    20    21    75	 9 ;       HGA2      CG321      CG331       HGA3
   56    20    21    73	 9 ;       HGA2      CG321      CG331       HGA3
   56    20    21    74	 9 ;       HGA2      CG321      CG331       HGA3
   56    20    21    75	 9 ;       HGA2      CG321      CG331       HGA3
    1    22    23    24	 9 ;      CG311      CG321     CG2R61     CG2R61
    1    22    23    29	 9 ;      CG311      CG321     CG2R61     CG2R61
   57    22    23    24	 9 ;       HGA2      CG321     CG2R61     CG2R61
   57    22    23    29	 9 ;       HGA2      CG321     CG2R61     CG2R61
   58    22    23    24	 9 ;       HGA2      CG321     CG2R61     CG2R61
   58    22    23    29	 9 ;       HGA2      CG321     CG2R61     CG2R61
   22    23    24    25	 9 ;      CG321     CG2R61     CG2R61     CG2R66
   22    23    24    59	 9 ;      CG321     CG2R61     CG2R61      HGR62
   29    23    24    25	 9 ;     CG2R61     CG2R61     CG2R61     CG2R66
   29    23    24    59	 9 ;     CG2R61     CG2R61     CG2R61      HGR62
   22    23    29    28	 9 ;      CG321     CG2R61     CG2R61     CG2R66
   22    23    29    61	 9 ;      CG321     CG2R61     CG2R61      HGR62
   24    23    29    28	 9 ;     CG2R61     CG2R61     CG2R61     CG2R66
   24    23    29    61	 9 ;     CG2R61     CG2R61     CG2R61      HGR62
   23    24    25    26	 9 ;     CG2R61     CG2R61     CG2R66       FGR1
   23    24    25    27	 9 ;     CG2R61     CG2R61     CG2R66     CG2R61
   59    24    25    26	 9 ;      HGR62     CG2R61     CG2R66       FGR1
   59    24    25    27	 9 ;      HGR62     CG2R61     CG2R66     CG2R61
   24    25    27    28	 9 ;     CG2R61     CG2R66     CG2R61     CG2R66
   24    25    27    60	 9 ;     CG2R61     CG2R66     CG2R61      HGR62
   26    25    27    28	 9 ;       FGR1     CG2R66     CG2R61     CG2R66
   26    25    27    60	 9 ;       FGR1     CG2R66     CG2R61      HGR62
   25    27    28    29	 9 ;     CG2R66     CG2R61     CG2R66     CG2R61
   25    27    28    30	 9 ;     CG2R66     CG2R61     CG2R66       FGR1
   60    27    28    29	 9 ;      HGR62     CG2R61     CG2R66     CG2R61
   60    27    28    30	 9 ;      HGR62     CG2R61     CG2R66       FGR1
   27    28    29    23	 9 ;     CG2R61     CG2R66     CG2R61     CG2R61
   27    28    29    61	 9 ;     CG2R61     CG2R66     CG2R61      HGR62
   30    28    29    23	 9 ;       FGR1     CG2R66     CG2R61     CG2R61
   30    28    29    61	 9 ;       FGR1     CG2R66     CG2R61      HGR62
    1    31    34    41	 9 ;      CG311      CG311      CG314      CG321
    1    31    34    35	 9 ;      CG311      CG311      CG314      NG3P2
    1    31    34    63	 9 ;      CG311      CG311      CG314       HGA1
   32    31    34    41	 9 ;      OG311      CG311      CG314      CG321
   32    31    34    35	 9 ;      OG311      CG311      CG314      NG3P2
   32    31    34    63	 9 ;      OG311      CG311      CG314       HGA1
   62    31    34    41	 9 ;       HGA1      CG311      CG314      CG321
   62    31    34    35	 9 ;       HGA1      CG311      CG314      NG3P2
   62    31    34    63	 9 ;       HGA1      CG311      CG314       HGA1
   34    31    32    33	 9 ;      CG314      CG311      OG311       HGP1
    1    31    32    33	 9 ;      CG311      CG311      OG311       HGP1
   62    31    32    33	 9 ;       HGA1      CG311      OG311       HGP1
   35    34    41    40	 9 ;      NG3P2      CG314      CG321      CG311
   35    34    41    69	 9 ;      NG3P2      CG314      CG321       HGA2
   35    34    41    70	 9 ;      NG3P2      CG314      CG321       HGA2
   31    34    41    40	 9 ;      CG311      CG314      CG321      CG311
   31    34    41    69	 9 ;      CG311      CG314      CG321       HGA2
   31    34    41    70	 9 ;      CG311      CG314      CG321       HGA2
   63    34    41    40	 9 ;       HGA1      CG314      CG321      CG311
   63    34    41    69	 9 ;       HGA1      CG314      CG321       HGA2
   63    34    41    70	 9 ;       HGA1      CG314      CG321       HGA2
   41    34    35    36	 9 ;      CG321      CG314      NG3P2      CG324
   41    34    35    37	 9 ;      CG321      CG314      NG3P2       HGP2
   41    34    35    38	 9 ;      CG321      CG314      NG3P2       HGP2
   31    34    35    36	 9 ;      CG311      CG314      NG3P2      CG324
   31    34    35    37	 9 ;      CG311      CG314      NG3P2       HGP2
   31    34    35    38	 9 ;      CG311      CG314      NG3P2       HGP2
   63    34    35    36	 9 ;       HGA1      CG314      NG3P2      CG324
   63    34    35    37	 9 ;       HGA1      CG314      NG3P2       HGP2
   63    34    35    38	 9 ;       HGA1      CG314      NG3P2       HGP2
   37    35    36    39	 9 ;       HGP2      NG3P2      CG324      CG321
   37    35    36    64	 9 ;       HGP2      NG3P2      CG324       HGA2
   37    35    36    65	 9 ;       HGP2      NG3P2      CG324       HGA2
   34    35    36    39	 9 ;      CG314      NG3P2      CG324      CG321
   34    35    36    64	 9 ;      CG314      NG3P2      CG324       HGA2
   34    35    36    65	 9 ;      CG314      NG3P2      CG324       HGA2
   38    35    36    39	 9 ;       HGP2      NG3P2      CG324      CG321
   38    35    36    64	 9 ;       HGP2      NG3P2      CG324       HGA2
   38    35    36    65	 9 ;       HGP2      NG3P2      CG324       HGA2
   35    36    39    40	 9 ;      NG3P2      CG324      CG321      CG311
   35    36    39    66	 9 ;      NG3P2      CG324      CG321       HGA2
   35    36    39    67	 9 ;      NG3P2      CG324      CG321       HGA2
   64    36    39    40	 9 ;       HGA2      CG324      CG321      CG311
   64    36    39    66	 9 ;       HGA2      CG324      CG321       HGA2
   64    36    39    67	 9 ;       HGA2      CG324      CG321       HGA2
   65    36    39    40	 9 ;       HGA2      CG324      CG321      CG311
   65    36    39    66	 9 ;       HGA2      CG324      CG321       HGA2
   65    36    39    67	 9 ;       HGA2      CG324      CG321       HGA2
   36    39    40    42	 9 ;      CG324      CG321      CG311      OG301
   36    39    40    41	 9 ;      CG324      CG321      CG311      CG321
   36    39    40    68	 9 ;      CG324      CG321      CG311       HGA1
   66    39    40    42	 9 ;       HGA2      CG321      CG311      OG301
   66    39    40    41	 9 ;       HGA2      CG321      CG311      CG321
   66    39    40    68	 9 ;       HGA2      CG321      CG311       HGA1
   67    39    40    42	 9 ;       HGA2      CG321      CG311      OG301
   67    39    40    41	 9 ;       HGA2      CG321      CG311      CG321
   67    39    40    68	 9 ;       HGA2      CG321      CG311       HGA1
   39    40    42    43	 9 ;      CG321      CG311      OG301      CG321
   41    40    42    43	 9 ;      CG321      CG311      OG301      CG321
   68    40    42    43	 9 ;       HGA1      CG311      OG301      CG321
   42    40    41    34	 9 ;      OG301      CG311      CG321      CG314
   42    40    41    69	 9 ;      OG301      CG311      CG321       HGA2
   42    40    41    70	 9 ;      OG301      CG311      CG321       HGA2
   39    40    41    34	 9 ;      CG321      CG311      CG321      CG314
   39    40    41    69	 9 ;      CG321      CG311      CG321       HGA2
   39    40    41    70	 9 ;      CG321      CG311      CG321       HGA2
   68    40    41    34	 9 ;       HGA1      CG311      CG321      CG314
   68    40    41    69	 9 ;       HGA1      CG311      CG321       HGA2
   68    40    41    70	 9 ;       HGA1      CG311      CG321       HGA2
   40    42    43    44	 9 ;      CG311      OG301      CG321      CG331
   40    42    43    71	 9 ;      CG311      OG301      CG321       HGA2
   40    42    43    72	 9 ;      CG311      OG301      CG321       HGA2
   42    43    44    79	 9 ;      OG301      CG321      CG331       HGA3
   42    43    44    80	 9 ;      OG301      CG321      CG331       HGA3
   42    43    44    81	 9 ;      OG301      CG321      CG331       HGA3
   71    43    44    79	 9 ;       HGA2      CG321      CG331       HGA3
   71    43    44    80	 9 ;       HGA2      CG321      CG331       HGA3
   71    43    44    81	 9 ;       HGA2      CG321      CG331       HGA3
   72    43    44    79	 9 ;       HGA2      CG321      CG331       HGA3
   72    43    44    80	 9 ;       HGA2      CG321      CG331       HGA3
   72    43    44    81	 9 ;       HGA2      CG321      CG331       HGA3

[ dihedrals ]
;	ai	  aj	ak	  al funct			  c0			c1			  c2			c3
    3     6     2     4	 2
   13     8    15    14	 2

