GROningen Mixture of Alchemy and Childrens' Stories
   84
    1LIG     C1    1  -1.686   0.563  -1.418
    1LIG     N1    2  -1.582   0.495  -1.496
    1LIG     C2    3  -1.603   0.449  -1.624
    1LIG     O1    4  -1.696   0.489  -1.692
    1LIG     H1    5  -1.510   0.449  -1.442
    1LIG     C3    6  -1.508   0.346  -1.676
    1LIG     C4    7  -1.499   0.226  -1.604
    1LIG     C5    8  -1.401   0.130  -1.632
    1LIG     C6    9  -1.320   0.153  -1.745
    1LIG     C7   10  -1.333   0.268  -1.824
    1LIG     C8   11  -1.425   0.366  -1.787
    1LIG     C9   12  -1.250   0.287  -1.948
    1LIG    C10   13  -1.371   0.006  -1.551
    1LIG     O2   14  -1.424  -0.097  -1.593
    1LIG     N2   15  -1.286  -0.000  -1.439
    1LIG    C11   16  -1.232   0.109  -1.359
    1LIG    C12   17  -1.115   0.178  -1.431
    1LIG    C13   18  -1.144   0.324  -1.460
    1LIG    C14   19  -1.258  -0.134  -1.387
    1LIG    C15   20  -1.130  -0.197  -1.442
    1LIG    C16   21  -1.154  -0.294  -1.557
    1LIG    C17   22  -1.712   0.475  -1.290
    1LIG    C18   23  -1.860   0.462  -1.256
    1LIG    C19   24  -1.960   0.498  -1.348
    1LIG    C20   25  -2.095   0.495  -1.311
    1LIG     F1   26  -2.189   0.533  -1.398
    1LIG    C21   27  -2.134   0.454  -1.183
    1LIG    C22   28  -2.035   0.414  -1.095
    1LIG    C23   29  -1.900   0.417  -1.130
    1LIG     F2   30  -2.070   0.374  -0.972
    1LIG    C24   31  -1.641   0.708  -1.380
    1LIG     O3   32  -1.744   0.783  -1.313
    1LIG     H2   33  -1.740   0.877  -1.340
    1LIG    C25   34  -1.583   0.799  -1.494
    1LIG     N3   35  -1.678   0.782  -1.612
    1LIG    C26   36  -1.641   0.861  -1.732
    1LIG     H3   37  -1.683   0.681  -1.633
    1LIG     H4   38  -1.773   0.809  -1.582
    1LIG    C27   39  -1.507   0.814  -1.783
    1LIG    C28   40  -1.399   0.827  -1.676
    1LIG    C29   41  -1.442   0.761  -1.543
    1LIG     O4   42  -1.280   0.758  -1.718
    1LIG    C30   43  -1.238   0.650  -1.633
    1LIG    C31   44  -1.117   0.584  -1.695
    1LIG     HC   45  -1.777   0.568  -1.477
    1LIG    HC1   46  -1.570   0.207  -1.525
    1LIG    HC2   47  -1.244   0.080  -1.770
    1LIG    HC3   48  -1.433   0.457  -1.845
    1LIG    HC4   49  -1.310   0.182  -1.340
    1LIG    HC5   50  -1.196   0.070  -1.263
    1LIG    HC6   51  -1.097   0.126  -1.525
    1LIG    HC7   52  -1.026   0.171  -1.369
    1LIG    HC8   53  -1.249  -0.128  -1.278
    1LIG    HC9   54  -1.342  -0.200  -1.411
    1LIG   HC10   55  -1.065  -0.117  -1.478
    1LIG   HC11   56  -1.079  -0.250  -1.362
    1LIG   HC12   57  -1.671   0.376  -1.308
    1LIG   HC13   58  -1.660   0.520  -1.205
    1LIG   HC14   59  -1.933   0.527  -1.448
    1LIG   HC15   60  -2.238   0.453  -1.155
    1LIG   HC16   61  -1.826   0.384  -1.058
    1LIG   HC17   62  -1.561   0.697  -1.308
    1LIG   HC18   63  -1.583   0.903  -1.461
    1LIG   HC19   64  -1.717   0.847  -1.809
    1LIG   HC20   65  -1.635   0.967  -1.705
    1LIG   HC21   66  -1.479   0.874  -1.869
    1LIG   HC22   67  -1.515   0.710  -1.813
    1LIG   HC23   68  -1.376   0.932  -1.659
    1LIG   HC24   69  -1.370   0.790  -1.466
    1LIG   HC25   70  -1.438   0.653  -1.555
    1LIG   HC26   71  -1.319   0.578  -1.623
    1LIG   HC27   72  -1.213   0.690  -1.535
    1LIG   HC28   73  -1.058  -0.334  -1.591
    1LIG   HC29   74  -1.217  -0.376  -1.523
    1LIG   HC30   75  -1.202  -0.242  -1.639
    1LIG   HC31   76  -1.059   0.369  -1.511
    1LIG   HC32   77  -1.233   0.332  -1.524
    1LIG   HC33   78  -1.162   0.377  -1.367
    1LIG   HC34   79  -1.080   0.644  -1.778
    1LIG   HC35   80  -1.144   0.485  -1.731
    1LIG   HC36   81  -1.038   0.574  -1.620
    1LIG   HC37   82  -1.184   0.201  -1.962
    1LIG   HC38   83  -1.190   0.378  -1.938
    1LIG   HC39   84  -1.316   0.297  -2.035
   0.00000   0.00000   0.00000
