; Created by cgenff_charmm2gmx.py

[ moleculetype ]
; Name			   nrexcl
LIG				 3

[ atoms ]
;	 nr		  type	resnr residue  atom   cgnr	   charge		mass  typeB    chargeB		massB
; residue	 1 LIG rtp LIG q	qsum
     1      CG324      1    LIG     C1      1      0.186     12.011   ;
     2      CG311      1    LIG     C2      2      0.093     12.011   ;
     3      OG311      1    LIG     O1      3     -0.625     15.999   ;
     4       HGP1      1    LIG     H1      4      0.415      1.008   ;
     5      CG311      1    LIG     C3      5     -0.007     12.011   ;
     6      NG2S1      1    LIG     N1      6     -0.339     14.007   ;
     7      CG2O1      1    LIG     C4      7      0.488     12.011   ;
     8      OG2D1      1    LIG     O2      8     -0.509     15.999   ;
     9      CG331      1    LIG     C5      9     -0.270     12.011   ;
    10       HGP1      1    LIG     H2     10      0.261      1.008   ;
    11      CG321      1    LIG     C6     11     -0.153     12.011   ;
    12     CG2R61      1    LIG     C7     12      0.057     12.011   ;
    13     CG2R61      1    LIG     C8     13     -0.218     12.011   ;
    14     CG2R66      1    LIG     C9     14      0.261     12.011   ;
    15       FGR1      1    LIG     F1     15     -0.210     18.998   ;
    16     CG2R61      1    LIG    C10     16     -0.240     12.011   ;
    17     CG2R66      1    LIG    C11     17      0.261     12.011   ;
    18     CG2R61      1    LIG    C12     18     -0.218     12.011   ;
    19       FGR1      1    LIG     F2     19     -0.210     18.998   ;
    20      NG3P2      1    LIG     N2     20     -0.483     14.007   ;
    21       HGP2      1    LIG     H3     21      0.343      1.008   ;
    22       HGP2      1    LIG     H4     22      0.343      1.008   ;
    23     CG3C31      1    LIG    C13     23      0.393     12.011   ;
    24     CG3C31      1    LIG    C14     24     -0.149     12.011   ;
    25     CG3C31      1    LIG    C15     25     -0.149     12.011   ;
    26     CG2R61      1    LIG    C16     26     -0.100     12.011   ;
    27     CG2R61      1    LIG    C17     27     -0.081     12.011   ;
    28     CG2R61      1    LIG    C18     28     -0.026     12.011   ;
    29     CG2R61      1    LIG    C19     29     -0.120     12.011   ;
    30     CG2R61      1    LIG    C20     30     -0.113     12.011   ;
    31     CG2R61      1    LIG    C21     31     -0.077     12.011   ;
    32     CG2DC1      1    LIG    C22     32      0.431     12.011   ;
    33     CG2DC3      1    LIG    C23     33     -0.666     12.011   ;
    34      CG302      1    LIG    C24     34      0.371     12.011   ;
    35       FGA3      1    LIG     F3     35     -0.176     18.998   ;
    36       FGA3      1    LIG     F4     36     -0.176     18.998   ;
    37       FGA3      1    LIG     F5     37     -0.176     18.998   ;
    38       HGA2      1    LIG    HC2     38      0.090      1.008   ;
    39       HGA2      1    LIG    HC3     39      0.090      1.008   ;
    40       HGA1      1    LIG     HC     40      0.090      1.008   ;
    41       HGA1      1    LIG    HC1     41      0.090      1.008   ;
    42       HGA3      1    LIG    HC4     42      0.090      1.008   ;
    43       HGA3      1    LIG    HC5     43      0.090      1.008   ;
    44       HGA3      1    LIG    HC6     44      0.090      1.008   ;
    45       HGA2      1    LIG    HC7     45      0.090      1.008   ;
    46       HGA2      1    LIG    HC8     46      0.090      1.008   ;
    47      HGR62      1    LIG    HC9     47      0.174      1.008   ;
    48      HGR62      1    LIG   HC10     48      0.186      1.008   ;
    49      HGR62      1    LIG   HC11     49      0.174      1.008   ;
    50       HGA2      1    LIG   HC12     50      0.090      1.008   ;
    51       HGA2      1    LIG   HC13     51      0.090      1.008   ;
    52       HGA2      1    LIG   HC14     52      0.090      1.008   ;
    53       HGA2      1    LIG   HC15     53      0.090      1.008   ;
    54      HGR61      1    LIG   HC16     54      0.116      1.008   ;
    55      HGR61      1    LIG   HC17     55      0.116      1.008   ;
    56      HGR61      1    LIG   HC18     56      0.116      1.008   ;
    57      HGR61      1    LIG   HC19     57      0.116      1.008   ;
    58       HGA5      1    LIG   HC20     58      0.210      1.008   ;
    59       HGA5      1    LIG   HC21     59      0.210      1.008   ;

[ bonds ]
;	ai	  aj funct			  c0			c1			  c2			c3
    1     2	 1 ;       CG324      CG311
    1    20	 1 ;       CG324      NG3P2
    1    38	 1 ;       CG324       HGA2
    1    39	 1 ;       CG324       HGA2
    2     5	 1 ;       CG311      CG311
    2     3	 1 ;       CG311      OG311
    2    40	 1 ;       CG311       HGA1
    3     4	 1 ;       OG311       HGP1
    5     6	 1 ;       CG311      NG2S1
    5    11	 1 ;       CG311      CG321
    5    41	 1 ;       CG311       HGA1
    6     7	 1 ;       NG2S1      CG2O1
    6    10	 1 ;       NG2S1       HGP1
    7     9	 1 ;       CG2O1      CG331
    7     8	 1 ;       CG2O1      OG2D1
    9    42	 1 ;       CG331       HGA3
    9    43	 1 ;       CG331       HGA3
    9    44	 1 ;       CG331       HGA3
   11    12	 1 ;       CG321     CG2R61
   11    45	 1 ;       CG321       HGA2
   11    46	 1 ;       CG321       HGA2
   12    18	 1 ;      CG2R61     CG2R61
   12    13	 1 ;      CG2R61     CG2R61
   13    14	 1 ;      CG2R61     CG2R66
   13    47	 1 ;      CG2R61      HGR62
   14    16	 1 ;      CG2R66     CG2R61
   14    15	 1 ;      CG2R66       FGR1
   16    17	 1 ;      CG2R61     CG2R66
   16    48	 1 ;      CG2R61      HGR62
   17    19	 1 ;      CG2R66       FGR1
   17    18	 1 ;      CG2R66     CG2R61
   18    49	 1 ;      CG2R61      HGR62
   20    21	 1 ;       NG3P2       HGP2
   20    23	 1 ;       NG3P2     CG3C31
   20    22	 1 ;       NG3P2       HGP2
   23    26	 1 ;      CG3C31     CG2R61
   23    24	 1 ;      CG3C31     CG3C31
   23    25	 1 ;      CG3C31     CG3C31
   24    25	 1 ;      CG3C31     CG3C31
   24    50	 1 ;      CG3C31       HGA2
   24    51	 1 ;      CG3C31       HGA2
   25    52	 1 ;      CG3C31       HGA2
   25    53	 1 ;      CG3C31       HGA2
   26    27	 1 ;      CG2R61     CG2R61
   26    31	 1 ;      CG2R61     CG2R61
   27    28	 1 ;      CG2R61     CG2R61
   27    54	 1 ;      CG2R61      HGR61
   28    32	 1 ;      CG2R61     CG2DC1
   28    29	 1 ;      CG2R61     CG2R61
   29    30	 1 ;      CG2R61     CG2R61
   29    55	 1 ;      CG2R61      HGR61
   30    31	 1 ;      CG2R61     CG2R61
   30    56	 1 ;      CG2R61      HGR61
   31    57	 1 ;      CG2R61      HGR61
   32    34	 1 ;      CG2DC1      CG302
   32    33	 1 ;      CG2DC1     CG2DC3
   33    58	 1 ;      CG2DC3       HGA5
   33    59	 1 ;      CG2DC3       HGA5
   34    35	 1 ;       CG302       FGA3
   34    36	 1 ;       CG302       FGA3
   34    37	 1 ;       CG302       FGA3

[ pairs ]
;	ai	  aj funct			  c0			c1			  c2			c3
    1     6	 1
    1    11	 1
    1    41	 1
    1     4	 1
    1    26	 1
    1    24	 1
    1    25	 1
    2    21	 1
    2    23	 1
    2    22	 1
    2     7	 1
    2    10	 1
    2    12	 1
    2    45	 1
    2    46	 1
    3    20	 1
    3    38	 1
    3    39	 1
    3     6	 1
    3    11	 1
    3    41	 1
    4     5	 1
    4    40	 1
    5    20	 1
    5    38	 1
    5    39	 1
    5     9	 1
    5     8	 1
    5    18	 1
    5    13	 1
    6    40	 1
    6    12	 1
    6    45	 1
    6    46	 1
    6    42	 1
    6    43	 1
    6    44	 1
    7    11	 1
    7    41	 1
    8    10	 1
    8    42	 1
    8    43	 1
    8    44	 1
    9    10	 1
   10    11	 1
   10    41	 1
   11    40	 1
   11    17	 1
   11    49	 1
   11    14	 1
   11    47	 1
   12    41	 1
   12    16	 1
   12    15	 1
   12    19	 1
   13    45	 1
   13    46	 1
   13    17	 1
   13    49	 1
   13    48	 1
   14    18	 1
   14    19	 1
   15    47	 1
   15    17	 1
   15    48	 1
   16    47	 1
   16    49	 1
   18    45	 1
   18    46	 1
   18    47	 1
   18    48	 1
   19    48	 1
   19    49	 1
   20    40	 1
   20    27	 1
   20    31	 1
   20    50	 1
   20    51	 1
   20    52	 1
   20    53	 1
   21    38	 1
   21    39	 1
   21    26	 1
   21    24	 1
   21    25	 1
   22    38	 1
   22    39	 1
   22    26	 1
   22    24	 1
   22    25	 1
   23    38	 1
   23    39	 1
   23    28	 1
   23    54	 1
   23    30	 1
   23    57	 1
   24    27	 1
   24    31	 1
   25    27	 1
   25    31	 1
   26    50	 1
   26    51	 1
   26    52	 1
   26    53	 1
   26    32	 1
   26    29	 1
   26    56	 1
   27    30	 1
   27    57	 1
   27    34	 1
   27    33	 1
   27    55	 1
   28    31	 1
   28    56	 1
   28    35	 1
   28    36	 1
   28    37	 1
   28    58	 1
   28    59	 1
   29    54	 1
   29    34	 1
   29    33	 1
   29    57	 1
   30    32	 1
   31    54	 1
   31    55	 1
   32    54	 1
   32    55	 1
   33    35	 1
   33    36	 1
   33    37	 1
   34    58	 1
   34    59	 1
   38    40	 1
   39    40	 1
   40    41	 1
   41    45	 1
   41    46	 1
   50    52	 1
   50    53	 1
   51    52	 1
   51    53	 1
   55    56	 1
   56    57	 1

[ angles ]
;	ai	  aj	ak funct			c0			  c1			c2			  c3
    2     1    20	5 ;      CG311      CG324      NG3P2
    2     1    38	5 ;      CG311      CG324       HGA2
    2     1    39	5 ;      CG311      CG324       HGA2
   20     1    38	5 ;      NG3P2      CG324       HGA2
   20     1    39	5 ;      NG3P2      CG324       HGA2
   38     1    39	5 ;       HGA2      CG324       HGA2
    5     2     1	5 ;      CG311      CG311      CG324
    5     2     3	5 ;      CG311      CG311      OG311
    5     2    40	5 ;      CG311      CG311       HGA1
    1     2     3	5 ;      CG324      CG311      OG311
    1     2    40	5 ;      CG324      CG311       HGA1
    3     2    40	5 ;      OG311      CG311       HGA1
    2     3     4	5 ;      CG311      OG311       HGP1
    6     5    11	5 ;      NG2S1      CG311      CG321
    6     5     2	5 ;      NG2S1      CG311      CG311
    6     5    41	5 ;      NG2S1      CG311       HGA1
   11     5     2	5 ;      CG321      CG311      CG311
   11     5    41	5 ;      CG321      CG311       HGA1
    2     5    41	5 ;      CG311      CG311       HGA1
    7     6    10	5 ;      CG2O1      NG2S1       HGP1
    7     6     5	5 ;      CG2O1      NG2S1      CG311
   10     6     5	5 ;       HGP1      NG2S1      CG311
    9     7     8	5 ;      CG331      CG2O1      OG2D1
    9     7     6	5 ;      CG331      CG2O1      NG2S1
    8     7     6	5 ;      OG2D1      CG2O1      NG2S1
    7     9    42	5 ;      CG2O1      CG331       HGA3
    7     9    43	5 ;      CG2O1      CG331       HGA3
    7     9    44	5 ;      CG2O1      CG331       HGA3
   42     9    43	5 ;       HGA3      CG331       HGA3
   42     9    44	5 ;       HGA3      CG331       HGA3
   43     9    44	5 ;       HGA3      CG331       HGA3
   12    11     5	5 ;     CG2R61      CG321      CG311
   12    11    45	5 ;     CG2R61      CG321       HGA2
   12    11    46	5 ;     CG2R61      CG321       HGA2
    5    11    45	5 ;      CG311      CG321       HGA2
    5    11    46	5 ;      CG311      CG321       HGA2
   45    11    46	5 ;       HGA2      CG321       HGA2
   18    12    13	5 ;     CG2R61     CG2R61     CG2R61
   18    12    11	5 ;     CG2R61     CG2R61      CG321
   13    12    11	5 ;     CG2R61     CG2R61      CG321
   14    13    12	5 ;     CG2R66     CG2R61     CG2R61
   14    13    47	5 ;     CG2R66     CG2R61      HGR62
   12    13    47	5 ;     CG2R61     CG2R61      HGR62
   16    14    15	5 ;     CG2R61     CG2R66       FGR1
   16    14    13	5 ;     CG2R61     CG2R66     CG2R61
   15    14    13	5 ;       FGR1     CG2R66     CG2R61
   17    16    14	5 ;     CG2R66     CG2R61     CG2R66
   17    16    48	5 ;     CG2R66     CG2R61      HGR62
   14    16    48	5 ;     CG2R66     CG2R61      HGR62
   19    17    16	5 ;       FGR1     CG2R66     CG2R61
   19    17    18	5 ;       FGR1     CG2R66     CG2R61
   16    17    18	5 ;     CG2R61     CG2R66     CG2R61
   17    18    12	5 ;     CG2R66     CG2R61     CG2R61
   17    18    49	5 ;     CG2R66     CG2R61      HGR62
   12    18    49	5 ;     CG2R61     CG2R61      HGR62
    1    20    21	5 ;      CG324      NG3P2       HGP2
    1    20    23	5 ;      CG324      NG3P2     CG3C31
    1    20    22	5 ;      CG324      NG3P2       HGP2
   21    20    23	5 ;       HGP2      NG3P2     CG3C31
   21    20    22	5 ;       HGP2      NG3P2       HGP2
   23    20    22	5 ;     CG3C31      NG3P2       HGP2
   26    23    20	5 ;     CG2R61     CG3C31      NG3P2
   26    23    24	5 ;     CG2R61     CG3C31     CG3C31
   26    23    25	5 ;     CG2R61     CG3C31     CG3C31
   20    23    24	5 ;      NG3P2     CG3C31     CG3C31
   20    23    25	5 ;      NG3P2     CG3C31     CG3C31
   24    23    25	5 ;     CG3C31     CG3C31     CG3C31
   23    24    25	5 ;     CG3C31     CG3C31     CG3C31
   23    24    50	5 ;     CG3C31     CG3C31       HGA2
   23    24    51	5 ;     CG3C31     CG3C31       HGA2
   25    24    50	5 ;     CG3C31     CG3C31       HGA2
   25    24    51	5 ;     CG3C31     CG3C31       HGA2
   50    24    51	5 ;       HGA2     CG3C31       HGA2
   23    25    24	5 ;     CG3C31     CG3C31     CG3C31
   23    25    52	5 ;     CG3C31     CG3C31       HGA2
   23    25    53	5 ;     CG3C31     CG3C31       HGA2
   24    25    52	5 ;     CG3C31     CG3C31       HGA2
   24    25    53	5 ;     CG3C31     CG3C31       HGA2
   52    25    53	5 ;       HGA2     CG3C31       HGA2
   27    26    31	5 ;     CG2R61     CG2R61     CG2R61
   27    26    23	5 ;     CG2R61     CG2R61     CG3C31
   31    26    23	5 ;     CG2R61     CG2R61     CG3C31
   28    27    26	5 ;     CG2R61     CG2R61     CG2R61
   28    27    54	5 ;     CG2R61     CG2R61      HGR61
   26    27    54	5 ;     CG2R61     CG2R61      HGR61
   32    28    29	5 ;     CG2DC1     CG2R61     CG2R61
   32    28    27	5 ;     CG2DC1     CG2R61     CG2R61
   29    28    27	5 ;     CG2R61     CG2R61     CG2R61
   28    29    30	5 ;     CG2R61     CG2R61     CG2R61
   28    29    55	5 ;     CG2R61     CG2R61      HGR61
   30    29    55	5 ;     CG2R61     CG2R61      HGR61
   29    30    31	5 ;     CG2R61     CG2R61     CG2R61
   29    30    56	5 ;     CG2R61     CG2R61      HGR61
   31    30    56	5 ;     CG2R61     CG2R61      HGR61
   30    31    26	5 ;     CG2R61     CG2R61     CG2R61
   30    31    57	5 ;     CG2R61     CG2R61      HGR61
   26    31    57	5 ;     CG2R61     CG2R61      HGR61
   34    32    33	5 ;      CG302     CG2DC1     CG2DC3
   34    32    28	5 ;      CG302     CG2DC1     CG2R61
   33    32    28	5 ;     CG2DC3     CG2DC1     CG2R61
   32    33    58	5 ;     CG2DC1     CG2DC3       HGA5
   32    33    59	5 ;     CG2DC1     CG2DC3       HGA5
   58    33    59	5 ;       HGA5     CG2DC3       HGA5
   35    34    36	5 ;       FGA3      CG302       FGA3
   35    34    32	5 ;       FGA3      CG302     CG2DC1
   35    34    37	5 ;       FGA3      CG302       FGA3
   36    34    32	5 ;       FGA3      CG302     CG2DC1
   36    34    37	5 ;       FGA3      CG302       FGA3
   32    34    37	5 ;     CG2DC1      CG302       FGA3

[ dihedrals ]
;	ai	  aj	ak	  al funct			  c0			c1			  c2			c3			  c4			c5
   20     1     2     5	 9 ;      NG3P2      CG324      CG311      CG311
   20     1     2     3	 9 ;      NG3P2      CG324      CG311      OG311
   20     1     2    40	 9 ;      NG3P2      CG324      CG311       HGA1
   38     1     2     5	 9 ;       HGA2      CG324      CG311      CG311
   38     1     2     3	 9 ;       HGA2      CG324      CG311      OG311
   38     1     2    40	 9 ;       HGA2      CG324      CG311       HGA1
   39     1     2     5	 9 ;       HGA2      CG324      CG311      CG311
   39     1     2     3	 9 ;       HGA2      CG324      CG311      OG311
   39     1     2    40	 9 ;       HGA2      CG324      CG311       HGA1
    2     1    20    21	 9 ;      CG311      CG324      NG3P2       HGP2
    2     1    20    23	 9 ;      CG311      CG324      NG3P2     CG3C31
    2     1    20    22	 9 ;      CG311      CG324      NG3P2       HGP2
   38     1    20    21	 9 ;       HGA2      CG324      NG3P2       HGP2
   38     1    20    23	 9 ;       HGA2      CG324      NG3P2     CG3C31
   38     1    20    22	 9 ;       HGA2      CG324      NG3P2       HGP2
   39     1    20    21	 9 ;       HGA2      CG324      NG3P2       HGP2
   39     1    20    23	 9 ;       HGA2      CG324      NG3P2     CG3C31
   39     1    20    22	 9 ;       HGA2      CG324      NG3P2       HGP2
    1     2     5     6	 9 ;      CG324      CG311      CG311      NG2S1
    1     2     5    11	 9 ;      CG324      CG311      CG311      CG321
    1     2     5    41	 9 ;      CG324      CG311      CG311       HGA1
    3     2     5     6	 9 ;      OG311      CG311      CG311      NG2S1
    3     2     5    11	 9 ;      OG311      CG311      CG311      CG321
    3     2     5    41	 9 ;      OG311      CG311      CG311       HGA1
   40     2     5     6	 9 ;       HGA1      CG311      CG311      NG2S1
   40     2     5    11	 9 ;       HGA1      CG311      CG311      CG321
   40     2     5    41	 9 ;       HGA1      CG311      CG311       HGA1
    5     2     3     4	 9 ;      CG311      CG311      OG311       HGP1
    1     2     3     4	 9 ;      CG324      CG311      OG311       HGP1
   40     2     3     4	 9 ;       HGA1      CG311      OG311       HGP1
   11     5     6     7	 9 ;      CG321      CG311      NG2S1      CG2O1
   11     5     6    10	 9 ;      CG321      CG311      NG2S1       HGP1
    2     5     6     7	 9 ;      CG311      CG311      NG2S1      CG2O1
    2     5     6    10	 9 ;      CG311      CG311      NG2S1       HGP1
   41     5     6     7	 9 ;       HGA1      CG311      NG2S1      CG2O1
   41     5     6    10	 9 ;       HGA1      CG311      NG2S1       HGP1
    6     5    11    12	 9 ;      NG2S1      CG311      CG321     CG2R61
    6     5    11    45	 9 ;      NG2S1      CG311      CG321       HGA2
    6     5    11    46	 9 ;      NG2S1      CG311      CG321       HGA2
    2     5    11    12	 9 ;      CG311      CG311      CG321     CG2R61
    2     5    11    45	 9 ;      CG311      CG311      CG321       HGA2
    2     5    11    46	 9 ;      CG311      CG311      CG321       HGA2
   41     5    11    12	 9 ;       HGA1      CG311      CG321     CG2R61
   41     5    11    45	 9 ;       HGA1      CG311      CG321       HGA2
   41     5    11    46	 9 ;       HGA1      CG311      CG321       HGA2
   10     6     7     9	 9 ;       HGP1      NG2S1      CG2O1      CG331
   10     6     7     8	 9 ;       HGP1      NG2S1      CG2O1      OG2D1
    5     6     7     9	 9 ;      CG311      NG2S1      CG2O1      CG331
    5     6     7     8	 9 ;      CG311      NG2S1      CG2O1      OG2D1
    8     7     9    42	 9 ;      OG2D1      CG2O1      CG331       HGA3
    8     7     9    43	 9 ;      OG2D1      CG2O1      CG331       HGA3
    8     7     9    44	 9 ;      OG2D1      CG2O1      CG331       HGA3
    6     7     9    42	 9 ;      NG2S1      CG2O1      CG331       HGA3
    6     7     9    43	 9 ;      NG2S1      CG2O1      CG331       HGA3
    6     7     9    44	 9 ;      NG2S1      CG2O1      CG331       HGA3
    5    11    12    18	 9 ;      CG311      CG321     CG2R61     CG2R61
    5    11    12    13	 9 ;      CG311      CG321     CG2R61     CG2R61
   45    11    12    18	 9 ;       HGA2      CG321     CG2R61     CG2R61
   45    11    12    13	 9 ;       HGA2      CG321     CG2R61     CG2R61
   46    11    12    18	 9 ;       HGA2      CG321     CG2R61     CG2R61
   46    11    12    13	 9 ;       HGA2      CG321     CG2R61     CG2R61
   13    12    18    17	 9 ;     CG2R61     CG2R61     CG2R61     CG2R66
   13    12    18    49	 9 ;     CG2R61     CG2R61     CG2R61      HGR62
   11    12    18    17	 9 ;      CG321     CG2R61     CG2R61     CG2R66
   11    12    18    49	 9 ;      CG321     CG2R61     CG2R61      HGR62
   18    12    13    14	 9 ;     CG2R61     CG2R61     CG2R61     CG2R66
   18    12    13    47	 9 ;     CG2R61     CG2R61     CG2R61      HGR62
   11    12    13    14	 9 ;      CG321     CG2R61     CG2R61     CG2R66
   11    12    13    47	 9 ;      CG321     CG2R61     CG2R61      HGR62
   12    13    14    16	 9 ;     CG2R61     CG2R61     CG2R66     CG2R61
   12    13    14    15	 9 ;     CG2R61     CG2R61     CG2R66       FGR1
   47    13    14    16	 9 ;      HGR62     CG2R61     CG2R66     CG2R61
   47    13    14    15	 9 ;      HGR62     CG2R61     CG2R66       FGR1
   15    14    16    17	 9 ;       FGR1     CG2R66     CG2R61     CG2R66
   15    14    16    48	 9 ;       FGR1     CG2R66     CG2R61      HGR62
   13    14    16    17	 9 ;     CG2R61     CG2R66     CG2R61     CG2R66
   13    14    16    48	 9 ;     CG2R61     CG2R66     CG2R61      HGR62
   14    16    17    19	 9 ;     CG2R66     CG2R61     CG2R66       FGR1
   14    16    17    18	 9 ;     CG2R66     CG2R61     CG2R66     CG2R61
   48    16    17    19	 9 ;      HGR62     CG2R61     CG2R66       FGR1
   48    16    17    18	 9 ;      HGR62     CG2R61     CG2R66     CG2R61
   19    17    18    12	 9 ;       FGR1     CG2R66     CG2R61     CG2R61
   19    17    18    49	 9 ;       FGR1     CG2R66     CG2R61      HGR62
   16    17    18    12	 9 ;     CG2R61     CG2R66     CG2R61     CG2R61
   16    17    18    49	 9 ;     CG2R61     CG2R66     CG2R61      HGR62
    1    20    23    26	 9 ;      CG324      NG3P2     CG3C31     CG2R61
    1    20    23    24	 9 ;      CG324      NG3P2     CG3C31     CG3C31
    1    20    23    25	 9 ;      CG324      NG3P2     CG3C31     CG3C31
   21    20    23    26	 9 ;       HGP2      NG3P2     CG3C31     CG2R61
   21    20    23    24	 9 ;       HGP2      NG3P2     CG3C31     CG3C31
   21    20    23    25	 9 ;       HGP2      NG3P2     CG3C31     CG3C31
   22    20    23    26	 9 ;       HGP2      NG3P2     CG3C31     CG2R61
   22    20    23    24	 9 ;       HGP2      NG3P2     CG3C31     CG3C31
   22    20    23    25	 9 ;       HGP2      NG3P2     CG3C31     CG3C31
   20    23    26    27	 9 ;      NG3P2     CG3C31     CG2R61     CG2R61
   20    23    26    31	 9 ;      NG3P2     CG3C31     CG2R61     CG2R61
   24    23    26    27	 9 ;     CG3C31     CG3C31     CG2R61     CG2R61
   24    23    26    31	 9 ;     CG3C31     CG3C31     CG2R61     CG2R61
   25    23    26    27	 9 ;     CG3C31     CG3C31     CG2R61     CG2R61
   25    23    26    31	 9 ;     CG3C31     CG3C31     CG2R61     CG2R61
   26    23    24    25	 9 ;     CG2R61     CG3C31     CG3C31     CG3C31
   26    23    24    50	 9 ;     CG2R61     CG3C31     CG3C31       HGA2
   26    23    24    51	 9 ;     CG2R61     CG3C31     CG3C31       HGA2
   20    23    24    25	 9 ;      NG3P2     CG3C31     CG3C31     CG3C31
   20    23    24    50	 9 ;      NG3P2     CG3C31     CG3C31       HGA2
   20    23    24    51	 9 ;      NG3P2     CG3C31     CG3C31       HGA2
   25    23    24    50	 9 ;     CG3C31     CG3C31     CG3C31       HGA2
   25    23    24    51	 9 ;     CG3C31     CG3C31     CG3C31       HGA2
   26    23    25    24	 9 ;     CG2R61     CG3C31     CG3C31     CG3C31
   26    23    25    52	 9 ;     CG2R61     CG3C31     CG3C31       HGA2
   26    23    25    53	 9 ;     CG2R61     CG3C31     CG3C31       HGA2
   20    23    25    24	 9 ;      NG3P2     CG3C31     CG3C31     CG3C31
   20    23    25    52	 9 ;      NG3P2     CG3C31     CG3C31       HGA2
   20    23    25    53	 9 ;      NG3P2     CG3C31     CG3C31       HGA2
   24    23    25    52	 9 ;     CG3C31     CG3C31     CG3C31       HGA2
   24    23    25    53	 9 ;     CG3C31     CG3C31     CG3C31       HGA2
   23    24    25    52	 9 ;     CG3C31     CG3C31     CG3C31       HGA2
   23    24    25    53	 9 ;     CG3C31     CG3C31     CG3C31       HGA2
   50    24    25    23	 9 ;       HGA2     CG3C31     CG3C31     CG3C31
   50    24    25    52	 9 ;       HGA2     CG3C31     CG3C31       HGA2
   50    24    25    53	 9 ;       HGA2     CG3C31     CG3C31       HGA2
   51    24    25    23	 9 ;       HGA2     CG3C31     CG3C31     CG3C31
   51    24    25    52	 9 ;       HGA2     CG3C31     CG3C31       HGA2
   51    24    25    53	 9 ;       HGA2     CG3C31     CG3C31       HGA2
   31    26    27    28	 9 ;     CG2R61     CG2R61     CG2R61     CG2R61
   31    26    27    54	 9 ;     CG2R61     CG2R61     CG2R61      HGR61
   23    26    27    28	 9 ;     CG3C31     CG2R61     CG2R61     CG2R61
   23    26    27    54	 9 ;     CG3C31     CG2R61     CG2R61      HGR61
   27    26    31    30	 9 ;     CG2R61     CG2R61     CG2R61     CG2R61
   27    26    31    57	 9 ;     CG2R61     CG2R61     CG2R61      HGR61
   23    26    31    30	 9 ;     CG3C31     CG2R61     CG2R61     CG2R61
   23    26    31    57	 9 ;     CG3C31     CG2R61     CG2R61      HGR61
   26    27    28    32	 9 ;     CG2R61     CG2R61     CG2R61     CG2DC1
   26    27    28    29	 9 ;     CG2R61     CG2R61     CG2R61     CG2R61
   54    27    28    32	 9 ;      HGR61     CG2R61     CG2R61     CG2DC1
   54    27    28    29	 9 ;      HGR61     CG2R61     CG2R61     CG2R61
   29    28    32    34	 9 ;     CG2R61     CG2R61     CG2DC1      CG302
   29    28    32    33	 9 ;     CG2R61     CG2R61     CG2DC1     CG2DC3
   27    28    32    34	 9 ;     CG2R61     CG2R61     CG2DC1      CG302
   27    28    32    33	 9 ;     CG2R61     CG2R61     CG2DC1     CG2DC3
   32    28    29    30	 9 ;     CG2DC1     CG2R61     CG2R61     CG2R61
   32    28    29    55	 9 ;     CG2DC1     CG2R61     CG2R61      HGR61
   27    28    29    30	 9 ;     CG2R61     CG2R61     CG2R61     CG2R61
   27    28    29    55	 9 ;     CG2R61     CG2R61     CG2R61      HGR61
   28    29    30    31	 9 ;     CG2R61     CG2R61     CG2R61     CG2R61
   28    29    30    56	 9 ;     CG2R61     CG2R61     CG2R61      HGR61
   55    29    30    31	 9 ;      HGR61     CG2R61     CG2R61     CG2R61
   55    29    30    56	 9 ;      HGR61     CG2R61     CG2R61      HGR61
   29    30    31    26	 9 ;     CG2R61     CG2R61     CG2R61     CG2R61
   29    30    31    57	 9 ;     CG2R61     CG2R61     CG2R61      HGR61
   56    30    31    26	 9 ;      HGR61     CG2R61     CG2R61     CG2R61
   56    30    31    57	 9 ;      HGR61     CG2R61     CG2R61      HGR61
   33    32    34    35	 9 ;     CG2DC3     CG2DC1      CG302       FGA3
   33    32    34    36	 9 ;     CG2DC3     CG2DC1      CG302       FGA3
   33    32    34    37	 9 ;     CG2DC3     CG2DC1      CG302       FGA3
   28    32    34    35	 9 ;     CG2R61     CG2DC1      CG302       FGA3
   28    32    34    36	 9 ;     CG2R61     CG2DC1      CG302       FGA3
   28    32    34    37	 9 ;     CG2R61     CG2DC1      CG302       FGA3
   34    32    33    58	 9 ;      CG302     CG2DC1     CG2DC3       HGA5
   34    32    33    59	 9 ;      CG302     CG2DC1     CG2DC3       HGA5
   28    32    33    58	 9 ;     CG2R61     CG2DC1     CG2DC3       HGA5
   28    32    33    59	 9 ;     CG2R61     CG2DC1     CG2DC3       HGA5

[ dihedrals ]
;	ai	  aj	ak	  al funct			  c0			c1			  c2			c3
    7     9     6     8	 2

