Good ROcking Metal Altar for Chronical Sinners
   59
    1LIG     C1    1  -1.780   0.617  -1.492
    1LIG     C2    2  -1.750   0.766  -1.467
    1LIG     O1    3  -1.734   0.779  -1.325
    1LIG     H1    4  -1.737   0.691  -1.283
    1LIG     C3    5  -1.632   0.820  -1.553
    1LIG     N1    6  -1.629   0.966  -1.541
    1LIG     C4    7  -1.709   1.049  -1.615
    1LIG     O2    8  -1.787   1.008  -1.700
    1LIG     C5    9  -1.701   1.193  -1.572
    1LIG     H2   10  -1.561   1.009  -1.479
    1LIG     C6   11  -1.493   0.759  -1.515
    1LIG     C7   12  -1.431   0.676  -1.625
    1LIG     C8   13  -1.510   0.608  -1.719
    1LIG     C9   14  -1.452   0.521  -1.810
    1LIG     F1   15  -1.530   0.453  -1.895
    1LIG    C10   16  -1.314   0.500  -1.812
    1LIG    C11   17  -1.236   0.571  -1.723
    1LIG    C12   18  -1.292   0.659  -1.631
    1LIG     F2   19  -1.103   0.553  -1.723
    1LIG     N2   20  -1.749   0.547  -1.362
    1LIG     H3   21  -1.659   0.587  -1.332
    1LIG     H4   22  -1.817   0.574  -1.290
    1LIG    C13   23  -1.735   0.400  -1.364
    1LIG    C14   24  -1.858   0.318  -1.334
    1LIG    C15   25  -1.752   0.332  -1.230
    1LIG    C16   26  -1.627   0.351  -1.457
    1LIG    C17   27  -1.491   0.376  -1.430
    1LIG    C18   28  -1.387   0.310  -1.497
    1LIG    C19   29  -1.423   0.223  -1.601
    1LIG    C20   30  -1.556   0.204  -1.638
    1LIG    C21   31  -1.658   0.266  -1.565
    1LIG    C22   32  -1.246   0.325  -1.452
    1LIG    C23   33  -1.213   0.421  -1.363
    1LIG    C24   34  -1.139   0.233  -1.507
    1LIG     F3   35  -1.119   0.243  -1.642
    1LIG     F4   36  -1.018   0.259  -1.451
    1LIG     F5   37  -1.168   0.103  -1.482
    1LIG    HC2   38  -1.885   0.603  -1.518
    1LIG    HC3   39  -1.717   0.578  -1.572
    1LIG     HC   40  -1.838   0.823  -1.496
    1LIG    HC1   41  -1.652   0.795  -1.657
    1LIG    HC4   42  -1.766   1.254  -1.634
    1LIG    HC5   43  -1.598   1.228  -1.582
    1LIG    HC6   44  -1.732   1.201  -1.468
    1LIG    HC7   45  -1.425   0.841  -1.491
    1LIG    HC8   46  -1.506   0.697  -1.426
    1LIG    HC9   47  -1.617   0.623  -1.720
    1LIG   HC10   48  -1.270   0.430  -1.882
    1LIG   HC11   49  -1.228   0.715  -1.564
    1LIG   HC12   50  -1.872   0.222  -1.385
    1LIG   HC13   51  -1.949   0.375  -1.316
    1LIG   HC14   52  -1.689   0.246  -1.204
    1LIG   HC15   53  -1.776   0.398  -1.147
    1LIG   HC16   54  -1.467   0.450  -1.355
    1LIG   HC17   55  -1.345   0.171  -1.655
    1LIG   HC18   56  -1.581   0.141  -1.722
    1LIG   HC19   57  -1.761   0.249  -1.592
    1LIG   HC20   58  -1.289   0.486  -1.323
    1LIG   HC21   59  -1.110   0.431  -1.331
   0.00000   0.00000   0.00000
