God Rules Over Mankind, Animals, Cosmos and Such
   61
    1LIG     C1    1  -1.438   0.698  -1.597
    1LIG     N1    2  -1.451   0.777  -1.470
    1LIG    HN3    3  -1.440   0.743  -1.374
    1LIG     C2    4  -1.478   0.898  -1.508
    1LIG     N2    5  -1.478   0.922  -1.640
    1LIG     C3    6  -1.524   1.041  -1.708
    1LIG     C4    7  -1.439   0.808  -1.705
    1LIG      O    8  -1.420   0.797  -1.825
    1LIG     C5    9  -1.318   0.603  -1.595
    1LIG     C6   10  -1.336   0.468  -1.560
    1LIG     C7   11  -1.230   0.374  -1.553
    1LIG     C8   12  -1.102   0.422  -1.585
    1LIG     C9   13  -1.082   0.554  -1.625
    1LIG    C10   14  -1.189   0.644  -1.630
    1LIG    C11   15  -1.254   0.234  -1.512
    1LIG    C12   16  -1.309   0.140  -1.601
    1LIG    C13   17  -1.331   0.008  -1.562
    1LIG    C14   18  -1.298  -0.029  -1.433
    1LIG     N3   19  -1.246   0.056  -1.343
    1LIG    C15   20  -1.225   0.184  -1.384
    1LIG    HN4   21  -1.223   0.026  -1.248
    1LIG      F   22  -1.171   0.266  -1.292
    1LIG    C16   23  -1.560   0.611  -1.613
    1LIG    C17   24  -1.657   0.578  -1.520
    1LIG     N4   25  -1.756   0.513  -1.587
    1LIG     N5   26  -1.729   0.496  -1.718
    1LIG    C18   27  -1.610   0.554  -1.733
    1LIG    HN5   28  -1.786   0.450  -1.788
    1LIG    C19   29  -1.886   0.476  -1.535
    1LIG    C20   30  -1.881   0.370  -1.425
    1LIG    C21   31  -1.937   0.419  -1.292
    1LIG    C22   32  -1.826   0.468  -1.201
    1LIG     N6   33  -1.503   0.996  -1.418
    1LIG     H1   34  -1.485   0.968  -1.322
    1LIG     H2   35  -1.468   1.088  -1.440
    1LIG    HN2   36  -1.549   0.756  -1.467
    1LIG     HC   37  -1.584   0.873  -1.512
    1LIG    HC1   38  -1.436   0.433  -1.537
    1LIG    HC2   39  -1.018   0.355  -1.578
    1LIG    HC3   40  -0.982   0.587  -1.651
    1LIG    HC4   41  -1.171   0.746  -1.662
    1LIG    HC5   42  -1.335   0.170  -1.702
    1LIG    HC6   43  -1.372  -0.064  -1.632
    1LIG    HC7   44  -1.315  -0.131  -1.403
    1LIG    HC8   45  -1.654   0.599  -1.414
    1LIG    HC9   46  -1.557   0.557  -1.827
    1LIG   HC10   47  -1.946   0.438  -1.617
    1LIG   HC11   48  -1.934   0.565  -1.495
    1LIG   HC12   49  -1.778   0.339  -1.411
    1LIG   HC13   50  -1.939   0.283  -1.458
    1LIG   HC14   51  -2.007   0.501  -1.310
    1LIG   HC15   52  -1.990   0.337  -1.243
    1LIG    HN1   53  -1.604   1.007  -1.421
    1LIG   HC16   54  -1.869   0.502  -1.106
    1LIG   HC17   55  -1.756   0.386  -1.181
    1LIG   HC18   56  -1.773   0.550  -1.249
    1LIG   HC19   57  -1.510   1.029  -1.815
    1LIG   HC20   58  -1.630   1.056  -1.686
    1LIG   HC21   59  -1.467   1.127  -1.673
    1LIG    H30   60  -1.197  -0.055  -1.466
    1LIG    H31   61  -1.707   0.673  -1.538
   0.00000   0.00000   0.00000
