GRoups of Organic Molecules in ACtion for Science
   52
    1LIG     C1    1  -1.439   0.360  -1.594
    1LIG     N1    2  -1.577   0.375  -1.537
    1LIG    HN1    3  -1.604   0.430  -1.456
    1LIG     C2    4  -1.657   0.305  -1.611
    1LIG     N2    5  -1.790   0.294  -1.583
    1LIG     C3    6  -1.596   0.235  -1.728
    1LIG     C4    7  -1.465   0.311  -1.738
    1LIG     H1    8  -1.823   0.363  -1.517
    1LIG     H2    9  -1.853   0.275  -1.660
    1LIG     C5   10  -1.369   0.498  -1.590
    1LIG     C6   11  -1.442   0.613  -1.623
    1LIG     C7   12  -1.391   0.743  -1.608
    1LIG     C8   13  -1.260   0.756  -1.562
    1LIG     C9   14  -1.183   0.643  -1.532
    1LIG    C10   15  -1.237   0.515  -1.546
    1LIG    C11   16  -1.476   0.861  -1.637
    1LIG    C12   17  -1.441   0.958  -1.731
    1LIG     N3   18  -1.515   1.067  -1.761
    1LIG    C13   19  -1.630   1.079  -1.693
    1LIG    HN2   20  -1.485   1.135  -1.830
    1LIG     N4   21  -1.676   0.993  -1.601
    1LIG    C14   22  -1.597   0.886  -1.576
    1LIG    HN3   23  -1.765   1.008  -1.553
    1LIG    C15   24  -1.356   0.257  -1.513
    1LIG    C16   25  -1.345   0.264  -1.373
    1LIG    C17   26  -1.268   0.172  -1.301
    1LIG    C18   27  -1.197   0.072  -1.368
    1LIG    C19   28  -1.206   0.064  -1.507
    1LIG    C20   29  -1.285   0.155  -1.579
    1LIG      O   30  -1.117  -0.023  -1.310
    1LIG    C21   31  -1.032  -0.097  -1.397
    1LIG    HC2   32  -1.656   0.246  -1.818
    1LIG    HC3   33  -1.578   0.130  -1.706
    1LIG    HC4   34  -1.385   0.245  -1.772
    1LIG    HC5   35  -1.476   0.396  -1.806
    1LIG     HC   36  -1.543   0.601  -1.661
    1LIG    HC1   37  -1.217   0.854  -1.548
    1LIG    HC6   38  -1.081   0.654  -1.498
    1LIG    HC7   39  -1.176   0.428  -1.523
    1LIG    HC8   40  -1.348   0.945  -1.784
    1LIG    HC9   41  -1.691   1.165  -1.715
    1LIG   HC10   42  -1.632   0.816  -1.502
    1LIG   HC11   43  -1.398   0.342  -1.320
    1LIG   HC12   44  -1.262   0.179  -1.194
    1LIG   HC13   45  -1.151  -0.013  -1.560
    1LIG   HC14   46  -1.291   0.146  -1.686
    1LIG   HC15   47  -0.958  -0.151  -1.338
    1LIG   HC16   48  -1.091  -0.167  -1.455
    1LIG   HC17   49  -0.981  -0.028  -1.464
    1LIG    H24   50  -1.677   0.393  -1.673
    1LIG    H25   51  -1.390   1.014  -1.653
    1LIG    H26   52  -1.578   1.135  -1.615
   0.00000   0.00000   0.00000
