; Created by cgenff_charmm2gmx.py

[ moleculetype ]
; Name			   nrexcl
LIG				 3

[ atoms ]
;	 nr		  type	resnr residue  atom   cgnr	   charge		mass  typeB    chargeB		massB
; residue	 1 LIG rtp LIG q	qsum
     1     CG3C50      1    LIG     C1      1      0.964     12.011   ;
     2     NG3C51      1    LIG     N1      2     -0.796     14.007   ;
     3       HGP1      1    LIG    HN1      3      0.199      1.008   ;
     4     CG3C51      1    LIG     C2      4      0.099     12.011   ;
     5      NG321      1    LIG     N2      5     -0.890     14.007   ;
     6     CG3C52      1    LIG     C3      6     -0.118     12.011   ;
     7     CG3C52      1    LIG     C4      7     -0.254     12.011   ;
     8     HGPAM2      1    LIG     H1      8      0.349      1.008   ;
     9     HGPAM2      1    LIG     H2      9      0.349      1.008   ;
    10     CG2R61      1    LIG     C5     10     -0.078     12.011   ;
    11     CG2R61      1    LIG     C6     11     -0.185     12.011   ;
    12     CG2R61      1    LIG     C7     12      0.025     12.011   ;
    13     CG2R61      1    LIG     C8     13     -0.120     12.011   ;
    14     CG2R61      1    LIG     C9     14     -0.102     12.011   ;
    15     CG2R61      1    LIG    C10     15     -0.181     12.011   ;
    16     CG2DC1      1    LIG    C11     16     -0.086     12.011   ;
    17      CG321      1    LIG    C12     17      0.013     12.011   ;
    18      NG311      1    LIG     N3     18     -0.656     14.007   ;
    19      CG321      1    LIG    C13     19      0.131     12.011   ;
    20     HGPAM1      1    LIG    HN2     20      0.367      1.008   ;
    21      NG311      1    LIG     N4     21     -0.598     14.007   ;
    22     CG2D1O      1    LIG    C14     22     -0.097     12.011   ;
    23     HGPAM1      1    LIG    HN3     23      0.406      1.008   ;
    24     CG2R61      1    LIG    C15     24     -0.081     12.011   ;
    25     CG2R61      1    LIG    C16     25     -0.178     12.011   ;
    26     CG2R61      1    LIG    C17     26     -0.110     12.011   ;
    27     CG2R61      1    LIG    C18     27      0.211     12.011   ;
    28     CG2R61      1    LIG    C19     28     -0.110     12.011   ;
    29     CG2R61      1    LIG    C20     29     -0.178     12.011   ;
    30      OG301      1    LIG      O     30     -0.383     15.999   ;
    31      CG331      1    LIG    C21     31     -0.094     12.011   ;
    32       HGA2      1    LIG    HC2     32      0.090      1.008   ;
    33       HGA2      1    LIG    HC3     33      0.090      1.008   ;
    34       HGA2      1    LIG    HC4     34      0.090      1.008   ;
    35       HGA2      1    LIG    HC5     35      0.090      1.008   ;
    36      HGR61      1    LIG     HC     36      0.116      1.008   ;
    37      HGR61      1    LIG    HC1     37      0.116      1.008   ;
    38      HGR61      1    LIG    HC6     38      0.116      1.008   ;
    39      HGR61      1    LIG    HC7     39      0.116      1.008   ;
    40       HGA2      1    LIG    HC8     40      0.090      1.008   ;
    41       HGA2      1    LIG    HC9     41      0.090      1.008   ;
    42       HGA4      1    LIG   HC10     42      0.148      1.008   ;
    43      HGR61      1    LIG   HC11     43      0.116      1.008   ;
    44      HGR61      1    LIG   HC12     44      0.116      1.008   ;
    45      HGR61      1    LIG   HC13     45      0.116      1.008   ;
    46      HGR61      1    LIG   HC14     46      0.116      1.008   ;
    47       HGA3      1    LIG   HC15     47      0.090      1.008   ;
    48       HGA3      1    LIG   HC16     48      0.090      1.008   ;
    49       HGA3      1    LIG   HC17     49      0.090      1.008   ;
    50       HGA1      1    LIG    H24     50      0.116      1.008   ;
    51       HGA2      1    LIG    H25     51      0.090      1.008   ;
    52       HGA2      1    LIG    H26     52      0.090      1.008   ;

[ bonds ]
;	ai	  aj funct			  c0			c1			  c2			c3
    1    10	 1 ;      CG3C50     CG2R61
    1     7	 1 ;      CG3C50     CG3C52
    1    24	 1 ;      CG3C50     CG2R61
    1     2	 1 ;      CG3C50     NG3C51
    2     4	 1 ;      NG3C51     CG3C51
    2     3	 1 ;      NG3C51       HGP1
    4     6	 1 ;      CG3C51     CG3C52
    4     5	 1 ;      CG3C51      NG321
    4    50	 1 ;      CG3C51       HGA1
    5     9	 1 ;       NG321     HGPAM2
    5     8	 1 ;       NG321     HGPAM2
    6     7	 1 ;      CG3C52     CG3C52
    6    32	 1 ;      CG3C52       HGA2
    6    33	 1 ;      CG3C52       HGA2
    7    34	 1 ;      CG3C52       HGA2
    7    35	 1 ;      CG3C52       HGA2
   10    15	 1 ;      CG2R61     CG2R61
   10    11	 1 ;      CG2R61     CG2R61
   11    12	 1 ;      CG2R61     CG2R61
   11    36	 1 ;      CG2R61      HGR61
   12    13	 1 ;      CG2R61     CG2R61
   12    16	 1 ;      CG2R61     CG2DC1
   13    14	 1 ;      CG2R61     CG2R61
   13    37	 1 ;      CG2R61      HGR61
   14    15	 1 ;      CG2R61     CG2R61
   14    38	 1 ;      CG2R61      HGR61
   15    39	 1 ;      CG2R61      HGR61
   16    17	 1 ;      CG2DC1      CG321
   16    22	 1 ;      CG2DC1     CG2D1O
   17    18	 1 ;       CG321      NG311
   17    40	 1 ;       CG321       HGA2
   17    51	 1 ;       CG321       HGA2
   18    20	 1 ;       NG311     HGPAM1
   18    19	 1 ;       NG311      CG321
   19    21	 1 ;       CG321      NG311
   19    41	 1 ;       CG321       HGA2
   19    52	 1 ;       CG321       HGA2
   21    22	 1 ;       NG311     CG2D1O
   21    23	 1 ;       NG311     HGPAM1
   22    42	 1 ;      CG2D1O       HGA4
   24    29	 1 ;      CG2R61     CG2R61
   24    25	 1 ;      CG2R61     CG2R61
   25    26	 1 ;      CG2R61     CG2R61
   25    43	 1 ;      CG2R61      HGR61
   26    27	 1 ;      CG2R61     CG2R61
   26    44	 1 ;      CG2R61      HGR61
   27    28	 1 ;      CG2R61     CG2R61
   27    30	 1 ;      CG2R61      OG301
   28    29	 1 ;      CG2R61     CG2R61
   28    45	 1 ;      CG2R61      HGR61
   29    46	 1 ;      CG2R61      HGR61
   30    31	 1 ;       OG301      CG331
   31    47	 1 ;       CG331       HGA3
   31    48	 1 ;       CG331       HGA3
   31    49	 1 ;       CG331       HGA3

[ pairs ]
;	ai	  aj funct			  c0			c1			  c2			c3
    1     5	 1
    1    50	 1
    1    32	 1
    1    33	 1
    1    14	 1
    1    39	 1
    1    12	 1
    1    36	 1
    1    28	 1
    1    46	 1
    1    26	 1
    1    43	 1
    2    15	 1
    2    11	 1
    2    34	 1
    2    35	 1
    2    29	 1
    2    25	 1
    2    32	 1
    2    33	 1
    2     9	 1
    2     8	 1
    3    10	 1
    3     7	 1
    3    24	 1
    3     6	 1
    3     5	 1
    3    50	 1
    4    10	 1
    4    24	 1
    4    34	 1
    4    35	 1
    5     7	 1
    5    32	 1
    5    33	 1
    6    10	 1
    6    24	 1
    6     9	 1
    6     8	 1
    7    15	 1
    7    11	 1
    7    29	 1
    7    25	 1
    7    50	 1
    8    50	 1
    9    50	 1
   10    34	 1
   10    35	 1
   10    29	 1
   10    25	 1
   10    13	 1
   10    16	 1
   10    38	 1
   11    24	 1
   11    14	 1
   11    39	 1
   11    37	 1
   11    17	 1
   11    22	 1
   12    15	 1
   12    38	 1
   12    18	 1
   12    40	 1
   12    51	 1
   12    21	 1
   12    42	 1
   13    36	 1
   13    17	 1
   13    22	 1
   13    39	 1
   14    16	 1
   15    24	 1
   15    36	 1
   15    37	 1
   16    36	 1
   16    37	 1
   16    20	 1
   16    19	 1
   16    23	 1
   17    21	 1
   17    42	 1
   17    41	 1
   17    52	 1
   18    22	 1
   18    23	 1
   19    40	 1
   19    51	 1
   19    42	 1
   20    40	 1
   20    51	 1
   20    21	 1
   20    41	 1
   20    52	 1
   22    40	 1
   22    51	 1
   22    41	 1
   22    52	 1
   23    41	 1
   23    52	 1
   23    42	 1
   24    34	 1
   24    35	 1
   24    27	 1
   24    44	 1
   24    45	 1
   25    28	 1
   25    46	 1
   25    30	 1
   26    29	 1
   26    45	 1
   26    31	 1
   27    43	 1
   27    46	 1
   27    47	 1
   27    48	 1
   27    49	 1
   28    44	 1
   28    31	 1
   29    43	 1
   29    30	 1
   30    44	 1
   30    45	 1
   32    50	 1
   32    34	 1
   32    35	 1
   33    50	 1
   33    34	 1
   33    35	 1
   37    38	 1
   38    39	 1
   43    44	 1
   45    46	 1

[ angles ]
;	ai	  aj	ak funct			c0			  c1			c2			  c3
   10     1     7	5 ;     CG2R61     CG3C50     CG3C52
   10     1    24	5 ;     CG2R61     CG3C50     CG2R61
   10     1     2	5 ;     CG2R61     CG3C50     NG3C51
    7     1    24	5 ;     CG3C52     CG3C50     CG2R61
    7     1     2	5 ;     CG3C52     CG3C50     NG3C51
   24     1     2	5 ;     CG2R61     CG3C50     NG3C51
    1     2     4	5 ;     CG3C50     NG3C51     CG3C51
    1     2     3	5 ;     CG3C50     NG3C51       HGP1
    4     2     3	5 ;     CG3C51     NG3C51       HGP1
    6     4     2	5 ;     CG3C52     CG3C51     NG3C51
    6     4     5	5 ;     CG3C52     CG3C51      NG321
    6     4    50	5 ;     CG3C52     CG3C51       HGA1
    2     4     5	5 ;     NG3C51     CG3C51      NG321
    2     4    50	5 ;     NG3C51     CG3C51       HGA1
    5     4    50	5 ;      NG321     CG3C51       HGA1
    4     5     9	5 ;     CG3C51      NG321     HGPAM2
    4     5     8	5 ;     CG3C51      NG321     HGPAM2
    9     5     8	5 ;     HGPAM2      NG321     HGPAM2
    7     6     4	5 ;     CG3C52     CG3C52     CG3C51
    7     6    32	5 ;     CG3C52     CG3C52       HGA2
    7     6    33	5 ;     CG3C52     CG3C52       HGA2
    4     6    32	5 ;     CG3C51     CG3C52       HGA2
    4     6    33	5 ;     CG3C51     CG3C52       HGA2
   32     6    33	5 ;       HGA2     CG3C52       HGA2
    1     7     6	5 ;     CG3C50     CG3C52     CG3C52
    1     7    34	5 ;     CG3C50     CG3C52       HGA2
    1     7    35	5 ;     CG3C50     CG3C52       HGA2
    6     7    34	5 ;     CG3C52     CG3C52       HGA2
    6     7    35	5 ;     CG3C52     CG3C52       HGA2
   34     7    35	5 ;       HGA2     CG3C52       HGA2
   15    10    11	5 ;     CG2R61     CG2R61     CG2R61
   15    10     1	5 ;     CG2R61     CG2R61     CG3C50
   11    10     1	5 ;     CG2R61     CG2R61     CG3C50
   12    11    10	5 ;     CG2R61     CG2R61     CG2R61
   12    11    36	5 ;     CG2R61     CG2R61      HGR61
   10    11    36	5 ;     CG2R61     CG2R61      HGR61
   13    12    16	5 ;     CG2R61     CG2R61     CG2DC1
   13    12    11	5 ;     CG2R61     CG2R61     CG2R61
   16    12    11	5 ;     CG2DC1     CG2R61     CG2R61
   14    13    12	5 ;     CG2R61     CG2R61     CG2R61
   14    13    37	5 ;     CG2R61     CG2R61      HGR61
   12    13    37	5 ;     CG2R61     CG2R61      HGR61
   13    14    15	5 ;     CG2R61     CG2R61     CG2R61
   13    14    38	5 ;     CG2R61     CG2R61      HGR61
   15    14    38	5 ;     CG2R61     CG2R61      HGR61
   14    15    10	5 ;     CG2R61     CG2R61     CG2R61
   14    15    39	5 ;     CG2R61     CG2R61      HGR61
   10    15    39	5 ;     CG2R61     CG2R61      HGR61
   17    16    12	5 ;      CG321     CG2DC1     CG2R61
   17    16    22	5 ;      CG321     CG2DC1     CG2D1O
   12    16    22	5 ;     CG2R61     CG2DC1     CG2D1O
   18    17    16	5 ;      NG311      CG321     CG2DC1
   18    17    40	5 ;      NG311      CG321       HGA2
   18    17    51	5 ;      NG311      CG321       HGA2
   16    17    40	5 ;     CG2DC1      CG321       HGA2
   16    17    51	5 ;     CG2DC1      CG321       HGA2
   40    17    51	5 ;       HGA2      CG321       HGA2
   20    18    17	5 ;     HGPAM1      NG311      CG321
   20    18    19	5 ;     HGPAM1      NG311      CG321
   17    18    19	5 ;      CG321      NG311      CG321
   18    19    21	5 ;      NG311      CG321      NG311
   18    19    41	5 ;      NG311      CG321       HGA2
   18    19    52	5 ;      NG311      CG321       HGA2
   21    19    41	5 ;      NG311      CG321       HGA2
   21    19    52	5 ;      NG311      CG321       HGA2
   41    19    52	5 ;       HGA2      CG321       HGA2
   19    21    22	5 ;      CG321      NG311     CG2D1O
   19    21    23	5 ;      CG321      NG311     HGPAM1
   22    21    23	5 ;     CG2D1O      NG311     HGPAM1
   16    22    21	5 ;     CG2DC1     CG2D1O      NG311
   16    22    42	5 ;     CG2DC1     CG2D1O       HGA4
   21    22    42	5 ;      NG311     CG2D1O       HGA4
   29    24     1	5 ;     CG2R61     CG2R61     CG3C50
   29    24    25	5 ;     CG2R61     CG2R61     CG2R61
    1    24    25	5 ;     CG3C50     CG2R61     CG2R61
   24    25    26	5 ;     CG2R61     CG2R61     CG2R61
   24    25    43	5 ;     CG2R61     CG2R61      HGR61
   26    25    43	5 ;     CG2R61     CG2R61      HGR61
   27    26    25	5 ;     CG2R61     CG2R61     CG2R61
   27    26    44	5 ;     CG2R61     CG2R61      HGR61
   25    26    44	5 ;     CG2R61     CG2R61      HGR61
   28    27    30	5 ;     CG2R61     CG2R61      OG301
   28    27    26	5 ;     CG2R61     CG2R61     CG2R61
   30    27    26	5 ;      OG301     CG2R61     CG2R61
   29    28    27	5 ;     CG2R61     CG2R61     CG2R61
   29    28    45	5 ;     CG2R61     CG2R61      HGR61
   27    28    45	5 ;     CG2R61     CG2R61      HGR61
   28    29    24	5 ;     CG2R61     CG2R61     CG2R61
   28    29    46	5 ;     CG2R61     CG2R61      HGR61
   24    29    46	5 ;     CG2R61     CG2R61      HGR61
   31    30    27	5 ;      CG331      OG301     CG2R61
   30    31    47	5 ;      OG301      CG331       HGA3
   30    31    48	5 ;      OG301      CG331       HGA3
   30    31    49	5 ;      OG301      CG331       HGA3
   47    31    48	5 ;       HGA3      CG331       HGA3
   47    31    49	5 ;       HGA3      CG331       HGA3
   48    31    49	5 ;       HGA3      CG331       HGA3

[ dihedrals ]
;	ai	  aj	ak	  al funct			  c0			c1			  c2			c3			  c4			c5
    7     1    10    15	 9 ;     CG3C52     CG3C50     CG2R61     CG2R61
    7     1    10    11	 9 ;     CG3C52     CG3C50     CG2R61     CG2R61
   24     1    10    15	 9 ;     CG2R61     CG3C50     CG2R61     CG2R61
   24     1    10    11	 9 ;     CG2R61     CG3C50     CG2R61     CG2R61
    2     1    10    15	 9 ;     NG3C51     CG3C50     CG2R61     CG2R61
    2     1    10    11	 9 ;     NG3C51     CG3C50     CG2R61     CG2R61
   10     1     7     6	 9 ;     CG2R61     CG3C50     CG3C52     CG3C52
   10     1     7    34	 9 ;     CG2R61     CG3C50     CG3C52       HGA2
   10     1     7    35	 9 ;     CG2R61     CG3C50     CG3C52       HGA2
   24     1     7     6	 9 ;     CG2R61     CG3C50     CG3C52     CG3C52
   24     1     7    34	 9 ;     CG2R61     CG3C50     CG3C52       HGA2
   24     1     7    35	 9 ;     CG2R61     CG3C50     CG3C52       HGA2
    2     1     7     6	 9 ;     NG3C51     CG3C50     CG3C52     CG3C52
    2     1     7    34	 9 ;     NG3C51     CG3C50     CG3C52       HGA2
    2     1     7    35	 9 ;     NG3C51     CG3C50     CG3C52       HGA2
   10     1    24    29	 9 ;     CG2R61     CG3C50     CG2R61     CG2R61
   10     1    24    25	 9 ;     CG2R61     CG3C50     CG2R61     CG2R61
    7     1    24    29	 9 ;     CG3C52     CG3C50     CG2R61     CG2R61
    7     1    24    25	 9 ;     CG3C52     CG3C50     CG2R61     CG2R61
    2     1    24    29	 9 ;     NG3C51     CG3C50     CG2R61     CG2R61
    2     1    24    25	 9 ;     NG3C51     CG3C50     CG2R61     CG2R61
   10     1     2     4	 9 ;     CG2R61     CG3C50     NG3C51     CG3C51
   10     1     2     3	 9 ;     CG2R61     CG3C50     NG3C51       HGP1
    7     1     2     4	 9 ;     CG3C52     CG3C50     NG3C51     CG3C51
    7     1     2     3	 9 ;     CG3C52     CG3C50     NG3C51       HGP1
   24     1     2     4	 9 ;     CG2R61     CG3C50     NG3C51     CG3C51
   24     1     2     3	 9 ;     CG2R61     CG3C50     NG3C51       HGP1
    1     2     4     6	 9 ;     CG3C50     NG3C51     CG3C51     CG3C52
    1     2     4     5	 9 ;     CG3C50     NG3C51     CG3C51      NG321
    1     2     4    50	 9 ;     CG3C50     NG3C51     CG3C51       HGA1
    3     2     4     6	 9 ;       HGP1     NG3C51     CG3C51     CG3C52
    3     2     4     5	 9 ;       HGP1     NG3C51     CG3C51      NG321
    3     2     4    50	 9 ;       HGP1     NG3C51     CG3C51       HGA1
    2     4     6     7	 9 ;     NG3C51     CG3C51     CG3C52     CG3C52
    2     4     6    32	 9 ;     NG3C51     CG3C51     CG3C52       HGA2
    2     4     6    33	 9 ;     NG3C51     CG3C51     CG3C52       HGA2
    5     4     6     7	 9 ;      NG321     CG3C51     CG3C52     CG3C52
    5     4     6    32	 9 ;      NG321     CG3C51     CG3C52       HGA2
    5     4     6    33	 9 ;      NG321     CG3C51     CG3C52       HGA2
   50     4     6     7	 9 ;       HGA1     CG3C51     CG3C52     CG3C52
   50     4     6    32	 9 ;       HGA1     CG3C51     CG3C52       HGA2
   50     4     6    33	 9 ;       HGA1     CG3C51     CG3C52       HGA2
    6     4     5     9	 9 ;     CG3C52     CG3C51      NG321     HGPAM2
    6     4     5     8	 9 ;     CG3C52     CG3C51      NG321     HGPAM2
    2     4     5     9	 9 ;     NG3C51     CG3C51      NG321     HGPAM2
    2     4     5     8	 9 ;     NG3C51     CG3C51      NG321     HGPAM2
   50     4     5     9	 9 ;       HGA1     CG3C51      NG321     HGPAM2
   50     4     5     8	 9 ;       HGA1     CG3C51      NG321     HGPAM2
    4     6     7     1	 9 ;     CG3C51     CG3C52     CG3C52     CG3C50
    4     6     7    34	 9 ;     CG3C51     CG3C52     CG3C52       HGA2
    4     6     7    35	 9 ;     CG3C51     CG3C52     CG3C52       HGA2
   32     6     7     1	 9 ;       HGA2     CG3C52     CG3C52     CG3C50
   32     6     7    34	 9 ;       HGA2     CG3C52     CG3C52       HGA2
   32     6     7    35	 9 ;       HGA2     CG3C52     CG3C52       HGA2
   33     6     7     1	 9 ;       HGA2     CG3C52     CG3C52     CG3C50
   33     6     7    34	 9 ;       HGA2     CG3C52     CG3C52       HGA2
   33     6     7    35	 9 ;       HGA2     CG3C52     CG3C52       HGA2
   11    10    15    14	 9 ;     CG2R61     CG2R61     CG2R61     CG2R61
   11    10    15    39	 9 ;     CG2R61     CG2R61     CG2R61      HGR61
    1    10    15    14	 9 ;     CG3C50     CG2R61     CG2R61     CG2R61
    1    10    15    39	 9 ;     CG3C50     CG2R61     CG2R61      HGR61
   15    10    11    12	 9 ;     CG2R61     CG2R61     CG2R61     CG2R61
   15    10    11    36	 9 ;     CG2R61     CG2R61     CG2R61      HGR61
    1    10    11    12	 9 ;     CG3C50     CG2R61     CG2R61     CG2R61
    1    10    11    36	 9 ;     CG3C50     CG2R61     CG2R61      HGR61
   10    11    12    13	 9 ;     CG2R61     CG2R61     CG2R61     CG2R61
   10    11    12    16	 9 ;     CG2R61     CG2R61     CG2R61     CG2DC1
   36    11    12    13	 9 ;      HGR61     CG2R61     CG2R61     CG2R61
   36    11    12    16	 9 ;      HGR61     CG2R61     CG2R61     CG2DC1
   16    12    13    14	 9 ;     CG2DC1     CG2R61     CG2R61     CG2R61
   16    12    13    37	 9 ;     CG2DC1     CG2R61     CG2R61      HGR61
   11    12    13    14	 9 ;     CG2R61     CG2R61     CG2R61     CG2R61
   11    12    13    37	 9 ;     CG2R61     CG2R61     CG2R61      HGR61
   13    12    16    17	 9 ;     CG2R61     CG2R61     CG2DC1      CG321
   13    12    16    22	 9 ;     CG2R61     CG2R61     CG2DC1     CG2D1O
   11    12    16    17	 9 ;     CG2R61     CG2R61     CG2DC1      CG321
   11    12    16    22	 9 ;     CG2R61     CG2R61     CG2DC1     CG2D1O
   12    13    14    15	 9 ;     CG2R61     CG2R61     CG2R61     CG2R61
   12    13    14    38	 9 ;     CG2R61     CG2R61     CG2R61      HGR61
   37    13    14    15	 9 ;      HGR61     CG2R61     CG2R61     CG2R61
   37    13    14    38	 9 ;      HGR61     CG2R61     CG2R61      HGR61
   13    14    15    10	 9 ;     CG2R61     CG2R61     CG2R61     CG2R61
   13    14    15    39	 9 ;     CG2R61     CG2R61     CG2R61      HGR61
   38    14    15    10	 9 ;      HGR61     CG2R61     CG2R61     CG2R61
   38    14    15    39	 9 ;      HGR61     CG2R61     CG2R61      HGR61
   12    16    17    18	 9 ;     CG2R61     CG2DC1      CG321      NG311
   12    16    17    40	 9 ;     CG2R61     CG2DC1      CG321       HGA2
   12    16    17    51	 9 ;     CG2R61     CG2DC1      CG321       HGA2
   22    16    17    18	 9 ;     CG2D1O     CG2DC1      CG321      NG311
   22    16    17    40	 9 ;     CG2D1O     CG2DC1      CG321       HGA2
   22    16    17    51	 9 ;     CG2D1O     CG2DC1      CG321       HGA2
   17    16    22    21	 9 ;      CG321     CG2DC1     CG2D1O      NG311
   17    16    22    42	 9 ;      CG321     CG2DC1     CG2D1O       HGA4
   12    16    22    21	 9 ;     CG2R61     CG2DC1     CG2D1O      NG311
   12    16    22    42	 9 ;     CG2R61     CG2DC1     CG2D1O       HGA4
   16    17    18    20	 9 ;     CG2DC1      CG321      NG311     HGPAM1
   16    17    18    19	 9 ;     CG2DC1      CG321      NG311      CG321
   40    17    18    20	 9 ;       HGA2      CG321      NG311     HGPAM1
   40    17    18    19	 9 ;       HGA2      CG321      NG311      CG321
   51    17    18    20	 9 ;       HGA2      CG321      NG311     HGPAM1
   51    17    18    19	 9 ;       HGA2      CG321      NG311      CG321
   20    18    19    21	 9 ;     HGPAM1      NG311      CG321      NG311
   20    18    19    41	 9 ;     HGPAM1      NG311      CG321       HGA2
   20    18    19    52	 9 ;     HGPAM1      NG311      CG321       HGA2
   17    18    19    21	 9 ;      CG321      NG311      CG321      NG311
   17    18    19    41	 9 ;      CG321      NG311      CG321       HGA2
   17    18    19    52	 9 ;      CG321      NG311      CG321       HGA2
   18    19    21    22	 9 ;      NG311      CG321      NG311     CG2D1O
   18    19    21    23	 9 ;      NG311      CG321      NG311     HGPAM1
   41    19    21    22	 9 ;       HGA2      CG321      NG311     CG2D1O
   41    19    21    23	 9 ;       HGA2      CG321      NG311     HGPAM1
   52    19    21    22	 9 ;       HGA2      CG321      NG311     CG2D1O
   52    19    21    23	 9 ;       HGA2      CG321      NG311     HGPAM1
   19    21    22    16	 9 ;      CG321      NG311     CG2D1O     CG2DC1
   19    21    22    42	 9 ;      CG321      NG311     CG2D1O       HGA4
   23    21    22    16	 9 ;     HGPAM1      NG311     CG2D1O     CG2DC1
   23    21    22    42	 9 ;     HGPAM1      NG311     CG2D1O       HGA4
    1    24    29    28	 9 ;     CG3C50     CG2R61     CG2R61     CG2R61
    1    24    29    46	 9 ;     CG3C50     CG2R61     CG2R61      HGR61
   25    24    29    28	 9 ;     CG2R61     CG2R61     CG2R61     CG2R61
   25    24    29    46	 9 ;     CG2R61     CG2R61     CG2R61      HGR61
   29    24    25    26	 9 ;     CG2R61     CG2R61     CG2R61     CG2R61
   29    24    25    43	 9 ;     CG2R61     CG2R61     CG2R61      HGR61
    1    24    25    26	 9 ;     CG3C50     CG2R61     CG2R61     CG2R61
    1    24    25    43	 9 ;     CG3C50     CG2R61     CG2R61      HGR61
   24    25    26    27	 9 ;     CG2R61     CG2R61     CG2R61     CG2R61
   24    25    26    44	 9 ;     CG2R61     CG2R61     CG2R61      HGR61
   43    25    26    27	 9 ;      HGR61     CG2R61     CG2R61     CG2R61
   43    25    26    44	 9 ;      HGR61     CG2R61     CG2R61      HGR61
   25    26    27    28	 9 ;     CG2R61     CG2R61     CG2R61     CG2R61
   25    26    27    30	 9 ;     CG2R61     CG2R61     CG2R61      OG301
   44    26    27    28	 9 ;      HGR61     CG2R61     CG2R61     CG2R61
   44    26    27    30	 9 ;      HGR61     CG2R61     CG2R61      OG301
   30    27    28    29	 9 ;      OG301     CG2R61     CG2R61     CG2R61
   30    27    28    45	 9 ;      OG301     CG2R61     CG2R61      HGR61
   26    27    28    29	 9 ;     CG2R61     CG2R61     CG2R61     CG2R61
   26    27    28    45	 9 ;     CG2R61     CG2R61     CG2R61      HGR61
   28    27    30    31	 9 ;     CG2R61     CG2R61      OG301      CG331
   26    27    30    31	 9 ;     CG2R61     CG2R61      OG301      CG331
   27    28    29    24	 9 ;     CG2R61     CG2R61     CG2R61     CG2R61
   27    28    29    46	 9 ;     CG2R61     CG2R61     CG2R61      HGR61
   45    28    29    24	 9 ;      HGR61     CG2R61     CG2R61     CG2R61
   45    28    29    46	 9 ;      HGR61     CG2R61     CG2R61      HGR61
   27    30    31    47	 9 ;     CG2R61      OG301      CG331       HGA3
   27    30    31    48	 9 ;     CG2R61      OG301      CG331       HGA3
   27    30    31    49	 9 ;     CG2R61      OG301      CG331       HGA3

[ dihedrals ]
;	ai	  aj	ak	  al funct			  c0			c1			  c2			c3
   22    16    21    42	 2

