Guyana Rwanda Oman Macau Angola Cameroon Senegal
   81
    1LIG     C1    1  -1.686   0.516  -1.482
    1LIG     C2    2  -1.693   0.441  -1.347
    1LIG     C3    3  -1.796   0.330  -1.342
    1LIG     C4    4  -1.838   0.278  -1.219
    1LIG     C5    5  -1.934   0.178  -1.213
    1LIG     C6    6  -1.991   0.128  -1.331
    1LIG     C7    7  -1.951   0.180  -1.454
    1LIG     C8    8  -1.854   0.281  -1.460
    1LIG     C9    9  -1.755   0.656  -1.476
    1LIG    C10   10  -1.821   0.704  -1.605
    1LIG     N1   11  -1.724   0.791  -1.682
    1LIG     H1   12  -1.672   0.734  -1.750
    1LIG     H2   13  -1.783   0.855  -1.738
    1LIG    C11   14  -1.629   0.874  -1.603
    1LIG    C12   15  -1.489   0.861  -1.657
    1LIG    C13   16  -1.383   0.823  -1.573
    1LIG    C14   17  -1.254   0.800  -1.625
    1LIG    C15   18  -1.233   0.816  -1.762
    1LIG    C16   19  -1.336   0.857  -1.846
    1LIG    C17   20  -1.464   0.880  -1.794
    1LIG    C18   21  -1.140   0.758  -1.535
    1LIG     F1   22  -1.182   0.722  -1.410
    1LIG     F2   23  -1.072   0.651  -1.584
    1LIG     F3   24  -1.048   0.857  -1.516
    1LIG     O1   25  -1.853   0.670  -1.372
    1LIG     H3   26  -1.941   0.658  -1.412
    1LIG     N2   27  -1.546   0.512  -1.531
    1LIG    C19   28  -1.521   0.484  -1.666
    1LIG     O2   29  -1.606   0.502  -1.752
    1LIG     H4   30  -1.470   0.497  -1.466
    1LIG    C20   31  -1.388   0.426  -1.703
    1LIG    C21   32  -1.331   0.333  -1.616
    1LIG    C22   33  -1.201   0.287  -1.637
    1LIG    C23   34  -1.126   0.334  -1.745
    1LIG    C24   35  -1.178   0.431  -1.831
    1LIG    C25   36  -1.311   0.474  -1.811
    1LIG     N3   37  -1.143   0.201  -1.540
    1LIG      S   38  -1.081   0.264  -1.396
    1LIG     O3   39  -1.040   0.401  -1.417
    1LIG     O4   40  -1.170   0.225  -1.288
    1LIG    C26   41  -0.933   0.163  -1.388
    1LIG    C27   42  -0.966   0.014  -1.401
    1LIG    C28   43  -1.041  -0.020  -1.529
    1LIG    C29   44  -1.173   0.057  -1.543
    1LIG     N4   45  -1.105   0.481  -1.941
    1LIG     H5   46  -1.069   0.575  -1.926
    1LIG    C30   47  -1.010   0.393  -2.008
    1LIG    C31   48  -0.868   0.443  -1.986
    1LIG     HC   49  -1.744   0.456  -1.553
    1LIG    HC2   50  -1.595   0.397  -1.327
    1LIG    HC3   51  -1.715   0.513  -1.268
    1LIG    HC1   52  -1.795   0.317  -1.127
    1LIG    HC4   53  -1.965   0.138  -1.118
    1LIG    HC5   54  -2.065   0.050  -1.326
    1LIG    HC6   55  -1.995   0.142  -1.545
    1LIG    HC7   56  -1.824   0.320  -1.555
    1LIG    HC8   57  -1.676   0.728  -1.454
    1LIG    HC9   58  -1.849   0.618  -1.666
    1LIG   HC10   59  -1.911   0.762  -1.581
    1LIG   HC11   60  -1.660   0.979  -1.608
    1LIG   HC12   61  -1.630   0.841  -1.499
    1LIG   HC13   62  -1.401   0.810  -1.467
    1LIG   HC14   63  -1.135   0.796  -1.804
    1LIG   HC15   64  -1.318   0.871  -1.951
    1LIG   HC16   65  -1.543   0.912  -1.859
    1LIG   HC17   66  -1.388   0.295  -1.532
    1LIG   HC18   67  -1.026   0.296  -1.761
    1LIG   HC19   68  -1.355   0.546  -1.879
    1LIG   HC20   69  -0.885   0.181  -1.292
    1LIG   HC21   70  -0.866   0.192  -1.468
    1LIG   HC22   71  -0.872  -0.042  -1.399
    1LIG   HC23   72  -1.026  -0.016  -1.315
    1LIG   HC24   73  -1.063  -0.126  -1.530
    1LIG   HC25   74  -0.978   0.004  -1.615
    1LIG   HC26   75  -1.222   0.031  -1.637
    1LIG   HC27   76  -1.239   0.032  -1.459
    1LIG   HC28   77  -1.031   0.391  -2.115
    1LIG   HC29   78  -1.019   0.292  -1.968
    1LIG   HC30   79  -0.798   0.377  -2.036
    1LIG   HC31   80  -0.846   0.444  -1.879
    1LIG   HC32   81  -0.858   0.544  -2.026
   0.00000   0.00000   0.00000
