; Created by cgenff_charmm2gmx.py

[ moleculetype ]
; Name			   nrexcl
LIG				 3

[ atoms ]
;	 nr		  type	resnr residue  atom   cgnr	   charge		mass  typeB    chargeB		massB
; residue	 1 LIG rtp LIG q	qsum
     1      CG311      1    LIG     C1      1      0.010     12.011   ;
     2      CG321      1    LIG     C2      2     -0.111     12.011   ;
     3     CG2R61      1    LIG     C3      3     -0.019     12.011   ;
     4     CG2R61      1    LIG     C4      4     -0.123     12.011   ;
     5     CG2R61      1    LIG     C5      5     -0.112     12.011   ;
     6     CG2R61      1    LIG     C6      6     -0.116     12.011   ;
     7     CG2R61      1    LIG     C7      7     -0.112     12.011   ;
     8     CG2R61      1    LIG     C8      8     -0.123     12.011   ;
     9      CG311      1    LIG     C9      9      0.094     12.011   ;
    10      CG324      1    LIG    C10     10      0.178     12.011   ;
    11      NG3P2      1    LIG     N1     11     -0.444     14.007   ;
    12       HGP2      1    LIG     H1     12      0.348      1.008   ;
    13       HGP2      1    LIG     H2     13      0.348      1.008   ;
    14      CG324      1    LIG    C11     14      0.171     12.011   ;
    15     CG2R61      1    LIG    C12     15      0.055     12.011   ;
    16     CG2R61      1    LIG    C13     16     -0.038     12.011   ;
    17     CG2R61      1    LIG    C14     17     -0.278     12.011   ;
    18     CG2R61      1    LIG    C15     18     -0.035     12.011   ;
    19     CG2R61      1    LIG    C16     19     -0.089     12.011   ;
    20     CG2R61      1    LIG    C17     20     -0.119     12.011   ;
    21      CG302      1    LIG    C18     21      0.605     12.011   ;
    22       FGA3      1    LIG     F1     22     -0.176     18.998   ;
    23       FGA3      1    LIG     F2     23     -0.176     18.998   ;
    24       FGA3      1    LIG     F3     24     -0.176     18.998   ;
    25      OG311      1    LIG     O1     25     -0.625     15.999   ;
    26       HGP1      1    LIG     H3     26      0.415      1.008   ;
    27      NG2S1      1    LIG     N2     27     -0.226     14.007   ;
    28      CG2O1      1    LIG    C19     28      0.302     12.011   ;
    29      OG2D1      1    LIG     O2     29     -0.463     15.999   ;
    30       HGP1      1    LIG     H4     30      0.262      1.008   ;
    31     CG2R61      1    LIG    C20     31     -0.100     12.011   ;
    32     CG2R61      1    LIG    C21     32     -0.065     12.011   ;
    33     CG2R61      1    LIG    C22     33      0.104     12.011   ;
    34     CG2R61      1    LIG    C23     34     -0.133     12.011   ;
    35     CG2R61      1    LIG    C24     35      0.071     12.011   ;
    36     CG2R61      1    LIG    C25     36     -0.072     12.011   ;
    37      NG301      1    LIG     N3     37     -0.329     14.007   ;
    38      SG3O2      1    LIG      S     38      0.442     32.060   ;
    39      OG2P1      1    LIG     O3     39     -0.374     15.999   ;
    40      OG2P1      1    LIG     O4     40     -0.374     15.999   ;
    41      CG321      1    LIG    C26     41      0.048     12.011   ;
    42      CG321      1    LIG    C27     42     -0.159     12.011   ;
    43      CG321      1    LIG    C28     43     -0.180     12.011   ;
    44      CG321      1    LIG    C29     44      0.109     12.011   ;
    45      NG311      1    LIG     N4     45     -0.508     14.007   ;
    46     HGPAM1      1    LIG     H5     46      0.367      1.008   ;
    47      CG321      1    LIG    C30     47     -0.120     12.011   ;
    48      CG331      1    LIG    C31     48     -0.236     12.011   ;
    49       HGA1      1    LIG     HC     49      0.090      1.008   ;
    50       HGA2      1    LIG    HC2     50      0.090      1.008   ;
    51       HGA2      1    LIG    HC3     51      0.090      1.008   ;
    52      HGR61      1    LIG    HC1     52      0.116      1.008   ;
    53      HGR61      1    LIG    HC4     53      0.116      1.008   ;
    54      HGR61      1    LIG    HC5     54      0.116      1.008   ;
    55      HGR61      1    LIG    HC6     55      0.116      1.008   ;
    56      HGR61      1    LIG    HC7     56      0.116      1.008   ;
    57       HGA1      1    LIG    HC8     57      0.090      1.008   ;
    58       HGA2      1    LIG    HC9     58      0.090      1.008   ;
    59       HGA2      1    LIG   HC10     59      0.090      1.008   ;
    60       HGA2      1    LIG   HC11     60      0.090      1.008   ;
    61       HGA2      1    LIG   HC12     61      0.090      1.008   ;
    62      HGR61      1    LIG   HC13     62      0.116      1.008   ;
    63      HGR61      1    LIG   HC14     63      0.116      1.008   ;
    64      HGR61      1    LIG   HC15     64      0.116      1.008   ;
    65      HGR61      1    LIG   HC16     65      0.116      1.008   ;
    66      HGR61      1    LIG   HC17     66      0.116      1.008   ;
    67      HGR61      1    LIG   HC18     67      0.116      1.008   ;
    68      HGR61      1    LIG   HC19     68      0.116      1.008   ;
    69       HGA2      1    LIG   HC20     69      0.090      1.008   ;
    70       HGA2      1    LIG   HC21     70      0.090      1.008   ;
    71       HGA2      1    LIG   HC22     71      0.090      1.008   ;
    72       HGA2      1    LIG   HC23     72      0.090      1.008   ;
    73       HGA2      1    LIG   HC24     73      0.090      1.008   ;
    74       HGA2      1    LIG   HC25     74      0.090      1.008   ;
    75       HGA2      1    LIG   HC26     75      0.090      1.008   ;
    76       HGA2      1    LIG   HC27     76      0.090      1.008   ;
    77       HGA2      1    LIG   HC28     77      0.090      1.008   ;
    78       HGA2      1    LIG   HC29     78      0.090      1.008   ;
    79       HGA3      1    LIG   HC30     79      0.090      1.008   ;
    80       HGA3      1    LIG   HC31     80      0.090      1.008   ;
    81       HGA3      1    LIG   HC32     81      0.090      1.008   ;

[ bonds ]
;	ai	  aj funct			  c0			c1			  c2			c3
    1    27	 1 ;       CG311      NG2S1
    1     9	 1 ;       CG311      CG311
    1     2	 1 ;       CG311      CG321
    1    49	 1 ;       CG311       HGA1
    2     3	 1 ;       CG321     CG2R61
    2    50	 1 ;       CG321       HGA2
    2    51	 1 ;       CG321       HGA2
    3     8	 1 ;      CG2R61     CG2R61
    3     4	 1 ;      CG2R61     CG2R61
    4     5	 1 ;      CG2R61     CG2R61
    4    52	 1 ;      CG2R61      HGR61
    5     6	 1 ;      CG2R61     CG2R61
    5    53	 1 ;      CG2R61      HGR61
    6     7	 1 ;      CG2R61     CG2R61
    6    54	 1 ;      CG2R61      HGR61
    7     8	 1 ;      CG2R61     CG2R61
    7    55	 1 ;      CG2R61      HGR61
    8    56	 1 ;      CG2R61      HGR61
    9    10	 1 ;       CG311      CG324
    9    25	 1 ;       CG311      OG311
    9    57	 1 ;       CG311       HGA1
   10    11	 1 ;       CG324      NG3P2
   10    58	 1 ;       CG324       HGA2
   10    59	 1 ;       CG324       HGA2
   11    12	 1 ;       NG3P2       HGP2
   11    14	 1 ;       NG3P2      CG324
   11    13	 1 ;       NG3P2       HGP2
   14    15	 1 ;       CG324     CG2R61
   14    60	 1 ;       CG324       HGA2
   14    61	 1 ;       CG324       HGA2
   15    20	 1 ;      CG2R61     CG2R61
   15    16	 1 ;      CG2R61     CG2R61
   16    17	 1 ;      CG2R61     CG2R61
   16    62	 1 ;      CG2R61      HGR61
   17    18	 1 ;      CG2R61     CG2R61
   17    21	 1 ;      CG2R61      CG302
   18    19	 1 ;      CG2R61     CG2R61
   18    63	 1 ;      CG2R61      HGR61
   19    20	 1 ;      CG2R61     CG2R61
   19    64	 1 ;      CG2R61      HGR61
   20    65	 1 ;      CG2R61      HGR61
   21    24	 1 ;       CG302       FGA3
   21    23	 1 ;       CG302       FGA3
   21    22	 1 ;       CG302       FGA3
   25    26	 1 ;       OG311       HGP1
   27    28	 1 ;       NG2S1      CG2O1
   27    30	 1 ;       NG2S1       HGP1
   28    31	 1 ;       CG2O1     CG2R61
   28    29	 1 ;       CG2O1      OG2D1
   31    36	 1 ;      CG2R61     CG2R61
   31    32	 1 ;      CG2R61     CG2R61
   32    33	 1 ;      CG2R61     CG2R61
   32    66	 1 ;      CG2R61      HGR61
   33    34	 1 ;      CG2R61     CG2R61
   33    37	 1 ;      CG2R61      NG301
   34    35	 1 ;      CG2R61     CG2R61
   34    67	 1 ;      CG2R61      HGR61
   35    45	 1 ;      CG2R61      NG311
   35    36	 1 ;      CG2R61     CG2R61
   36    68	 1 ;      CG2R61      HGR61
   37    38	 1 ;       NG301      SG3O2
   37    44	 1 ;       NG301      CG321
   38    39	 1 ;       SG3O2      OG2P1
   38    41	 1 ;       SG3O2      CG321
   38    40	 1 ;       SG3O2      OG2P1
   41    42	 1 ;       CG321      CG321
   41    69	 1 ;       CG321       HGA2
   41    70	 1 ;       CG321       HGA2
   42    43	 1 ;       CG321      CG321
   42    71	 1 ;       CG321       HGA2
   42    72	 1 ;       CG321       HGA2
   43    44	 1 ;       CG321      CG321
   43    73	 1 ;       CG321       HGA2
   43    74	 1 ;       CG321       HGA2
   44    75	 1 ;       CG321       HGA2
   44    76	 1 ;       CG321       HGA2
   45    47	 1 ;       NG311      CG321
   45    46	 1 ;       NG311     HGPAM1
   47    48	 1 ;       CG321      CG331
   47    77	 1 ;       CG321       HGA2
   47    78	 1 ;       CG321       HGA2
   48    79	 1 ;       CG331       HGA3
   48    80	 1 ;       CG331       HGA3
   48    81	 1 ;       CG331       HGA3

[ pairs ]
;	ai	  aj funct			  c0			c1			  c2			c3
    1     8	 1
    1     4	 1
    1    11	 1
    1    58	 1
    1    59	 1
    1    26	 1
    1    31	 1
    1    29	 1
    2    28	 1
    2    30	 1
    2    10	 1
    2    25	 1
    2    57	 1
    2     7	 1
    2    56	 1
    2     5	 1
    2    52	 1
    3    27	 1
    3     9	 1
    3    49	 1
    3     6	 1
    3    53	 1
    3    55	 1
    4    50	 1
    4    51	 1
    4     7	 1
    4    56	 1
    4    54	 1
    5     8	 1
    5    55	 1
    6    52	 1
    6    56	 1
    7    53	 1
    8    50	 1
    8    51	 1
    8    52	 1
    8    54	 1
    9    28	 1
    9    30	 1
    9    50	 1
    9    51	 1
    9    12	 1
    9    14	 1
    9    13	 1
   10    27	 1
   10    49	 1
   10    26	 1
   10    15	 1
   10    60	 1
   10    61	 1
   11    25	 1
   11    57	 1
   11    20	 1
   11    16	 1
   12    58	 1
   12    59	 1
   12    15	 1
   12    60	 1
   12    61	 1
   13    58	 1
   13    59	 1
   13    15	 1
   13    60	 1
   13    61	 1
   14    58	 1
   14    59	 1
   14    19	 1
   14    65	 1
   14    17	 1
   14    62	 1
   15    18	 1
   15    21	 1
   15    64	 1
   16    60	 1
   16    61	 1
   16    19	 1
   16    65	 1
   16    63	 1
   16    24	 1
   16    23	 1
   16    22	 1
   17    20	 1
   17    64	 1
   18    62	 1
   18    24	 1
   18    23	 1
   18    22	 1
   18    65	 1
   19    21	 1
   20    60	 1
   20    61	 1
   20    62	 1
   20    63	 1
   21    62	 1
   21    63	 1
   25    27	 1
   25    49	 1
   25    58	 1
   25    59	 1
   26    57	 1
   27    57	 1
   27    50	 1
   27    51	 1
   27    36	 1
   27    32	 1
   28    49	 1
   28    35	 1
   28    68	 1
   28    33	 1
   28    66	 1
   29    30	 1
   29    36	 1
   29    32	 1
   30    49	 1
   30    31	 1
   31    34	 1
   31    37	 1
   31    45	 1
   32    35	 1
   32    68	 1
   32    67	 1
   32    38	 1
   32    44	 1
   33    36	 1
   33    45	 1
   33    39	 1
   33    41	 1
   33    40	 1
   33    43	 1
   33    75	 1
   33    76	 1
   34    66	 1
   34    38	 1
   34    44	 1
   34    47	 1
   34    46	 1
   34    68	 1
   35    37	 1
   35    48	 1
   35    77	 1
   35    78	 1
   36    66	 1
   36    67	 1
   36    47	 1
   36    46	 1
   37    66	 1
   37    67	 1
   37    42	 1
   37    69	 1
   37    70	 1
   37    73	 1
   37    74	 1
   38    43	 1
   38    75	 1
   38    76	 1
   38    71	 1
   38    72	 1
   39    44	 1
   39    42	 1
   39    69	 1
   39    70	 1
   40    44	 1
   40    42	 1
   40    69	 1
   40    70	 1
   41    44	 1
   41    73	 1
   41    74	 1
   42    75	 1
   42    76	 1
   43    69	 1
   43    70	 1
   44    71	 1
   44    72	 1
   45    67	 1
   45    68	 1
   45    79	 1
   45    80	 1
   45    81	 1
   46    48	 1
   46    77	 1
   46    78	 1
   49    57	 1
   49    50	 1
   49    51	 1
   52    53	 1
   53    54	 1
   54    55	 1
   55    56	 1
   57    58	 1
   57    59	 1
   63    64	 1
   64    65	 1
   69    71	 1
   69    72	 1
   70    71	 1
   70    72	 1
   71    73	 1
   71    74	 1
   72    73	 1
   72    74	 1
   73    75	 1
   73    76	 1
   74    75	 1
   74    76	 1
   77    79	 1
   77    80	 1
   77    81	 1
   78    79	 1
   78    80	 1
   78    81	 1

[ angles ]
;	ai	  aj	ak funct			c0			  c1			c2			  c3
   27     1     9	5 ;      NG2S1      CG311      CG311
   27     1     2	5 ;      NG2S1      CG311      CG321
   27     1    49	5 ;      NG2S1      CG311       HGA1
    9     1     2	5 ;      CG311      CG311      CG321
    9     1    49	5 ;      CG311      CG311       HGA1
    2     1    49	5 ;      CG321      CG311       HGA1
    1     2     3	5 ;      CG311      CG321     CG2R61
    1     2    50	5 ;      CG311      CG321       HGA2
    1     2    51	5 ;      CG311      CG321       HGA2
    3     2    50	5 ;     CG2R61      CG321       HGA2
    3     2    51	5 ;     CG2R61      CG321       HGA2
   50     2    51	5 ;       HGA2      CG321       HGA2
    2     3     8	5 ;      CG321     CG2R61     CG2R61
    2     3     4	5 ;      CG321     CG2R61     CG2R61
    8     3     4	5 ;     CG2R61     CG2R61     CG2R61
    3     4     5	5 ;     CG2R61     CG2R61     CG2R61
    3     4    52	5 ;     CG2R61     CG2R61      HGR61
    5     4    52	5 ;     CG2R61     CG2R61      HGR61
    4     5     6	5 ;     CG2R61     CG2R61     CG2R61
    4     5    53	5 ;     CG2R61     CG2R61      HGR61
    6     5    53	5 ;     CG2R61     CG2R61      HGR61
    7     6     5	5 ;     CG2R61     CG2R61     CG2R61
    7     6    54	5 ;     CG2R61     CG2R61      HGR61
    5     6    54	5 ;     CG2R61     CG2R61      HGR61
    8     7     6	5 ;     CG2R61     CG2R61     CG2R61
    8     7    55	5 ;     CG2R61     CG2R61      HGR61
    6     7    55	5 ;     CG2R61     CG2R61      HGR61
    3     8     7	5 ;     CG2R61     CG2R61     CG2R61
    3     8    56	5 ;     CG2R61     CG2R61      HGR61
    7     8    56	5 ;     CG2R61     CG2R61      HGR61
   10     9     1	5 ;      CG324      CG311      CG311
   10     9    25	5 ;      CG324      CG311      OG311
   10     9    57	5 ;      CG324      CG311       HGA1
    1     9    25	5 ;      CG311      CG311      OG311
    1     9    57	5 ;      CG311      CG311       HGA1
   25     9    57	5 ;      OG311      CG311       HGA1
   11    10     9	5 ;      NG3P2      CG324      CG311
   11    10    58	5 ;      NG3P2      CG324       HGA2
   11    10    59	5 ;      NG3P2      CG324       HGA2
    9    10    58	5 ;      CG311      CG324       HGA2
    9    10    59	5 ;      CG311      CG324       HGA2
   58    10    59	5 ;       HGA2      CG324       HGA2
   12    11    14	5 ;       HGP2      NG3P2      CG324
   12    11    13	5 ;       HGP2      NG3P2       HGP2
   12    11    10	5 ;       HGP2      NG3P2      CG324
   14    11    13	5 ;      CG324      NG3P2       HGP2
   14    11    10	5 ;      CG324      NG3P2      CG324
   13    11    10	5 ;       HGP2      NG3P2      CG324
   15    14    11	5 ;     CG2R61      CG324      NG3P2
   15    14    60	5 ;     CG2R61      CG324       HGA2
   15    14    61	5 ;     CG2R61      CG324       HGA2
   11    14    60	5 ;      NG3P2      CG324       HGA2
   11    14    61	5 ;      NG3P2      CG324       HGA2
   60    14    61	5 ;       HGA2      CG324       HGA2
   20    15    16	5 ;     CG2R61     CG2R61     CG2R61
   20    15    14	5 ;     CG2R61     CG2R61      CG324
   16    15    14	5 ;     CG2R61     CG2R61      CG324
   17    16    15	5 ;     CG2R61     CG2R61     CG2R61
   17    16    62	5 ;     CG2R61     CG2R61      HGR61
   15    16    62	5 ;     CG2R61     CG2R61      HGR61
   18    17    21	5 ;     CG2R61     CG2R61      CG302
   18    17    16	5 ;     CG2R61     CG2R61     CG2R61
   21    17    16	5 ;      CG302     CG2R61     CG2R61
   19    18    17	5 ;     CG2R61     CG2R61     CG2R61
   19    18    63	5 ;     CG2R61     CG2R61      HGR61
   17    18    63	5 ;     CG2R61     CG2R61      HGR61
   18    19    20	5 ;     CG2R61     CG2R61     CG2R61
   18    19    64	5 ;     CG2R61     CG2R61      HGR61
   20    19    64	5 ;     CG2R61     CG2R61      HGR61
   19    20    15	5 ;     CG2R61     CG2R61     CG2R61
   19    20    65	5 ;     CG2R61     CG2R61      HGR61
   15    20    65	5 ;     CG2R61     CG2R61      HGR61
   24    21    23	5 ;       FGA3      CG302       FGA3
   24    21    17	5 ;       FGA3      CG302     CG2R61
   24    21    22	5 ;       FGA3      CG302       FGA3
   23    21    17	5 ;       FGA3      CG302     CG2R61
   23    21    22	5 ;       FGA3      CG302       FGA3
   17    21    22	5 ;     CG2R61      CG302       FGA3
    9    25    26	5 ;      CG311      OG311       HGP1
   28    27    30	5 ;      CG2O1      NG2S1       HGP1
   28    27     1	5 ;      CG2O1      NG2S1      CG311
   30    27     1	5 ;       HGP1      NG2S1      CG311
   31    28    29	5 ;     CG2R61      CG2O1      OG2D1
   31    28    27	5 ;     CG2R61      CG2O1      NG2S1
   29    28    27	5 ;      OG2D1      CG2O1      NG2S1
   36    31    32	5 ;     CG2R61     CG2R61     CG2R61
   36    31    28	5 ;     CG2R61     CG2R61      CG2O1
   32    31    28	5 ;     CG2R61     CG2R61      CG2O1
   33    32    31	5 ;     CG2R61     CG2R61     CG2R61
   33    32    66	5 ;     CG2R61     CG2R61      HGR61
   31    32    66	5 ;     CG2R61     CG2R61      HGR61
   34    33    37	5 ;     CG2R61     CG2R61      NG301
   34    33    32	5 ;     CG2R61     CG2R61     CG2R61
   37    33    32	5 ;      NG301     CG2R61     CG2R61
   35    34    33	5 ;     CG2R61     CG2R61     CG2R61
   35    34    67	5 ;     CG2R61     CG2R61      HGR61
   33    34    67	5 ;     CG2R61     CG2R61      HGR61
   45    35    34	5 ;      NG311     CG2R61     CG2R61
   45    35    36	5 ;      NG311     CG2R61     CG2R61
   34    35    36	5 ;     CG2R61     CG2R61     CG2R61
   35    36    31	5 ;     CG2R61     CG2R61     CG2R61
   35    36    68	5 ;     CG2R61     CG2R61      HGR61
   31    36    68	5 ;     CG2R61     CG2R61      HGR61
   33    37    38	5 ;     CG2R61      NG301      SG3O2
   33    37    44	5 ;     CG2R61      NG301      CG321
   38    37    44	5 ;      SG3O2      NG301      CG321
   39    38    41	5 ;      OG2P1      SG3O2      CG321
   39    38    37	5 ;      OG2P1      SG3O2      NG301
   39    38    40	5 ;      OG2P1      SG3O2      OG2P1
   41    38    37	5 ;      CG321      SG3O2      NG301
   41    38    40	5 ;      CG321      SG3O2      OG2P1
   37    38    40	5 ;      NG301      SG3O2      OG2P1
   38    41    42	5 ;      SG3O2      CG321      CG321
   38    41    69	5 ;      SG3O2      CG321       HGA2
   38    41    70	5 ;      SG3O2      CG321       HGA2
   42    41    69	5 ;      CG321      CG321       HGA2
   42    41    70	5 ;      CG321      CG321       HGA2
   69    41    70	5 ;       HGA2      CG321       HGA2
   41    42    43	5 ;      CG321      CG321      CG321
   41    42    71	5 ;      CG321      CG321       HGA2
   41    42    72	5 ;      CG321      CG321       HGA2
   43    42    71	5 ;      CG321      CG321       HGA2
   43    42    72	5 ;      CG321      CG321       HGA2
   71    42    72	5 ;       HGA2      CG321       HGA2
   42    43    44	5 ;      CG321      CG321      CG321
   42    43    73	5 ;      CG321      CG321       HGA2
   42    43    74	5 ;      CG321      CG321       HGA2
   44    43    73	5 ;      CG321      CG321       HGA2
   44    43    74	5 ;      CG321      CG321       HGA2
   73    43    74	5 ;       HGA2      CG321       HGA2
   37    44    43	5 ;      NG301      CG321      CG321
   37    44    75	5 ;      NG301      CG321       HGA2
   37    44    76	5 ;      NG301      CG321       HGA2
   43    44    75	5 ;      CG321      CG321       HGA2
   43    44    76	5 ;      CG321      CG321       HGA2
   75    44    76	5 ;       HGA2      CG321       HGA2
   47    45    46	5 ;      CG321      NG311     HGPAM1
   47    45    35	5 ;      CG321      NG311     CG2R61
   46    45    35	5 ;     HGPAM1      NG311     CG2R61
   48    47    45	5 ;      CG331      CG321      NG311
   48    47    77	5 ;      CG331      CG321       HGA2
   48    47    78	5 ;      CG331      CG321       HGA2
   45    47    77	5 ;      NG311      CG321       HGA2
   45    47    78	5 ;      NG311      CG321       HGA2
   77    47    78	5 ;       HGA2      CG321       HGA2
   47    48    79	5 ;      CG321      CG331       HGA3
   47    48    80	5 ;      CG321      CG331       HGA3
   47    48    81	5 ;      CG321      CG331       HGA3
   79    48    80	5 ;       HGA3      CG331       HGA3
   79    48    81	5 ;       HGA3      CG331       HGA3
   80    48    81	5 ;       HGA3      CG331       HGA3

[ dihedrals ]
;	ai	  aj	ak	  al funct			  c0			c1			  c2			c3			  c4			c5
    9     1    27    28	 9 ;      CG311      CG311      NG2S1      CG2O1
    9     1    27    30	 9 ;      CG311      CG311      NG2S1       HGP1
    2     1    27    28	 9 ;      CG321      CG311      NG2S1      CG2O1
    2     1    27    30	 9 ;      CG321      CG311      NG2S1       HGP1
   49     1    27    28	 9 ;       HGA1      CG311      NG2S1      CG2O1
   49     1    27    30	 9 ;       HGA1      CG311      NG2S1       HGP1
   27     1     9    10	 9 ;      NG2S1      CG311      CG311      CG324
   27     1     9    25	 9 ;      NG2S1      CG311      CG311      OG311
   27     1     9    57	 9 ;      NG2S1      CG311      CG311       HGA1
    2     1     9    10	 9 ;      CG321      CG311      CG311      CG324
    2     1     9    25	 9 ;      CG321      CG311      CG311      OG311
    2     1     9    57	 9 ;      CG321      CG311      CG311       HGA1
   49     1     9    10	 9 ;       HGA1      CG311      CG311      CG324
   49     1     9    25	 9 ;       HGA1      CG311      CG311      OG311
   49     1     9    57	 9 ;       HGA1      CG311      CG311       HGA1
   27     1     2     3	 9 ;      NG2S1      CG311      CG321     CG2R61
   27     1     2    50	 9 ;      NG2S1      CG311      CG321       HGA2
   27     1     2    51	 9 ;      NG2S1      CG311      CG321       HGA2
    9     1     2     3	 9 ;      CG311      CG311      CG321     CG2R61
    9     1     2    50	 9 ;      CG311      CG311      CG321       HGA2
    9     1     2    51	 9 ;      CG311      CG311      CG321       HGA2
   49     1     2     3	 9 ;       HGA1      CG311      CG321     CG2R61
   49     1     2    50	 9 ;       HGA1      CG311      CG321       HGA2
   49     1     2    51	 9 ;       HGA1      CG311      CG321       HGA2
    1     2     3     8	 9 ;      CG311      CG321     CG2R61     CG2R61
    1     2     3     4	 9 ;      CG311      CG321     CG2R61     CG2R61
   50     2     3     8	 9 ;       HGA2      CG321     CG2R61     CG2R61
   50     2     3     4	 9 ;       HGA2      CG321     CG2R61     CG2R61
   51     2     3     8	 9 ;       HGA2      CG321     CG2R61     CG2R61
   51     2     3     4	 9 ;       HGA2      CG321     CG2R61     CG2R61
    2     3     8     7	 9 ;      CG321     CG2R61     CG2R61     CG2R61
    2     3     8    56	 9 ;      CG321     CG2R61     CG2R61      HGR61
    4     3     8     7	 9 ;     CG2R61     CG2R61     CG2R61     CG2R61
    4     3     8    56	 9 ;     CG2R61     CG2R61     CG2R61      HGR61
    2     3     4     5	 9 ;      CG321     CG2R61     CG2R61     CG2R61
    2     3     4    52	 9 ;      CG321     CG2R61     CG2R61      HGR61
    8     3     4     5	 9 ;     CG2R61     CG2R61     CG2R61     CG2R61
    8     3     4    52	 9 ;     CG2R61     CG2R61     CG2R61      HGR61
    3     4     5     6	 9 ;     CG2R61     CG2R61     CG2R61     CG2R61
    3     4     5    53	 9 ;     CG2R61     CG2R61     CG2R61      HGR61
   52     4     5     6	 9 ;      HGR61     CG2R61     CG2R61     CG2R61
   52     4     5    53	 9 ;      HGR61     CG2R61     CG2R61      HGR61
    4     5     6     7	 9 ;     CG2R61     CG2R61     CG2R61     CG2R61
    4     5     6    54	 9 ;     CG2R61     CG2R61     CG2R61      HGR61
   53     5     6     7	 9 ;      HGR61     CG2R61     CG2R61     CG2R61
   53     5     6    54	 9 ;      HGR61     CG2R61     CG2R61      HGR61
    5     6     7     8	 9 ;     CG2R61     CG2R61     CG2R61     CG2R61
    5     6     7    55	 9 ;     CG2R61     CG2R61     CG2R61      HGR61
   54     6     7     8	 9 ;      HGR61     CG2R61     CG2R61     CG2R61
   54     6     7    55	 9 ;      HGR61     CG2R61     CG2R61      HGR61
    6     7     8     3	 9 ;     CG2R61     CG2R61     CG2R61     CG2R61
    6     7     8    56	 9 ;     CG2R61     CG2R61     CG2R61      HGR61
   55     7     8     3	 9 ;      HGR61     CG2R61     CG2R61     CG2R61
   55     7     8    56	 9 ;      HGR61     CG2R61     CG2R61      HGR61
    1     9    10    11	 9 ;      CG311      CG311      CG324      NG3P2
    1     9    10    58	 9 ;      CG311      CG311      CG324       HGA2
    1     9    10    59	 9 ;      CG311      CG311      CG324       HGA2
   25     9    10    11	 9 ;      OG311      CG311      CG324      NG3P2
   25     9    10    58	 9 ;      OG311      CG311      CG324       HGA2
   25     9    10    59	 9 ;      OG311      CG311      CG324       HGA2
   57     9    10    11	 9 ;       HGA1      CG311      CG324      NG3P2
   57     9    10    58	 9 ;       HGA1      CG311      CG324       HGA2
   57     9    10    59	 9 ;       HGA1      CG311      CG324       HGA2
   10     9    25    26	 9 ;      CG324      CG311      OG311       HGP1
    1     9    25    26	 9 ;      CG311      CG311      OG311       HGP1
   57     9    25    26	 9 ;       HGA1      CG311      OG311       HGP1
    9    10    11    12	 9 ;      CG311      CG324      NG3P2       HGP2
    9    10    11    14	 9 ;      CG311      CG324      NG3P2      CG324
    9    10    11    13	 9 ;      CG311      CG324      NG3P2       HGP2
   58    10    11    12	 9 ;       HGA2      CG324      NG3P2       HGP2
   58    10    11    14	 9 ;       HGA2      CG324      NG3P2      CG324
   58    10    11    13	 9 ;       HGA2      CG324      NG3P2       HGP2
   59    10    11    12	 9 ;       HGA2      CG324      NG3P2       HGP2
   59    10    11    14	 9 ;       HGA2      CG324      NG3P2      CG324
   59    10    11    13	 9 ;       HGA2      CG324      NG3P2       HGP2
   12    11    14    15	 9 ;       HGP2      NG3P2      CG324     CG2R61
   12    11    14    60	 9 ;       HGP2      NG3P2      CG324       HGA2
   12    11    14    61	 9 ;       HGP2      NG3P2      CG324       HGA2
   13    11    14    15	 9 ;       HGP2      NG3P2      CG324     CG2R61
   13    11    14    60	 9 ;       HGP2      NG3P2      CG324       HGA2
   13    11    14    61	 9 ;       HGP2      NG3P2      CG324       HGA2
   10    11    14    15	 9 ;      CG324      NG3P2      CG324     CG2R61
   10    11    14    60	 9 ;      CG324      NG3P2      CG324       HGA2
   10    11    14    61	 9 ;      CG324      NG3P2      CG324       HGA2
   11    14    15    20	 9 ;      NG3P2      CG324     CG2R61     CG2R61
   11    14    15    16	 9 ;      NG3P2      CG324     CG2R61     CG2R61
   60    14    15    20	 9 ;       HGA2      CG324     CG2R61     CG2R61
   60    14    15    16	 9 ;       HGA2      CG324     CG2R61     CG2R61
   61    14    15    20	 9 ;       HGA2      CG324     CG2R61     CG2R61
   61    14    15    16	 9 ;       HGA2      CG324     CG2R61     CG2R61
   16    15    20    19	 9 ;     CG2R61     CG2R61     CG2R61     CG2R61
   16    15    20    65	 9 ;     CG2R61     CG2R61     CG2R61      HGR61
   14    15    20    19	 9 ;      CG324     CG2R61     CG2R61     CG2R61
   14    15    20    65	 9 ;      CG324     CG2R61     CG2R61      HGR61
   20    15    16    17	 9 ;     CG2R61     CG2R61     CG2R61     CG2R61
   20    15    16    62	 9 ;     CG2R61     CG2R61     CG2R61      HGR61
   14    15    16    17	 9 ;      CG324     CG2R61     CG2R61     CG2R61
   14    15    16    62	 9 ;      CG324     CG2R61     CG2R61      HGR61
   15    16    17    18	 9 ;     CG2R61     CG2R61     CG2R61     CG2R61
   15    16    17    21	 9 ;     CG2R61     CG2R61     CG2R61      CG302
   62    16    17    18	 9 ;      HGR61     CG2R61     CG2R61     CG2R61
   62    16    17    21	 9 ;      HGR61     CG2R61     CG2R61      CG302
   21    17    18    19	 9 ;      CG302     CG2R61     CG2R61     CG2R61
   21    17    18    63	 9 ;      CG302     CG2R61     CG2R61      HGR61
   16    17    18    19	 9 ;     CG2R61     CG2R61     CG2R61     CG2R61
   16    17    18    63	 9 ;     CG2R61     CG2R61     CG2R61      HGR61
   18    17    21    24	 9 ;     CG2R61     CG2R61      CG302       FGA3
   18    17    21    23	 9 ;     CG2R61     CG2R61      CG302       FGA3
   18    17    21    22	 9 ;     CG2R61     CG2R61      CG302       FGA3
   16    17    21    24	 9 ;     CG2R61     CG2R61      CG302       FGA3
   16    17    21    23	 9 ;     CG2R61     CG2R61      CG302       FGA3
   16    17    21    22	 9 ;     CG2R61     CG2R61      CG302       FGA3
   17    18    19    20	 9 ;     CG2R61     CG2R61     CG2R61     CG2R61
   17    18    19    64	 9 ;     CG2R61     CG2R61     CG2R61      HGR61
   63    18    19    20	 9 ;      HGR61     CG2R61     CG2R61     CG2R61
   63    18    19    64	 9 ;      HGR61     CG2R61     CG2R61      HGR61
   18    19    20    15	 9 ;     CG2R61     CG2R61     CG2R61     CG2R61
   18    19    20    65	 9 ;     CG2R61     CG2R61     CG2R61      HGR61
   64    19    20    15	 9 ;      HGR61     CG2R61     CG2R61     CG2R61
   64    19    20    65	 9 ;      HGR61     CG2R61     CG2R61      HGR61
   30    27    28    31	 9 ;       HGP1      NG2S1      CG2O1     CG2R61
   30    27    28    29	 9 ;       HGP1      NG2S1      CG2O1      OG2D1
    1    27    28    31	 9 ;      CG311      NG2S1      CG2O1     CG2R61
    1    27    28    29	 9 ;      CG311      NG2S1      CG2O1      OG2D1
   29    28    31    36	 9 ;      OG2D1      CG2O1     CG2R61     CG2R61
   29    28    31    32	 9 ;      OG2D1      CG2O1     CG2R61     CG2R61
   27    28    31    36	 9 ;      NG2S1      CG2O1     CG2R61     CG2R61
   27    28    31    32	 9 ;      NG2S1      CG2O1     CG2R61     CG2R61
   32    31    36    35	 9 ;     CG2R61     CG2R61     CG2R61     CG2R61
   32    31    36    68	 9 ;     CG2R61     CG2R61     CG2R61      HGR61
   28    31    36    35	 9 ;      CG2O1     CG2R61     CG2R61     CG2R61
   28    31    36    68	 9 ;      CG2O1     CG2R61     CG2R61      HGR61
   36    31    32    33	 9 ;     CG2R61     CG2R61     CG2R61     CG2R61
   36    31    32    66	 9 ;     CG2R61     CG2R61     CG2R61      HGR61
   28    31    32    33	 9 ;      CG2O1     CG2R61     CG2R61     CG2R61
   28    31    32    66	 9 ;      CG2O1     CG2R61     CG2R61      HGR61
   31    32    33    34	 9 ;     CG2R61     CG2R61     CG2R61     CG2R61
   31    32    33    37	 9 ;     CG2R61     CG2R61     CG2R61      NG301
   66    32    33    34	 9 ;      HGR61     CG2R61     CG2R61     CG2R61
   66    32    33    37	 9 ;      HGR61     CG2R61     CG2R61      NG301
   37    33    34    35	 9 ;      NG301     CG2R61     CG2R61     CG2R61
   37    33    34    67	 9 ;      NG301     CG2R61     CG2R61      HGR61
   32    33    34    35	 9 ;     CG2R61     CG2R61     CG2R61     CG2R61
   32    33    34    67	 9 ;     CG2R61     CG2R61     CG2R61      HGR61
   34    33    37    38	 9 ;     CG2R61     CG2R61      NG301      SG3O2
   34    33    37    44	 9 ;     CG2R61     CG2R61      NG301      CG321
   32    33    37    38	 9 ;     CG2R61     CG2R61      NG301      SG3O2
   32    33    37    44	 9 ;     CG2R61     CG2R61      NG301      CG321
   33    34    35    45	 9 ;     CG2R61     CG2R61     CG2R61      NG311
   33    34    35    36	 9 ;     CG2R61     CG2R61     CG2R61     CG2R61
   67    34    35    45	 9 ;      HGR61     CG2R61     CG2R61      NG311
   67    34    35    36	 9 ;      HGR61     CG2R61     CG2R61     CG2R61
   34    35    45    47	 9 ;     CG2R61     CG2R61      NG311      CG321
   34    35    45    46	 9 ;     CG2R61     CG2R61      NG311     HGPAM1
   36    35    45    47	 9 ;     CG2R61     CG2R61      NG311      CG321
   36    35    45    46	 9 ;     CG2R61     CG2R61      NG311     HGPAM1
   45    35    36    31	 9 ;      NG311     CG2R61     CG2R61     CG2R61
   45    35    36    68	 9 ;      NG311     CG2R61     CG2R61      HGR61
   34    35    36    31	 9 ;     CG2R61     CG2R61     CG2R61     CG2R61
   34    35    36    68	 9 ;     CG2R61     CG2R61     CG2R61      HGR61
   33    37    38    39	 9 ;     CG2R61      NG301      SG3O2      OG2P1
   33    37    38    41	 9 ;     CG2R61      NG301      SG3O2      CG321
   33    37    38    40	 9 ;     CG2R61      NG301      SG3O2      OG2P1
   44    37    38    39	 9 ;      CG321      NG301      SG3O2      OG2P1
   44    37    38    41	 9 ;      CG321      NG301      SG3O2      CG321
   44    37    38    40	 9 ;      CG321      NG301      SG3O2      OG2P1
   33    37    44    43	 9 ;     CG2R61      NG301      CG321      CG321
   33    37    44    75	 9 ;     CG2R61      NG301      CG321       HGA2
   33    37    44    76	 9 ;     CG2R61      NG301      CG321       HGA2
   38    37    44    43	 9 ;      SG3O2      NG301      CG321      CG321
   38    37    44    75	 9 ;      SG3O2      NG301      CG321       HGA2
   38    37    44    76	 9 ;      SG3O2      NG301      CG321       HGA2
   39    38    41    42	 9 ;      OG2P1      SG3O2      CG321      CG321
   39    38    41    69	 9 ;      OG2P1      SG3O2      CG321       HGA2
   39    38    41    70	 9 ;      OG2P1      SG3O2      CG321       HGA2
   37    38    41    42	 9 ;      NG301      SG3O2      CG321      CG321
   37    38    41    69	 9 ;      NG301      SG3O2      CG321       HGA2
   37    38    41    70	 9 ;      NG301      SG3O2      CG321       HGA2
   40    38    41    42	 9 ;      OG2P1      SG3O2      CG321      CG321
   40    38    41    69	 9 ;      OG2P1      SG3O2      CG321       HGA2
   40    38    41    70	 9 ;      OG2P1      SG3O2      CG321       HGA2
   38    41    42    43	 9 ;      SG3O2      CG321      CG321      CG321
   38    41    42    71	 9 ;      SG3O2      CG321      CG321       HGA2
   38    41    42    72	 9 ;      SG3O2      CG321      CG321       HGA2
   69    41    42    43	 9 ;       HGA2      CG321      CG321      CG321
   69    41    42    71	 9 ;       HGA2      CG321      CG321       HGA2
   69    41    42    72	 9 ;       HGA2      CG321      CG321       HGA2
   70    41    42    43	 9 ;       HGA2      CG321      CG321      CG321
   70    41    42    71	 9 ;       HGA2      CG321      CG321       HGA2
   70    41    42    72	 9 ;       HGA2      CG321      CG321       HGA2
   41    42    43    44	 9 ;      CG321      CG321      CG321      CG321
   41    42    43    73	 9 ;      CG321      CG321      CG321       HGA2
   41    42    43    74	 9 ;      CG321      CG321      CG321       HGA2
   71    42    43    44	 9 ;       HGA2      CG321      CG321      CG321
   71    42    43    73	 9 ;       HGA2      CG321      CG321       HGA2
   71    42    43    74	 9 ;       HGA2      CG321      CG321       HGA2
   72    42    43    44	 9 ;       HGA2      CG321      CG321      CG321
   72    42    43    73	 9 ;       HGA2      CG321      CG321       HGA2
   72    42    43    74	 9 ;       HGA2      CG321      CG321       HGA2
   42    43    44    37	 9 ;      CG321      CG321      CG321      NG301
   42    43    44    75	 9 ;      CG321      CG321      CG321       HGA2
   42    43    44    76	 9 ;      CG321      CG321      CG321       HGA2
   73    43    44    37	 9 ;       HGA2      CG321      CG321      NG301
   73    43    44    75	 9 ;       HGA2      CG321      CG321       HGA2
   73    43    44    76	 9 ;       HGA2      CG321      CG321       HGA2
   74    43    44    37	 9 ;       HGA2      CG321      CG321      NG301
   74    43    44    75	 9 ;       HGA2      CG321      CG321       HGA2
   74    43    44    76	 9 ;       HGA2      CG321      CG321       HGA2
   46    45    47    48	 9 ;     HGPAM1      NG311      CG321      CG331
   46    45    47    77	 9 ;     HGPAM1      NG311      CG321       HGA2
   46    45    47    78	 9 ;     HGPAM1      NG311      CG321       HGA2
   35    45    47    48	 9 ;     CG2R61      NG311      CG321      CG331
   35    45    47    77	 9 ;     CG2R61      NG311      CG321       HGA2
   35    45    47    78	 9 ;     CG2R61      NG311      CG321       HGA2
   45    47    48    79	 9 ;      NG311      CG321      CG331       HGA3
   45    47    48    80	 9 ;      NG311      CG321      CG331       HGA3
   45    47    48    81	 9 ;      NG311      CG321      CG331       HGA3
   77    47    48    79	 9 ;       HGA2      CG321      CG331       HGA3
   77    47    48    80	 9 ;       HGA2      CG321      CG331       HGA3
   77    47    48    81	 9 ;       HGA2      CG321      CG331       HGA3
   78    47    48    79	 9 ;       HGA2      CG321      CG331       HGA3
   78    47    48    80	 9 ;       HGA2      CG321      CG331       HGA3
   78    47    48    81	 9 ;       HGA2      CG321      CG331       HGA3

[ dihedrals ]
;	ai	  aj	ak	  al funct			  c0			c1			  c2			c3
   28    31    27    29	 2

