; Created by cgenff_charmm2gmx.py

[ moleculetype ]
; Name			   nrexcl
LIG				 3

[ atoms ]
;	 nr		  type	resnr residue  atom   cgnr	   charge		mass  typeB    chargeB		massB
; residue	 1 LIG rtp LIG q	qsum
     1     NG3C51      1    LIG     N1      1     -0.337     14.007   ;
     2      SG3O2      1    LIG     S1      2      0.399     32.060   ;
     3      OG2P1      1    LIG     O1      3     -0.317     15.999   ;
     4      OG2P1      1    LIG     O2      4     -0.317     15.999   ;
     5     NG3C51      1    LIG     N2      5     -0.359     14.007   ;
     6     CG3C50      1    LIG     C1      6      0.241     12.011   ;
     7      CG321      1    LIG     C2      7     -0.124     12.011   ;
     8      CG314      1    LIG     C3      8      0.198     12.011   ;
     9      NG3P1      1    LIG     N3      9     -0.462     14.007   ;
    10      CG324      1    LIG     C4     10      0.103     12.011   ;
    11      CG321      1    LIG     C5     11     -0.123     12.011   ;
    12      CG331      1    LIG     C6     12     -0.213     12.011   ;
    13     CG3C52      1    LIG     C7     13     -0.012     12.011   ;
    14       HGP2      1    LIG     H1     14      0.319      1.008   ;
    15     CG2R61      1    LIG     C8     15      0.378     12.011   ;
    16     CG2R61      1    LIG     C9     16     -0.169     12.011   ;
    17     CG2R66      1    LIG    C10     17      0.105     12.011   ;
    18       FGR1      1    LIG      F     18     -0.211     18.998   ;
    19     CG2R61      1    LIG    C11     19     -0.107     12.011   ;
    20     CG2R61      1    LIG    C12     20     -0.149     12.011   ;
    21     CG2R61      1    LIG    C13     21     -0.107     12.011   ;
    22     CG3C51      1    LIG    C14     22      0.368     12.011   ;
    23     NG3C51      1    LIG     N4     23     -0.389     14.007   ;
    24     CG2R51      1    LIG    C15     24     -0.023     12.011   ;
    25       HGP1      1    LIG     HN     25      0.241      1.008   ;
    26     CG2R51      1    LIG    C16     26     -0.166     12.011   ;
    27      SG311      1    LIG     S2     27     -0.357     32.060   ;
    28      CG324      1    LIG    C17     28      0.119     12.011   ;
    29     CG2R61      1    LIG    C18     29      0.069     12.011   ;
    30     CG2R61      1    LIG    C19     30     -0.123     12.011   ;
    31     CG2R61      1    LIG    C20     31      0.159     12.011   ;
    32     CG2R61      1    LIG    C21     32     -0.119     12.011   ;
    33     CG2R61      1    LIG    C22     33     -0.108     12.011   ;
    34     CG2R61      1    LIG    C23     34     -0.120     12.011   ;
    35      OG301      1    LIG     O3     35     -0.341     15.999   ;
    36      CG311      1    LIG    C24     36      0.059     12.011   ;
    37      CG331      1    LIG    C25     37     -0.251     12.011   ;
    38      CG331      1    LIG    C26     38     -0.251     12.011   ;
    39       HGA2      1    LIG     H2     39      0.090      1.008   ;
    40       HGA2      1    LIG     H3     40      0.090      1.008   ;
    41       HGA1      1    LIG     H4     41      0.090      1.008   ;
    42       HGA2      1    LIG     H5     42      0.090      1.008   ;
    43       HGA2      1    LIG     H6     43      0.090      1.008   ;
    44       HGA2      1    LIG     H7     44      0.090      1.008   ;
    45       HGA2      1    LIG     H8     45      0.090      1.008   ;
    46       HGA3      1    LIG     H9     46      0.090      1.008   ;
    47       HGA3      1    LIG    H10     47      0.090      1.008   ;
    48       HGA3      1    LIG    H11     48      0.090      1.008   ;
    49       HGA2      1    LIG    H12     49      0.090      1.008   ;
    50       HGA2      1    LIG    H13     50      0.090      1.008   ;
    51      HGR62      1    LIG    H14     51      0.175      1.008   ;
    52      HGR62      1    LIG    H15     52      0.179      1.008   ;
    53      HGR61      1    LIG    H16     53      0.116      1.008   ;
    54      HGR61      1    LIG    H17     54      0.116      1.008   ;
    55       HGA1      1    LIG    H18     55      0.085      1.008   ;
    56      HGR52      1    LIG    H19     56      0.239      1.008   ;
    57      HGR52      1    LIG    H20     57      0.233      1.008   ;
    58       HGA2      1    LIG    H21     58      0.090      1.008   ;
    59       HGA2      1    LIG    H22     59      0.090      1.008   ;
    60      HGR61      1    LIG    H23     60      0.116      1.008   ;
    61      HGR61      1    LIG    H24     61      0.116      1.008   ;
    62      HGR61      1    LIG    H25     62      0.116      1.008   ;
    63      HGR61      1    LIG    H26     63      0.116      1.008   ;
    64       HGA1      1    LIG    H27     64      0.090      1.008   ;
    65       HGA3      1    LIG    H28     65      0.090      1.008   ;
    66       HGA3      1    LIG    H29     66      0.090      1.008   ;
    67       HGA3      1    LIG    H30     67      0.090      1.008   ;
    68       HGA3      1    LIG    H31     68      0.090      1.008   ;
    69       HGA3      1    LIG    H32     69      0.090      1.008   ;
    70       HGA3      1    LIG    H33     70      0.090      1.008   ;

[ bonds ]
;	ai	  aj funct			  c0			c1			  c2			c3
    1     2	 1 ;      NG3C51      SG3O2
    1    13	 1 ;      NG3C51     CG3C52
    1    22	 1 ;      NG3C51     CG3C51
    2     5	 1 ;       SG3O2     NG3C51
    2     4	 1 ;       SG3O2      OG2P1
    2     3	 1 ;       SG3O2      OG2P1
    5    15	 1 ;      NG3C51     CG2R61
    5     6	 1 ;      NG3C51     CG3C50
    6    11	 1 ;      CG3C50      CG321
    6     7	 1 ;      CG3C50      CG321
    6    13	 1 ;      CG3C50     CG3C52
    7     8	 1 ;       CG321      CG314
    7    39	 1 ;       CG321       HGA2
    7    40	 1 ;       CG321       HGA2
    8     9	 1 ;       CG314      NG3P1
    8    12	 1 ;       CG314      CG331
    8    41	 1 ;       CG314       HGA1
    9    28	 1 ;       NG3P1      CG324
    9    10	 1 ;       NG3P1      CG324
    9    14	 1 ;       NG3P1       HGP2
   10    11	 1 ;       CG324      CG321
   10    42	 1 ;       CG324       HGA2
   10    43	 1 ;       CG324       HGA2
   11    44	 1 ;       CG321       HGA2
   11    45	 1 ;       CG321       HGA2
   12    46	 1 ;       CG331       HGA3
   12    47	 1 ;       CG331       HGA3
   12    48	 1 ;       CG331       HGA3
   13    49	 1 ;      CG3C52       HGA2
   13    50	 1 ;      CG3C52       HGA2
   15    16	 1 ;      CG2R61     CG2R61
   15    21	 1 ;      CG2R61     CG2R61
   16    17	 1 ;      CG2R61     CG2R66
   16    51	 1 ;      CG2R61      HGR62
   17    19	 1 ;      CG2R66     CG2R61
   17    18	 1 ;      CG2R66       FGR1
   19    20	 1 ;      CG2R61     CG2R61
   19    52	 1 ;      CG2R61      HGR62
   20    21	 1 ;      CG2R61     CG2R61
   20    53	 1 ;      CG2R61      HGR61
   21    54	 1 ;      CG2R61      HGR61
   22    23	 1 ;      CG3C51     NG3C51
   22    27	 1 ;      CG3C51      SG311
   22    55	 1 ;      CG3C51       HGA1
   23    25	 1 ;      NG3C51       HGP1
   23    24	 1 ;      NG3C51     CG2R51
   24    26	 1 ;      CG2R51     CG2R51
   24    56	 1 ;      CG2R51      HGR52
   26    27	 1 ;      CG2R51      SG311
   26    57	 1 ;      CG2R51      HGR52
   28    29	 1 ;       CG324     CG2R61
   28    58	 1 ;       CG324       HGA2
   28    59	 1 ;       CG324       HGA2
   29    34	 1 ;      CG2R61     CG2R61
   29    30	 1 ;      CG2R61     CG2R61
   30    31	 1 ;      CG2R61     CG2R61
   30    60	 1 ;      CG2R61      HGR61
   31    32	 1 ;      CG2R61     CG2R61
   31    35	 1 ;      CG2R61      OG301
   32    33	 1 ;      CG2R61     CG2R61
   32    61	 1 ;      CG2R61      HGR61
   33    34	 1 ;      CG2R61     CG2R61
   33    62	 1 ;      CG2R61      HGR61
   34    63	 1 ;      CG2R61      HGR61
   35    36	 1 ;       OG301      CG311
   36    37	 1 ;       CG311      CG331
   36    38	 1 ;       CG311      CG331
   36    64	 1 ;       CG311       HGA1
   37    65	 1 ;       CG331       HGA3
   37    66	 1 ;       CG331       HGA3
   37    67	 1 ;       CG331       HGA3
   38    68	 1 ;       CG331       HGA3
   38    69	 1 ;       CG331       HGA3
   38    70	 1 ;       CG331       HGA3

[ pairs ]
;	ai	  aj funct			  c0			c1			  c2			c3
    1    15	 1
    1    11	 1
    1     7	 1
    1    25	 1
    1    24	 1
    1    26	 1
    2    49	 1
    2    50	 1
    2    23	 1
    2    27	 1
    2    55	 1
    2    16	 1
    2    21	 1
    2    11	 1
    2     7	 1
    3    13	 1
    3    22	 1
    3    15	 1
    3     6	 1
    4    13	 1
    4    22	 1
    4    15	 1
    4     6	 1
    5    22	 1
    5    10	 1
    5    44	 1
    5    45	 1
    5     8	 1
    5    39	 1
    5    40	 1
    5    49	 1
    5    50	 1
    5    17	 1
    5    51	 1
    5    20	 1
    5    54	 1
    6    22	 1
    6    16	 1
    6    21	 1
    6     9	 1
    6    12	 1
    6    41	 1
    6    42	 1
    6    43	 1
    7    15	 1
    7    10	 1
    7    44	 1
    7    45	 1
    7    49	 1
    7    50	 1
    7    28	 1
    7    14	 1
    7    46	 1
    7    47	 1
    7    48	 1
    8    11	 1
    8    13	 1
    8    29	 1
    8    58	 1
    8    59	 1
    8    42	 1
    8    43	 1
    9    39	 1
    9    40	 1
    9    46	 1
    9    47	 1
    9    48	 1
    9    44	 1
    9    45	 1
    9    34	 1
    9    30	 1
   10    13	 1
   10    12	 1
   10    41	 1
   10    29	 1
   10    58	 1
   10    59	 1
   11    15	 1
   11    39	 1
   11    40	 1
   11    49	 1
   11    50	 1
   11    28	 1
   11    14	 1
   12    39	 1
   12    40	 1
   12    28	 1
   12    14	 1
   13    23	 1
   13    27	 1
   13    55	 1
   13    15	 1
   13    44	 1
   13    45	 1
   13    39	 1
   13    40	 1
   14    41	 1
   14    29	 1
   14    58	 1
   14    59	 1
   14    42	 1
   14    43	 1
   15    19	 1
   15    18	 1
   15    53	 1
   16    20	 1
   16    54	 1
   16    52	 1
   17    21	 1
   17    53	 1
   18    51	 1
   18    20	 1
   18    52	 1
   19    51	 1
   19    54	 1
   21    51	 1
   21    52	 1
   22    49	 1
   22    50	 1
   22    56	 1
   22    57	 1
   23    57	 1
   24    55	 1
   25    27	 1
   25    55	 1
   25    26	 1
   25    56	 1
   26    55	 1
   27    56	 1
   28    41	 1
   28    42	 1
   28    43	 1
   28    33	 1
   28    63	 1
   28    31	 1
   28    60	 1
   29    32	 1
   29    35	 1
   29    62	 1
   30    58	 1
   30    59	 1
   30    33	 1
   30    63	 1
   30    61	 1
   30    36	 1
   31    34	 1
   31    62	 1
   31    37	 1
   31    38	 1
   31    64	 1
   32    60	 1
   32    36	 1
   32    63	 1
   33    35	 1
   34    58	 1
   34    59	 1
   34    60	 1
   34    61	 1
   35    60	 1
   35    61	 1
   35    65	 1
   35    66	 1
   35    67	 1
   35    68	 1
   35    69	 1
   35    70	 1
   37    68	 1
   37    69	 1
   37    70	 1
   38    65	 1
   38    66	 1
   38    67	 1
   39    41	 1
   40    41	 1
   41    46	 1
   41    47	 1
   41    48	 1
   42    44	 1
   42    45	 1
   43    44	 1
   43    45	 1
   52    53	 1
   53    54	 1
   56    57	 1
   61    62	 1
   62    63	 1
   64    65	 1
   64    66	 1
   64    67	 1
   64    68	 1
   64    69	 1
   64    70	 1

[ angles ]
;	ai	  aj	ak funct			c0			  c1			c2			  c3
    2     1    13	5 ;      SG3O2     NG3C51     CG3C52
    2     1    22	5 ;      SG3O2     NG3C51     CG3C51
   13     1    22	5 ;     CG3C52     NG3C51     CG3C51
    5     2     4	5 ;     NG3C51      SG3O2      OG2P1
    5     2     3	5 ;     NG3C51      SG3O2      OG2P1
    5     2     1	5 ;     NG3C51      SG3O2     NG3C51
    4     2     3	5 ;      OG2P1      SG3O2      OG2P1
    4     2     1	5 ;      OG2P1      SG3O2     NG3C51
    3     2     1	5 ;      OG2P1      SG3O2     NG3C51
   15     5     6	5 ;     CG2R61     NG3C51     CG3C50
   15     5     2	5 ;     CG2R61     NG3C51      SG3O2
    6     5     2	5 ;     CG3C50     NG3C51      SG3O2
   11     6     5	5 ;      CG321     CG3C50     NG3C51
   11     6     7	5 ;      CG321     CG3C50      CG321
   11     6    13	5 ;      CG321     CG3C50     CG3C52
    5     6     7	5 ;     NG3C51     CG3C50      CG321
    5     6    13	5 ;     NG3C51     CG3C50     CG3C52
    7     6    13	5 ;      CG321     CG3C50     CG3C52
    8     7     6	5 ;      CG314      CG321     CG3C50
    8     7    39	5 ;      CG314      CG321       HGA2
    8     7    40	5 ;      CG314      CG321       HGA2
    6     7    39	5 ;     CG3C50      CG321       HGA2
    6     7    40	5 ;     CG3C50      CG321       HGA2
   39     7    40	5 ;       HGA2      CG321       HGA2
    9     8    12	5 ;      NG3P1      CG314      CG331
    9     8     7	5 ;      NG3P1      CG314      CG321
    9     8    41	5 ;      NG3P1      CG314       HGA1
   12     8     7	5 ;      CG331      CG314      CG321
   12     8    41	5 ;      CG331      CG314       HGA1
    7     8    41	5 ;      CG321      CG314       HGA1
   28     9    10	5 ;      CG324      NG3P1      CG324
   28     9    14	5 ;      CG324      NG3P1       HGP2
   28     9     8	5 ;      CG324      NG3P1      CG314
   10     9    14	5 ;      CG324      NG3P1       HGP2
   10     9     8	5 ;      CG324      NG3P1      CG314
   14     9     8	5 ;       HGP2      NG3P1      CG314
    9    10    11	5 ;      NG3P1      CG324      CG321
    9    10    42	5 ;      NG3P1      CG324       HGA2
    9    10    43	5 ;      NG3P1      CG324       HGA2
   11    10    42	5 ;      CG321      CG324       HGA2
   11    10    43	5 ;      CG321      CG324       HGA2
   42    10    43	5 ;       HGA2      CG324       HGA2
   10    11     6	5 ;      CG324      CG321     CG3C50
   10    11    44	5 ;      CG324      CG321       HGA2
   10    11    45	5 ;      CG324      CG321       HGA2
    6    11    44	5 ;     CG3C50      CG321       HGA2
    6    11    45	5 ;     CG3C50      CG321       HGA2
   44    11    45	5 ;       HGA2      CG321       HGA2
    8    12    46	5 ;      CG314      CG331       HGA3
    8    12    47	5 ;      CG314      CG331       HGA3
    8    12    48	5 ;      CG314      CG331       HGA3
   46    12    47	5 ;       HGA3      CG331       HGA3
   46    12    48	5 ;       HGA3      CG331       HGA3
   47    12    48	5 ;       HGA3      CG331       HGA3
    6    13     1	5 ;     CG3C50     CG3C52     NG3C51
    6    13    49	5 ;     CG3C50     CG3C52       HGA2
    6    13    50	5 ;     CG3C50     CG3C52       HGA2
    1    13    49	5 ;     NG3C51     CG3C52       HGA2
    1    13    50	5 ;     NG3C51     CG3C52       HGA2
   49    13    50	5 ;       HGA2     CG3C52       HGA2
   16    15    21	5 ;     CG2R61     CG2R61     CG2R61
   16    15     5	5 ;     CG2R61     CG2R61     NG3C51
   21    15     5	5 ;     CG2R61     CG2R61     NG3C51
   17    16    15	5 ;     CG2R66     CG2R61     CG2R61
   17    16    51	5 ;     CG2R66     CG2R61      HGR62
   15    16    51	5 ;     CG2R61     CG2R61      HGR62
   19    17    18	5 ;     CG2R61     CG2R66       FGR1
   19    17    16	5 ;     CG2R61     CG2R66     CG2R61
   18    17    16	5 ;       FGR1     CG2R66     CG2R61
   17    19    20	5 ;     CG2R66     CG2R61     CG2R61
   17    19    52	5 ;     CG2R66     CG2R61      HGR62
   20    19    52	5 ;     CG2R61     CG2R61      HGR62
   19    20    21	5 ;     CG2R61     CG2R61     CG2R61
   19    20    53	5 ;     CG2R61     CG2R61      HGR61
   21    20    53	5 ;     CG2R61     CG2R61      HGR61
   20    21    15	5 ;     CG2R61     CG2R61     CG2R61
   20    21    54	5 ;     CG2R61     CG2R61      HGR61
   15    21    54	5 ;     CG2R61     CG2R61      HGR61
    1    22    23	5 ;     NG3C51     CG3C51     NG3C51
    1    22    27	5 ;     NG3C51     CG3C51      SG311
    1    22    55	5 ;     NG3C51     CG3C51       HGA1
   23    22    27	5 ;     NG3C51     CG3C51      SG311
   23    22    55	5 ;     NG3C51     CG3C51       HGA1
   27    22    55	5 ;      SG311     CG3C51       HGA1
   25    23    22	5 ;       HGP1     NG3C51     CG3C51
   25    23    24	5 ;       HGP1     NG3C51     CG2R51
   22    23    24	5 ;     CG3C51     NG3C51     CG2R51
   23    24    26	5 ;     NG3C51     CG2R51     CG2R51
   23    24    56	5 ;     NG3C51     CG2R51      HGR52
   26    24    56	5 ;     CG2R51     CG2R51      HGR52
   27    26    24	5 ;      SG311     CG2R51     CG2R51
   27    26    57	5 ;      SG311     CG2R51      HGR52
   24    26    57	5 ;     CG2R51     CG2R51      HGR52
   22    27    26	5 ;     CG3C51      SG311     CG2R51
   29    28     9	5 ;     CG2R61      CG324      NG3P1
   29    28    58	5 ;     CG2R61      CG324       HGA2
   29    28    59	5 ;     CG2R61      CG324       HGA2
    9    28    58	5 ;      NG3P1      CG324       HGA2
    9    28    59	5 ;      NG3P1      CG324       HGA2
   58    28    59	5 ;       HGA2      CG324       HGA2
   34    29    28	5 ;     CG2R61     CG2R61      CG324
   34    29    30	5 ;     CG2R61     CG2R61     CG2R61
   28    29    30	5 ;      CG324     CG2R61     CG2R61
   29    30    31	5 ;     CG2R61     CG2R61     CG2R61
   29    30    60	5 ;     CG2R61     CG2R61      HGR61
   31    30    60	5 ;     CG2R61     CG2R61      HGR61
   32    31    30	5 ;     CG2R61     CG2R61     CG2R61
   32    31    35	5 ;     CG2R61     CG2R61      OG301
   30    31    35	5 ;     CG2R61     CG2R61      OG301
   33    32    31	5 ;     CG2R61     CG2R61     CG2R61
   33    32    61	5 ;     CG2R61     CG2R61      HGR61
   31    32    61	5 ;     CG2R61     CG2R61      HGR61
   34    33    32	5 ;     CG2R61     CG2R61     CG2R61
   34    33    62	5 ;     CG2R61     CG2R61      HGR61
   32    33    62	5 ;     CG2R61     CG2R61      HGR61
   33    34    29	5 ;     CG2R61     CG2R61     CG2R61
   33    34    63	5 ;     CG2R61     CG2R61      HGR61
   29    34    63	5 ;     CG2R61     CG2R61      HGR61
   36    35    31	5 ;      CG311      OG301     CG2R61
   37    36    35	5 ;      CG331      CG311      OG301
   37    36    38	5 ;      CG331      CG311      CG331
   37    36    64	5 ;      CG331      CG311       HGA1
   35    36    38	5 ;      OG301      CG311      CG331
   35    36    64	5 ;      OG301      CG311       HGA1
   38    36    64	5 ;      CG331      CG311       HGA1
   36    37    65	5 ;      CG311      CG331       HGA3
   36    37    66	5 ;      CG311      CG331       HGA3
   36    37    67	5 ;      CG311      CG331       HGA3
   65    37    66	5 ;       HGA3      CG331       HGA3
   65    37    67	5 ;       HGA3      CG331       HGA3
   66    37    67	5 ;       HGA3      CG331       HGA3
   36    38    68	5 ;      CG311      CG331       HGA3
   36    38    69	5 ;      CG311      CG331       HGA3
   36    38    70	5 ;      CG311      CG331       HGA3
   68    38    69	5 ;       HGA3      CG331       HGA3
   68    38    70	5 ;       HGA3      CG331       HGA3
   69    38    70	5 ;       HGA3      CG331       HGA3

[ dihedrals ]
;	ai	  aj	ak	  al funct			  c0			c1			  c2			c3			  c4			c5
   13     1     2     5	 9 ;     CG3C52     NG3C51      SG3O2     NG3C51
   13     1     2     4	 9 ;     CG3C52     NG3C51      SG3O2      OG2P1
   13     1     2     3	 9 ;     CG3C52     NG3C51      SG3O2      OG2P1
   22     1     2     5	 9 ;     CG3C51     NG3C51      SG3O2     NG3C51
   22     1     2     4	 9 ;     CG3C51     NG3C51      SG3O2      OG2P1
   22     1     2     3	 9 ;     CG3C51     NG3C51      SG3O2      OG2P1
    2     1    13     6	 9 ;      SG3O2     NG3C51     CG3C52     CG3C50
    2     1    13    49	 9 ;      SG3O2     NG3C51     CG3C52       HGA2
    2     1    13    50	 9 ;      SG3O2     NG3C51     CG3C52       HGA2
   22     1    13     6	 9 ;     CG3C51     NG3C51     CG3C52     CG3C50
   22     1    13    49	 9 ;     CG3C51     NG3C51     CG3C52       HGA2
   22     1    13    50	 9 ;     CG3C51     NG3C51     CG3C52       HGA2
    2     1    22    23	 9 ;      SG3O2     NG3C51     CG3C51     NG3C51
    2     1    22    27	 9 ;      SG3O2     NG3C51     CG3C51      SG311
    2     1    22    55	 9 ;      SG3O2     NG3C51     CG3C51       HGA1
   13     1    22    23	 9 ;     CG3C52     NG3C51     CG3C51     NG3C51
   13     1    22    27	 9 ;     CG3C52     NG3C51     CG3C51      SG311
   13     1    22    55	 9 ;     CG3C52     NG3C51     CG3C51       HGA1
    4     2     5    15	 9 ;      OG2P1      SG3O2     NG3C51     CG2R61
    4     2     5     6	 9 ;      OG2P1      SG3O2     NG3C51     CG3C50
    3     2     5    15	 9 ;      OG2P1      SG3O2     NG3C51     CG2R61
    3     2     5     6	 9 ;      OG2P1      SG3O2     NG3C51     CG3C50
    1     2     5    15	 9 ;     NG3C51      SG3O2     NG3C51     CG2R61
    1     2     5     6	 9 ;     NG3C51      SG3O2     NG3C51     CG3C50
    6     5    15    16	 9 ;     CG3C50     NG3C51     CG2R61     CG2R61
    6     5    15    21	 9 ;     CG3C50     NG3C51     CG2R61     CG2R61
    2     5    15    16	 9 ;      SG3O2     NG3C51     CG2R61     CG2R61
    2     5    15    21	 9 ;      SG3O2     NG3C51     CG2R61     CG2R61
   15     5     6    11	 9 ;     CG2R61     NG3C51     CG3C50      CG321
   15     5     6     7	 9 ;     CG2R61     NG3C51     CG3C50      CG321
   15     5     6    13	 9 ;     CG2R61     NG3C51     CG3C50     CG3C52
    2     5     6    11	 9 ;      SG3O2     NG3C51     CG3C50      CG321
    2     5     6     7	 9 ;      SG3O2     NG3C51     CG3C50      CG321
    2     5     6    13	 9 ;      SG3O2     NG3C51     CG3C50     CG3C52
    5     6    11    10	 9 ;     NG3C51     CG3C50      CG321      CG324
    5     6    11    44	 9 ;     NG3C51     CG3C50      CG321       HGA2
    5     6    11    45	 9 ;     NG3C51     CG3C50      CG321       HGA2
    7     6    11    10	 9 ;      CG321     CG3C50      CG321      CG324
    7     6    11    44	 9 ;      CG321     CG3C50      CG321       HGA2
    7     6    11    45	 9 ;      CG321     CG3C50      CG321       HGA2
   13     6    11    10	 9 ;     CG3C52     CG3C50      CG321      CG324
   13     6    11    44	 9 ;     CG3C52     CG3C50      CG321       HGA2
   13     6    11    45	 9 ;     CG3C52     CG3C50      CG321       HGA2
   11     6     7     8	 9 ;      CG321     CG3C50      CG321      CG314
   11     6     7    39	 9 ;      CG321     CG3C50      CG321       HGA2
   11     6     7    40	 9 ;      CG321     CG3C50      CG321       HGA2
    5     6     7     8	 9 ;     NG3C51     CG3C50      CG321      CG314
    5     6     7    39	 9 ;     NG3C51     CG3C50      CG321       HGA2
    5     6     7    40	 9 ;     NG3C51     CG3C50      CG321       HGA2
   13     6     7     8	 9 ;     CG3C52     CG3C50      CG321      CG314
   13     6     7    39	 9 ;     CG3C52     CG3C50      CG321       HGA2
   13     6     7    40	 9 ;     CG3C52     CG3C50      CG321       HGA2
   11     6    13     1	 9 ;      CG321     CG3C50     CG3C52     NG3C51
   11     6    13    49	 9 ;      CG321     CG3C50     CG3C52       HGA2
   11     6    13    50	 9 ;      CG321     CG3C50     CG3C52       HGA2
    5     6    13     1	 9 ;     NG3C51     CG3C50     CG3C52     NG3C51
    5     6    13    49	 9 ;     NG3C51     CG3C50     CG3C52       HGA2
    5     6    13    50	 9 ;     NG3C51     CG3C50     CG3C52       HGA2
    7     6    13     1	 9 ;      CG321     CG3C50     CG3C52     NG3C51
    7     6    13    49	 9 ;      CG321     CG3C50     CG3C52       HGA2
    7     6    13    50	 9 ;      CG321     CG3C50     CG3C52       HGA2
    6     7     8     9	 9 ;     CG3C50      CG321      CG314      NG3P1
    6     7     8    12	 9 ;     CG3C50      CG321      CG314      CG331
    6     7     8    41	 9 ;     CG3C50      CG321      CG314       HGA1
   39     7     8     9	 9 ;       HGA2      CG321      CG314      NG3P1
   39     7     8    12	 9 ;       HGA2      CG321      CG314      CG331
   39     7     8    41	 9 ;       HGA2      CG321      CG314       HGA1
   40     7     8     9	 9 ;       HGA2      CG321      CG314      NG3P1
   40     7     8    12	 9 ;       HGA2      CG321      CG314      CG331
   40     7     8    41	 9 ;       HGA2      CG321      CG314       HGA1
   12     8     9    28	 9 ;      CG331      CG314      NG3P1      CG324
   12     8     9    10	 9 ;      CG331      CG314      NG3P1      CG324
   12     8     9    14	 9 ;      CG331      CG314      NG3P1       HGP2
    7     8     9    28	 9 ;      CG321      CG314      NG3P1      CG324
    7     8     9    10	 9 ;      CG321      CG314      NG3P1      CG324
    7     8     9    14	 9 ;      CG321      CG314      NG3P1       HGP2
   41     8     9    28	 9 ;       HGA1      CG314      NG3P1      CG324
   41     8     9    10	 9 ;       HGA1      CG314      NG3P1      CG324
   41     8     9    14	 9 ;       HGA1      CG314      NG3P1       HGP2
    9     8    12    46	 9 ;      NG3P1      CG314      CG331       HGA3
    9     8    12    47	 9 ;      NG3P1      CG314      CG331       HGA3
    9     8    12    48	 9 ;      NG3P1      CG314      CG331       HGA3
    7     8    12    46	 9 ;      CG321      CG314      CG331       HGA3
    7     8    12    47	 9 ;      CG321      CG314      CG331       HGA3
    7     8    12    48	 9 ;      CG321      CG314      CG331       HGA3
   41     8    12    46	 9 ;       HGA1      CG314      CG331       HGA3
   41     8    12    47	 9 ;       HGA1      CG314      CG331       HGA3
   41     8    12    48	 9 ;       HGA1      CG314      CG331       HGA3
   10     9    28    29	 9 ;      CG324      NG3P1      CG324     CG2R61
   10     9    28    58	 9 ;      CG324      NG3P1      CG324       HGA2
   10     9    28    59	 9 ;      CG324      NG3P1      CG324       HGA2
   14     9    28    29	 9 ;       HGP2      NG3P1      CG324     CG2R61
   14     9    28    58	 9 ;       HGP2      NG3P1      CG324       HGA2
   14     9    28    59	 9 ;       HGP2      NG3P1      CG324       HGA2
    8     9    28    29	 9 ;      CG314      NG3P1      CG324     CG2R61
    8     9    28    58	 9 ;      CG314      NG3P1      CG324       HGA2
    8     9    28    59	 9 ;      CG314      NG3P1      CG324       HGA2
   28     9    10    11	 9 ;      CG324      NG3P1      CG324      CG321
   28     9    10    42	 9 ;      CG324      NG3P1      CG324       HGA2
   28     9    10    43	 9 ;      CG324      NG3P1      CG324       HGA2
   14     9    10    11	 9 ;       HGP2      NG3P1      CG324      CG321
   14     9    10    42	 9 ;       HGP2      NG3P1      CG324       HGA2
   14     9    10    43	 9 ;       HGP2      NG3P1      CG324       HGA2
    8     9    10    11	 9 ;      CG314      NG3P1      CG324      CG321
    8     9    10    42	 9 ;      CG314      NG3P1      CG324       HGA2
    8     9    10    43	 9 ;      CG314      NG3P1      CG324       HGA2
    9    10    11     6	 9 ;      NG3P1      CG324      CG321     CG3C50
    9    10    11    44	 9 ;      NG3P1      CG324      CG321       HGA2
    9    10    11    45	 9 ;      NG3P1      CG324      CG321       HGA2
   42    10    11     6	 9 ;       HGA2      CG324      CG321     CG3C50
   42    10    11    44	 9 ;       HGA2      CG324      CG321       HGA2
   42    10    11    45	 9 ;       HGA2      CG324      CG321       HGA2
   43    10    11     6	 9 ;       HGA2      CG324      CG321     CG3C50
   43    10    11    44	 9 ;       HGA2      CG324      CG321       HGA2
   43    10    11    45	 9 ;       HGA2      CG324      CG321       HGA2
   21    15    16    17	 9 ;     CG2R61     CG2R61     CG2R61     CG2R66
   21    15    16    51	 9 ;     CG2R61     CG2R61     CG2R61      HGR62
    5    15    16    17	 9 ;     NG3C51     CG2R61     CG2R61     CG2R66
    5    15    16    51	 9 ;     NG3C51     CG2R61     CG2R61      HGR62
   16    15    21    20	 9 ;     CG2R61     CG2R61     CG2R61     CG2R61
   16    15    21    54	 9 ;     CG2R61     CG2R61     CG2R61      HGR61
    5    15    21    20	 9 ;     NG3C51     CG2R61     CG2R61     CG2R61
    5    15    21    54	 9 ;     NG3C51     CG2R61     CG2R61      HGR61
   15    16    17    19	 9 ;     CG2R61     CG2R61     CG2R66     CG2R61
   15    16    17    18	 9 ;     CG2R61     CG2R61     CG2R66       FGR1
   51    16    17    19	 9 ;      HGR62     CG2R61     CG2R66     CG2R61
   51    16    17    18	 9 ;      HGR62     CG2R61     CG2R66       FGR1
   18    17    19    20	 9 ;       FGR1     CG2R66     CG2R61     CG2R61
   18    17    19    52	 9 ;       FGR1     CG2R66     CG2R61      HGR62
   16    17    19    20	 9 ;     CG2R61     CG2R66     CG2R61     CG2R61
   16    17    19    52	 9 ;     CG2R61     CG2R66     CG2R61      HGR62
   17    19    20    21	 9 ;     CG2R66     CG2R61     CG2R61     CG2R61
   17    19    20    53	 9 ;     CG2R66     CG2R61     CG2R61      HGR61
   52    19    20    21	 9 ;      HGR62     CG2R61     CG2R61     CG2R61
   52    19    20    53	 9 ;      HGR62     CG2R61     CG2R61      HGR61
   19    20    21    15	 9 ;     CG2R61     CG2R61     CG2R61     CG2R61
   19    20    21    54	 9 ;     CG2R61     CG2R61     CG2R61      HGR61
   53    20    21    15	 9 ;      HGR61     CG2R61     CG2R61     CG2R61
   53    20    21    54	 9 ;      HGR61     CG2R61     CG2R61      HGR61
    1    22    23    25	 9 ;     NG3C51     CG3C51     NG3C51       HGP1
    1    22    23    24	 9 ;     NG3C51     CG3C51     NG3C51     CG2R51
   27    22    23    25	 9 ;      SG311     CG3C51     NG3C51       HGP1
   27    22    23    24	 9 ;      SG311     CG3C51     NG3C51     CG2R51
   55    22    23    25	 9 ;       HGA1     CG3C51     NG3C51       HGP1
   55    22    23    24	 9 ;       HGA1     CG3C51     NG3C51     CG2R51
    1    22    27    26	 9 ;     NG3C51     CG3C51      SG311     CG2R51
   23    22    27    26	 9 ;     NG3C51     CG3C51      SG311     CG2R51
   55    22    27    26	 9 ;       HGA1     CG3C51      SG311     CG2R51
   25    23    24    26	 9 ;       HGP1     NG3C51     CG2R51     CG2R51
   25    23    24    56	 9 ;       HGP1     NG3C51     CG2R51      HGR52
   22    23    24    26	 9 ;     CG3C51     NG3C51     CG2R51     CG2R51
   22    23    24    56	 9 ;     CG3C51     NG3C51     CG2R51      HGR52
   23    24    26    27	 9 ;     NG3C51     CG2R51     CG2R51      SG311
   23    24    26    57	 9 ;     NG3C51     CG2R51     CG2R51      HGR52
   56    24    26    27	 9 ;      HGR52     CG2R51     CG2R51      SG311
   56    24    26    57	 9 ;      HGR52     CG2R51     CG2R51      HGR52
   24    26    27    22	 9 ;     CG2R51     CG2R51      SG311     CG3C51
   57    26    27    22	 9 ;      HGR52     CG2R51      SG311     CG3C51
    9    28    29    34	 9 ;      NG3P1      CG324     CG2R61     CG2R61
    9    28    29    30	 9 ;      NG3P1      CG324     CG2R61     CG2R61
   58    28    29    34	 9 ;       HGA2      CG324     CG2R61     CG2R61
   58    28    29    30	 9 ;       HGA2      CG324     CG2R61     CG2R61
   59    28    29    34	 9 ;       HGA2      CG324     CG2R61     CG2R61
   59    28    29    30	 9 ;       HGA2      CG324     CG2R61     CG2R61
   28    29    34    33	 9 ;      CG324     CG2R61     CG2R61     CG2R61
   28    29    34    63	 9 ;      CG324     CG2R61     CG2R61      HGR61
   30    29    34    33	 9 ;     CG2R61     CG2R61     CG2R61     CG2R61
   30    29    34    63	 9 ;     CG2R61     CG2R61     CG2R61      HGR61
   34    29    30    31	 9 ;     CG2R61     CG2R61     CG2R61     CG2R61
   34    29    30    60	 9 ;     CG2R61     CG2R61     CG2R61      HGR61
   28    29    30    31	 9 ;      CG324     CG2R61     CG2R61     CG2R61
   28    29    30    60	 9 ;      CG324     CG2R61     CG2R61      HGR61
   29    30    31    32	 9 ;     CG2R61     CG2R61     CG2R61     CG2R61
   29    30    31    35	 9 ;     CG2R61     CG2R61     CG2R61      OG301
   60    30    31    32	 9 ;      HGR61     CG2R61     CG2R61     CG2R61
   60    30    31    35	 9 ;      HGR61     CG2R61     CG2R61      OG301
   30    31    32    33	 9 ;     CG2R61     CG2R61     CG2R61     CG2R61
   30    31    32    61	 9 ;     CG2R61     CG2R61     CG2R61      HGR61
   35    31    32    33	 9 ;      OG301     CG2R61     CG2R61     CG2R61
   35    31    32    61	 9 ;      OG301     CG2R61     CG2R61      HGR61
   32    31    35    36	 9 ;     CG2R61     CG2R61      OG301      CG311
   30    31    35    36	 9 ;     CG2R61     CG2R61      OG301      CG311
   31    32    33    34	 9 ;     CG2R61     CG2R61     CG2R61     CG2R61
   31    32    33    62	 9 ;     CG2R61     CG2R61     CG2R61      HGR61
   61    32    33    34	 9 ;      HGR61     CG2R61     CG2R61     CG2R61
   61    32    33    62	 9 ;      HGR61     CG2R61     CG2R61      HGR61
   32    33    34    29	 9 ;     CG2R61     CG2R61     CG2R61     CG2R61
   32    33    34    63	 9 ;     CG2R61     CG2R61     CG2R61      HGR61
   62    33    34    29	 9 ;      HGR61     CG2R61     CG2R61     CG2R61
   62    33    34    63	 9 ;      HGR61     CG2R61     CG2R61      HGR61
   31    35    36    37	 9 ;     CG2R61      OG301      CG311      CG331
   31    35    36    38	 9 ;     CG2R61      OG301      CG311      CG331
   31    35    36    64	 9 ;     CG2R61      OG301      CG311       HGA1
   35    36    37    65	 9 ;      OG301      CG311      CG331       HGA3
   35    36    37    66	 9 ;      OG301      CG311      CG331       HGA3
   35    36    37    67	 9 ;      OG301      CG311      CG331       HGA3
   38    36    37    65	 9 ;      CG331      CG311      CG331       HGA3
   38    36    37    66	 9 ;      CG331      CG311      CG331       HGA3
   38    36    37    67	 9 ;      CG331      CG311      CG331       HGA3
   64    36    37    65	 9 ;       HGA1      CG311      CG331       HGA3
   64    36    37    66	 9 ;       HGA1      CG311      CG331       HGA3
   64    36    37    67	 9 ;       HGA1      CG311      CG331       HGA3
   37    36    38    68	 9 ;      CG331      CG311      CG331       HGA3
   37    36    38    69	 9 ;      CG331      CG311      CG331       HGA3
   37    36    38    70	 9 ;      CG331      CG311      CG331       HGA3
   35    36    38    68	 9 ;      OG301      CG311      CG331       HGA3
   35    36    38    69	 9 ;      OG301      CG311      CG331       HGA3
   35    36    38    70	 9 ;      OG301      CG311      CG331       HGA3
   64    36    38    68	 9 ;       HGA1      CG311      CG331       HGA3
   64    36    38    69	 9 ;       HGA1      CG311      CG331       HGA3
   64    36    38    70	 9 ;       HGA1      CG311      CG331       HGA3

