GRoups of Organic Molecules in ACtion for Science
   70
    1LIG     N1    1  -1.728   0.501  -1.013
    1LIG     S1    2  -1.830   0.591  -1.115
    1LIG     O1    3  -1.801   0.731  -1.106
    1LIG     O2    4  -1.964   0.536  -1.113
    1LIG     N2    5  -1.757   0.529  -1.258
    1LIG     C1    6  -1.680   0.403  -1.229
    1LIG     C2    7  -1.529   0.434  -1.235
    1LIG     C3    8  -1.469   0.453  -1.375
    1LIG     N3    9  -1.510   0.338  -1.466
    1LIG     C4   10  -1.654   0.296  -1.460
    1LIG     C5   11  -1.707   0.282  -1.318
    1LIG     C6   12  -1.498   0.588  -1.437
    1LIG     C7   13  -1.718   0.368  -1.077
    1LIG     H1   14  -1.454   0.257  -1.434
    1LIG     C8   15  -1.826   0.570  -1.376
    1LIG     C9   16  -1.793   0.695  -1.430
    1LIG    C10   17  -1.857   0.743  -1.542
    1LIG      F   18  -1.816   0.858  -1.597
    1LIG    C11   19  -1.963   0.673  -1.598
    1LIG    C12   20  -2.004   0.554  -1.539
    1LIG    C13   21  -1.936   0.502  -1.428
    1LIG    C14   22  -1.779   0.517  -0.882
    1LIG     N4   23  -1.850   0.622  -0.846
    1LIG    C15   24  -1.853   0.626  -0.707
    1LIG     HN   25  -1.894   0.688  -0.909
    1LIG    C16   26  -1.800   0.516  -0.642
    1LIG     S2   27  -1.740   0.405  -0.758
    1LIG    C17   28  -1.467   0.356  -1.613
    1LIG    C18   29  -1.319   0.359  -1.633
    1LIG    C19   30  -1.245   0.247  -1.594
    1LIG    C20   31  -1.106   0.245  -1.602
    1LIG    C21   32  -1.039   0.356  -1.654
    1LIG    C22   33  -1.111   0.468  -1.696
    1LIG    C23   34  -1.251   0.470  -1.686
    1LIG     O3   35  -1.030   0.139  -1.563
    1LIG    C24   36  -1.033   0.022  -1.646
    1LIG    C25   37  -0.919   0.024  -1.747
    1LIG    C26   38  -1.022  -0.100  -1.555
    1LIG     H2   39  -1.511   0.524  -1.180
    1LIG     H3   40  -1.480   0.347  -1.194
    1LIG     H4   41  -1.363   0.451  -1.363
    1LIG     H5   42  -1.664   0.201  -1.510
    1LIG     H6   43  -1.712   0.372  -1.508
    1LIG     H7   44  -1.660   0.197  -1.273
    1LIG     H8   45  -1.813   0.273  -1.326
    1LIG     H9   46  -1.603   0.598  -1.453
    1LIG    H10   47  -1.447   0.596  -1.531
    1LIG    H11   48  -1.464   0.665  -1.372
    1LIG    H12   49  -1.641   0.309  -1.032
    1LIG    H13   50  -1.808   0.311  -1.069
    1LIG    H14   51  -1.719   0.752  -1.385
    1LIG    H15   52  -2.011   0.708  -1.683
    1LIG    H16   53  -2.085   0.503  -1.578
    1LIG    H17   54  -1.968   0.414  -1.385
    1LIG    H18   55  -1.839   0.483  -0.964
    1LIG    H19   56  -1.893   0.706  -0.655
    1LIG    H20   57  -1.796   0.503  -0.540
    1LIG    H21   58  -1.508   0.275  -1.671
    1LIG    H22   59  -1.505   0.451  -1.645
    1LIG    H23   60  -1.294   0.163  -1.559
    1LIG    H24   61  -0.936   0.355  -1.662
    1LIG    H25   62  -1.062   0.550  -1.734
    1LIG    H26   63  -1.304   0.553  -1.717
    1LIG    H27   64  -1.125   0.020  -1.702
    1LIG    H28   65  -0.825   0.027  -1.695
    1LIG    H29   66  -0.927   0.111  -1.809
    1LIG    H30   67  -0.923  -0.064  -1.808
    1LIG    H31   68  -0.929  -0.095  -1.501
    1LIG    H32   69  -1.023  -0.189  -1.615
    1LIG    H33   70  -1.104  -0.101  -1.487
   0.00000   0.00000   0.00000
