Gallium Rubidium Oxygen Manganese Argon Carbon Silicon
   70
    1LIG     N1    1  -1.426   0.546  -1.597
    1LIG     H1    2  -1.399   0.472  -1.664
    1LIG     H2    3  -1.447   0.494  -1.511
    1LIG     C1    4  -1.299   0.626  -1.574
    1LIG     C2    5  -1.195   0.533  -1.507
    1LIG     O1    6  -1.153   0.600  -1.388
    1LIG     H3    7  -1.064   0.568  -1.363
    1LIG     C3    8  -1.252   0.390  -1.485
    1LIG     N2    9  -1.176   0.296  -1.568
    1LIG     C4   10  -1.221   0.250  -1.690
    1LIG     O2   11  -1.324   0.289  -1.743
    1LIG     C5   12  -1.124   0.155  -1.755
    1LIG     H4   13  -1.090   0.257  -1.533
    1LIG     C6   14  -1.253   0.345  -1.335
    1LIG     C7   15  -1.232   0.196  -1.313
    1LIG     C8   16  -1.329   0.103  -1.352
    1LIG     C9   17  -1.313  -0.033  -1.321
    1LIG     F1   18  -1.408  -0.120  -1.357
    1LIG    C10   19  -1.202  -0.078  -1.251
    1LIG    C11   20  -1.103   0.013  -1.219
    1LIG    C12   21  -1.115   0.148  -1.253
    1LIG     F2   22  -0.995  -0.027  -1.151
    1LIG    C13   23  -1.556   0.611  -1.646
    1LIG    C14   24  -1.548   0.622  -1.800
    1LIG    C15   25  -1.657   0.712  -1.857
    1LIG     O3   26  -1.649   0.840  -1.794
    1LIG    C16   27  -1.676   0.834  -1.655
    1LIG    C17   28  -1.567   0.753  -1.586
    1LIG    C18   29  -1.671   0.520  -1.594
    1LIG    C19   30  -1.754   0.561  -1.487
    1LIG    C20   31  -1.856   0.479  -1.435
    1LIG    C21   32  -1.875   0.352  -1.492
    1LIG    C22   33  -1.796   0.310  -1.597
    1LIG    C23   34  -1.695   0.392  -1.648
    1LIG    C24   35  -1.947   0.526  -1.324
    1LIG    C25   36  -2.013   0.660  -1.351
    1LIG    C26   37  -2.135   0.658  -1.261
    1LIG     O4   38  -2.167   0.521  -1.234
    1LIG    C27   39  -2.067   0.437  -1.295
    1LIG    HC2   40  -1.261   0.663  -1.669
    1LIG    HC3   41  -1.321   0.711  -1.508
    1LIG     HC   42  -1.109   0.525  -1.573
    1LIG    HC1   43  -1.355   0.390  -1.520
    1LIG    HC4   44  -1.349   0.372  -1.292
    1LIG    HC5   45  -1.175   0.399  -1.282
    1LIG    HC6   46  -1.417   0.136  -1.406
    1LIG    HC7   47  -1.193  -0.182  -1.223
    1LIG    HC8   48  -1.033   0.215  -1.233
    1LIG    HC9   49  -1.559   0.522  -1.843
    1LIG   HC10   50  -1.450   0.661  -1.828
    1LIG   HC11   51  -1.643   0.724  -1.964
    1LIG   HC12   52  -1.755   0.668  -1.837
    1LIG   HC13   53  -1.679   0.934  -1.613
    1LIG   HC14   54  -1.773   0.785  -1.639
    1LIG   HC15   55  -1.472   0.805  -1.599
    1LIG   HC16   56  -1.589   0.746  -1.480
    1LIG   HC17   57  -1.738   0.658  -1.443
    1LIG   HC18   58  -1.951   0.287  -1.452
    1LIG   HC19   59  -1.812   0.212  -1.641
    1LIG   HC20   60  -1.634   0.357  -1.729
    1LIG   HC21   61  -1.888   0.535  -1.232
    1LIG   HC22   62  -2.042   0.669  -1.456
    1LIG   HC23   63  -1.947   0.742  -1.323
    1LIG   HC24   64  -2.114   0.710  -1.168
    1LIG   HC25   65  -2.219   0.706  -1.312
    1LIG   HC26   66  -2.039   0.357  -1.226
    1LIG   HC27   67  -2.105   0.395  -1.388
    1LIG   HC28   68  -1.164   0.121  -1.851
    1LIG   HC29   69  -1.029   0.205  -1.771
    1LIG   HC30   70  -1.109   0.068  -1.690
   0.00000   0.00000   0.00000
