; Created by cgenff_charmm2gmx.py

[ moleculetype ]
; Name			   nrexcl
LIG				 3

[ atoms ]
;	 nr		  type	resnr residue  atom   cgnr	   charge		mass  typeB    chargeB		massB
; residue	 1 LIG rtp LIG q	qsum
     1      NG3P2      1    LIG     N1      1     -0.450     14.007   ;
     2       HGP2      1    LIG     H1      2      0.341      1.008   ;
     3       HGP2      1    LIG     H2      3      0.341      1.008   ;
     4      CG324      1    LIG     C1      4      0.208     12.011   ;
     5      CG311      1    LIG     C2      5      0.089     12.011   ;
     6      OG311      1    LIG     O1      6     -0.625     15.999   ;
     7       HGP1      1    LIG     H3      7      0.415      1.008   ;
     8      CG311      1    LIG     C3      8     -0.007     12.011   ;
     9      NG2S1      1    LIG     N2      9     -0.339     14.007   ;
    10      CG2O1      1    LIG     C4     10      0.488     12.011   ;
    11      OG2D1      1    LIG     O2     11     -0.509     15.999   ;
    12      CG331      1    LIG     C5     12     -0.270     12.011   ;
    13       HGP1      1    LIG     H4     13      0.261      1.008   ;
    14      CG321      1    LIG     C6     14     -0.153     12.011   ;
    15     CG2R61      1    LIG     C7     15      0.057     12.011   ;
    16     CG2R61      1    LIG     C8     16     -0.218     12.011   ;
    17     CG2R66      1    LIG     C9     17      0.261     12.011   ;
    18       FGR1      1    LIG     F1     18     -0.210     18.998   ;
    19     CG2R61      1    LIG    C10     19     -0.240     12.011   ;
    20     CG2R66      1    LIG    C11     20      0.261     12.011   ;
    21     CG2R61      1    LIG    C12     21     -0.218     12.011   ;
    22       FGR1      1    LIG     F2     22     -0.210     18.998   ;
    23      CG301      1    LIG    C13     23      0.251     12.011   ;
    24      CG321      1    LIG    C14     24     -0.149     12.011   ;
    25      CG321      1    LIG    C15     25      0.020     12.011   ;
    26     OG3C61      1    LIG     O3     26     -0.392     15.999   ;
    27      CG321      1    LIG    C16     27      0.020     12.011   ;
    28      CG321      1    LIG    C17     28     -0.149     12.011   ;
    29     CG2R61      1    LIG    C18     29      0.086     12.011   ;
    30     CG2R61      1    LIG    C19     30     -0.133     12.011   ;
    31     CG2R61      1    LIG    C20     31     -0.101     12.011   ;
    32     CG2R61      1    LIG    C21     32     -0.120     12.011   ;
    33     CG2R61      1    LIG    C22     33     -0.109     12.011   ;
    34     CG2R61      1    LIG    C23     34     -0.129     12.011   ;
    35     CG3C51      1    LIG    C24     35      0.028     12.011   ;
    36     CG3C52      1    LIG    C25     36     -0.171     12.011   ;
    37     CG3C52      1    LIG    C26     37      0.031     12.011   ;
    38     OG3C51      1    LIG     O4     38     -0.417     15.999   ;
    39     CG3C52      1    LIG    C27     39      0.003     12.011   ;
    40       HGA2      1    LIG    HC2     40      0.090      1.008   ;
    41       HGA2      1    LIG    HC3     41      0.090      1.008   ;
    42       HGA1      1    LIG     HC     42      0.090      1.008   ;
    43       HGA1      1    LIG    HC1     43      0.090      1.008   ;
    44       HGA2      1    LIG    HC4     44      0.090      1.008   ;
    45       HGA2      1    LIG    HC5     45      0.090      1.008   ;
    46      HGR62      1    LIG    HC6     46      0.174      1.008   ;
    47      HGR62      1    LIG    HC7     47      0.186      1.008   ;
    48      HGR62      1    LIG    HC8     48      0.174      1.008   ;
    49       HGA2      1    LIG    HC9     49      0.090      1.008   ;
    50       HGA2      1    LIG   HC10     50      0.090      1.008   ;
    51       HGA2      1    LIG   HC11     51      0.090      1.008   ;
    52       HGA2      1    LIG   HC12     52      0.090      1.008   ;
    53       HGA2      1    LIG   HC13     53      0.090      1.008   ;
    54       HGA2      1    LIG   HC14     54      0.090      1.008   ;
    55       HGA2      1    LIG   HC15     55      0.090      1.008   ;
    56       HGA2      1    LIG   HC16     56      0.090      1.008   ;
    57      HGR61      1    LIG   HC17     57      0.116      1.008   ;
    58      HGR61      1    LIG   HC18     58      0.116      1.008   ;
    59      HGR61      1    LIG   HC19     59      0.116      1.008   ;
    60      HGR61      1    LIG   HC20     60      0.116      1.008   ;
    61       HGA1      1    LIG   HC21     61      0.090      1.008   ;
    62       HGA2      1    LIG   HC22     62      0.090      1.008   ;
    63       HGA2      1    LIG   HC23     63      0.090      1.008   ;
    64       HGA2      1    LIG   HC24     64      0.090      1.008   ;
    65       HGA2      1    LIG   HC25     65      0.090      1.008   ;
    66       HGA2      1    LIG   HC26     66      0.090      1.008   ;
    67       HGA2      1    LIG   HC27     67      0.090      1.008   ;
    68       HGA3      1    LIG   HC28     68      0.090      1.008   ;
    69       HGA3      1    LIG   HC29     69      0.090      1.008   ;
    70       HGA3      1    LIG   HC30     70      0.090      1.008   ;

[ bonds ]
;	ai	  aj funct			  c0			c1			  c2			c3
    1     2	 1 ;       NG3P2       HGP2
    1     4	 1 ;       NG3P2      CG324
    1     3	 1 ;       NG3P2       HGP2
    1    23	 1 ;       NG3P2      CG301
    4     5	 1 ;       CG324      CG311
    4    40	 1 ;       CG324       HGA2
    4    41	 1 ;       CG324       HGA2
    5     8	 1 ;       CG311      CG311
    5     6	 1 ;       CG311      OG311
    5    42	 1 ;       CG311       HGA1
    6     7	 1 ;       OG311       HGP1
    8     9	 1 ;       CG311      NG2S1
    8    14	 1 ;       CG311      CG321
    8    43	 1 ;       CG311       HGA1
    9    10	 1 ;       NG2S1      CG2O1
    9    13	 1 ;       NG2S1       HGP1
   10    12	 1 ;       CG2O1      CG331
   10    11	 1 ;       CG2O1      OG2D1
   12    68	 1 ;       CG331       HGA3
   12    69	 1 ;       CG331       HGA3
   12    70	 1 ;       CG331       HGA3
   14    15	 1 ;       CG321     CG2R61
   14    44	 1 ;       CG321       HGA2
   14    45	 1 ;       CG321       HGA2
   15    21	 1 ;      CG2R61     CG2R61
   15    16	 1 ;      CG2R61     CG2R61
   16    17	 1 ;      CG2R61     CG2R66
   16    46	 1 ;      CG2R61      HGR62
   17    19	 1 ;      CG2R66     CG2R61
   17    18	 1 ;      CG2R66       FGR1
   19    20	 1 ;      CG2R61     CG2R66
   19    47	 1 ;      CG2R61      HGR62
   20    22	 1 ;      CG2R66       FGR1
   20    21	 1 ;      CG2R66     CG2R61
   21    48	 1 ;      CG2R61      HGR62
   23    24	 1 ;       CG301      CG321
   23    28	 1 ;       CG301      CG321
   23    29	 1 ;       CG301     CG2R61
   24    25	 1 ;       CG321      CG321
   24    49	 1 ;       CG321       HGA2
   24    50	 1 ;       CG321       HGA2
   25    26	 1 ;       CG321     OG3C61
   25    51	 1 ;       CG321       HGA2
   25    52	 1 ;       CG321       HGA2
   26    27	 1 ;      OG3C61      CG321
   27    28	 1 ;       CG321      CG321
   27    53	 1 ;       CG321       HGA2
   27    54	 1 ;       CG321       HGA2
   28    55	 1 ;       CG321       HGA2
   28    56	 1 ;       CG321       HGA2
   29    34	 1 ;      CG2R61     CG2R61
   29    30	 1 ;      CG2R61     CG2R61
   30    31	 1 ;      CG2R61     CG2R61
   30    57	 1 ;      CG2R61      HGR61
   31    32	 1 ;      CG2R61     CG2R61
   31    35	 1 ;      CG2R61     CG3C51
   32    33	 1 ;      CG2R61     CG2R61
   32    58	 1 ;      CG2R61      HGR61
   33    34	 1 ;      CG2R61     CG2R61
   33    59	 1 ;      CG2R61      HGR61
   34    60	 1 ;      CG2R61      HGR61
   35    36	 1 ;      CG3C51     CG3C52
   35    39	 1 ;      CG3C51     CG3C52
   35    61	 1 ;      CG3C51       HGA1
   36    37	 1 ;      CG3C52     CG3C52
   36    62	 1 ;      CG3C52       HGA2
   36    63	 1 ;      CG3C52       HGA2
   37    38	 1 ;      CG3C52     OG3C51
   37    64	 1 ;      CG3C52       HGA2
   37    65	 1 ;      CG3C52       HGA2
   38    39	 1 ;      OG3C51     CG3C52
   39    66	 1 ;      CG3C52       HGA2
   39    67	 1 ;      CG3C52       HGA2

[ pairs ]
;	ai	  aj funct			  c0			c1			  c2			c3
    1     8	 1
    1     6	 1
    1    42	 1
    1    25	 1
    1    49	 1
    1    50	 1
    1    27	 1
    1    55	 1
    1    56	 1
    1    34	 1
    1    30	 1
    2     5	 1
    2    40	 1
    2    41	 1
    2    24	 1
    2    28	 1
    2    29	 1
    3     5	 1
    3    40	 1
    3    41	 1
    3    24	 1
    3    28	 1
    3    29	 1
    4    24	 1
    4    28	 1
    4    29	 1
    4     9	 1
    4    14	 1
    4    43	 1
    4     7	 1
    5    23	 1
    5    10	 1
    5    13	 1
    5    15	 1
    5    44	 1
    5    45	 1
    6    40	 1
    6    41	 1
    6     9	 1
    6    14	 1
    6    43	 1
    7     8	 1
    7    42	 1
    8    40	 1
    8    41	 1
    8    12	 1
    8    11	 1
    8    21	 1
    8    16	 1
    9    42	 1
    9    15	 1
    9    44	 1
    9    45	 1
    9    68	 1
    9    69	 1
    9    70	 1
   10    14	 1
   10    43	 1
   11    13	 1
   11    68	 1
   11    69	 1
   11    70	 1
   12    13	 1
   13    14	 1
   13    43	 1
   14    42	 1
   14    20	 1
   14    48	 1
   14    17	 1
   14    46	 1
   15    43	 1
   15    19	 1
   15    18	 1
   15    22	 1
   16    44	 1
   16    45	 1
   16    20	 1
   16    48	 1
   16    47	 1
   17    21	 1
   17    22	 1
   18    46	 1
   18    20	 1
   18    47	 1
   19    46	 1
   19    48	 1
   21    44	 1
   21    45	 1
   21    46	 1
   21    47	 1
   22    47	 1
   22    48	 1
   23    40	 1
   23    41	 1
   23    26	 1
   23    51	 1
   23    52	 1
   23    53	 1
   23    54	 1
   23    33	 1
   23    60	 1
   23    31	 1
   23    57	 1
   24    27	 1
   24    55	 1
   24    56	 1
   24    34	 1
   24    30	 1
   25    28	 1
   25    29	 1
   25    53	 1
   25    54	 1
   26    49	 1
   26    50	 1
   26    55	 1
   26    56	 1
   27    29	 1
   27    51	 1
   27    52	 1
   28    49	 1
   28    50	 1
   28    34	 1
   28    30	 1
   29    49	 1
   29    50	 1
   29    55	 1
   29    56	 1
   29    32	 1
   29    35	 1
   29    59	 1
   30    33	 1
   30    60	 1
   30    58	 1
   30    36	 1
   30    39	 1
   30    61	 1
   31    34	 1
   31    59	 1
   31    37	 1
   31    62	 1
   31    63	 1
   31    38	 1
   31    66	 1
   31    67	 1
   32    57	 1
   32    36	 1
   32    39	 1
   32    61	 1
   32    60	 1
   33    35	 1
   34    57	 1
   34    58	 1
   35    57	 1
   35    58	 1
   35    64	 1
   35    65	 1
   36    66	 1
   36    67	 1
   37    61	 1
   37    66	 1
   37    67	 1
   38    61	 1
   38    62	 1
   38    63	 1
   39    62	 1
   39    63	 1
   39    64	 1
   39    65	 1
   40    42	 1
   41    42	 1
   42    43	 1
   43    44	 1
   43    45	 1
   49    51	 1
   49    52	 1
   50    51	 1
   50    52	 1
   53    55	 1
   53    56	 1
   54    55	 1
   54    56	 1
   58    59	 1
   59    60	 1
   61    62	 1
   61    63	 1
   61    66	 1
   61    67	 1
   62    64	 1
   62    65	 1
   63    64	 1
   63    65	 1

[ angles ]
;	ai	  aj	ak funct			c0			  c1			c2			  c3
    2     1     4	5 ;       HGP2      NG3P2      CG324
    2     1     3	5 ;       HGP2      NG3P2       HGP2
    2     1    23	5 ;       HGP2      NG3P2      CG301
    4     1     3	5 ;      CG324      NG3P2       HGP2
    4     1    23	5 ;      CG324      NG3P2      CG301
    3     1    23	5 ;       HGP2      NG3P2      CG301
    5     4     1	5 ;      CG311      CG324      NG3P2
    5     4    40	5 ;      CG311      CG324       HGA2
    5     4    41	5 ;      CG311      CG324       HGA2
    1     4    40	5 ;      NG3P2      CG324       HGA2
    1     4    41	5 ;      NG3P2      CG324       HGA2
   40     4    41	5 ;       HGA2      CG324       HGA2
    8     5     4	5 ;      CG311      CG311      CG324
    8     5     6	5 ;      CG311      CG311      OG311
    8     5    42	5 ;      CG311      CG311       HGA1
    4     5     6	5 ;      CG324      CG311      OG311
    4     5    42	5 ;      CG324      CG311       HGA1
    6     5    42	5 ;      OG311      CG311       HGA1
    7     6     5	5 ;       HGP1      OG311      CG311
    9     8     5	5 ;      NG2S1      CG311      CG311
    9     8    14	5 ;      NG2S1      CG311      CG321
    9     8    43	5 ;      NG2S1      CG311       HGA1
    5     8    14	5 ;      CG311      CG311      CG321
    5     8    43	5 ;      CG311      CG311       HGA1
   14     8    43	5 ;      CG321      CG311       HGA1
   10     9    13	5 ;      CG2O1      NG2S1       HGP1
   10     9     8	5 ;      CG2O1      NG2S1      CG311
   13     9     8	5 ;       HGP1      NG2S1      CG311
   12    10    11	5 ;      CG331      CG2O1      OG2D1
   12    10     9	5 ;      CG331      CG2O1      NG2S1
   11    10     9	5 ;      OG2D1      CG2O1      NG2S1
   10    12    68	5 ;      CG2O1      CG331       HGA3
   10    12    69	5 ;      CG2O1      CG331       HGA3
   10    12    70	5 ;      CG2O1      CG331       HGA3
   68    12    69	5 ;       HGA3      CG331       HGA3
   68    12    70	5 ;       HGA3      CG331       HGA3
   69    12    70	5 ;       HGA3      CG331       HGA3
    8    14    15	5 ;      CG311      CG321     CG2R61
    8    14    44	5 ;      CG311      CG321       HGA2
    8    14    45	5 ;      CG311      CG321       HGA2
   15    14    44	5 ;     CG2R61      CG321       HGA2
   15    14    45	5 ;     CG2R61      CG321       HGA2
   44    14    45	5 ;       HGA2      CG321       HGA2
   21    15    14	5 ;     CG2R61     CG2R61      CG321
   21    15    16	5 ;     CG2R61     CG2R61     CG2R61
   14    15    16	5 ;      CG321     CG2R61     CG2R61
   15    16    17	5 ;     CG2R61     CG2R61     CG2R66
   15    16    46	5 ;     CG2R61     CG2R61      HGR62
   17    16    46	5 ;     CG2R66     CG2R61      HGR62
   19    17    16	5 ;     CG2R61     CG2R66     CG2R61
   19    17    18	5 ;     CG2R61     CG2R66       FGR1
   16    17    18	5 ;     CG2R61     CG2R66       FGR1
   20    19    17	5 ;     CG2R66     CG2R61     CG2R66
   20    19    47	5 ;     CG2R66     CG2R61      HGR62
   17    19    47	5 ;     CG2R66     CG2R61      HGR62
   22    20    21	5 ;       FGR1     CG2R66     CG2R61
   22    20    19	5 ;       FGR1     CG2R66     CG2R61
   21    20    19	5 ;     CG2R61     CG2R66     CG2R61
   20    21    15	5 ;     CG2R66     CG2R61     CG2R61
   20    21    48	5 ;     CG2R66     CG2R61      HGR62
   15    21    48	5 ;     CG2R61     CG2R61      HGR62
   24    23     1	5 ;      CG321      CG301      NG3P2
   24    23    28	5 ;      CG321      CG301      CG321
   24    23    29	5 ;      CG321      CG301     CG2R61
    1    23    28	5 ;      NG3P2      CG301      CG321
    1    23    29	5 ;      NG3P2      CG301     CG2R61
   28    23    29	5 ;      CG321      CG301     CG2R61
   25    24    23	5 ;      CG321      CG321      CG301
   25    24    49	5 ;      CG321      CG321       HGA2
   25    24    50	5 ;      CG321      CG321       HGA2
   23    24    49	5 ;      CG301      CG321       HGA2
   23    24    50	5 ;      CG301      CG321       HGA2
   49    24    50	5 ;       HGA2      CG321       HGA2
   24    25    26	5 ;      CG321      CG321     OG3C61
   24    25    51	5 ;      CG321      CG321       HGA2
   24    25    52	5 ;      CG321      CG321       HGA2
   26    25    51	5 ;     OG3C61      CG321       HGA2
   26    25    52	5 ;     OG3C61      CG321       HGA2
   51    25    52	5 ;       HGA2      CG321       HGA2
   25    26    27	5 ;      CG321     OG3C61      CG321
   26    27    28	5 ;     OG3C61      CG321      CG321
   26    27    53	5 ;     OG3C61      CG321       HGA2
   26    27    54	5 ;     OG3C61      CG321       HGA2
   28    27    53	5 ;      CG321      CG321       HGA2
   28    27    54	5 ;      CG321      CG321       HGA2
   53    27    54	5 ;       HGA2      CG321       HGA2
   23    28    27	5 ;      CG301      CG321      CG321
   23    28    55	5 ;      CG301      CG321       HGA2
   23    28    56	5 ;      CG301      CG321       HGA2
   27    28    55	5 ;      CG321      CG321       HGA2
   27    28    56	5 ;      CG321      CG321       HGA2
   55    28    56	5 ;       HGA2      CG321       HGA2
   23    29    34	5 ;      CG301     CG2R61     CG2R61
   23    29    30	5 ;      CG301     CG2R61     CG2R61
   34    29    30	5 ;     CG2R61     CG2R61     CG2R61
   29    30    31	5 ;     CG2R61     CG2R61     CG2R61
   29    30    57	5 ;     CG2R61     CG2R61      HGR61
   31    30    57	5 ;     CG2R61     CG2R61      HGR61
   30    31    32	5 ;     CG2R61     CG2R61     CG2R61
   30    31    35	5 ;     CG2R61     CG2R61     CG3C51
   32    31    35	5 ;     CG2R61     CG2R61     CG3C51
   33    32    31	5 ;     CG2R61     CG2R61     CG2R61
   33    32    58	5 ;     CG2R61     CG2R61      HGR61
   31    32    58	5 ;     CG2R61     CG2R61      HGR61
   34    33    32	5 ;     CG2R61     CG2R61     CG2R61
   34    33    59	5 ;     CG2R61     CG2R61      HGR61
   32    33    59	5 ;     CG2R61     CG2R61      HGR61
   29    34    33	5 ;     CG2R61     CG2R61     CG2R61
   29    34    60	5 ;     CG2R61     CG2R61      HGR61
   33    34    60	5 ;     CG2R61     CG2R61      HGR61
   31    35    36	5 ;     CG2R61     CG3C51     CG3C52
   31    35    39	5 ;     CG2R61     CG3C51     CG3C52
   31    35    61	5 ;     CG2R61     CG3C51       HGA1
   36    35    39	5 ;     CG3C52     CG3C51     CG3C52
   36    35    61	5 ;     CG3C52     CG3C51       HGA1
   39    35    61	5 ;     CG3C52     CG3C51       HGA1
   35    36    37	5 ;     CG3C51     CG3C52     CG3C52
   35    36    62	5 ;     CG3C51     CG3C52       HGA2
   35    36    63	5 ;     CG3C51     CG3C52       HGA2
   37    36    62	5 ;     CG3C52     CG3C52       HGA2
   37    36    63	5 ;     CG3C52     CG3C52       HGA2
   62    36    63	5 ;       HGA2     CG3C52       HGA2
   36    37    38	5 ;     CG3C52     CG3C52     OG3C51
   36    37    64	5 ;     CG3C52     CG3C52       HGA2
   36    37    65	5 ;     CG3C52     CG3C52       HGA2
   38    37    64	5 ;     OG3C51     CG3C52       HGA2
   38    37    65	5 ;     OG3C51     CG3C52       HGA2
   64    37    65	5 ;       HGA2     CG3C52       HGA2
   39    38    37	5 ;     CG3C52     OG3C51     CG3C52
   35    39    38	5 ;     CG3C51     CG3C52     OG3C51
   35    39    66	5 ;     CG3C51     CG3C52       HGA2
   35    39    67	5 ;     CG3C51     CG3C52       HGA2
   38    39    66	5 ;     OG3C51     CG3C52       HGA2
   38    39    67	5 ;     OG3C51     CG3C52       HGA2
   66    39    67	5 ;       HGA2     CG3C52       HGA2

[ dihedrals ]
;	ai	  aj	ak	  al funct			  c0			c1			  c2			c3			  c4			c5
    2     1     4     5	 9 ;       HGP2      NG3P2      CG324      CG311
    2     1     4    40	 9 ;       HGP2      NG3P2      CG324       HGA2
    2     1     4    41	 9 ;       HGP2      NG3P2      CG324       HGA2
    3     1     4     5	 9 ;       HGP2      NG3P2      CG324      CG311
    3     1     4    40	 9 ;       HGP2      NG3P2      CG324       HGA2
    3     1     4    41	 9 ;       HGP2      NG3P2      CG324       HGA2
   23     1     4     5	 9 ;      CG301      NG3P2      CG324      CG311
   23     1     4    40	 9 ;      CG301      NG3P2      CG324       HGA2
   23     1     4    41	 9 ;      CG301      NG3P2      CG324       HGA2
    2     1    23    24	 9 ;       HGP2      NG3P2      CG301      CG321
    2     1    23    28	 9 ;       HGP2      NG3P2      CG301      CG321
    2     1    23    29	 9 ;       HGP2      NG3P2      CG301     CG2R61
    4     1    23    24	 9 ;      CG324      NG3P2      CG301      CG321
    4     1    23    28	 9 ;      CG324      NG3P2      CG301      CG321
    4     1    23    29	 9 ;      CG324      NG3P2      CG301     CG2R61
    3     1    23    24	 9 ;       HGP2      NG3P2      CG301      CG321
    3     1    23    28	 9 ;       HGP2      NG3P2      CG301      CG321
    3     1    23    29	 9 ;       HGP2      NG3P2      CG301     CG2R61
    1     4     5     8	 9 ;      NG3P2      CG324      CG311      CG311
    1     4     5     6	 9 ;      NG3P2      CG324      CG311      OG311
    1     4     5    42	 9 ;      NG3P2      CG324      CG311       HGA1
   40     4     5     8	 9 ;       HGA2      CG324      CG311      CG311
   40     4     5     6	 9 ;       HGA2      CG324      CG311      OG311
   40     4     5    42	 9 ;       HGA2      CG324      CG311       HGA1
   41     4     5     8	 9 ;       HGA2      CG324      CG311      CG311
   41     4     5     6	 9 ;       HGA2      CG324      CG311      OG311
   41     4     5    42	 9 ;       HGA2      CG324      CG311       HGA1
    4     5     8     9	 9 ;      CG324      CG311      CG311      NG2S1
    4     5     8    14	 9 ;      CG324      CG311      CG311      CG321
    4     5     8    43	 9 ;      CG324      CG311      CG311       HGA1
    6     5     8     9	 9 ;      OG311      CG311      CG311      NG2S1
    6     5     8    14	 9 ;      OG311      CG311      CG311      CG321
    6     5     8    43	 9 ;      OG311      CG311      CG311       HGA1
   42     5     8     9	 9 ;       HGA1      CG311      CG311      NG2S1
   42     5     8    14	 9 ;       HGA1      CG311      CG311      CG321
   42     5     8    43	 9 ;       HGA1      CG311      CG311       HGA1
    8     5     6     7	 9 ;      CG311      CG311      OG311       HGP1
    4     5     6     7	 9 ;      CG324      CG311      OG311       HGP1
   42     5     6     7	 9 ;       HGA1      CG311      OG311       HGP1
    5     8     9    10	 9 ;      CG311      CG311      NG2S1      CG2O1
    5     8     9    13	 9 ;      CG311      CG311      NG2S1       HGP1
   14     8     9    10	 9 ;      CG321      CG311      NG2S1      CG2O1
   14     8     9    13	 9 ;      CG321      CG311      NG2S1       HGP1
   43     8     9    10	 9 ;       HGA1      CG311      NG2S1      CG2O1
   43     8     9    13	 9 ;       HGA1      CG311      NG2S1       HGP1
    9     8    14    15	 9 ;      NG2S1      CG311      CG321     CG2R61
    9     8    14    44	 9 ;      NG2S1      CG311      CG321       HGA2
    9     8    14    45	 9 ;      NG2S1      CG311      CG321       HGA2
    5     8    14    15	 9 ;      CG311      CG311      CG321     CG2R61
    5     8    14    44	 9 ;      CG311      CG311      CG321       HGA2
    5     8    14    45	 9 ;      CG311      CG311      CG321       HGA2
   43     8    14    15	 9 ;       HGA1      CG311      CG321     CG2R61
   43     8    14    44	 9 ;       HGA1      CG311      CG321       HGA2
   43     8    14    45	 9 ;       HGA1      CG311      CG321       HGA2
   13     9    10    12	 9 ;       HGP1      NG2S1      CG2O1      CG331
   13     9    10    11	 9 ;       HGP1      NG2S1      CG2O1      OG2D1
    8     9    10    12	 9 ;      CG311      NG2S1      CG2O1      CG331
    8     9    10    11	 9 ;      CG311      NG2S1      CG2O1      OG2D1
   11    10    12    68	 9 ;      OG2D1      CG2O1      CG331       HGA3
   11    10    12    69	 9 ;      OG2D1      CG2O1      CG331       HGA3
   11    10    12    70	 9 ;      OG2D1      CG2O1      CG331       HGA3
    9    10    12    68	 9 ;      NG2S1      CG2O1      CG331       HGA3
    9    10    12    69	 9 ;      NG2S1      CG2O1      CG331       HGA3
    9    10    12    70	 9 ;      NG2S1      CG2O1      CG331       HGA3
    8    14    15    21	 9 ;      CG311      CG321     CG2R61     CG2R61
    8    14    15    16	 9 ;      CG311      CG321     CG2R61     CG2R61
   44    14    15    21	 9 ;       HGA2      CG321     CG2R61     CG2R61
   44    14    15    16	 9 ;       HGA2      CG321     CG2R61     CG2R61
   45    14    15    21	 9 ;       HGA2      CG321     CG2R61     CG2R61
   45    14    15    16	 9 ;       HGA2      CG321     CG2R61     CG2R61
   14    15    21    20	 9 ;      CG321     CG2R61     CG2R61     CG2R66
   14    15    21    48	 9 ;      CG321     CG2R61     CG2R61      HGR62
   16    15    21    20	 9 ;     CG2R61     CG2R61     CG2R61     CG2R66
   16    15    21    48	 9 ;     CG2R61     CG2R61     CG2R61      HGR62
   21    15    16    17	 9 ;     CG2R61     CG2R61     CG2R61     CG2R66
   21    15    16    46	 9 ;     CG2R61     CG2R61     CG2R61      HGR62
   14    15    16    17	 9 ;      CG321     CG2R61     CG2R61     CG2R66
   14    15    16    46	 9 ;      CG321     CG2R61     CG2R61      HGR62
   15    16    17    19	 9 ;     CG2R61     CG2R61     CG2R66     CG2R61
   15    16    17    18	 9 ;     CG2R61     CG2R61     CG2R66       FGR1
   46    16    17    19	 9 ;      HGR62     CG2R61     CG2R66     CG2R61
   46    16    17    18	 9 ;      HGR62     CG2R61     CG2R66       FGR1
   16    17    19    20	 9 ;     CG2R61     CG2R66     CG2R61     CG2R66
   16    17    19    47	 9 ;     CG2R61     CG2R66     CG2R61      HGR62
   18    17    19    20	 9 ;       FGR1     CG2R66     CG2R61     CG2R66
   18    17    19    47	 9 ;       FGR1     CG2R66     CG2R61      HGR62
   17    19    20    22	 9 ;     CG2R66     CG2R61     CG2R66       FGR1
   17    19    20    21	 9 ;     CG2R66     CG2R61     CG2R66     CG2R61
   47    19    20    22	 9 ;      HGR62     CG2R61     CG2R66       FGR1
   47    19    20    21	 9 ;      HGR62     CG2R61     CG2R66     CG2R61
   22    20    21    15	 9 ;       FGR1     CG2R66     CG2R61     CG2R61
   22    20    21    48	 9 ;       FGR1     CG2R66     CG2R61      HGR62
   19    20    21    15	 9 ;     CG2R61     CG2R66     CG2R61     CG2R61
   19    20    21    48	 9 ;     CG2R61     CG2R66     CG2R61      HGR62
    1    23    24    25	 9 ;      NG3P2      CG301      CG321      CG321
    1    23    24    49	 9 ;      NG3P2      CG301      CG321       HGA2
    1    23    24    50	 9 ;      NG3P2      CG301      CG321       HGA2
   28    23    24    25	 9 ;      CG321      CG301      CG321      CG321
   28    23    24    49	 9 ;      CG321      CG301      CG321       HGA2
   28    23    24    50	 9 ;      CG321      CG301      CG321       HGA2
   29    23    24    25	 9 ;     CG2R61      CG301      CG321      CG321
   29    23    24    49	 9 ;     CG2R61      CG301      CG321       HGA2
   29    23    24    50	 9 ;     CG2R61      CG301      CG321       HGA2
   24    23    28    27	 9 ;      CG321      CG301      CG321      CG321
   24    23    28    55	 9 ;      CG321      CG301      CG321       HGA2
   24    23    28    56	 9 ;      CG321      CG301      CG321       HGA2
    1    23    28    27	 9 ;      NG3P2      CG301      CG321      CG321
    1    23    28    55	 9 ;      NG3P2      CG301      CG321       HGA2
    1    23    28    56	 9 ;      NG3P2      CG301      CG321       HGA2
   29    23    28    27	 9 ;     CG2R61      CG301      CG321      CG321
   29    23    28    55	 9 ;     CG2R61      CG301      CG321       HGA2
   29    23    28    56	 9 ;     CG2R61      CG301      CG321       HGA2
   24    23    29    34	 9 ;      CG321      CG301     CG2R61     CG2R61
   24    23    29    30	 9 ;      CG321      CG301     CG2R61     CG2R61
    1    23    29    34	 9 ;      NG3P2      CG301     CG2R61     CG2R61
    1    23    29    30	 9 ;      NG3P2      CG301     CG2R61     CG2R61
   28    23    29    34	 9 ;      CG321      CG301     CG2R61     CG2R61
   28    23    29    30	 9 ;      CG321      CG301     CG2R61     CG2R61
   23    24    25    26	 9 ;      CG301      CG321      CG321     OG3C61
   23    24    25    51	 9 ;      CG301      CG321      CG321       HGA2
   23    24    25    52	 9 ;      CG301      CG321      CG321       HGA2
   49    24    25    26	 9 ;       HGA2      CG321      CG321     OG3C61
   49    24    25    51	 9 ;       HGA2      CG321      CG321       HGA2
   49    24    25    52	 9 ;       HGA2      CG321      CG321       HGA2
   50    24    25    26	 9 ;       HGA2      CG321      CG321     OG3C61
   50    24    25    51	 9 ;       HGA2      CG321      CG321       HGA2
   50    24    25    52	 9 ;       HGA2      CG321      CG321       HGA2
   24    25    26    27	 9 ;      CG321      CG321     OG3C61      CG321
   51    25    26    27	 9 ;       HGA2      CG321     OG3C61      CG321
   52    25    26    27	 9 ;       HGA2      CG321     OG3C61      CG321
   25    26    27    28	 9 ;      CG321     OG3C61      CG321      CG321
   25    26    27    53	 9 ;      CG321     OG3C61      CG321       HGA2
   25    26    27    54	 9 ;      CG321     OG3C61      CG321       HGA2
   26    27    28    23	 9 ;     OG3C61      CG321      CG321      CG301
   26    27    28    55	 9 ;     OG3C61      CG321      CG321       HGA2
   26    27    28    56	 9 ;     OG3C61      CG321      CG321       HGA2
   53    27    28    23	 9 ;       HGA2      CG321      CG321      CG301
   53    27    28    55	 9 ;       HGA2      CG321      CG321       HGA2
   53    27    28    56	 9 ;       HGA2      CG321      CG321       HGA2
   54    27    28    23	 9 ;       HGA2      CG321      CG321      CG301
   54    27    28    55	 9 ;       HGA2      CG321      CG321       HGA2
   54    27    28    56	 9 ;       HGA2      CG321      CG321       HGA2
   23    29    34    33	 9 ;      CG301     CG2R61     CG2R61     CG2R61
   23    29    34    60	 9 ;      CG301     CG2R61     CG2R61      HGR61
   30    29    34    33	 9 ;     CG2R61     CG2R61     CG2R61     CG2R61
   30    29    34    60	 9 ;     CG2R61     CG2R61     CG2R61      HGR61
   23    29    30    31	 9 ;      CG301     CG2R61     CG2R61     CG2R61
   23    29    30    57	 9 ;      CG301     CG2R61     CG2R61      HGR61
   34    29    30    31	 9 ;     CG2R61     CG2R61     CG2R61     CG2R61
   34    29    30    57	 9 ;     CG2R61     CG2R61     CG2R61      HGR61
   29    30    31    32	 9 ;     CG2R61     CG2R61     CG2R61     CG2R61
   29    30    31    35	 9 ;     CG2R61     CG2R61     CG2R61     CG3C51
   57    30    31    32	 9 ;      HGR61     CG2R61     CG2R61     CG2R61
   57    30    31    35	 9 ;      HGR61     CG2R61     CG2R61     CG3C51
   30    31    32    33	 9 ;     CG2R61     CG2R61     CG2R61     CG2R61
   30    31    32    58	 9 ;     CG2R61     CG2R61     CG2R61      HGR61
   35    31    32    33	 9 ;     CG3C51     CG2R61     CG2R61     CG2R61
   35    31    32    58	 9 ;     CG3C51     CG2R61     CG2R61      HGR61
   30    31    35    36	 9 ;     CG2R61     CG2R61     CG3C51     CG3C52
   30    31    35    39	 9 ;     CG2R61     CG2R61     CG3C51     CG3C52
   30    31    35    61	 9 ;     CG2R61     CG2R61     CG3C51       HGA1
   32    31    35    36	 9 ;     CG2R61     CG2R61     CG3C51     CG3C52
   32    31    35    39	 9 ;     CG2R61     CG2R61     CG3C51     CG3C52
   32    31    35    61	 9 ;     CG2R61     CG2R61     CG3C51       HGA1
   31    32    33    34	 9 ;     CG2R61     CG2R61     CG2R61     CG2R61
   31    32    33    59	 9 ;     CG2R61     CG2R61     CG2R61      HGR61
   58    32    33    34	 9 ;      HGR61     CG2R61     CG2R61     CG2R61
   58    32    33    59	 9 ;      HGR61     CG2R61     CG2R61      HGR61
   32    33    34    29	 9 ;     CG2R61     CG2R61     CG2R61     CG2R61
   32    33    34    60	 9 ;     CG2R61     CG2R61     CG2R61      HGR61
   59    33    34    29	 9 ;      HGR61     CG2R61     CG2R61     CG2R61
   59    33    34    60	 9 ;      HGR61     CG2R61     CG2R61      HGR61
   31    35    36    37	 9 ;     CG2R61     CG3C51     CG3C52     CG3C52
   31    35    36    62	 9 ;     CG2R61     CG3C51     CG3C52       HGA2
   31    35    36    63	 9 ;     CG2R61     CG3C51     CG3C52       HGA2
   39    35    36    37	 9 ;     CG3C52     CG3C51     CG3C52     CG3C52
   39    35    36    62	 9 ;     CG3C52     CG3C51     CG3C52       HGA2
   39    35    36    63	 9 ;     CG3C52     CG3C51     CG3C52       HGA2
   61    35    36    37	 9 ;       HGA1     CG3C51     CG3C52     CG3C52
   61    35    36    62	 9 ;       HGA1     CG3C51     CG3C52       HGA2
   61    35    36    63	 9 ;       HGA1     CG3C51     CG3C52       HGA2
   31    35    39    38	 9 ;     CG2R61     CG3C51     CG3C52     OG3C51
   31    35    39    66	 9 ;     CG2R61     CG3C51     CG3C52       HGA2
   31    35    39    67	 9 ;     CG2R61     CG3C51     CG3C52       HGA2
   36    35    39    38	 9 ;     CG3C52     CG3C51     CG3C52     OG3C51
   36    35    39    66	 9 ;     CG3C52     CG3C51     CG3C52       HGA2
   36    35    39    67	 9 ;     CG3C52     CG3C51     CG3C52       HGA2
   61    35    39    38	 9 ;       HGA1     CG3C51     CG3C52     OG3C51
   61    35    39    66	 9 ;       HGA1     CG3C51     CG3C52       HGA2
   61    35    39    67	 9 ;       HGA1     CG3C51     CG3C52       HGA2
   35    36    37    38	 9 ;     CG3C51     CG3C52     CG3C52     OG3C51
   35    36    37    64	 9 ;     CG3C51     CG3C52     CG3C52       HGA2
   35    36    37    65	 9 ;     CG3C51     CG3C52     CG3C52       HGA2
   62    36    37    38	 9 ;       HGA2     CG3C52     CG3C52     OG3C51
   62    36    37    64	 9 ;       HGA2     CG3C52     CG3C52       HGA2
   62    36    37    65	 9 ;       HGA2     CG3C52     CG3C52       HGA2
   63    36    37    38	 9 ;       HGA2     CG3C52     CG3C52     OG3C51
   63    36    37    64	 9 ;       HGA2     CG3C52     CG3C52       HGA2
   63    36    37    65	 9 ;       HGA2     CG3C52     CG3C52       HGA2
   36    37    38    39	 9 ;     CG3C52     CG3C52     OG3C51     CG3C52
   64    37    38    39	 9 ;       HGA2     CG3C52     OG3C51     CG3C52
   65    37    38    39	 9 ;       HGA2     CG3C52     OG3C51     CG3C52
   37    38    39    35	 9 ;     CG3C52     OG3C51     CG3C52     CG3C51
   37    38    39    66	 9 ;     CG3C52     OG3C51     CG3C52       HGA2
   37    38    39    67	 9 ;     CG3C52     OG3C51     CG3C52       HGA2

[ dihedrals ]
;	ai	  aj	ak	  al funct			  c0			c1			  c2			c3
   10    12     9    11	 2

