; Created by cgenff_charmm2gmx.py

[ moleculetype ]
; Name			   nrexcl
LIG				 3

[ atoms ]
;	 nr		  type	resnr residue  atom   cgnr	   charge		mass  typeB    chargeB		massB
; residue	 1 LIG rtp LIG q	qsum
     1      SG3O2      1    LIG      S      1      0.113     32.060   ;
     2      OG2P1      1    LIG     O1      2     -0.300     15.999   ;
     3      OG2P1      1    LIG     O2      3     -0.300     15.999   ;
     4      CG321      1    LIG     C1      4      0.180     12.011   ;
     5      CG311      1    LIG     C2      5     -0.145     12.011   ;
     6      CG311      1    LIG     C3      6      0.100     12.011   ;
     7      CG314      1    LIG     C4      7     -0.043     12.011   ;
     8      CG321      1    LIG     C5      8      0.224     12.011   ;
     9      CG321      1    LIG     C6      9     -0.087     12.011   ;
    10     CG2R61      1    LIG     C7     10     -0.031     12.011   ;
    11     CG2R61      1    LIG     C8     11     -0.128     12.011   ;
    12     CG2R61      1    LIG     C9     12      0.030     12.011   ;
    13     CG2R61      1    LIG    C10     13      0.094     12.011   ;
    14     CG2R61      1    LIG    C11     14     -0.109     12.011   ;
    15     CG2R61      1    LIG    C12     15     -0.121     12.011   ;
    16      CG321      1    LIG    C13     16     -0.186     12.011   ;
    17      CG321      1    LIG    C14     17     -0.183     12.011   ;
    18      CG321      1    LIG    C15     18     -0.179     12.011   ;
    19      CG331      1    LIG    C16     19     -0.270     12.011   ;
    20      OG311      1    LIG     O3     20     -0.537     15.999   ;
    21       HGP1      1    LIG     H1     21      0.421      1.008   ;
    22      OG311      1    LIG     O4     22     -0.595     15.999   ;
    23       HGP1      1    LIG     H2     23      0.422      1.008   ;
    24      NG3P2      1    LIG      N     24     -0.444     14.007   ;
    25       HGP2      1    LIG     H3     25      0.346      1.008   ;
    26       HGP2      1    LIG     H4     26      0.346      1.008   ;
    27      CG324      1    LIG    C17     27      0.178     12.011   ;
    28     CG2R61      1    LIG    C18     28      0.035     12.011   ;
    29     CG2R61      1    LIG    C19     29     -0.117     12.011   ;
    30     CG2R61      1    LIG    C20     30     -0.017     12.011   ;
    31     CG2R61      1    LIG    C21     31     -0.114     12.011   ;
    32     CG2R61      1    LIG    C22     32     -0.109     12.011   ;
    33     CG2R61      1    LIG    C23     33     -0.119     12.011   ;
    34      CG311      1    LIG    C24     34     -0.088     12.011   ;
    35      CG331      1    LIG    C25     35     -0.264     12.011   ;
    36      CG331      1    LIG    C26     36     -0.264     12.011   ;
    37       HGA2      1    LIG    HC2     37      0.090      1.008   ;
    38       HGA2      1    LIG    HC3     38      0.090      1.008   ;
    39       HGA1      1    LIG     HC     39      0.090      1.008   ;
    40       HGA1      1    LIG    HC1     40      0.090      1.008   ;
    41       HGA1      1    LIG    HC4     41      0.109      1.008   ;
    42       HGA2      1    LIG    HC5     42      0.090      1.008   ;
    43       HGA2      1    LIG    HC6     43      0.090      1.008   ;
    44       HGA2      1    LIG    HC7     44      0.090      1.008   ;
    45       HGA2      1    LIG    HC8     45      0.090      1.008   ;
    46      HGR61      1    LIG    HC9     46      0.116      1.008   ;
    47      HGR61      1    LIG   HC10     47      0.116      1.008   ;
    48      HGR61      1    LIG   HC11     48      0.116      1.008   ;
    49       HGA2      1    LIG   HC12     49      0.090      1.008   ;
    50       HGA2      1    LIG   HC13     50      0.090      1.008   ;
    51       HGA2      1    LIG   HC14     51      0.090      1.008   ;
    52       HGA2      1    LIG   HC15     52      0.090      1.008   ;
    53       HGA2      1    LIG   HC16     53      0.090      1.008   ;
    54       HGA2      1    LIG   HC17     54      0.090      1.008   ;
    55       HGA2      1    LIG   HC18     55      0.090      1.008   ;
    56       HGA2      1    LIG   HC19     56      0.090      1.008   ;
    57      HGR61      1    LIG   HC20     57      0.116      1.008   ;
    58      HGR61      1    LIG   HC21     58      0.116      1.008   ;
    59      HGR61      1    LIG   HC22     59      0.116      1.008   ;
    60      HGR61      1    LIG   HC23     60      0.116      1.008   ;
    61       HGA1      1    LIG   HC24     61      0.090      1.008   ;
    62       HGA3      1    LIG   HC25     62      0.090      1.008   ;
    63       HGA3      1    LIG   HC26     63      0.090      1.008   ;
    64       HGA3      1    LIG   HC27     64      0.090      1.008   ;
    65       HGA3      1    LIG   HC28     65      0.090      1.008   ;
    66       HGA3      1    LIG   HC29     66      0.090      1.008   ;
    67       HGA3      1    LIG   HC30     67      0.090      1.008   ;
    68       HGA3      1    LIG   HC31     68      0.090      1.008   ;
    69       HGA3      1    LIG   HC32     69      0.090      1.008   ;
    70       HGA3      1    LIG   HC33     70      0.090      1.008   ;

[ bonds ]
;	ai	  aj funct			  c0			c1			  c2			c3
    1     3	 1 ;       SG3O2      OG2P1
    1     8	 1 ;       SG3O2      CG321
    1     4	 1 ;       SG3O2      CG321
    1     2	 1 ;       SG3O2      OG2P1
    4     5	 1 ;       CG321      CG311
    4    37	 1 ;       CG321       HGA2
    4    38	 1 ;       CG321       HGA2
    5     6	 1 ;       CG311      CG311
    5     9	 1 ;       CG311      CG321
    5    39	 1 ;       CG311       HGA1
    6     7	 1 ;       CG311      CG314
    6    22	 1 ;       CG311      OG311
    6    40	 1 ;       CG311       HGA1
    7     8	 1 ;       CG314      CG321
    7    24	 1 ;       CG314      NG3P2
    7    41	 1 ;       CG314       HGA1
    8    42	 1 ;       CG321       HGA2
    8    43	 1 ;       CG321       HGA2
    9    10	 1 ;       CG321     CG2R61
    9    44	 1 ;       CG321       HGA2
    9    45	 1 ;       CG321       HGA2
   10    15	 1 ;      CG2R61     CG2R61
   10    11	 1 ;      CG2R61     CG2R61
   11    12	 1 ;      CG2R61     CG2R61
   11    46	 1 ;      CG2R61      HGR61
   12    13	 1 ;      CG2R61     CG2R61
   12    16	 1 ;      CG2R61      CG321
   13    14	 1 ;      CG2R61     CG2R61
   13    20	 1 ;      CG2R61      OG311
   14    15	 1 ;      CG2R61     CG2R61
   14    47	 1 ;      CG2R61      HGR61
   15    48	 1 ;      CG2R61      HGR61
   16    17	 1 ;       CG321      CG321
   16    49	 1 ;       CG321       HGA2
   16    50	 1 ;       CG321       HGA2
   17    18	 1 ;       CG321      CG321
   17    51	 1 ;       CG321       HGA2
   17    52	 1 ;       CG321       HGA2
   18    19	 1 ;       CG321      CG331
   18    53	 1 ;       CG321       HGA2
   18    54	 1 ;       CG321       HGA2
   19    65	 1 ;       CG331       HGA3
   19    66	 1 ;       CG331       HGA3
   19    67	 1 ;       CG331       HGA3
   20    21	 1 ;       OG311       HGP1
   22    23	 1 ;       OG311       HGP1
   24    27	 1 ;       NG3P2      CG324
   24    26	 1 ;       NG3P2       HGP2
   24    25	 1 ;       NG3P2       HGP2
   27    28	 1 ;       CG324     CG2R61
   27    55	 1 ;       CG324       HGA2
   27    56	 1 ;       CG324       HGA2
   28    29	 1 ;      CG2R61     CG2R61
   28    33	 1 ;      CG2R61     CG2R61
   29    30	 1 ;      CG2R61     CG2R61
   29    57	 1 ;      CG2R61      HGR61
   30    34	 1 ;      CG2R61      CG311
   30    31	 1 ;      CG2R61     CG2R61
   31    32	 1 ;      CG2R61     CG2R61
   31    58	 1 ;      CG2R61      HGR61
   32    33	 1 ;      CG2R61     CG2R61
   32    59	 1 ;      CG2R61      HGR61
   33    60	 1 ;      CG2R61      HGR61
   34    36	 1 ;       CG311      CG331
   34    35	 1 ;       CG311      CG331
   34    61	 1 ;       CG311       HGA1
   35    62	 1 ;       CG331       HGA3
   35    63	 1 ;       CG331       HGA3
   35    64	 1 ;       CG331       HGA3
   36    68	 1 ;       CG331       HGA3
   36    69	 1 ;       CG331       HGA3
   36    70	 1 ;       CG331       HGA3

[ pairs ]
;	ai	  aj funct			  c0			c1			  c2			c3
    1     6	 1
    1     9	 1
    1    39	 1
    1    24	 1
    1    41	 1
    2     7	 1
    2    42	 1
    2    43	 1
    2     5	 1
    2    37	 1
    2    38	 1
    3     7	 1
    3    42	 1
    3    43	 1
    3     5	 1
    3    37	 1
    3    38	 1
    4     7	 1
    4    42	 1
    4    43	 1
    4    22	 1
    4    40	 1
    4    10	 1
    4    44	 1
    4    45	 1
    5     8	 1
    5    24	 1
    5    41	 1
    5    23	 1
    5    15	 1
    5    11	 1
    6    37	 1
    6    38	 1
    6    10	 1
    6    44	 1
    6    45	 1
    6    42	 1
    6    43	 1
    6    27	 1
    6    26	 1
    6    25	 1
    7     9	 1
    7    39	 1
    7    23	 1
    7    28	 1
    7    55	 1
    7    56	 1
    8    37	 1
    8    38	 1
    8    22	 1
    8    40	 1
    8    27	 1
    8    26	 1
    8    25	 1
    9    37	 1
    9    38	 1
    9    22	 1
    9    40	 1
    9    14	 1
    9    48	 1
    9    12	 1
    9    46	 1
   10    39	 1
   10    13	 1
   10    16	 1
   10    47	 1
   11    44	 1
   11    45	 1
   11    14	 1
   11    48	 1
   11    20	 1
   11    17	 1
   11    49	 1
   11    50	 1
   12    15	 1
   12    47	 1
   12    21	 1
   12    18	 1
   12    51	 1
   12    52	 1
   13    46	 1
   13    17	 1
   13    49	 1
   13    50	 1
   13    48	 1
   14    16	 1
   14    21	 1
   15    44	 1
   15    45	 1
   15    46	 1
   15    20	 1
   16    46	 1
   16    20	 1
   16    19	 1
   16    53	 1
   16    54	 1
   17    65	 1
   17    66	 1
   17    67	 1
   18    49	 1
   18    50	 1
   19    51	 1
   19    52	 1
   20    47	 1
   22    39	 1
   22    24	 1
   22    41	 1
   23    40	 1
   24    40	 1
   24    42	 1
   24    43	 1
   24    29	 1
   24    33	 1
   25    41	 1
   25    28	 1
   25    55	 1
   25    56	 1
   26    41	 1
   26    28	 1
   26    55	 1
   26    56	 1
   27    41	 1
   27    30	 1
   27    57	 1
   27    32	 1
   27    60	 1
   28    34	 1
   28    31	 1
   28    59	 1
   29    55	 1
   29    56	 1
   29    32	 1
   29    60	 1
   29    36	 1
   29    35	 1
   29    61	 1
   29    58	 1
   30    33	 1
   30    59	 1
   30    68	 1
   30    69	 1
   30    70	 1
   30    62	 1
   30    63	 1
   30    64	 1
   31    57	 1
   31    36	 1
   31    35	 1
   31    61	 1
   31    60	 1
   32    34	 1
   33    55	 1
   33    56	 1
   33    57	 1
   33    58	 1
   34    57	 1
   34    58	 1
   35    68	 1
   35    69	 1
   35    70	 1
   36    62	 1
   36    63	 1
   36    64	 1
   37    39	 1
   38    39	 1
   39    40	 1
   39    44	 1
   39    45	 1
   40    41	 1
   41    42	 1
   41    43	 1
   47    48	 1
   49    51	 1
   49    52	 1
   50    51	 1
   50    52	 1
   51    53	 1
   51    54	 1
   52    53	 1
   52    54	 1
   53    65	 1
   53    66	 1
   53    67	 1
   54    65	 1
   54    66	 1
   54    67	 1
   58    59	 1
   59    60	 1
   61    68	 1
   61    69	 1
   61    70	 1
   61    62	 1
   61    63	 1
   61    64	 1

[ angles ]
;	ai	  aj	ak funct			c0			  c1			c2			  c3
    3     1     8	5 ;      OG2P1      SG3O2      CG321
    3     1     4	5 ;      OG2P1      SG3O2      CG321
    3     1     2	5 ;      OG2P1      SG3O2      OG2P1
    8     1     4	5 ;      CG321      SG3O2      CG321
    8     1     2	5 ;      CG321      SG3O2      OG2P1
    4     1     2	5 ;      CG321      SG3O2      OG2P1
    1     4     5	5 ;      SG3O2      CG321      CG311
    1     4    37	5 ;      SG3O2      CG321       HGA2
    1     4    38	5 ;      SG3O2      CG321       HGA2
    5     4    37	5 ;      CG311      CG321       HGA2
    5     4    38	5 ;      CG311      CG321       HGA2
   37     4    38	5 ;       HGA2      CG321       HGA2
    4     5     6	5 ;      CG321      CG311      CG311
    4     5     9	5 ;      CG321      CG311      CG321
    4     5    39	5 ;      CG321      CG311       HGA1
    6     5     9	5 ;      CG311      CG311      CG321
    6     5    39	5 ;      CG311      CG311       HGA1
    9     5    39	5 ;      CG321      CG311       HGA1
    7     6     5	5 ;      CG314      CG311      CG311
    7     6    22	5 ;      CG314      CG311      OG311
    7     6    40	5 ;      CG314      CG311       HGA1
    5     6    22	5 ;      CG311      CG311      OG311
    5     6    40	5 ;      CG311      CG311       HGA1
   22     6    40	5 ;      OG311      CG311       HGA1
    8     7     6	5 ;      CG321      CG314      CG311
    8     7    24	5 ;      CG321      CG314      NG3P2
    8     7    41	5 ;      CG321      CG314       HGA1
    6     7    24	5 ;      CG311      CG314      NG3P2
    6     7    41	5 ;      CG311      CG314       HGA1
   24     7    41	5 ;      NG3P2      CG314       HGA1
    1     8     7	5 ;      SG3O2      CG321      CG314
    1     8    42	5 ;      SG3O2      CG321       HGA2
    1     8    43	5 ;      SG3O2      CG321       HGA2
    7     8    42	5 ;      CG314      CG321       HGA2
    7     8    43	5 ;      CG314      CG321       HGA2
   42     8    43	5 ;       HGA2      CG321       HGA2
    5     9    10	5 ;      CG311      CG321     CG2R61
    5     9    44	5 ;      CG311      CG321       HGA2
    5     9    45	5 ;      CG311      CG321       HGA2
   10     9    44	5 ;     CG2R61      CG321       HGA2
   10     9    45	5 ;     CG2R61      CG321       HGA2
   44     9    45	5 ;       HGA2      CG321       HGA2
    9    10    15	5 ;      CG321     CG2R61     CG2R61
    9    10    11	5 ;      CG321     CG2R61     CG2R61
   15    10    11	5 ;     CG2R61     CG2R61     CG2R61
   10    11    12	5 ;     CG2R61     CG2R61     CG2R61
   10    11    46	5 ;     CG2R61     CG2R61      HGR61
   12    11    46	5 ;     CG2R61     CG2R61      HGR61
   11    12    13	5 ;     CG2R61     CG2R61     CG2R61
   11    12    16	5 ;     CG2R61     CG2R61      CG321
   13    12    16	5 ;     CG2R61     CG2R61      CG321
   14    13    12	5 ;     CG2R61     CG2R61     CG2R61
   14    13    20	5 ;     CG2R61     CG2R61      OG311
   12    13    20	5 ;     CG2R61     CG2R61      OG311
   15    14    13	5 ;     CG2R61     CG2R61     CG2R61
   15    14    47	5 ;     CG2R61     CG2R61      HGR61
   13    14    47	5 ;     CG2R61     CG2R61      HGR61
   10    15    14	5 ;     CG2R61     CG2R61     CG2R61
   10    15    48	5 ;     CG2R61     CG2R61      HGR61
   14    15    48	5 ;     CG2R61     CG2R61      HGR61
   12    16    17	5 ;     CG2R61      CG321      CG321
   12    16    49	5 ;     CG2R61      CG321       HGA2
   12    16    50	5 ;     CG2R61      CG321       HGA2
   17    16    49	5 ;      CG321      CG321       HGA2
   17    16    50	5 ;      CG321      CG321       HGA2
   49    16    50	5 ;       HGA2      CG321       HGA2
   18    17    16	5 ;      CG321      CG321      CG321
   18    17    51	5 ;      CG321      CG321       HGA2
   18    17    52	5 ;      CG321      CG321       HGA2
   16    17    51	5 ;      CG321      CG321       HGA2
   16    17    52	5 ;      CG321      CG321       HGA2
   51    17    52	5 ;       HGA2      CG321       HGA2
   19    18    17	5 ;      CG331      CG321      CG321
   19    18    53	5 ;      CG331      CG321       HGA2
   19    18    54	5 ;      CG331      CG321       HGA2
   17    18    53	5 ;      CG321      CG321       HGA2
   17    18    54	5 ;      CG321      CG321       HGA2
   53    18    54	5 ;       HGA2      CG321       HGA2
   18    19    65	5 ;      CG321      CG331       HGA3
   18    19    66	5 ;      CG321      CG331       HGA3
   18    19    67	5 ;      CG321      CG331       HGA3
   65    19    66	5 ;       HGA3      CG331       HGA3
   65    19    67	5 ;       HGA3      CG331       HGA3
   66    19    67	5 ;       HGA3      CG331       HGA3
   13    20    21	5 ;     CG2R61      OG311       HGP1
    6    22    23	5 ;      CG311      OG311       HGP1
    7    24    27	5 ;      CG314      NG3P2      CG324
    7    24    26	5 ;      CG314      NG3P2       HGP2
    7    24    25	5 ;      CG314      NG3P2       HGP2
   27    24    26	5 ;      CG324      NG3P2       HGP2
   27    24    25	5 ;      CG324      NG3P2       HGP2
   26    24    25	5 ;       HGP2      NG3P2       HGP2
   24    27    28	5 ;      NG3P2      CG324     CG2R61
   24    27    55	5 ;      NG3P2      CG324       HGA2
   24    27    56	5 ;      NG3P2      CG324       HGA2
   28    27    55	5 ;     CG2R61      CG324       HGA2
   28    27    56	5 ;     CG2R61      CG324       HGA2
   55    27    56	5 ;       HGA2      CG324       HGA2
   27    28    29	5 ;      CG324     CG2R61     CG2R61
   27    28    33	5 ;      CG324     CG2R61     CG2R61
   29    28    33	5 ;     CG2R61     CG2R61     CG2R61
   28    29    30	5 ;     CG2R61     CG2R61     CG2R61
   28    29    57	5 ;     CG2R61     CG2R61      HGR61
   30    29    57	5 ;     CG2R61     CG2R61      HGR61
   29    30    34	5 ;     CG2R61     CG2R61      CG311
   29    30    31	5 ;     CG2R61     CG2R61     CG2R61
   34    30    31	5 ;      CG311     CG2R61     CG2R61
   30    31    32	5 ;     CG2R61     CG2R61     CG2R61
   30    31    58	5 ;     CG2R61     CG2R61      HGR61
   32    31    58	5 ;     CG2R61     CG2R61      HGR61
   33    32    31	5 ;     CG2R61     CG2R61     CG2R61
   33    32    59	5 ;     CG2R61     CG2R61      HGR61
   31    32    59	5 ;     CG2R61     CG2R61      HGR61
   28    33    32	5 ;     CG2R61     CG2R61     CG2R61
   28    33    60	5 ;     CG2R61     CG2R61      HGR61
   32    33    60	5 ;     CG2R61     CG2R61      HGR61
   36    34    30	5 ;      CG331      CG311     CG2R61
   36    34    35	5 ;      CG331      CG311      CG331
   36    34    61	5 ;      CG331      CG311       HGA1
   30    34    35	5 ;     CG2R61      CG311      CG331
   30    34    61	5 ;     CG2R61      CG311       HGA1
   35    34    61	5 ;      CG331      CG311       HGA1
   34    35    62	5 ;      CG311      CG331       HGA3
   34    35    63	5 ;      CG311      CG331       HGA3
   34    35    64	5 ;      CG311      CG331       HGA3
   62    35    63	5 ;       HGA3      CG331       HGA3
   62    35    64	5 ;       HGA3      CG331       HGA3
   63    35    64	5 ;       HGA3      CG331       HGA3
   34    36    68	5 ;      CG311      CG331       HGA3
   34    36    69	5 ;      CG311      CG331       HGA3
   34    36    70	5 ;      CG311      CG331       HGA3
   68    36    69	5 ;       HGA3      CG331       HGA3
   68    36    70	5 ;       HGA3      CG331       HGA3
   69    36    70	5 ;       HGA3      CG331       HGA3

[ dihedrals ]
;	ai	  aj	ak	  al funct			  c0			c1			  c2			c3			  c4			c5
    3     1     8     7	 9 ;      OG2P1      SG3O2      CG321      CG314
    3     1     8    42	 9 ;      OG2P1      SG3O2      CG321       HGA2
    3     1     8    43	 9 ;      OG2P1      SG3O2      CG321       HGA2
    4     1     8     7	 9 ;      CG321      SG3O2      CG321      CG314
    4     1     8    42	 9 ;      CG321      SG3O2      CG321       HGA2
    4     1     8    43	 9 ;      CG321      SG3O2      CG321       HGA2
    2     1     8     7	 9 ;      OG2P1      SG3O2      CG321      CG314
    2     1     8    42	 9 ;      OG2P1      SG3O2      CG321       HGA2
    2     1     8    43	 9 ;      OG2P1      SG3O2      CG321       HGA2
    3     1     4     5	 9 ;      OG2P1      SG3O2      CG321      CG311
    3     1     4    37	 9 ;      OG2P1      SG3O2      CG321       HGA2
    3     1     4    38	 9 ;      OG2P1      SG3O2      CG321       HGA2
    8     1     4     5	 9 ;      CG321      SG3O2      CG321      CG311
    8     1     4    37	 9 ;      CG321      SG3O2      CG321       HGA2
    8     1     4    38	 9 ;      CG321      SG3O2      CG321       HGA2
    2     1     4     5	 9 ;      OG2P1      SG3O2      CG321      CG311
    2     1     4    37	 9 ;      OG2P1      SG3O2      CG321       HGA2
    2     1     4    38	 9 ;      OG2P1      SG3O2      CG321       HGA2
    1     4     5     6	 9 ;      SG3O2      CG321      CG311      CG311
    1     4     5     9	 9 ;      SG3O2      CG321      CG311      CG321
    1     4     5    39	 9 ;      SG3O2      CG321      CG311       HGA1
   37     4     5     6	 9 ;       HGA2      CG321      CG311      CG311
   37     4     5     9	 9 ;       HGA2      CG321      CG311      CG321
   37     4     5    39	 9 ;       HGA2      CG321      CG311       HGA1
   38     4     5     6	 9 ;       HGA2      CG321      CG311      CG311
   38     4     5     9	 9 ;       HGA2      CG321      CG311      CG321
   38     4     5    39	 9 ;       HGA2      CG321      CG311       HGA1
    4     5     6     7	 9 ;      CG321      CG311      CG311      CG314
    4     5     6    22	 9 ;      CG321      CG311      CG311      OG311
    4     5     6    40	 9 ;      CG321      CG311      CG311       HGA1
    9     5     6     7	 9 ;      CG321      CG311      CG311      CG314
    9     5     6    22	 9 ;      CG321      CG311      CG311      OG311
    9     5     6    40	 9 ;      CG321      CG311      CG311       HGA1
   39     5     6     7	 9 ;       HGA1      CG311      CG311      CG314
   39     5     6    22	 9 ;       HGA1      CG311      CG311      OG311
   39     5     6    40	 9 ;       HGA1      CG311      CG311       HGA1
    4     5     9    10	 9 ;      CG321      CG311      CG321     CG2R61
    4     5     9    44	 9 ;      CG321      CG311      CG321       HGA2
    4     5     9    45	 9 ;      CG321      CG311      CG321       HGA2
    6     5     9    10	 9 ;      CG311      CG311      CG321     CG2R61
    6     5     9    44	 9 ;      CG311      CG311      CG321       HGA2
    6     5     9    45	 9 ;      CG311      CG311      CG321       HGA2
   39     5     9    10	 9 ;       HGA1      CG311      CG321     CG2R61
   39     5     9    44	 9 ;       HGA1      CG311      CG321       HGA2
   39     5     9    45	 9 ;       HGA1      CG311      CG321       HGA2
    5     6     7     8	 9 ;      CG311      CG311      CG314      CG321
    5     6     7    24	 9 ;      CG311      CG311      CG314      NG3P2
    5     6     7    41	 9 ;      CG311      CG311      CG314       HGA1
   22     6     7     8	 9 ;      OG311      CG311      CG314      CG321
   22     6     7    24	 9 ;      OG311      CG311      CG314      NG3P2
   22     6     7    41	 9 ;      OG311      CG311      CG314       HGA1
   40     6     7     8	 9 ;       HGA1      CG311      CG314      CG321
   40     6     7    24	 9 ;       HGA1      CG311      CG314      NG3P2
   40     6     7    41	 9 ;       HGA1      CG311      CG314       HGA1
    7     6    22    23	 9 ;      CG314      CG311      OG311       HGP1
    5     6    22    23	 9 ;      CG311      CG311      OG311       HGP1
   40     6    22    23	 9 ;       HGA1      CG311      OG311       HGP1
    6     7     8     1	 9 ;      CG311      CG314      CG321      SG3O2
    6     7     8    42	 9 ;      CG311      CG314      CG321       HGA2
    6     7     8    43	 9 ;      CG311      CG314      CG321       HGA2
   24     7     8     1	 9 ;      NG3P2      CG314      CG321      SG3O2
   24     7     8    42	 9 ;      NG3P2      CG314      CG321       HGA2
   24     7     8    43	 9 ;      NG3P2      CG314      CG321       HGA2
   41     7     8     1	 9 ;       HGA1      CG314      CG321      SG3O2
   41     7     8    42	 9 ;       HGA1      CG314      CG321       HGA2
   41     7     8    43	 9 ;       HGA1      CG314      CG321       HGA2
    8     7    24    27	 9 ;      CG321      CG314      NG3P2      CG324
    8     7    24    26	 9 ;      CG321      CG314      NG3P2       HGP2
    8     7    24    25	 9 ;      CG321      CG314      NG3P2       HGP2
    6     7    24    27	 9 ;      CG311      CG314      NG3P2      CG324
    6     7    24    26	 9 ;      CG311      CG314      NG3P2       HGP2
    6     7    24    25	 9 ;      CG311      CG314      NG3P2       HGP2
   41     7    24    27	 9 ;       HGA1      CG314      NG3P2      CG324
   41     7    24    26	 9 ;       HGA1      CG314      NG3P2       HGP2
   41     7    24    25	 9 ;       HGA1      CG314      NG3P2       HGP2
    5     9    10    15	 9 ;      CG311      CG321     CG2R61     CG2R61
    5     9    10    11	 9 ;      CG311      CG321     CG2R61     CG2R61
   44     9    10    15	 9 ;       HGA2      CG321     CG2R61     CG2R61
   44     9    10    11	 9 ;       HGA2      CG321     CG2R61     CG2R61
   45     9    10    15	 9 ;       HGA2      CG321     CG2R61     CG2R61
   45     9    10    11	 9 ;       HGA2      CG321     CG2R61     CG2R61
    9    10    15    14	 9 ;      CG321     CG2R61     CG2R61     CG2R61
    9    10    15    48	 9 ;      CG321     CG2R61     CG2R61      HGR61
   11    10    15    14	 9 ;     CG2R61     CG2R61     CG2R61     CG2R61
   11    10    15    48	 9 ;     CG2R61     CG2R61     CG2R61      HGR61
    9    10    11    12	 9 ;      CG321     CG2R61     CG2R61     CG2R61
    9    10    11    46	 9 ;      CG321     CG2R61     CG2R61      HGR61
   15    10    11    12	 9 ;     CG2R61     CG2R61     CG2R61     CG2R61
   15    10    11    46	 9 ;     CG2R61     CG2R61     CG2R61      HGR61
   10    11    12    13	 9 ;     CG2R61     CG2R61     CG2R61     CG2R61
   10    11    12    16	 9 ;     CG2R61     CG2R61     CG2R61      CG321
   46    11    12    13	 9 ;      HGR61     CG2R61     CG2R61     CG2R61
   46    11    12    16	 9 ;      HGR61     CG2R61     CG2R61      CG321
   11    12    13    14	 9 ;     CG2R61     CG2R61     CG2R61     CG2R61
   11    12    13    20	 9 ;     CG2R61     CG2R61     CG2R61      OG311
   16    12    13    14	 9 ;      CG321     CG2R61     CG2R61     CG2R61
   16    12    13    20	 9 ;      CG321     CG2R61     CG2R61      OG311
   11    12    16    17	 9 ;     CG2R61     CG2R61      CG321      CG321
   11    12    16    49	 9 ;     CG2R61     CG2R61      CG321       HGA2
   11    12    16    50	 9 ;     CG2R61     CG2R61      CG321       HGA2
   13    12    16    17	 9 ;     CG2R61     CG2R61      CG321      CG321
   13    12    16    49	 9 ;     CG2R61     CG2R61      CG321       HGA2
   13    12    16    50	 9 ;     CG2R61     CG2R61      CG321       HGA2
   12    13    14    15	 9 ;     CG2R61     CG2R61     CG2R61     CG2R61
   12    13    14    47	 9 ;     CG2R61     CG2R61     CG2R61      HGR61
   20    13    14    15	 9 ;      OG311     CG2R61     CG2R61     CG2R61
   20    13    14    47	 9 ;      OG311     CG2R61     CG2R61      HGR61
   14    13    20    21	 9 ;     CG2R61     CG2R61      OG311       HGP1
   12    13    20    21	 9 ;     CG2R61     CG2R61      OG311       HGP1
   13    14    15    10	 9 ;     CG2R61     CG2R61     CG2R61     CG2R61
   13    14    15    48	 9 ;     CG2R61     CG2R61     CG2R61      HGR61
   47    14    15    10	 9 ;      HGR61     CG2R61     CG2R61     CG2R61
   47    14    15    48	 9 ;      HGR61     CG2R61     CG2R61      HGR61
   12    16    17    18	 9 ;     CG2R61      CG321      CG321      CG321
   12    16    17    51	 9 ;     CG2R61      CG321      CG321       HGA2
   12    16    17    52	 9 ;     CG2R61      CG321      CG321       HGA2
   49    16    17    18	 9 ;       HGA2      CG321      CG321      CG321
   49    16    17    51	 9 ;       HGA2      CG321      CG321       HGA2
   49    16    17    52	 9 ;       HGA2      CG321      CG321       HGA2
   50    16    17    18	 9 ;       HGA2      CG321      CG321      CG321
   50    16    17    51	 9 ;       HGA2      CG321      CG321       HGA2
   50    16    17    52	 9 ;       HGA2      CG321      CG321       HGA2
   16    17    18    19	 9 ;      CG321      CG321      CG321      CG331
   16    17    18    53	 9 ;      CG321      CG321      CG321       HGA2
   16    17    18    54	 9 ;      CG321      CG321      CG321       HGA2
   51    17    18    19	 9 ;       HGA2      CG321      CG321      CG331
   51    17    18    53	 9 ;       HGA2      CG321      CG321       HGA2
   51    17    18    54	 9 ;       HGA2      CG321      CG321       HGA2
   52    17    18    19	 9 ;       HGA2      CG321      CG321      CG331
   52    17    18    53	 9 ;       HGA2      CG321      CG321       HGA2
   52    17    18    54	 9 ;       HGA2      CG321      CG321       HGA2
   17    18    19    65	 9 ;      CG321      CG321      CG331       HGA3
   17    18    19    66	 9 ;      CG321      CG321      CG331       HGA3
   17    18    19    67	 9 ;      CG321      CG321      CG331       HGA3
   53    18    19    65	 9 ;       HGA2      CG321      CG331       HGA3
   53    18    19    66	 9 ;       HGA2      CG321      CG331       HGA3
   53    18    19    67	 9 ;       HGA2      CG321      CG331       HGA3
   54    18    19    65	 9 ;       HGA2      CG321      CG331       HGA3
   54    18    19    66	 9 ;       HGA2      CG321      CG331       HGA3
   54    18    19    67	 9 ;       HGA2      CG321      CG331       HGA3
    7    24    27    28	 9 ;      CG314      NG3P2      CG324     CG2R61
    7    24    27    55	 9 ;      CG314      NG3P2      CG324       HGA2
    7    24    27    56	 9 ;      CG314      NG3P2      CG324       HGA2
   26    24    27    28	 9 ;       HGP2      NG3P2      CG324     CG2R61
   26    24    27    55	 9 ;       HGP2      NG3P2      CG324       HGA2
   26    24    27    56	 9 ;       HGP2      NG3P2      CG324       HGA2
   25    24    27    28	 9 ;       HGP2      NG3P2      CG324     CG2R61
   25    24    27    55	 9 ;       HGP2      NG3P2      CG324       HGA2
   25    24    27    56	 9 ;       HGP2      NG3P2      CG324       HGA2
   24    27    28    29	 9 ;      NG3P2      CG324     CG2R61     CG2R61
   24    27    28    33	 9 ;      NG3P2      CG324     CG2R61     CG2R61
   55    27    28    29	 9 ;       HGA2      CG324     CG2R61     CG2R61
   55    27    28    33	 9 ;       HGA2      CG324     CG2R61     CG2R61
   56    27    28    29	 9 ;       HGA2      CG324     CG2R61     CG2R61
   56    27    28    33	 9 ;       HGA2      CG324     CG2R61     CG2R61
   27    28    29    30	 9 ;      CG324     CG2R61     CG2R61     CG2R61
   27    28    29    57	 9 ;      CG324     CG2R61     CG2R61      HGR61
   33    28    29    30	 9 ;     CG2R61     CG2R61     CG2R61     CG2R61
   33    28    29    57	 9 ;     CG2R61     CG2R61     CG2R61      HGR61
   27    28    33    32	 9 ;      CG324     CG2R61     CG2R61     CG2R61
   27    28    33    60	 9 ;      CG324     CG2R61     CG2R61      HGR61
   29    28    33    32	 9 ;     CG2R61     CG2R61     CG2R61     CG2R61
   29    28    33    60	 9 ;     CG2R61     CG2R61     CG2R61      HGR61
   28    29    30    34	 9 ;     CG2R61     CG2R61     CG2R61      CG311
   28    29    30    31	 9 ;     CG2R61     CG2R61     CG2R61     CG2R61
   57    29    30    34	 9 ;      HGR61     CG2R61     CG2R61      CG311
   57    29    30    31	 9 ;      HGR61     CG2R61     CG2R61     CG2R61
   29    30    34    36	 9 ;     CG2R61     CG2R61      CG311      CG331
   29    30    34    35	 9 ;     CG2R61     CG2R61      CG311      CG331
   29    30    34    61	 9 ;     CG2R61     CG2R61      CG311       HGA1
   31    30    34    36	 9 ;     CG2R61     CG2R61      CG311      CG331
   31    30    34    35	 9 ;     CG2R61     CG2R61      CG311      CG331
   31    30    34    61	 9 ;     CG2R61     CG2R61      CG311       HGA1
   29    30    31    32	 9 ;     CG2R61     CG2R61     CG2R61     CG2R61
   29    30    31    58	 9 ;     CG2R61     CG2R61     CG2R61      HGR61
   34    30    31    32	 9 ;      CG311     CG2R61     CG2R61     CG2R61
   34    30    31    58	 9 ;      CG311     CG2R61     CG2R61      HGR61
   30    31    32    33	 9 ;     CG2R61     CG2R61     CG2R61     CG2R61
   30    31    32    59	 9 ;     CG2R61     CG2R61     CG2R61      HGR61
   58    31    32    33	 9 ;      HGR61     CG2R61     CG2R61     CG2R61
   58    31    32    59	 9 ;      HGR61     CG2R61     CG2R61      HGR61
   31    32    33    28	 9 ;     CG2R61     CG2R61     CG2R61     CG2R61
   31    32    33    60	 9 ;     CG2R61     CG2R61     CG2R61      HGR61
   59    32    33    28	 9 ;      HGR61     CG2R61     CG2R61     CG2R61
   59    32    33    60	 9 ;      HGR61     CG2R61     CG2R61      HGR61
   30    34    36    68	 9 ;     CG2R61      CG311      CG331       HGA3
   30    34    36    69	 9 ;     CG2R61      CG311      CG331       HGA3
   30    34    36    70	 9 ;     CG2R61      CG311      CG331       HGA3
   35    34    36    68	 9 ;      CG331      CG311      CG331       HGA3
   35    34    36    69	 9 ;      CG331      CG311      CG331       HGA3
   35    34    36    70	 9 ;      CG331      CG311      CG331       HGA3
   61    34    36    68	 9 ;       HGA1      CG311      CG331       HGA3
   61    34    36    69	 9 ;       HGA1      CG311      CG331       HGA3
   61    34    36    70	 9 ;       HGA1      CG311      CG331       HGA3
   36    34    35    62	 9 ;      CG331      CG311      CG331       HGA3
   36    34    35    63	 9 ;      CG331      CG311      CG331       HGA3
   36    34    35    64	 9 ;      CG331      CG311      CG331       HGA3
   30    34    35    62	 9 ;     CG2R61      CG311      CG331       HGA3
   30    34    35    63	 9 ;     CG2R61      CG311      CG331       HGA3
   30    34    35    64	 9 ;     CG2R61      CG311      CG331       HGA3
   61    34    35    62	 9 ;       HGA1      CG311      CG331       HGA3
   61    34    35    63	 9 ;       HGA1      CG311      CG331       HGA3
   61    34    35    64	 9 ;       HGA1      CG311      CG331       HGA3

