Georgetown Riga Oslo Madrid Amsterdam Chisinau Stockholm
   70
    1LIG      S    1  -1.205   0.486  -1.938
    1LIG     O1    2  -1.315   0.399  -1.898
    1LIG     O2    3  -1.160   0.495  -2.075
    1LIG     C1    4  -1.242   0.648  -1.876
    1LIG     C2    5  -1.268   0.645  -1.725
    1LIG     C3    6  -1.149   0.584  -1.645
    1LIG     C4    7  -1.105   0.442  -1.691
    1LIG     C5    8  -1.067   0.440  -1.838
    1LIG     C6    9  -1.312   0.784  -1.676
    1LIG     C7   10  -1.457   0.798  -1.638
    1LIG     C8   11  -1.526   0.690  -1.580
    1LIG     C9   12  -1.665   0.693  -1.560
    1LIG    C10   13  -1.733   0.811  -1.594
    1LIG    C11   14  -1.665   0.921  -1.646
    1LIG    C12   15  -1.528   0.915  -1.668
    1LIG    C13   16  -1.732   0.568  -1.509
    1LIG    C14   17  -1.637   0.459  -1.458
    1LIG    C15   18  -1.628   0.332  -1.544
    1LIG    C16   19  -1.762   0.280  -1.593
    1LIG     O3   20  -1.868   0.826  -1.579
    1LIG     H1   21  -1.887   0.905  -1.526
    1LIG     O4   22  -1.179   0.571  -1.506
    1LIG     H2   23  -1.252   0.629  -1.479
    1LIG      N   24  -1.214   0.344  -1.655
    1LIG     H3   25  -1.278   0.390  -1.588
    1LIG     H4   26  -1.273   0.322  -1.738
    1LIG    C17   27  -1.176   0.210  -1.602
    1LIG    C18   28  -1.227   0.199  -1.462
    1LIG    C19   29  -1.190   0.089  -1.383
    1LIG    C20   30  -1.221   0.085  -1.247
    1LIG    C21   31  -1.293   0.192  -1.191
    1LIG    C22   32  -1.334   0.299  -1.268
    1LIG    C23   33  -1.301   0.303  -1.403
    1LIG    C24   34  -1.172  -0.033  -1.164
    1LIG    C25   35  -1.290  -0.106  -1.099
    1LIG    C26   36  -1.084  -0.128  -1.245
    1LIG    HC2   37  -1.330   0.687  -1.927
    1LIG    HC3   38  -1.157   0.714  -1.896
    1LIG     HC   39  -1.353   0.578  -1.710
    1LIG    HC1   40  -1.064   0.651  -1.655
    1LIG    HC4   41  -1.016   0.415  -1.634
    1LIG    HC5   42  -0.985   0.509  -1.855
    1LIG    HC6   43  -1.035   0.339  -1.865
    1LIG    HC7   44  -1.292   0.856  -1.755
    1LIG    HC8   45  -1.252   0.811  -1.589
    1LIG    HC9   46  -1.470   0.602  -1.551
    1LIG   HC10   47  -1.719   1.011  -1.669
    1LIG   HC11   48  -1.476   1.001  -1.708
    1LIG   HC12   49  -1.792   0.526  -1.590
    1LIG   HC13   50  -1.799   0.596  -1.427
    1LIG   HC14   51  -1.537   0.502  -1.452
    1LIG   HC15   52  -1.668   0.430  -1.358
    1LIG   HC16   53  -1.566   0.354  -1.631
    1LIG   HC17   54  -1.579   0.254  -1.486
    1LIG   HC18   55  -1.219   0.132  -1.663
    1LIG   HC19   56  -1.067   0.201  -1.601
    1LIG   HC20   57  -1.137   0.007  -1.429
    1LIG   HC21   58  -1.318   0.190  -1.086
    1LIG   HC22   59  -1.391   0.379  -1.224
    1LIG   HC23   60  -1.331   0.388  -1.464
    1LIG   HC24   61  -1.110   0.008  -1.083
    1LIG   HC25   62  -1.350  -0.036  -1.041
    1LIG   HC26   63  -1.351  -0.152  -1.176
    1LIG   HC27   64  -1.252  -0.184  -1.032
    1LIG   HC28   65  -1.753   0.175  -1.619
    1LIG   HC29   66  -1.793   0.337  -1.681
    1LIG   HC30   67  -1.837   0.292  -1.514
    1LIG   HC31   68  -1.049  -0.208  -1.181
    1LIG   HC32   69  -0.999  -0.073  -1.285
    1LIG   HC33   70  -1.143  -0.169  -1.327
   0.00000   0.00000   0.00000
