Good gRace! Old Maple Actually Chews Slate
   82
    1LIG     O1    1  -1.161   0.483  -1.425
    1LIG     C1    2  -1.167   0.408  -1.522
    1LIG     N1    3  -1.148   0.445  -1.654
    1LIG     C2    4  -1.127   0.333  -1.727
    1LIG     N2    5  -1.128   0.223  -1.647
    1LIG     C3    6  -1.205   0.256  -1.525
    1LIG     H1    7  -1.146   0.135  -1.695
    1LIG     C4    8  -1.166   0.581  -1.700
    1LIG     C5    9  -1.314   0.618  -1.704
    1LIG     C6   10  -1.372   0.689  -1.598
    1LIG     C7   11  -1.510   0.715  -1.595
    1LIG     C8   12  -1.594   0.670  -1.698
    1LIG     C9   13  -1.536   0.602  -1.806
    1LIG    C10   14  -1.398   0.576  -1.809
    1LIG    C11   15  -1.743   0.697  -1.692
    1LIG     N3   16  -1.774   0.823  -1.629
    1LIG    C12   17  -1.759   0.950  -1.674
    1LIG     O2   18  -1.792   1.044  -1.604
    1LIG     N4   19  -1.708   0.963  -1.800
    1LIG     H2   20  -1.671   0.882  -1.845
    1LIG     H3   21  -1.813   0.821  -1.535
    1LIG    C13   22  -1.683   1.094  -1.860
    1LIG    C14   23  -1.547   1.103  -1.930
    1LIG    C15   24  -1.491   0.966  -1.967
    1LIG    C16   25  -1.359   0.936  -1.897
    1LIG     N5   26  -1.116   0.326  -1.855
    1LIG     H4   27  -1.097   0.418  -1.894
    1LIG     HN   28  -1.126   0.241  -1.910
    1LIG    C17   29  -1.154   0.164  -1.410
    1LIG    C18   30  -1.092   0.026  -1.445
    1LIG    C19   31  -0.988  -0.028  -1.346
    1LIG    C20   32  -1.196  -0.083  -1.468
    1LIG    C21   33  -1.357   0.244  -1.567
    1LIG    C22   34  -1.460   0.333  -1.497
    1LIG    C23   35  -1.591   0.358  -1.576
    1LIG    C24   36  -1.708   0.367  -1.475
    1LIG    C25   37  -1.845   0.377  -1.542
    1LIG    C26   38  -1.866   0.264  -1.643
    1LIG    C27   39  -1.753   0.261  -1.745
    1LIG    C28   40  -1.617   0.247  -1.678
    1LIG    HC2   41  -1.124   0.592  -1.800
    1LIG    HC3   42  -1.114   0.649  -1.633
    1LIG     HC   43  -1.310   0.724  -1.517
    1LIG    HC1   44  -1.552   0.771  -1.513
    1LIG    HC4   45  -1.598   0.569  -1.888
    1LIG    HC5   46  -1.356   0.523  -1.893
    1LIG    HC6   47  -1.783   0.698  -1.793
    1LIG    HC7   48  -1.791   0.617  -1.636
    1LIG    HC8   49  -1.686   1.169  -1.781
    1LIG    HC9   50  -1.761   1.115  -1.932
    1LIG   HC10   51  -1.559   1.162  -2.021
    1LIG   HC11   52  -1.476   1.153  -1.864
    1LIG   HC12   53  -1.474   0.963  -2.075
    1LIG   HC13   54  -1.563   0.889  -1.940
    1LIG   HC14   55  -1.323   0.838  -1.927
    1LIG   HC15   56  -1.374   0.938  -1.789
    1LIG   HC16   57  -1.286   1.012  -1.925
    1LIG   HC17   58  -1.078   0.220  -1.355
    1LIG   HC18   59  -1.237   0.146  -1.342
    1LIG   HC19   60  -1.040   0.040  -1.540
    1LIG   HC20   61  -0.912   0.049  -1.328
    1LIG   HC21   62  -1.037  -0.054  -1.253
    1LIG   HC22   63  -0.941  -0.116  -1.388
    1LIG   HC23   64  -1.271  -0.047  -1.538
    1LIG   HC24   65  -1.147  -0.171  -1.510
    1LIG   HC25   66  -1.243  -0.109  -1.374
    1LIG   HC26   67  -1.386   0.141  -1.550
    1LIG   HC27   68  -1.363   0.263  -1.674
    1LIG   HC28   69  -1.414   0.430  -1.479
    1LIG   HC29   70  -1.486   0.288  -1.402
    1LIG   HC30   71  -1.583   0.453  -1.629
    1LIG   HC31   72  -1.694   0.456  -1.413
    1LIG   HC32   73  -1.707   0.279  -1.411
    1LIG   HC33   74  -1.922   0.371  -1.466
    1LIG   HC34   75  -1.852   0.472  -1.594
    1LIG   HC35   76  -1.961   0.279  -1.694
    1LIG   HC36   77  -1.868   0.169  -1.589
    1LIG   HC37   78  -1.769   0.177  -1.813
    1LIG   HC38   79  -1.755   0.354  -1.803
    1LIG   HC39   80  -1.540   0.250  -1.754
    1LIG   HC40   81  -1.613   0.150  -1.627
    1LIG    H47   82  -1.019   0.343  -1.716
   0.00000   0.00000   0.00000
