; Created by cgenff_charmm2gmx.py

[ moleculetype ]
; Name			   nrexcl
LIG				 3

[ atoms ]
;	 nr		  type	resnr residue  atom   cgnr	   charge		mass  typeB    chargeB		massB
; residue	 1 LIG rtp LIG q	qsum
     1      OG2D1      1    LIG     O1      1     -0.377     15.999   ;
     2     CG2R53      1    LIG     C1      2      0.077     12.011   ;
     3     NG2R53      1    LIG     N1      3     -0.301     14.007   ;
     4     CG3C51      1    LIG     C2      4      0.325     12.011   ;
     5     NG3C51      1    LIG     N2      5     -0.492     14.007   ;
     6     CG3C50      1    LIG     C3      6      0.678     12.011   ;
     7       HGP1      1    LIG     H1      7      0.244      1.008   ;
     8      CG321      1    LIG     C4      8     -0.078     12.011   ;
     9     CG2R61      1    LIG     C5      9      0.006     12.011   ;
    10     CG2R61      1    LIG     C6     10     -0.119     12.011   ;
    11     CG2R61      1    LIG     C7     11     -0.119     12.011   ;
    12     CG2R61      1    LIG     C8     12      0.004     12.011   ;
    13     CG2R61      1    LIG     C9     13     -0.119     12.011   ;
    14     CG2R61      1    LIG    C10     14     -0.119     12.011   ;
    15      CG321      1    LIG    C11     15     -0.002     12.011   ;
    16      NG2S1      1    LIG     N3     16     -0.454     14.007   ;
    17      CG2O6      1    LIG    C12     17      0.351     12.011   ;
    18      OG2D1      1    LIG     O2     18     -0.372     15.999   ;
    19      NG2S1      1    LIG     N4     19     -0.423     14.007   ;
    20       HGP1      1    LIG     H2     20      0.271      1.008   ;
    21       HGP1      1    LIG     H3     21      0.281      1.008   ;
    22      CG321      1    LIG    C13     22      0.013     12.011   ;
    23      CG321      1    LIG    C14     23     -0.205     12.011   ;
    24      CG321      1    LIG    C15     24     -0.178     12.011   ;
    25      CG331      1    LIG    C16     25     -0.270     12.011   ;
    26      NG321      1    LIG     N5     26     -0.877     14.007   ;
    27     HGPAM2      1    LIG     H4     27      0.349      1.008   ;
    28     HGPAM2      1    LIG     HN     28      0.349      1.008   ;
    29      CG321      1    LIG    C17     29     -0.264     12.011   ;
    30      CG311      1    LIG    C18     30     -0.111     12.011   ;
    31      CG331      1    LIG    C19     31     -0.267     12.011   ;
    32      CG331      1    LIG    C20     32     -0.267     12.011   ;
    33      CG321      1    LIG    C21     33     -0.285     12.011   ;
    34      CG321      1    LIG    C22     34     -0.188     12.011   ;
    35      CG311      1    LIG    C23     35     -0.055     12.011   ;
    36      CG321      1    LIG    C24     36     -0.186     12.011   ;
    37      CG321      1    LIG    C25     37     -0.192     12.011   ;
    38      CG321      1    LIG    C26     38     -0.154     12.011   ;
    39      CG321      1    LIG    C27     39     -0.192     12.011   ;
    40      CG321      1    LIG    C28     40     -0.186     12.011   ;
    41       HGA2      1    LIG    HC2     41      0.090      1.008   ;
    42       HGA2      1    LIG    HC3     42      0.090      1.008   ;
    43      HGR61      1    LIG     HC     43      0.116      1.008   ;
    44      HGR61      1    LIG    HC1     44      0.116      1.008   ;
    45      HGR61      1    LIG    HC4     45      0.116      1.008   ;
    46      HGR61      1    LIG    HC5     46      0.116      1.008   ;
    47       HGA2      1    LIG    HC6     47      0.090      1.008   ;
    48       HGA2      1    LIG    HC7     48      0.090      1.008   ;
    49       HGA2      1    LIG    HC8     49      0.090      1.008   ;
    50       HGA2      1    LIG    HC9     50      0.090      1.008   ;
    51       HGA2      1    LIG   HC10     51      0.090      1.008   ;
    52       HGA2      1    LIG   HC11     52      0.090      1.008   ;
    53       HGA2      1    LIG   HC12     53      0.090      1.008   ;
    54       HGA2      1    LIG   HC13     54      0.090      1.008   ;
    55       HGA3      1    LIG   HC14     55      0.090      1.008   ;
    56       HGA3      1    LIG   HC15     56      0.090      1.008   ;
    57       HGA3      1    LIG   HC16     57      0.090      1.008   ;
    58       HGA2      1    LIG   HC17     58      0.090      1.008   ;
    59       HGA2      1    LIG   HC18     59      0.090      1.008   ;
    60       HGA1      1    LIG   HC19     60      0.090      1.008   ;
    61       HGA3      1    LIG   HC20     61      0.090      1.008   ;
    62       HGA3      1    LIG   HC21     62      0.090      1.008   ;
    63       HGA3      1    LIG   HC22     63      0.090      1.008   ;
    64       HGA3      1    LIG   HC23     64      0.090      1.008   ;
    65       HGA3      1    LIG   HC24     65      0.090      1.008   ;
    66       HGA3      1    LIG   HC25     66      0.090      1.008   ;
    67       HGA2      1    LIG   HC26     67      0.090      1.008   ;
    68       HGA2      1    LIG   HC27     68      0.090      1.008   ;
    69       HGA2      1    LIG   HC28     69      0.090      1.008   ;
    70       HGA2      1    LIG   HC29     70      0.090      1.008   ;
    71       HGA1      1    LIG   HC30     71      0.090      1.008   ;
    72       HGA2      1    LIG   HC31     72      0.090      1.008   ;
    73       HGA2      1    LIG   HC32     73      0.090      1.008   ;
    74       HGA2      1    LIG   HC33     74      0.090      1.008   ;
    75       HGA2      1    LIG   HC34     75      0.090      1.008   ;
    76       HGA2      1    LIG   HC35     76      0.090      1.008   ;
    77       HGA2      1    LIG   HC36     77      0.090      1.008   ;
    78       HGA2      1    LIG   HC37     78      0.090      1.008   ;
    79       HGA2      1    LIG   HC38     79      0.090      1.008   ;
    80       HGA2      1    LIG   HC39     80      0.090      1.008   ;
    81       HGA2      1    LIG   HC40     81      0.090      1.008   ;
    82       HGA1      1    LIG    H47     82      0.110      1.008   ;

[ bonds ]
;	ai	  aj funct			  c0			c1			  c2			c3
    1     2	 1 ;       OG2D1     CG2R53
    2     3	 1 ;      CG2R53     NG2R53
    2     6	 1 ;      CG2R53     CG3C50
    3     8	 1 ;      NG2R53      CG321
    3     4	 1 ;      NG2R53     CG3C51
    4    26	 1 ;      CG3C51      NG321
    4     5	 1 ;      CG3C51     NG3C51
    4    82	 1 ;      CG3C51       HGA1
    5     7	 1 ;      NG3C51       HGP1
    5     6	 1 ;      NG3C51     CG3C50
    6    29	 1 ;      CG3C50      CG321
    6    33	 1 ;      CG3C50      CG321
    8     9	 1 ;       CG321     CG2R61
    8    41	 1 ;       CG321       HGA2
    8    42	 1 ;       CG321       HGA2
    9    14	 1 ;      CG2R61     CG2R61
    9    10	 1 ;      CG2R61     CG2R61
   10    11	 1 ;      CG2R61     CG2R61
   10    43	 1 ;      CG2R61      HGR61
   11    12	 1 ;      CG2R61     CG2R61
   11    44	 1 ;      CG2R61      HGR61
   12    13	 1 ;      CG2R61     CG2R61
   12    15	 1 ;      CG2R61      CG321
   13    14	 1 ;      CG2R61     CG2R61
   13    45	 1 ;      CG2R61      HGR61
   14    46	 1 ;      CG2R61      HGR61
   15    16	 1 ;       CG321      NG2S1
   15    47	 1 ;       CG321       HGA2
   15    48	 1 ;       CG321       HGA2
   16    17	 1 ;       NG2S1      CG2O6
   16    21	 1 ;       NG2S1       HGP1
   17    19	 1 ;       CG2O6      NG2S1
   17    18	 1 ;       CG2O6      OG2D1
   19    22	 1 ;       NG2S1      CG321
   19    20	 1 ;       NG2S1       HGP1
   22    23	 1 ;       CG321      CG321
   22    49	 1 ;       CG321       HGA2
   22    50	 1 ;       CG321       HGA2
   23    24	 1 ;       CG321      CG321
   23    51	 1 ;       CG321       HGA2
   23    52	 1 ;       CG321       HGA2
   24    25	 1 ;       CG321      CG331
   24    53	 1 ;       CG321       HGA2
   24    54	 1 ;       CG321       HGA2
   25    55	 1 ;       CG331       HGA3
   25    56	 1 ;       CG331       HGA3
   25    57	 1 ;       CG331       HGA3
   26    27	 1 ;       NG321     HGPAM2
   26    28	 1 ;       NG321     HGPAM2
   29    30	 1 ;       CG321      CG311
   29    58	 1 ;       CG321       HGA2
   29    59	 1 ;       CG321       HGA2
   30    31	 1 ;       CG311      CG331
   30    32	 1 ;       CG311      CG331
   30    60	 1 ;       CG311       HGA1
   31    61	 1 ;       CG331       HGA3
   31    62	 1 ;       CG331       HGA3
   31    63	 1 ;       CG331       HGA3
   32    64	 1 ;       CG331       HGA3
   32    65	 1 ;       CG331       HGA3
   32    66	 1 ;       CG331       HGA3
   33    34	 1 ;       CG321      CG321
   33    67	 1 ;       CG321       HGA2
   33    68	 1 ;       CG321       HGA2
   34    35	 1 ;       CG321      CG311
   34    69	 1 ;       CG321       HGA2
   34    70	 1 ;       CG321       HGA2
   35    40	 1 ;       CG311      CG321
   35    36	 1 ;       CG311      CG321
   35    71	 1 ;       CG311       HGA1
   36    37	 1 ;       CG321      CG321
   36    72	 1 ;       CG321       HGA2
   36    73	 1 ;       CG321       HGA2
   37    38	 1 ;       CG321      CG321
   37    74	 1 ;       CG321       HGA2
   37    75	 1 ;       CG321       HGA2
   38    39	 1 ;       CG321      CG321
   38    76	 1 ;       CG321       HGA2
   38    77	 1 ;       CG321       HGA2
   39    40	 1 ;       CG321      CG321
   39    78	 1 ;       CG321       HGA2
   39    79	 1 ;       CG321       HGA2
   40    80	 1 ;       CG321       HGA2
   40    81	 1 ;       CG321       HGA2

[ pairs ]
;	ai	  aj funct			  c0			c1			  c2			c3
    1     8	 1
    1     4	 1
    1     5	 1
    1    29	 1
    1    33	 1
    2     9	 1
    2    41	 1
    2    42	 1
    2    26	 1
    2    82	 1
    2     7	 1
    2    30	 1
    2    58	 1
    2    59	 1
    2    34	 1
    2    67	 1
    2    68	 1
    3    29	 1
    3    33	 1
    3    27	 1
    3    28	 1
    3     7	 1
    3    14	 1
    3    10	 1
    4     9	 1
    4    41	 1
    4    42	 1
    4    29	 1
    4    33	 1
    5     8	 1
    5    27	 1
    5    28	 1
    5    30	 1
    5    58	 1
    5    59	 1
    5    34	 1
    5    67	 1
    5    68	 1
    6     8	 1
    6    26	 1
    6    82	 1
    6    31	 1
    6    32	 1
    6    60	 1
    6    35	 1
    6    69	 1
    6    70	 1
    7    26	 1
    7    82	 1
    7    29	 1
    7    33	 1
    8    26	 1
    8    82	 1
    8    13	 1
    8    46	 1
    8    11	 1
    8    43	 1
    9    12	 1
    9    44	 1
    9    45	 1
   10    41	 1
   10    42	 1
   10    13	 1
   10    46	 1
   10    15	 1
   11    14	 1
   11    45	 1
   11    16	 1
   11    47	 1
   11    48	 1
   12    43	 1
   12    46	 1
   12    17	 1
   12    21	 1
   13    44	 1
   13    16	 1
   13    47	 1
   13    48	 1
   14    41	 1
   14    42	 1
   14    43	 1
   14    15	 1
   15    44	 1
   15    45	 1
   15    19	 1
   15    18	 1
   16    22	 1
   16    20	 1
   17    47	 1
   17    48	 1
   17    23	 1
   17    49	 1
   17    50	 1
   18    21	 1
   18    22	 1
   18    20	 1
   19    21	 1
   19    24	 1
   19    51	 1
   19    52	 1
   20    23	 1
   20    49	 1
   20    50	 1
   21    47	 1
   21    48	 1
   22    25	 1
   22    53	 1
   22    54	 1
   23    55	 1
   23    56	 1
   23    57	 1
   24    49	 1
   24    50	 1
   25    51	 1
   25    52	 1
   27    82	 1
   28    82	 1
   29    34	 1
   29    67	 1
   29    68	 1
   29    61	 1
   29    62	 1
   29    63	 1
   29    64	 1
   29    65	 1
   29    66	 1
   30    33	 1
   31    58	 1
   31    59	 1
   31    64	 1
   31    65	 1
   31    66	 1
   32    58	 1
   32    59	 1
   32    61	 1
   32    62	 1
   32    63	 1
   33    58	 1
   33    59	 1
   33    40	 1
   33    36	 1
   33    71	 1
   34    39	 1
   34    80	 1
   34    81	 1
   34    37	 1
   34    72	 1
   34    73	 1
   35    67	 1
   35    68	 1
   35    38	 1
   35    74	 1
   35    75	 1
   35    78	 1
   35    79	 1
   36    69	 1
   36    70	 1
   36    39	 1
   36    80	 1
   36    81	 1
   36    76	 1
   36    77	 1
   37    40	 1
   37    71	 1
   37    78	 1
   37    79	 1
   38    72	 1
   38    73	 1
   38    80	 1
   38    81	 1
   39    71	 1
   39    74	 1
   39    75	 1
   40    69	 1
   40    70	 1
   40    72	 1
   40    73	 1
   40    76	 1
   40    77	 1
   43    44	 1
   45    46	 1
   49    51	 1
   49    52	 1
   50    51	 1
   50    52	 1
   51    53	 1
   51    54	 1
   52    53	 1
   52    54	 1
   53    55	 1
   53    56	 1
   53    57	 1
   54    55	 1
   54    56	 1
   54    57	 1
   58    60	 1
   59    60	 1
   60    61	 1
   60    62	 1
   60    63	 1
   60    64	 1
   60    65	 1
   60    66	 1
   67    69	 1
   67    70	 1
   68    69	 1
   68    70	 1
   69    71	 1
   70    71	 1
   71    80	 1
   71    81	 1
   71    72	 1
   71    73	 1
   72    74	 1
   72    75	 1
   73    74	 1
   73    75	 1
   74    76	 1
   74    77	 1
   75    76	 1
   75    77	 1
   76    78	 1
   76    79	 1
   77    78	 1
   77    79	 1
   78    80	 1
   78    81	 1
   79    80	 1
   79    81	 1

[ angles ]
;	ai	  aj	ak funct			c0			  c1			c2			  c3
    3     2     1	5 ;     NG2R53     CG2R53      OG2D1
    3     2     6	5 ;     NG2R53     CG2R53     CG3C50
    1     2     6	5 ;      OG2D1     CG2R53     CG3C50
    8     3     4	5 ;      CG321     NG2R53     CG3C51
    8     3     2	5 ;      CG321     NG2R53     CG2R53
    4     3     2	5 ;     CG3C51     NG2R53     CG2R53
   26     4     3	5 ;      NG321     CG3C51     NG2R53
   26     4     5	5 ;      NG321     CG3C51     NG3C51
   26     4    82	5 ;      NG321     CG3C51       HGA1
    3     4     5	5 ;     NG2R53     CG3C51     NG3C51
    3     4    82	5 ;     NG2R53     CG3C51       HGA1
    5     4    82	5 ;     NG3C51     CG3C51       HGA1
    4     5     7	5 ;     CG3C51     NG3C51       HGP1
    4     5     6	5 ;     CG3C51     NG3C51     CG3C50
    7     5     6	5 ;       HGP1     NG3C51     CG3C50
    5     6     2	5 ;     NG3C51     CG3C50     CG2R53
    5     6    29	5 ;     NG3C51     CG3C50      CG321
    5     6    33	5 ;     NG3C51     CG3C50      CG321
    2     6    29	5 ;     CG2R53     CG3C50      CG321
    2     6    33	5 ;     CG2R53     CG3C50      CG321
   29     6    33	5 ;      CG321     CG3C50      CG321
    3     8     9	5 ;     NG2R53      CG321     CG2R61
    3     8    41	5 ;     NG2R53      CG321       HGA2
    3     8    42	5 ;     NG2R53      CG321       HGA2
    9     8    41	5 ;     CG2R61      CG321       HGA2
    9     8    42	5 ;     CG2R61      CG321       HGA2
   41     8    42	5 ;       HGA2      CG321       HGA2
    8     9    14	5 ;      CG321     CG2R61     CG2R61
    8     9    10	5 ;      CG321     CG2R61     CG2R61
   14     9    10	5 ;     CG2R61     CG2R61     CG2R61
    9    10    11	5 ;     CG2R61     CG2R61     CG2R61
    9    10    43	5 ;     CG2R61     CG2R61      HGR61
   11    10    43	5 ;     CG2R61     CG2R61      HGR61
   10    11    12	5 ;     CG2R61     CG2R61     CG2R61
   10    11    44	5 ;     CG2R61     CG2R61      HGR61
   12    11    44	5 ;     CG2R61     CG2R61      HGR61
   13    12    11	5 ;     CG2R61     CG2R61     CG2R61
   13    12    15	5 ;     CG2R61     CG2R61      CG321
   11    12    15	5 ;     CG2R61     CG2R61      CG321
   14    13    12	5 ;     CG2R61     CG2R61     CG2R61
   14    13    45	5 ;     CG2R61     CG2R61      HGR61
   12    13    45	5 ;     CG2R61     CG2R61      HGR61
    9    14    13	5 ;     CG2R61     CG2R61     CG2R61
    9    14    46	5 ;     CG2R61     CG2R61      HGR61
   13    14    46	5 ;     CG2R61     CG2R61      HGR61
   12    15    16	5 ;     CG2R61      CG321      NG2S1
   12    15    47	5 ;     CG2R61      CG321       HGA2
   12    15    48	5 ;     CG2R61      CG321       HGA2
   16    15    47	5 ;      NG2S1      CG321       HGA2
   16    15    48	5 ;      NG2S1      CG321       HGA2
   47    15    48	5 ;       HGA2      CG321       HGA2
   17    16    15	5 ;      CG2O6      NG2S1      CG321
   17    16    21	5 ;      CG2O6      NG2S1       HGP1
   15    16    21	5 ;      CG321      NG2S1       HGP1
   19    17    18	5 ;      NG2S1      CG2O6      OG2D1
   19    17    16	5 ;      NG2S1      CG2O6      NG2S1
   18    17    16	5 ;      OG2D1      CG2O6      NG2S1
   22    19    20	5 ;      CG321      NG2S1       HGP1
   22    19    17	5 ;      CG321      NG2S1      CG2O6
   20    19    17	5 ;       HGP1      NG2S1      CG2O6
   23    22    19	5 ;      CG321      CG321      NG2S1
   23    22    49	5 ;      CG321      CG321       HGA2
   23    22    50	5 ;      CG321      CG321       HGA2
   19    22    49	5 ;      NG2S1      CG321       HGA2
   19    22    50	5 ;      NG2S1      CG321       HGA2
   49    22    50	5 ;       HGA2      CG321       HGA2
   24    23    22	5 ;      CG321      CG321      CG321
   24    23    51	5 ;      CG321      CG321       HGA2
   24    23    52	5 ;      CG321      CG321       HGA2
   22    23    51	5 ;      CG321      CG321       HGA2
   22    23    52	5 ;      CG321      CG321       HGA2
   51    23    52	5 ;       HGA2      CG321       HGA2
   25    24    23	5 ;      CG331      CG321      CG321
   25    24    53	5 ;      CG331      CG321       HGA2
   25    24    54	5 ;      CG331      CG321       HGA2
   23    24    53	5 ;      CG321      CG321       HGA2
   23    24    54	5 ;      CG321      CG321       HGA2
   53    24    54	5 ;       HGA2      CG321       HGA2
   24    25    55	5 ;      CG321      CG331       HGA3
   24    25    56	5 ;      CG321      CG331       HGA3
   24    25    57	5 ;      CG321      CG331       HGA3
   55    25    56	5 ;       HGA3      CG331       HGA3
   55    25    57	5 ;       HGA3      CG331       HGA3
   56    25    57	5 ;       HGA3      CG331       HGA3
   27    26    28	5 ;     HGPAM2      NG321     HGPAM2
   27    26     4	5 ;     HGPAM2      NG321     CG3C51
   28    26     4	5 ;     HGPAM2      NG321     CG3C51
   30    29     6	5 ;      CG311      CG321     CG3C50
   30    29    58	5 ;      CG311      CG321       HGA2
   30    29    59	5 ;      CG311      CG321       HGA2
    6    29    58	5 ;     CG3C50      CG321       HGA2
    6    29    59	5 ;     CG3C50      CG321       HGA2
   58    29    59	5 ;       HGA2      CG321       HGA2
   31    30    29	5 ;      CG331      CG311      CG321
   31    30    32	5 ;      CG331      CG311      CG331
   31    30    60	5 ;      CG331      CG311       HGA1
   29    30    32	5 ;      CG321      CG311      CG331
   29    30    60	5 ;      CG321      CG311       HGA1
   32    30    60	5 ;      CG331      CG311       HGA1
   30    31    61	5 ;      CG311      CG331       HGA3
   30    31    62	5 ;      CG311      CG331       HGA3
   30    31    63	5 ;      CG311      CG331       HGA3
   61    31    62	5 ;       HGA3      CG331       HGA3
   61    31    63	5 ;       HGA3      CG331       HGA3
   62    31    63	5 ;       HGA3      CG331       HGA3
   30    32    64	5 ;      CG311      CG331       HGA3
   30    32    65	5 ;      CG311      CG331       HGA3
   30    32    66	5 ;      CG311      CG331       HGA3
   64    32    65	5 ;       HGA3      CG331       HGA3
   64    32    66	5 ;       HGA3      CG331       HGA3
   65    32    66	5 ;       HGA3      CG331       HGA3
    6    33    34	5 ;     CG3C50      CG321      CG321
    6    33    67	5 ;     CG3C50      CG321       HGA2
    6    33    68	5 ;     CG3C50      CG321       HGA2
   34    33    67	5 ;      CG321      CG321       HGA2
   34    33    68	5 ;      CG321      CG321       HGA2
   67    33    68	5 ;       HGA2      CG321       HGA2
   33    34    35	5 ;      CG321      CG321      CG311
   33    34    69	5 ;      CG321      CG321       HGA2
   33    34    70	5 ;      CG321      CG321       HGA2
   35    34    69	5 ;      CG311      CG321       HGA2
   35    34    70	5 ;      CG311      CG321       HGA2
   69    34    70	5 ;       HGA2      CG321       HGA2
   34    35    40	5 ;      CG321      CG311      CG321
   34    35    36	5 ;      CG321      CG311      CG321
   34    35    71	5 ;      CG321      CG311       HGA1
   40    35    36	5 ;      CG321      CG311      CG321
   40    35    71	5 ;      CG321      CG311       HGA1
   36    35    71	5 ;      CG321      CG311       HGA1
   35    36    37	5 ;      CG311      CG321      CG321
   35    36    72	5 ;      CG311      CG321       HGA2
   35    36    73	5 ;      CG311      CG321       HGA2
   37    36    72	5 ;      CG321      CG321       HGA2
   37    36    73	5 ;      CG321      CG321       HGA2
   72    36    73	5 ;       HGA2      CG321       HGA2
   36    37    38	5 ;      CG321      CG321      CG321
   36    37    74	5 ;      CG321      CG321       HGA2
   36    37    75	5 ;      CG321      CG321       HGA2
   38    37    74	5 ;      CG321      CG321       HGA2
   38    37    75	5 ;      CG321      CG321       HGA2
   74    37    75	5 ;       HGA2      CG321       HGA2
   39    38    37	5 ;      CG321      CG321      CG321
   39    38    76	5 ;      CG321      CG321       HGA2
   39    38    77	5 ;      CG321      CG321       HGA2
   37    38    76	5 ;      CG321      CG321       HGA2
   37    38    77	5 ;      CG321      CG321       HGA2
   76    38    77	5 ;       HGA2      CG321       HGA2
   40    39    38	5 ;      CG321      CG321      CG321
   40    39    78	5 ;      CG321      CG321       HGA2
   40    39    79	5 ;      CG321      CG321       HGA2
   38    39    78	5 ;      CG321      CG321       HGA2
   38    39    79	5 ;      CG321      CG321       HGA2
   78    39    79	5 ;       HGA2      CG321       HGA2
   35    40    39	5 ;      CG311      CG321      CG321
   35    40    80	5 ;      CG311      CG321       HGA2
   35    40    81	5 ;      CG311      CG321       HGA2
   39    40    80	5 ;      CG321      CG321       HGA2
   39    40    81	5 ;      CG321      CG321       HGA2
   80    40    81	5 ;       HGA2      CG321       HGA2

[ dihedrals ]
;	ai	  aj	ak	  al funct			  c0			c1			  c2			c3			  c4			c5
    1     2     3     8	 9 ;      OG2D1     CG2R53     NG2R53      CG321
    1     2     3     4	 9 ;      OG2D1     CG2R53     NG2R53     CG3C51
    6     2     3     8	 9 ;     CG3C50     CG2R53     NG2R53      CG321
    6     2     3     4	 9 ;     CG3C50     CG2R53     NG2R53     CG3C51
    3     2     6     5	 9 ;     NG2R53     CG2R53     CG3C50     NG3C51
    3     2     6    29	 9 ;     NG2R53     CG2R53     CG3C50      CG321
    3     2     6    33	 9 ;     NG2R53     CG2R53     CG3C50      CG321
    1     2     6     5	 9 ;      OG2D1     CG2R53     CG3C50     NG3C51
    1     2     6    29	 9 ;      OG2D1     CG2R53     CG3C50      CG321
    1     2     6    33	 9 ;      OG2D1     CG2R53     CG3C50      CG321
    4     3     8     9	 9 ;     CG3C51     NG2R53      CG321     CG2R61
    4     3     8    41	 9 ;     CG3C51     NG2R53      CG321       HGA2
    4     3     8    42	 9 ;     CG3C51     NG2R53      CG321       HGA2
    2     3     8     9	 9 ;     CG2R53     NG2R53      CG321     CG2R61
    2     3     8    41	 9 ;     CG2R53     NG2R53      CG321       HGA2
    2     3     8    42	 9 ;     CG2R53     NG2R53      CG321       HGA2
    8     3     4    26	 9 ;      CG321     NG2R53     CG3C51      NG321
    8     3     4     5	 9 ;      CG321     NG2R53     CG3C51     NG3C51
    8     3     4    82	 9 ;      CG321     NG2R53     CG3C51       HGA1
    2     3     4    26	 9 ;     CG2R53     NG2R53     CG3C51      NG321
    2     3     4     5	 9 ;     CG2R53     NG2R53     CG3C51     NG3C51
    2     3     4    82	 9 ;     CG2R53     NG2R53     CG3C51       HGA1
    3     4    26    27	 9 ;     NG2R53     CG3C51      NG321     HGPAM2
    3     4    26    28	 9 ;     NG2R53     CG3C51      NG321     HGPAM2
    5     4    26    27	 9 ;     NG3C51     CG3C51      NG321     HGPAM2
    5     4    26    28	 9 ;     NG3C51     CG3C51      NG321     HGPAM2
   82     4    26    27	 9 ;       HGA1     CG3C51      NG321     HGPAM2
   82     4    26    28	 9 ;       HGA1     CG3C51      NG321     HGPAM2
   26     4     5     7	 9 ;      NG321     CG3C51     NG3C51       HGP1
   26     4     5     6	 9 ;      NG321     CG3C51     NG3C51     CG3C50
    3     4     5     7	 9 ;     NG2R53     CG3C51     NG3C51       HGP1
    3     4     5     6	 9 ;     NG2R53     CG3C51     NG3C51     CG3C50
   82     4     5     7	 9 ;       HGA1     CG3C51     NG3C51       HGP1
   82     4     5     6	 9 ;       HGA1     CG3C51     NG3C51     CG3C50
    4     5     6     2	 9 ;     CG3C51     NG3C51     CG3C50     CG2R53
    4     5     6    29	 9 ;     CG3C51     NG3C51     CG3C50      CG321
    4     5     6    33	 9 ;     CG3C51     NG3C51     CG3C50      CG321
    7     5     6     2	 9 ;       HGP1     NG3C51     CG3C50     CG2R53
    7     5     6    29	 9 ;       HGP1     NG3C51     CG3C50      CG321
    7     5     6    33	 9 ;       HGP1     NG3C51     CG3C50      CG321
    5     6    29    30	 9 ;     NG3C51     CG3C50      CG321      CG311
    5     6    29    58	 9 ;     NG3C51     CG3C50      CG321       HGA2
    5     6    29    59	 9 ;     NG3C51     CG3C50      CG321       HGA2
    2     6    29    30	 9 ;     CG2R53     CG3C50      CG321      CG311
    2     6    29    58	 9 ;     CG2R53     CG3C50      CG321       HGA2
    2     6    29    59	 9 ;     CG2R53     CG3C50      CG321       HGA2
   33     6    29    30	 9 ;      CG321     CG3C50      CG321      CG311
   33     6    29    58	 9 ;      CG321     CG3C50      CG321       HGA2
   33     6    29    59	 9 ;      CG321     CG3C50      CG321       HGA2
    5     6    33    34	 9 ;     NG3C51     CG3C50      CG321      CG321
    5     6    33    67	 9 ;     NG3C51     CG3C50      CG321       HGA2
    5     6    33    68	 9 ;     NG3C51     CG3C50      CG321       HGA2
    2     6    33    34	 9 ;     CG2R53     CG3C50      CG321      CG321
    2     6    33    67	 9 ;     CG2R53     CG3C50      CG321       HGA2
    2     6    33    68	 9 ;     CG2R53     CG3C50      CG321       HGA2
   29     6    33    34	 9 ;      CG321     CG3C50      CG321      CG321
   29     6    33    67	 9 ;      CG321     CG3C50      CG321       HGA2
   29     6    33    68	 9 ;      CG321     CG3C50      CG321       HGA2
    3     8     9    14	 9 ;     NG2R53      CG321     CG2R61     CG2R61
    3     8     9    10	 9 ;     NG2R53      CG321     CG2R61     CG2R61
   41     8     9    14	 9 ;       HGA2      CG321     CG2R61     CG2R61
   41     8     9    10	 9 ;       HGA2      CG321     CG2R61     CG2R61
   42     8     9    14	 9 ;       HGA2      CG321     CG2R61     CG2R61
   42     8     9    10	 9 ;       HGA2      CG321     CG2R61     CG2R61
    8     9    14    13	 9 ;      CG321     CG2R61     CG2R61     CG2R61
    8     9    14    46	 9 ;      CG321     CG2R61     CG2R61      HGR61
   10     9    14    13	 9 ;     CG2R61     CG2R61     CG2R61     CG2R61
   10     9    14    46	 9 ;     CG2R61     CG2R61     CG2R61      HGR61
    8     9    10    11	 9 ;      CG321     CG2R61     CG2R61     CG2R61
    8     9    10    43	 9 ;      CG321     CG2R61     CG2R61      HGR61
   14     9    10    11	 9 ;     CG2R61     CG2R61     CG2R61     CG2R61
   14     9    10    43	 9 ;     CG2R61     CG2R61     CG2R61      HGR61
    9    10    11    12	 9 ;     CG2R61     CG2R61     CG2R61     CG2R61
    9    10    11    44	 9 ;     CG2R61     CG2R61     CG2R61      HGR61
   43    10    11    12	 9 ;      HGR61     CG2R61     CG2R61     CG2R61
   43    10    11    44	 9 ;      HGR61     CG2R61     CG2R61      HGR61
   10    11    12    13	 9 ;     CG2R61     CG2R61     CG2R61     CG2R61
   10    11    12    15	 9 ;     CG2R61     CG2R61     CG2R61      CG321
   44    11    12    13	 9 ;      HGR61     CG2R61     CG2R61     CG2R61
   44    11    12    15	 9 ;      HGR61     CG2R61     CG2R61      CG321
   11    12    13    14	 9 ;     CG2R61     CG2R61     CG2R61     CG2R61
   11    12    13    45	 9 ;     CG2R61     CG2R61     CG2R61      HGR61
   15    12    13    14	 9 ;      CG321     CG2R61     CG2R61     CG2R61
   15    12    13    45	 9 ;      CG321     CG2R61     CG2R61      HGR61
   13    12    15    16	 9 ;     CG2R61     CG2R61      CG321      NG2S1
   13    12    15    47	 9 ;     CG2R61     CG2R61      CG321       HGA2
   13    12    15    48	 9 ;     CG2R61     CG2R61      CG321       HGA2
   11    12    15    16	 9 ;     CG2R61     CG2R61      CG321      NG2S1
   11    12    15    47	 9 ;     CG2R61     CG2R61      CG321       HGA2
   11    12    15    48	 9 ;     CG2R61     CG2R61      CG321       HGA2
   12    13    14     9	 9 ;     CG2R61     CG2R61     CG2R61     CG2R61
   12    13    14    46	 9 ;     CG2R61     CG2R61     CG2R61      HGR61
   45    13    14     9	 9 ;      HGR61     CG2R61     CG2R61     CG2R61
   45    13    14    46	 9 ;      HGR61     CG2R61     CG2R61      HGR61
   12    15    16    17	 9 ;     CG2R61      CG321      NG2S1      CG2O6
   12    15    16    21	 9 ;     CG2R61      CG321      NG2S1       HGP1
   47    15    16    17	 9 ;       HGA2      CG321      NG2S1      CG2O6
   47    15    16    21	 9 ;       HGA2      CG321      NG2S1       HGP1
   48    15    16    17	 9 ;       HGA2      CG321      NG2S1      CG2O6
   48    15    16    21	 9 ;       HGA2      CG321      NG2S1       HGP1
   15    16    17    19	 9 ;      CG321      NG2S1      CG2O6      NG2S1
   15    16    17    18	 9 ;      CG321      NG2S1      CG2O6      OG2D1
   21    16    17    19	 9 ;       HGP1      NG2S1      CG2O6      NG2S1
   21    16    17    18	 9 ;       HGP1      NG2S1      CG2O6      OG2D1
   18    17    19    22	 9 ;      OG2D1      CG2O6      NG2S1      CG321
   18    17    19    20	 9 ;      OG2D1      CG2O6      NG2S1       HGP1
   16    17    19    22	 9 ;      NG2S1      CG2O6      NG2S1      CG321
   16    17    19    20	 9 ;      NG2S1      CG2O6      NG2S1       HGP1
   20    19    22    23	 9 ;       HGP1      NG2S1      CG321      CG321
   20    19    22    49	 9 ;       HGP1      NG2S1      CG321       HGA2
   20    19    22    50	 9 ;       HGP1      NG2S1      CG321       HGA2
   17    19    22    23	 9 ;      CG2O6      NG2S1      CG321      CG321
   17    19    22    49	 9 ;      CG2O6      NG2S1      CG321       HGA2
   17    19    22    50	 9 ;      CG2O6      NG2S1      CG321       HGA2
   19    22    23    24	 9 ;      NG2S1      CG321      CG321      CG321
   19    22    23    51	 9 ;      NG2S1      CG321      CG321       HGA2
   19    22    23    52	 9 ;      NG2S1      CG321      CG321       HGA2
   49    22    23    24	 9 ;       HGA2      CG321      CG321      CG321
   49    22    23    51	 9 ;       HGA2      CG321      CG321       HGA2
   49    22    23    52	 9 ;       HGA2      CG321      CG321       HGA2
   50    22    23    24	 9 ;       HGA2      CG321      CG321      CG321
   50    22    23    51	 9 ;       HGA2      CG321      CG321       HGA2
   50    22    23    52	 9 ;       HGA2      CG321      CG321       HGA2
   22    23    24    25	 9 ;      CG321      CG321      CG321      CG331
   22    23    24    53	 9 ;      CG321      CG321      CG321       HGA2
   22    23    24    54	 9 ;      CG321      CG321      CG321       HGA2
   51    23    24    25	 9 ;       HGA2      CG321      CG321      CG331
   51    23    24    53	 9 ;       HGA2      CG321      CG321       HGA2
   51    23    24    54	 9 ;       HGA2      CG321      CG321       HGA2
   52    23    24    25	 9 ;       HGA2      CG321      CG321      CG331
   52    23    24    53	 9 ;       HGA2      CG321      CG321       HGA2
   52    23    24    54	 9 ;       HGA2      CG321      CG321       HGA2
   23    24    25    55	 9 ;      CG321      CG321      CG331       HGA3
   23    24    25    56	 9 ;      CG321      CG321      CG331       HGA3
   23    24    25    57	 9 ;      CG321      CG321      CG331       HGA3
   53    24    25    55	 9 ;       HGA2      CG321      CG331       HGA3
   53    24    25    56	 9 ;       HGA2      CG321      CG331       HGA3
   53    24    25    57	 9 ;       HGA2      CG321      CG331       HGA3
   54    24    25    55	 9 ;       HGA2      CG321      CG331       HGA3
   54    24    25    56	 9 ;       HGA2      CG321      CG331       HGA3
   54    24    25    57	 9 ;       HGA2      CG321      CG331       HGA3
    6    29    30    31	 9 ;     CG3C50      CG321      CG311      CG331
    6    29    30    32	 9 ;     CG3C50      CG321      CG311      CG331
    6    29    30    60	 9 ;     CG3C50      CG321      CG311       HGA1
   58    29    30    31	 9 ;       HGA2      CG321      CG311      CG331
   58    29    30    32	 9 ;       HGA2      CG321      CG311      CG331
   58    29    30    60	 9 ;       HGA2      CG321      CG311       HGA1
   59    29    30    31	 9 ;       HGA2      CG321      CG311      CG331
   59    29    30    32	 9 ;       HGA2      CG321      CG311      CG331
   59    29    30    60	 9 ;       HGA2      CG321      CG311       HGA1
   29    30    31    61	 9 ;      CG321      CG311      CG331       HGA3
   29    30    31    62	 9 ;      CG321      CG311      CG331       HGA3
   29    30    31    63	 9 ;      CG321      CG311      CG331       HGA3
   32    30    31    61	 9 ;      CG331      CG311      CG331       HGA3
   32    30    31    62	 9 ;      CG331      CG311      CG331       HGA3
   32    30    31    63	 9 ;      CG331      CG311      CG331       HGA3
   60    30    31    61	 9 ;       HGA1      CG311      CG331       HGA3
   60    30    31    62	 9 ;       HGA1      CG311      CG331       HGA3
   60    30    31    63	 9 ;       HGA1      CG311      CG331       HGA3
   31    30    32    64	 9 ;      CG331      CG311      CG331       HGA3
   31    30    32    65	 9 ;      CG331      CG311      CG331       HGA3
   31    30    32    66	 9 ;      CG331      CG311      CG331       HGA3
   29    30    32    64	 9 ;      CG321      CG311      CG331       HGA3
   29    30    32    65	 9 ;      CG321      CG311      CG331       HGA3
   29    30    32    66	 9 ;      CG321      CG311      CG331       HGA3
   60    30    32    64	 9 ;       HGA1      CG311      CG331       HGA3
   60    30    32    65	 9 ;       HGA1      CG311      CG331       HGA3
   60    30    32    66	 9 ;       HGA1      CG311      CG331       HGA3
    6    33    34    35	 9 ;     CG3C50      CG321      CG321      CG311
    6    33    34    69	 9 ;     CG3C50      CG321      CG321       HGA2
    6    33    34    70	 9 ;     CG3C50      CG321      CG321       HGA2
   67    33    34    35	 9 ;       HGA2      CG321      CG321      CG311
   67    33    34    69	 9 ;       HGA2      CG321      CG321       HGA2
   67    33    34    70	 9 ;       HGA2      CG321      CG321       HGA2
   68    33    34    35	 9 ;       HGA2      CG321      CG321      CG311
   68    33    34    69	 9 ;       HGA2      CG321      CG321       HGA2
   68    33    34    70	 9 ;       HGA2      CG321      CG321       HGA2
   33    34    35    40	 9 ;      CG321      CG321      CG311      CG321
   33    34    35    36	 9 ;      CG321      CG321      CG311      CG321
   33    34    35    71	 9 ;      CG321      CG321      CG311       HGA1
   69    34    35    40	 9 ;       HGA2      CG321      CG311      CG321
   69    34    35    36	 9 ;       HGA2      CG321      CG311      CG321
   69    34    35    71	 9 ;       HGA2      CG321      CG311       HGA1
   70    34    35    40	 9 ;       HGA2      CG321      CG311      CG321
   70    34    35    36	 9 ;       HGA2      CG321      CG311      CG321
   70    34    35    71	 9 ;       HGA2      CG321      CG311       HGA1
   34    35    40    39	 9 ;      CG321      CG311      CG321      CG321
   34    35    40    80	 9 ;      CG321      CG311      CG321       HGA2
   34    35    40    81	 9 ;      CG321      CG311      CG321       HGA2
   36    35    40    39	 9 ;      CG321      CG311      CG321      CG321
   36    35    40    80	 9 ;      CG321      CG311      CG321       HGA2
   36    35    40    81	 9 ;      CG321      CG311      CG321       HGA2
   71    35    40    39	 9 ;       HGA1      CG311      CG321      CG321
   71    35    40    80	 9 ;       HGA1      CG311      CG321       HGA2
   71    35    40    81	 9 ;       HGA1      CG311      CG321       HGA2
   34    35    36    37	 9 ;      CG321      CG311      CG321      CG321
   34    35    36    72	 9 ;      CG321      CG311      CG321       HGA2
   34    35    36    73	 9 ;      CG321      CG311      CG321       HGA2
   40    35    36    37	 9 ;      CG321      CG311      CG321      CG321
   40    35    36    72	 9 ;      CG321      CG311      CG321       HGA2
   40    35    36    73	 9 ;      CG321      CG311      CG321       HGA2
   71    35    36    37	 9 ;       HGA1      CG311      CG321      CG321
   71    35    36    72	 9 ;       HGA1      CG311      CG321       HGA2
   71    35    36    73	 9 ;       HGA1      CG311      CG321       HGA2
   35    36    37    38	 9 ;      CG311      CG321      CG321      CG321
   35    36    37    74	 9 ;      CG311      CG321      CG321       HGA2
   35    36    37    75	 9 ;      CG311      CG321      CG321       HGA2
   72    36    37    38	 9 ;       HGA2      CG321      CG321      CG321
   72    36    37    74	 9 ;       HGA2      CG321      CG321       HGA2
   72    36    37    75	 9 ;       HGA2      CG321      CG321       HGA2
   73    36    37    38	 9 ;       HGA2      CG321      CG321      CG321
   73    36    37    74	 9 ;       HGA2      CG321      CG321       HGA2
   73    36    37    75	 9 ;       HGA2      CG321      CG321       HGA2
   36    37    38    39	 9 ;      CG321      CG321      CG321      CG321
   36    37    38    76	 9 ;      CG321      CG321      CG321       HGA2
   36    37    38    77	 9 ;      CG321      CG321      CG321       HGA2
   74    37    38    39	 9 ;       HGA2      CG321      CG321      CG321
   74    37    38    76	 9 ;       HGA2      CG321      CG321       HGA2
   74    37    38    77	 9 ;       HGA2      CG321      CG321       HGA2
   75    37    38    39	 9 ;       HGA2      CG321      CG321      CG321
   75    37    38    76	 9 ;       HGA2      CG321      CG321       HGA2
   75    37    38    77	 9 ;       HGA2      CG321      CG321       HGA2
   37    38    39    40	 9 ;      CG321      CG321      CG321      CG321
   37    38    39    78	 9 ;      CG321      CG321      CG321       HGA2
   37    38    39    79	 9 ;      CG321      CG321      CG321       HGA2
   76    38    39    40	 9 ;       HGA2      CG321      CG321      CG321
   76    38    39    78	 9 ;       HGA2      CG321      CG321       HGA2
   76    38    39    79	 9 ;       HGA2      CG321      CG321       HGA2
   77    38    39    40	 9 ;       HGA2      CG321      CG321      CG321
   77    38    39    78	 9 ;       HGA2      CG321      CG321       HGA2
   77    38    39    79	 9 ;       HGA2      CG321      CG321       HGA2
   38    39    40    35	 9 ;      CG321      CG321      CG321      CG311
   38    39    40    80	 9 ;      CG321      CG321      CG321       HGA2
   38    39    40    81	 9 ;      CG321      CG321      CG321       HGA2
   78    39    40    35	 9 ;       HGA2      CG321      CG321      CG311
   78    39    40    80	 9 ;       HGA2      CG321      CG321       HGA2
   78    39    40    81	 9 ;       HGA2      CG321      CG321       HGA2
   79    39    40    35	 9 ;       HGA2      CG321      CG321      CG311
   79    39    40    80	 9 ;       HGA2      CG321      CG321       HGA2
   79    39    40    81	 9 ;       HGA2      CG321      CG321       HGA2

[ dihedrals ]
;	ai	  aj	ak	  al funct			  c0			c1			  c2			c3
    2     6     3     1	 2
   17    19    16    18	 2

