GRowing Old MAkes el Chrono Sweat
   68
    1LIG     C1    1  -1.249   0.670  -1.499
    1LIG     C2    2  -1.147   0.555  -1.527
    1LIG     C3    3  -1.198   0.411  -1.552
    1LIG     C4    4  -1.229   0.333  -1.424
    1LIG     C5    5  -1.181   0.189  -1.431
    1LIG     C6    6  -1.254   0.093  -1.503
    1LIG     C7    7  -1.215  -0.041  -1.501
    1LIG     F1    8  -1.289  -0.130  -1.568
    1LIG     C8    9  -1.103  -0.082  -1.431
    1LIG     C9   10  -1.028   0.014  -1.363
    1LIG    C10   11  -1.066   0.148  -1.363
    1LIG     F2   12  -0.918  -0.022  -1.296
    1LIG     N1   13  -1.318   0.414  -1.639
    1LIG    C11   14  -1.306   0.405  -1.776
    1LIG     O1   15  -1.196   0.403  -1.831
    1LIG    C12   16  -1.435   0.402  -1.854
    1LIG     H1   17  -1.411   0.413  -1.599
    1LIG     O2   18  -1.054   0.594  -1.629
    1LIG     H2   19  -1.018   0.509  -1.664
    1LIG     N2   20  -1.270   0.779  -1.602
    1LIG     H3   21  -1.280   0.865  -1.546
    1LIG     H4   22  -1.182   0.794  -1.655
    1LIG    C13   23  -1.390   0.784  -1.694
    1LIG    C14   24  -1.362   0.765  -1.842
    1LIG    C15   25  -1.392   0.902  -1.792
    1LIG    C16   26  -1.527   0.752  -1.638
    1LIG    C17   27  -1.602   0.645  -1.686
    1LIG    C18   28  -1.731   0.617  -1.637
    1LIG    C19   29  -1.785   0.704  -1.543
    1LIG     N3   30  -1.718   0.811  -1.496
    1LIG    C20   31  -1.593   0.832  -1.544
    1LIG     HN   32  -1.760   0.874  -1.427
    1LIG    C21   33  -1.802   0.492  -1.679
    1LIG    C22   34  -1.786   0.374  -1.579
    1LIG    C23   35  -1.883   0.390  -1.461
    1LIG    C24   36  -1.819   0.244  -1.655
    1LIG    C25   37  -1.643   0.362  -1.524
    1LIG    HC2   38  -1.216   0.720  -1.408
    1LIG    HC3   39  -1.346   0.625  -1.479
    1LIG     HC   40  -1.087   0.548  -1.436
    1LIG    HC1   41  -1.120   0.357  -1.606
    1LIG    HC4   42  -1.337   0.333  -1.409
    1LIG    HC5   43  -1.181   0.382  -1.340
    1LIG    HC6   44  -1.341   0.123  -1.559
    1LIG    HC7   45  -1.074  -0.186  -1.428
    1LIG    HC8   46  -1.006   0.221  -1.311
    1LIG    HC9   47  -1.429   0.327  -1.932
    1LIG   HC10   48  -1.452   0.500  -1.899
    1LIG   HC11   49  -1.517   0.378  -1.786
    1LIG   HC12   50  -1.262   0.741  -1.876
    1LIG   HC13   51  -1.443   0.718  -1.898
    1LIG   HC14   52  -1.313   0.977  -1.788
    1LIG   HC15   53  -1.491   0.940  -1.816
    1LIG   HC16   54  -1.561   0.582  -1.763
    1LIG   HC17   55  -1.884   0.685  -1.506
    1LIG   HC18   56  -1.540   0.918  -1.506
    1LIG   HC19   57  -1.908   0.515  -1.690
    1LIG   HC20   58  -1.763   0.461  -1.776
    1LIG   HC21   59  -1.985   0.398  -1.499
    1LIG   HC22   60  -1.876   0.302  -1.396
    1LIG   HC23   61  -1.858   0.479  -1.404
    1LIG   HC24   62  -1.809   0.159  -1.588
    1LIG   HC25   63  -1.921   0.249  -1.693
    1LIG   HC26   64  -1.750   0.233  -1.739
    1LIG   HC27   65  -1.617   0.453  -1.470
    1LIG   HC28   66  -1.573   0.348  -1.607
    1LIG   HC29   67  -1.637   0.276  -1.457
    1LIG    H36   68  -1.826   0.765  -1.623
   0.00000   0.00000   0.00000
