; Created by cgenff_charmm2gmx.py

[ moleculetype ]
; Name			   nrexcl
LIG				 3

[ atoms ]
;	 nr		  type	resnr residue  atom   cgnr	   charge		mass  typeB    chargeB		massB
; residue	 1 LIG rtp LIG q	qsum
     1      CG324      1    LIG     C1      1      0.186     12.011   ;
     2      CG311      1    LIG     C2      2      0.093     12.011   ;
     3      CG311      1    LIG     C3      3     -0.007     12.011   ;
     4      CG321      1    LIG     C4      4     -0.153     12.011   ;
     5     CG2R61      1    LIG     C5      5      0.057     12.011   ;
     6     CG2R61      1    LIG     C6      6     -0.218     12.011   ;
     7     CG2R66      1    LIG     C7      7      0.261     12.011   ;
     8       FGR1      1    LIG     F1      8     -0.210     18.998   ;
     9     CG2R61      1    LIG     C8      9     -0.240     12.011   ;
    10     CG2R66      1    LIG     C9     10      0.261     12.011   ;
    11     CG2R61      1    LIG    C10     11     -0.218     12.011   ;
    12       FGR1      1    LIG     F2     12     -0.210     18.998   ;
    13      NG2S1      1    LIG     N1     13     -0.339     14.007   ;
    14      CG2O1      1    LIG    C11     14      0.488     12.011   ;
    15      OG2D1      1    LIG     O1     15     -0.509     15.999   ;
    16      CG331      1    LIG    C12     16     -0.270     12.011   ;
    17       HGP1      1    LIG     H1     17      0.261      1.008   ;
    18      OG311      1    LIG     O2     18     -0.625     15.999   ;
    19       HGP1      1    LIG     H2     19      0.415      1.008   ;
    20      NG3P2      1    LIG     N2     20     -0.485     14.007   ;
    21       HGP2      1    LIG     H3     21      0.343      1.008   ;
    22       HGP2      1    LIG     H4     22      0.343      1.008   ;
    23     CG3C31      1    LIG    C13     23      0.533     12.011   ;
    24     CG3C31      1    LIG    C14     24     -0.154     12.011   ;
    25     CG3C31      1    LIG    C15     25     -0.154     12.011   ;
    26     CG2DC1      1    LIG    C16     26     -0.075     12.011   ;
    27     CG2DC2      1    LIG    C17     27     -0.279     12.011   ;
    28     CG2DC2      1    LIG    C18     28      0.008     12.011   ;
    29      CG321      1    LIG    C19     29     -0.094     12.011   ;
    30      NG311      1    LIG     N3     30     -0.535     14.007   ;
    31     CG2D1O      1    LIG    C20     31     -0.051     12.011   ;
    32     HGPAM1      1    LIG     HN     32      0.389      1.008   ;
    33      CG321      1    LIG    C21     33     -0.126     12.011   ;
    34      CG301      1    LIG    C22     34     -0.267     12.011   ;
    35      CG331      1    LIG    C23     35     -0.197     12.011   ;
    36      CG331      1    LIG    C24     36     -0.197     12.011   ;
    37      CG331      1    LIG    C25     37     -0.197     12.011   ;
    38       HGA2      1    LIG    HC2     38      0.090      1.008   ;
    39       HGA2      1    LIG    HC3     39      0.090      1.008   ;
    40       HGA1      1    LIG     HC     40      0.090      1.008   ;
    41       HGA1      1    LIG    HC1     41      0.090      1.008   ;
    42       HGA2      1    LIG    HC4     42      0.090      1.008   ;
    43       HGA2      1    LIG    HC5     43      0.090      1.008   ;
    44      HGR62      1    LIG    HC6     44      0.174      1.008   ;
    45      HGR62      1    LIG    HC7     45      0.186      1.008   ;
    46      HGR62      1    LIG    HC8     46      0.174      1.008   ;
    47       HGA3      1    LIG    HC9     47      0.090      1.008   ;
    48       HGA3      1    LIG   HC10     48      0.090      1.008   ;
    49       HGA3      1    LIG   HC11     49      0.090      1.008   ;
    50       HGA2      1    LIG   HC12     50      0.090      1.008   ;
    51       HGA2      1    LIG   HC13     51      0.090      1.008   ;
    52       HGA2      1    LIG   HC14     52      0.090      1.008   ;
    53       HGA2      1    LIG   HC15     53      0.090      1.008   ;
    54       HGA4      1    LIG   HC16     54      0.150      1.008   ;
    55       HGA2      1    LIG   HC17     55      0.090      1.008   ;
    56       HGA4      1    LIG   HC18     56      0.148      1.008   ;
    57       HGA2      1    LIG   HC19     57      0.090      1.008   ;
    58       HGA2      1    LIG   HC20     58      0.090      1.008   ;
    59       HGA3      1    LIG   HC21     59      0.090      1.008   ;
    60       HGA3      1    LIG   HC22     60      0.090      1.008   ;
    61       HGA3      1    LIG   HC23     61      0.090      1.008   ;
    62       HGA3      1    LIG   HC24     62      0.090      1.008   ;
    63       HGA3      1    LIG   HC25     63      0.090      1.008   ;
    64       HGA3      1    LIG   HC26     64      0.090      1.008   ;
    65       HGA3      1    LIG   HC27     65      0.090      1.008   ;
    66       HGA3      1    LIG   HC28     66      0.090      1.008   ;
    67       HGA3      1    LIG   HC29     67      0.090      1.008   ;
    68       HGA2      1    LIG    H36     68      0.090      1.008   ;

[ bonds ]
;	ai	  aj funct			  c0			c1			  c2			c3
    1     2	 1 ;       CG324      CG311
    1    20	 1 ;       CG324      NG3P2
    1    38	 1 ;       CG324       HGA2
    1    39	 1 ;       CG324       HGA2
    2    18	 1 ;       CG311      OG311
    2     3	 1 ;       CG311      CG311
    2    40	 1 ;       CG311       HGA1
    3    13	 1 ;       CG311      NG2S1
    3     4	 1 ;       CG311      CG321
    3    41	 1 ;       CG311       HGA1
    4     5	 1 ;       CG321     CG2R61
    4    42	 1 ;       CG321       HGA2
    4    43	 1 ;       CG321       HGA2
    5    11	 1 ;      CG2R61     CG2R61
    5     6	 1 ;      CG2R61     CG2R61
    6     7	 1 ;      CG2R61     CG2R66
    6    44	 1 ;      CG2R61      HGR62
    7     9	 1 ;      CG2R66     CG2R61
    7     8	 1 ;      CG2R66       FGR1
    9    10	 1 ;      CG2R61     CG2R66
    9    45	 1 ;      CG2R61      HGR62
   10    12	 1 ;      CG2R66       FGR1
   10    11	 1 ;      CG2R66     CG2R61
   11    46	 1 ;      CG2R61      HGR62
   13    14	 1 ;       NG2S1      CG2O1
   13    17	 1 ;       NG2S1       HGP1
   14    15	 1 ;       CG2O1      OG2D1
   14    16	 1 ;       CG2O1      CG331
   16    47	 1 ;       CG331       HGA3
   16    48	 1 ;       CG331       HGA3
   16    49	 1 ;       CG331       HGA3
   18    19	 1 ;       OG311       HGP1
   20    22	 1 ;       NG3P2       HGP2
   20    21	 1 ;       NG3P2       HGP2
   20    23	 1 ;       NG3P2     CG3C31
   23    24	 1 ;      CG3C31     CG3C31
   23    25	 1 ;      CG3C31     CG3C31
   23    26	 1 ;      CG3C31     CG2DC1
   24    25	 1 ;      CG3C31     CG3C31
   24    50	 1 ;      CG3C31       HGA2
   24    51	 1 ;      CG3C31       HGA2
   25    52	 1 ;      CG3C31       HGA2
   25    53	 1 ;      CG3C31       HGA2
   26    27	 1 ;      CG2DC1     CG2DC2
   26    31	 1 ;      CG2DC1     CG2D1O
   27    28	 1 ;      CG2DC2     CG2DC2
   27    54	 1 ;      CG2DC2       HGA4
   28    33	 1 ;      CG2DC2      CG321
   28    29	 1 ;      CG2DC2      CG321
   29    30	 1 ;       CG321      NG311
   29    55	 1 ;       CG321       HGA2
   29    68	 1 ;       CG321       HGA2
   30    31	 1 ;       NG311     CG2D1O
   30    32	 1 ;       NG311     HGPAM1
   31    56	 1 ;      CG2D1O       HGA4
   33    34	 1 ;       CG321      CG301
   33    57	 1 ;       CG321       HGA2
   33    58	 1 ;       CG321       HGA2
   34    37	 1 ;       CG301      CG331
   34    36	 1 ;       CG301      CG331
   34    35	 1 ;       CG301      CG331
   35    59	 1 ;       CG331       HGA3
   35    60	 1 ;       CG331       HGA3
   35    61	 1 ;       CG331       HGA3
   36    62	 1 ;       CG331       HGA3
   36    63	 1 ;       CG331       HGA3
   36    64	 1 ;       CG331       HGA3
   37    65	 1 ;       CG331       HGA3
   37    66	 1 ;       CG331       HGA3
   37    67	 1 ;       CG331       HGA3

[ pairs ]
;	ai	  aj funct			  c0			c1			  c2			c3
    1    19	 1
    1    13	 1
    1     4	 1
    1    41	 1
    1    24	 1
    1    25	 1
    1    26	 1
    2    22	 1
    2    21	 1
    2    23	 1
    2    14	 1
    2    17	 1
    2     5	 1
    2    42	 1
    2    43	 1
    3    20	 1
    3    38	 1
    3    39	 1
    3    19	 1
    3    11	 1
    3     6	 1
    3    15	 1
    3    16	 1
    4    18	 1
    4    40	 1
    4    14	 1
    4    17	 1
    4    10	 1
    4    46	 1
    4     7	 1
    4    44	 1
    5    13	 1
    5    41	 1
    5     9	 1
    5     8	 1
    5    12	 1
    6    42	 1
    6    43	 1
    6    10	 1
    6    46	 1
    6    45	 1
    7    11	 1
    7    12	 1
    8    44	 1
    8    10	 1
    8    45	 1
    9    44	 1
    9    46	 1
   11    42	 1
   11    43	 1
   11    44	 1
   11    45	 1
   12    45	 1
   12    46	 1
   13    18	 1
   13    40	 1
   13    42	 1
   13    43	 1
   13    47	 1
   13    48	 1
   13    49	 1
   14    41	 1
   15    17	 1
   15    47	 1
   15    48	 1
   15    49	 1
   16    17	 1
   17    41	 1
   18    20	 1
   18    38	 1
   18    39	 1
   18    41	 1
   19    40	 1
   20    40	 1
   20    50	 1
   20    51	 1
   20    52	 1
   20    53	 1
   20    27	 1
   20    31	 1
   21    38	 1
   21    39	 1
   21    24	 1
   21    25	 1
   21    26	 1
   22    38	 1
   22    39	 1
   22    24	 1
   22    25	 1
   22    26	 1
   23    38	 1
   23    39	 1
   23    28	 1
   23    54	 1
   23    30	 1
   23    56	 1
   24    27	 1
   24    31	 1
   25    27	 1
   25    31	 1
   26    50	 1
   26    51	 1
   26    52	 1
   26    53	 1
   26    33	 1
   26    29	 1
   26    32	 1
   27    30	 1
   27    56	 1
   27    34	 1
   27    57	 1
   27    58	 1
   27    55	 1
   27    68	 1
   28    31	 1
   28    32	 1
   28    37	 1
   28    36	 1
   28    35	 1
   29    54	 1
   29    34	 1
   29    57	 1
   29    58	 1
   29    56	 1
   30    33	 1
   31    54	 1
   31    55	 1
   31    68	 1
   32    55	 1
   32    68	 1
   32    56	 1
   33    54	 1
   33    55	 1
   33    68	 1
   33    65	 1
   33    66	 1
   33    67	 1
   33    62	 1
   33    63	 1
   33    64	 1
   33    59	 1
   33    60	 1
   33    61	 1
   35    57	 1
   35    58	 1
   35    65	 1
   35    66	 1
   35    67	 1
   35    62	 1
   35    63	 1
   35    64	 1
   36    57	 1
   36    58	 1
   36    65	 1
   36    66	 1
   36    67	 1
   36    59	 1
   36    60	 1
   36    61	 1
   37    57	 1
   37    58	 1
   37    62	 1
   37    63	 1
   37    64	 1
   37    59	 1
   37    60	 1
   37    61	 1
   38    40	 1
   39    40	 1
   40    41	 1
   41    42	 1
   41    43	 1
   50    52	 1
   50    53	 1
   51    52	 1
   51    53	 1

[ angles ]
;	ai	  aj	ak funct			c0			  c1			c2			  c3
    2     1    20	5 ;      CG311      CG324      NG3P2
    2     1    38	5 ;      CG311      CG324       HGA2
    2     1    39	5 ;      CG311      CG324       HGA2
   20     1    38	5 ;      NG3P2      CG324       HGA2
   20     1    39	5 ;      NG3P2      CG324       HGA2
   38     1    39	5 ;       HGA2      CG324       HGA2
   18     2     3	5 ;      OG311      CG311      CG311
   18     2     1	5 ;      OG311      CG311      CG324
   18     2    40	5 ;      OG311      CG311       HGA1
    3     2     1	5 ;      CG311      CG311      CG324
    3     2    40	5 ;      CG311      CG311       HGA1
    1     2    40	5 ;      CG324      CG311       HGA1
    2     3    13	5 ;      CG311      CG311      NG2S1
    2     3     4	5 ;      CG311      CG311      CG321
    2     3    41	5 ;      CG311      CG311       HGA1
   13     3     4	5 ;      NG2S1      CG311      CG321
   13     3    41	5 ;      NG2S1      CG311       HGA1
    4     3    41	5 ;      CG321      CG311       HGA1
    3     4     5	5 ;      CG311      CG321     CG2R61
    3     4    42	5 ;      CG311      CG321       HGA2
    3     4    43	5 ;      CG311      CG321       HGA2
    5     4    42	5 ;     CG2R61      CG321       HGA2
    5     4    43	5 ;     CG2R61      CG321       HGA2
   42     4    43	5 ;       HGA2      CG321       HGA2
   11     5     4	5 ;     CG2R61     CG2R61      CG321
   11     5     6	5 ;     CG2R61     CG2R61     CG2R61
    4     5     6	5 ;      CG321     CG2R61     CG2R61
    5     6     7	5 ;     CG2R61     CG2R61     CG2R66
    5     6    44	5 ;     CG2R61     CG2R61      HGR62
    7     6    44	5 ;     CG2R66     CG2R61      HGR62
    9     7     6	5 ;     CG2R61     CG2R66     CG2R61
    9     7     8	5 ;     CG2R61     CG2R66       FGR1
    6     7     8	5 ;     CG2R61     CG2R66       FGR1
   10     9     7	5 ;     CG2R66     CG2R61     CG2R66
   10     9    45	5 ;     CG2R66     CG2R61      HGR62
    7     9    45	5 ;     CG2R66     CG2R61      HGR62
   12    10    11	5 ;       FGR1     CG2R66     CG2R61
   12    10     9	5 ;       FGR1     CG2R66     CG2R61
   11    10     9	5 ;     CG2R61     CG2R66     CG2R61
   10    11     5	5 ;     CG2R66     CG2R61     CG2R61
   10    11    46	5 ;     CG2R66     CG2R61      HGR62
    5    11    46	5 ;     CG2R61     CG2R61      HGR62
   14    13     3	5 ;      CG2O1      NG2S1      CG311
   14    13    17	5 ;      CG2O1      NG2S1       HGP1
    3    13    17	5 ;      CG311      NG2S1       HGP1
   15    14    16	5 ;      OG2D1      CG2O1      CG331
   15    14    13	5 ;      OG2D1      CG2O1      NG2S1
   16    14    13	5 ;      CG331      CG2O1      NG2S1
   14    16    47	5 ;      CG2O1      CG331       HGA3
   14    16    48	5 ;      CG2O1      CG331       HGA3
   14    16    49	5 ;      CG2O1      CG331       HGA3
   47    16    48	5 ;       HGA3      CG331       HGA3
   47    16    49	5 ;       HGA3      CG331       HGA3
   48    16    49	5 ;       HGA3      CG331       HGA3
   19    18     2	5 ;       HGP1      OG311      CG311
   22    20    21	5 ;       HGP2      NG3P2       HGP2
   22    20    23	5 ;       HGP2      NG3P2     CG3C31
   22    20     1	5 ;       HGP2      NG3P2      CG324
   21    20    23	5 ;       HGP2      NG3P2     CG3C31
   21    20     1	5 ;       HGP2      NG3P2      CG324
   23    20     1	5 ;     CG3C31      NG3P2      CG324
   24    23    25	5 ;     CG3C31     CG3C31     CG3C31
   24    23    20	5 ;     CG3C31     CG3C31      NG3P2
   24    23    26	5 ;     CG3C31     CG3C31     CG2DC1
   25    23    20	5 ;     CG3C31     CG3C31      NG3P2
   25    23    26	5 ;     CG3C31     CG3C31     CG2DC1
   20    23    26	5 ;      NG3P2     CG3C31     CG2DC1
   25    24    23	5 ;     CG3C31     CG3C31     CG3C31
   25    24    50	5 ;     CG3C31     CG3C31       HGA2
   25    24    51	5 ;     CG3C31     CG3C31       HGA2
   23    24    50	5 ;     CG3C31     CG3C31       HGA2
   23    24    51	5 ;     CG3C31     CG3C31       HGA2
   50    24    51	5 ;       HGA2     CG3C31       HGA2
   24    25    23	5 ;     CG3C31     CG3C31     CG3C31
   24    25    52	5 ;     CG3C31     CG3C31       HGA2
   24    25    53	5 ;     CG3C31     CG3C31       HGA2
   23    25    52	5 ;     CG3C31     CG3C31       HGA2
   23    25    53	5 ;     CG3C31     CG3C31       HGA2
   52    25    53	5 ;       HGA2     CG3C31       HGA2
   23    26    27	5 ;     CG3C31     CG2DC1     CG2DC2
   23    26    31	5 ;     CG3C31     CG2DC1     CG2D1O
   27    26    31	5 ;     CG2DC2     CG2DC1     CG2D1O
   26    27    28	5 ;     CG2DC1     CG2DC2     CG2DC2
   26    27    54	5 ;     CG2DC1     CG2DC2       HGA4
   28    27    54	5 ;     CG2DC2     CG2DC2       HGA4
   27    28    33	5 ;     CG2DC2     CG2DC2      CG321
   27    28    29	5 ;     CG2DC2     CG2DC2      CG321
   33    28    29	5 ;      CG321     CG2DC2      CG321
   28    29    30	5 ;     CG2DC2      CG321      NG311
   28    29    55	5 ;     CG2DC2      CG321       HGA2
   28    29    68	5 ;     CG2DC2      CG321       HGA2
   30    29    55	5 ;      NG311      CG321       HGA2
   30    29    68	5 ;      NG311      CG321       HGA2
   55    29    68	5 ;       HGA2      CG321       HGA2
   31    30    29	5 ;     CG2D1O      NG311      CG321
   31    30    32	5 ;     CG2D1O      NG311     HGPAM1
   29    30    32	5 ;      CG321      NG311     HGPAM1
   26    31    30	5 ;     CG2DC1     CG2D1O      NG311
   26    31    56	5 ;     CG2DC1     CG2D1O       HGA4
   30    31    56	5 ;      NG311     CG2D1O       HGA4
   28    33    34	5 ;     CG2DC2      CG321      CG301
   28    33    57	5 ;     CG2DC2      CG321       HGA2
   28    33    58	5 ;     CG2DC2      CG321       HGA2
   34    33    57	5 ;      CG301      CG321       HGA2
   34    33    58	5 ;      CG301      CG321       HGA2
   57    33    58	5 ;       HGA2      CG321       HGA2
   37    34    33	5 ;      CG331      CG301      CG321
   37    34    36	5 ;      CG331      CG301      CG331
   37    34    35	5 ;      CG331      CG301      CG331
   33    34    36	5 ;      CG321      CG301      CG331
   33    34    35	5 ;      CG321      CG301      CG331
   36    34    35	5 ;      CG331      CG301      CG331
   34    35    59	5 ;      CG301      CG331       HGA3
   34    35    60	5 ;      CG301      CG331       HGA3
   34    35    61	5 ;      CG301      CG331       HGA3
   59    35    60	5 ;       HGA3      CG331       HGA3
   59    35    61	5 ;       HGA3      CG331       HGA3
   60    35    61	5 ;       HGA3      CG331       HGA3
   34    36    62	5 ;      CG301      CG331       HGA3
   34    36    63	5 ;      CG301      CG331       HGA3
   34    36    64	5 ;      CG301      CG331       HGA3
   62    36    63	5 ;       HGA3      CG331       HGA3
   62    36    64	5 ;       HGA3      CG331       HGA3
   63    36    64	5 ;       HGA3      CG331       HGA3
   34    37    65	5 ;      CG301      CG331       HGA3
   34    37    66	5 ;      CG301      CG331       HGA3
   34    37    67	5 ;      CG301      CG331       HGA3
   65    37    66	5 ;       HGA3      CG331       HGA3
   65    37    67	5 ;       HGA3      CG331       HGA3
   66    37    67	5 ;       HGA3      CG331       HGA3

[ dihedrals ]
;	ai	  aj	ak	  al funct			  c0			c1			  c2			c3			  c4			c5
   20     1     2    18	 9 ;      NG3P2      CG324      CG311      OG311
   20     1     2     3	 9 ;      NG3P2      CG324      CG311      CG311
   20     1     2    40	 9 ;      NG3P2      CG324      CG311       HGA1
   38     1     2    18	 9 ;       HGA2      CG324      CG311      OG311
   38     1     2     3	 9 ;       HGA2      CG324      CG311      CG311
   38     1     2    40	 9 ;       HGA2      CG324      CG311       HGA1
   39     1     2    18	 9 ;       HGA2      CG324      CG311      OG311
   39     1     2     3	 9 ;       HGA2      CG324      CG311      CG311
   39     1     2    40	 9 ;       HGA2      CG324      CG311       HGA1
    2     1    20    22	 9 ;      CG311      CG324      NG3P2       HGP2
    2     1    20    21	 9 ;      CG311      CG324      NG3P2       HGP2
    2     1    20    23	 9 ;      CG311      CG324      NG3P2     CG3C31
   38     1    20    22	 9 ;       HGA2      CG324      NG3P2       HGP2
   38     1    20    21	 9 ;       HGA2      CG324      NG3P2       HGP2
   38     1    20    23	 9 ;       HGA2      CG324      NG3P2     CG3C31
   39     1    20    22	 9 ;       HGA2      CG324      NG3P2       HGP2
   39     1    20    21	 9 ;       HGA2      CG324      NG3P2       HGP2
   39     1    20    23	 9 ;       HGA2      CG324      NG3P2     CG3C31
    3     2    18    19	 9 ;      CG311      CG311      OG311       HGP1
    1     2    18    19	 9 ;      CG324      CG311      OG311       HGP1
   40     2    18    19	 9 ;       HGA1      CG311      OG311       HGP1
   18     2     3    13	 9 ;      OG311      CG311      CG311      NG2S1
   18     2     3     4	 9 ;      OG311      CG311      CG311      CG321
   18     2     3    41	 9 ;      OG311      CG311      CG311       HGA1
    1     2     3    13	 9 ;      CG324      CG311      CG311      NG2S1
    1     2     3     4	 9 ;      CG324      CG311      CG311      CG321
    1     2     3    41	 9 ;      CG324      CG311      CG311       HGA1
   40     2     3    13	 9 ;       HGA1      CG311      CG311      NG2S1
   40     2     3     4	 9 ;       HGA1      CG311      CG311      CG321
   40     2     3    41	 9 ;       HGA1      CG311      CG311       HGA1
    2     3    13    14	 9 ;      CG311      CG311      NG2S1      CG2O1
    2     3    13    17	 9 ;      CG311      CG311      NG2S1       HGP1
    4     3    13    14	 9 ;      CG321      CG311      NG2S1      CG2O1
    4     3    13    17	 9 ;      CG321      CG311      NG2S1       HGP1
   41     3    13    14	 9 ;       HGA1      CG311      NG2S1      CG2O1
   41     3    13    17	 9 ;       HGA1      CG311      NG2S1       HGP1
    2     3     4     5	 9 ;      CG311      CG311      CG321     CG2R61
    2     3     4    42	 9 ;      CG311      CG311      CG321       HGA2
    2     3     4    43	 9 ;      CG311      CG311      CG321       HGA2
   13     3     4     5	 9 ;      NG2S1      CG311      CG321     CG2R61
   13     3     4    42	 9 ;      NG2S1      CG311      CG321       HGA2
   13     3     4    43	 9 ;      NG2S1      CG311      CG321       HGA2
   41     3     4     5	 9 ;       HGA1      CG311      CG321     CG2R61
   41     3     4    42	 9 ;       HGA1      CG311      CG321       HGA2
   41     3     4    43	 9 ;       HGA1      CG311      CG321       HGA2
    3     4     5    11	 9 ;      CG311      CG321     CG2R61     CG2R61
    3     4     5     6	 9 ;      CG311      CG321     CG2R61     CG2R61
   42     4     5    11	 9 ;       HGA2      CG321     CG2R61     CG2R61
   42     4     5     6	 9 ;       HGA2      CG321     CG2R61     CG2R61
   43     4     5    11	 9 ;       HGA2      CG321     CG2R61     CG2R61
   43     4     5     6	 9 ;       HGA2      CG321     CG2R61     CG2R61
    4     5    11    10	 9 ;      CG321     CG2R61     CG2R61     CG2R66
    4     5    11    46	 9 ;      CG321     CG2R61     CG2R61      HGR62
    6     5    11    10	 9 ;     CG2R61     CG2R61     CG2R61     CG2R66
    6     5    11    46	 9 ;     CG2R61     CG2R61     CG2R61      HGR62
   11     5     6     7	 9 ;     CG2R61     CG2R61     CG2R61     CG2R66
   11     5     6    44	 9 ;     CG2R61     CG2R61     CG2R61      HGR62
    4     5     6     7	 9 ;      CG321     CG2R61     CG2R61     CG2R66
    4     5     6    44	 9 ;      CG321     CG2R61     CG2R61      HGR62
    5     6     7     9	 9 ;     CG2R61     CG2R61     CG2R66     CG2R61
    5     6     7     8	 9 ;     CG2R61     CG2R61     CG2R66       FGR1
   44     6     7     9	 9 ;      HGR62     CG2R61     CG2R66     CG2R61
   44     6     7     8	 9 ;      HGR62     CG2R61     CG2R66       FGR1
    6     7     9    10	 9 ;     CG2R61     CG2R66     CG2R61     CG2R66
    6     7     9    45	 9 ;     CG2R61     CG2R66     CG2R61      HGR62
    8     7     9    10	 9 ;       FGR1     CG2R66     CG2R61     CG2R66
    8     7     9    45	 9 ;       FGR1     CG2R66     CG2R61      HGR62
    7     9    10    12	 9 ;     CG2R66     CG2R61     CG2R66       FGR1
    7     9    10    11	 9 ;     CG2R66     CG2R61     CG2R66     CG2R61
   45     9    10    12	 9 ;      HGR62     CG2R61     CG2R66       FGR1
   45     9    10    11	 9 ;      HGR62     CG2R61     CG2R66     CG2R61
   12    10    11     5	 9 ;       FGR1     CG2R66     CG2R61     CG2R61
   12    10    11    46	 9 ;       FGR1     CG2R66     CG2R61      HGR62
    9    10    11     5	 9 ;     CG2R61     CG2R66     CG2R61     CG2R61
    9    10    11    46	 9 ;     CG2R61     CG2R66     CG2R61      HGR62
    3    13    14    15	 9 ;      CG311      NG2S1      CG2O1      OG2D1
    3    13    14    16	 9 ;      CG311      NG2S1      CG2O1      CG331
   17    13    14    15	 9 ;       HGP1      NG2S1      CG2O1      OG2D1
   17    13    14    16	 9 ;       HGP1      NG2S1      CG2O1      CG331
   15    14    16    47	 9 ;      OG2D1      CG2O1      CG331       HGA3
   15    14    16    48	 9 ;      OG2D1      CG2O1      CG331       HGA3
   15    14    16    49	 9 ;      OG2D1      CG2O1      CG331       HGA3
   13    14    16    47	 9 ;      NG2S1      CG2O1      CG331       HGA3
   13    14    16    48	 9 ;      NG2S1      CG2O1      CG331       HGA3
   13    14    16    49	 9 ;      NG2S1      CG2O1      CG331       HGA3
   22    20    23    24	 9 ;       HGP2      NG3P2     CG3C31     CG3C31
   22    20    23    25	 9 ;       HGP2      NG3P2     CG3C31     CG3C31
   22    20    23    26	 9 ;       HGP2      NG3P2     CG3C31     CG2DC1
   21    20    23    24	 9 ;       HGP2      NG3P2     CG3C31     CG3C31
   21    20    23    25	 9 ;       HGP2      NG3P2     CG3C31     CG3C31
   21    20    23    26	 9 ;       HGP2      NG3P2     CG3C31     CG2DC1
    1    20    23    24	 9 ;      CG324      NG3P2     CG3C31     CG3C31
    1    20    23    25	 9 ;      CG324      NG3P2     CG3C31     CG3C31
    1    20    23    26	 9 ;      CG324      NG3P2     CG3C31     CG2DC1
   25    23    24    50	 9 ;     CG3C31     CG3C31     CG3C31       HGA2
   25    23    24    51	 9 ;     CG3C31     CG3C31     CG3C31       HGA2
   20    23    24    25	 9 ;      NG3P2     CG3C31     CG3C31     CG3C31
   20    23    24    50	 9 ;      NG3P2     CG3C31     CG3C31       HGA2
   20    23    24    51	 9 ;      NG3P2     CG3C31     CG3C31       HGA2
   26    23    24    25	 9 ;     CG2DC1     CG3C31     CG3C31     CG3C31
   26    23    24    50	 9 ;     CG2DC1     CG3C31     CG3C31       HGA2
   26    23    24    51	 9 ;     CG2DC1     CG3C31     CG3C31       HGA2
   24    23    25    52	 9 ;     CG3C31     CG3C31     CG3C31       HGA2
   24    23    25    53	 9 ;     CG3C31     CG3C31     CG3C31       HGA2
   20    23    25    24	 9 ;      NG3P2     CG3C31     CG3C31     CG3C31
   20    23    25    52	 9 ;      NG3P2     CG3C31     CG3C31       HGA2
   20    23    25    53	 9 ;      NG3P2     CG3C31     CG3C31       HGA2
   26    23    25    24	 9 ;     CG2DC1     CG3C31     CG3C31     CG3C31
   26    23    25    52	 9 ;     CG2DC1     CG3C31     CG3C31       HGA2
   26    23    25    53	 9 ;     CG2DC1     CG3C31     CG3C31       HGA2
   24    23    26    27	 9 ;     CG3C31     CG3C31     CG2DC1     CG2DC2
   24    23    26    31	 9 ;     CG3C31     CG3C31     CG2DC1     CG2D1O
   25    23    26    27	 9 ;     CG3C31     CG3C31     CG2DC1     CG2DC2
   25    23    26    31	 9 ;     CG3C31     CG3C31     CG2DC1     CG2D1O
   20    23    26    27	 9 ;      NG3P2     CG3C31     CG2DC1     CG2DC2
   20    23    26    31	 9 ;      NG3P2     CG3C31     CG2DC1     CG2D1O
   23    24    25    52	 9 ;     CG3C31     CG3C31     CG3C31       HGA2
   23    24    25    53	 9 ;     CG3C31     CG3C31     CG3C31       HGA2
   50    24    25    23	 9 ;       HGA2     CG3C31     CG3C31     CG3C31
   50    24    25    52	 9 ;       HGA2     CG3C31     CG3C31       HGA2
   50    24    25    53	 9 ;       HGA2     CG3C31     CG3C31       HGA2
   51    24    25    23	 9 ;       HGA2     CG3C31     CG3C31     CG3C31
   51    24    25    52	 9 ;       HGA2     CG3C31     CG3C31       HGA2
   51    24    25    53	 9 ;       HGA2     CG3C31     CG3C31       HGA2
   23    26    27    28	 9 ;     CG3C31     CG2DC1     CG2DC2     CG2DC2
   23    26    27    54	 9 ;     CG3C31     CG2DC1     CG2DC2       HGA4
   31    26    27    28	 9 ;     CG2D1O     CG2DC1     CG2DC2     CG2DC2
   31    26    27    54	 9 ;     CG2D1O     CG2DC1     CG2DC2       HGA4
   23    26    31    30	 9 ;     CG3C31     CG2DC1     CG2D1O      NG311
   23    26    31    56	 9 ;     CG3C31     CG2DC1     CG2D1O       HGA4
   27    26    31    30	 9 ;     CG2DC2     CG2DC1     CG2D1O      NG311
   27    26    31    56	 9 ;     CG2DC2     CG2DC1     CG2D1O       HGA4
   26    27    28    33	 9 ;     CG2DC1     CG2DC2     CG2DC2      CG321
   26    27    28    29	 9 ;     CG2DC1     CG2DC2     CG2DC2      CG321
   54    27    28    33	 9 ;       HGA4     CG2DC2     CG2DC2      CG321
   54    27    28    29	 9 ;       HGA4     CG2DC2     CG2DC2      CG321
   27    28    33    34	 9 ;     CG2DC2     CG2DC2      CG321      CG301
   27    28    33    57	 9 ;     CG2DC2     CG2DC2      CG321       HGA2
   27    28    33    58	 9 ;     CG2DC2     CG2DC2      CG321       HGA2
   29    28    33    34	 9 ;      CG321     CG2DC2      CG321      CG301
   29    28    33    57	 9 ;      CG321     CG2DC2      CG321       HGA2
   29    28    33    58	 9 ;      CG321     CG2DC2      CG321       HGA2
   27    28    29    30	 9 ;     CG2DC2     CG2DC2      CG321      NG311
   27    28    29    55	 9 ;     CG2DC2     CG2DC2      CG321       HGA2
   27    28    29    68	 9 ;     CG2DC2     CG2DC2      CG321       HGA2
   33    28    29    30	 9 ;      CG321     CG2DC2      CG321      NG311
   33    28    29    55	 9 ;      CG321     CG2DC2      CG321       HGA2
   33    28    29    68	 9 ;      CG321     CG2DC2      CG321       HGA2
   28    29    30    31	 9 ;     CG2DC2      CG321      NG311     CG2D1O
   28    29    30    32	 9 ;     CG2DC2      CG321      NG311     HGPAM1
   55    29    30    31	 9 ;       HGA2      CG321      NG311     CG2D1O
   55    29    30    32	 9 ;       HGA2      CG321      NG311     HGPAM1
   68    29    30    31	 9 ;       HGA2      CG321      NG311     CG2D1O
   68    29    30    32	 9 ;       HGA2      CG321      NG311     HGPAM1
   29    30    31    26	 9 ;      CG321      NG311     CG2D1O     CG2DC1
   29    30    31    56	 9 ;      CG321      NG311     CG2D1O       HGA4
   32    30    31    26	 9 ;     HGPAM1      NG311     CG2D1O     CG2DC1
   32    30    31    56	 9 ;     HGPAM1      NG311     CG2D1O       HGA4
   28    33    34    37	 9 ;     CG2DC2      CG321      CG301      CG331
   28    33    34    36	 9 ;     CG2DC2      CG321      CG301      CG331
   28    33    34    35	 9 ;     CG2DC2      CG321      CG301      CG331
   57    33    34    37	 9 ;       HGA2      CG321      CG301      CG331
   57    33    34    36	 9 ;       HGA2      CG321      CG301      CG331
   57    33    34    35	 9 ;       HGA2      CG321      CG301      CG331
   58    33    34    37	 9 ;       HGA2      CG321      CG301      CG331
   58    33    34    36	 9 ;       HGA2      CG321      CG301      CG331
   58    33    34    35	 9 ;       HGA2      CG321      CG301      CG331
   33    34    37    65	 9 ;      CG321      CG301      CG331       HGA3
   33    34    37    66	 9 ;      CG321      CG301      CG331       HGA3
   33    34    37    67	 9 ;      CG321      CG301      CG331       HGA3
   36    34    37    65	 9 ;      CG331      CG301      CG331       HGA3
   36    34    37    66	 9 ;      CG331      CG301      CG331       HGA3
   36    34    37    67	 9 ;      CG331      CG301      CG331       HGA3
   35    34    37    65	 9 ;      CG331      CG301      CG331       HGA3
   35    34    37    66	 9 ;      CG331      CG301      CG331       HGA3
   35    34    37    67	 9 ;      CG331      CG301      CG331       HGA3
   37    34    36    62	 9 ;      CG331      CG301      CG331       HGA3
   37    34    36    63	 9 ;      CG331      CG301      CG331       HGA3
   37    34    36    64	 9 ;      CG331      CG301      CG331       HGA3
   33    34    36    62	 9 ;      CG321      CG301      CG331       HGA3
   33    34    36    63	 9 ;      CG321      CG301      CG331       HGA3
   33    34    36    64	 9 ;      CG321      CG301      CG331       HGA3
   35    34    36    62	 9 ;      CG331      CG301      CG331       HGA3
   35    34    36    63	 9 ;      CG331      CG301      CG331       HGA3
   35    34    36    64	 9 ;      CG331      CG301      CG331       HGA3
   37    34    35    59	 9 ;      CG331      CG301      CG331       HGA3
   37    34    35    60	 9 ;      CG331      CG301      CG331       HGA3
   37    34    35    61	 9 ;      CG331      CG301      CG331       HGA3
   33    34    35    59	 9 ;      CG321      CG301      CG331       HGA3
   33    34    35    60	 9 ;      CG321      CG301      CG331       HGA3
   33    34    35    61	 9 ;      CG321      CG301      CG331       HGA3
   36    34    35    59	 9 ;      CG331      CG301      CG331       HGA3
   36    34    35    60	 9 ;      CG331      CG301      CG331       HGA3
   36    34    35    61	 9 ;      CG331      CG301      CG331       HGA3

[ dihedrals ]
;	ai	  aj	ak	  al funct			  c0			c1			  c2			c3
   14    16    13    15	 2
   31    26    30    56	 2

