Good gRace! Old Maple Actually Chews Slate
   46
    1LIG     C1    1  -1.130   0.213  -1.666
    1LIG     N1    2  -1.064   0.133  -1.587
    1LIG     HN    3  -0.970   0.104  -1.611
    1LIG     C2    4  -1.127   0.086  -1.463
    1LIG     C3    5  -1.205   0.199  -1.395
    1LIG     C4    6  -1.303   0.259  -1.492
    1LIG     C5    7  -1.266   0.264  -1.628
    1LIG     C6    8  -1.357   0.314  -1.722
    1LIG     C7    9  -1.483   0.359  -1.680
    1LIG     C8   10  -1.518   0.356  -1.545
    1LIG     CL   11  -1.673   0.410  -1.495
    1LIG     C9   12  -1.428   0.306  -1.451
    1LIG    C10   13  -1.013   0.039  -1.371
    1LIG    C11   14  -1.216  -0.036  -1.495
    1LIG     N2   15  -1.073   0.257  -1.783
    1LIG      H   16  -1.036   0.184  -1.844
    1LIG     CA   17  -0.972   0.366  -1.785
    1LIG    C12   18  -1.040   0.502  -1.808
    1LIG    C13   19  -0.988   0.610  -1.716
    1LIG      S   20  -0.834   0.680  -1.747
    1LIG    C14   21  -0.847   0.784  -1.611
    1LIG    C15   22  -0.966   0.766  -1.544
    1LIG    C16   23  -1.046   0.667  -1.605
    1LIG     BR   24  -1.216   0.625  -1.533
    1LIG    C17   25  -0.886   0.352  -1.914
    1LIG      O   26  -0.920   0.422  -2.013
    1LIG    OXT   27  -0.792   0.265  -1.905
    1LIG    HC2   28  -1.258   0.160  -1.309
    1LIG    HC3   29  -1.135   0.277  -1.362
    1LIG     HC   30  -1.331   0.318  -1.827
    1LIG    HC1   31  -1.554   0.397  -1.753
    1LIG    HC4   32  -1.455   0.305  -1.346
    1LIG    HC5   33  -0.948   0.124  -1.347
    1LIG    HC6   34  -1.055  -0.001  -1.279
    1LIG    HC7   35  -0.955  -0.038  -1.422
    1LIG    HC8   36  -1.298  -0.004  -1.560
    1LIG    HC9   37  -1.157  -0.112  -1.545
    1LIG   HC10   38  -1.257  -0.076  -1.402
    1LIG   HC11   39  -0.911   0.366  -1.695
    1LIG   HC12   40  -1.147   0.491  -1.792
    1LIG   HC13   41  -1.023   0.533  -1.911
    1LIG   HC14   42  -0.771   0.855  -1.582
    1LIG   HC15   43  -0.994   0.821  -1.455
    1LIG    H19   44  -1.174   0.128  -1.717
    1LIG    LP1   45  -1.821   0.462  -1.447
    1LIG    LP2   46  -1.386   0.582  -1.462
   0.00000   0.00000   0.00000
