GRoups of Organic Molecules in ACtion for Science
   44
    1LIG     C1    1  -1.572   0.396  -1.365
    1LIG     C2    2  -1.445   0.400  -1.426
    1LIG     C3    3  -1.407   0.310  -1.528
    1LIG     C4    4  -1.503   0.215  -1.569
    1LIG     C5    5  -1.630   0.212  -1.513
    1LIG     C6    6  -1.664   0.301  -1.411
    1LIG     C7    7  -1.608   0.493  -1.251
    1LIG     C8    8  -1.589   0.640  -1.300
    1LIG     O1    9  -1.683   0.734  -1.248
    1LIG     C9   10  -1.815   0.689  -1.267
    1LIG    C10   11  -1.836   0.552  -1.205
    1LIG     N1   12  -1.743   0.463  -1.199
    1LIG     N2   13  -1.960   0.518  -1.158
    1LIG     HN   14  -1.763   0.371  -1.158
    1LIG     H1   15  -2.041   0.562  -1.201
    1LIG     H2   16  -1.970   0.419  -1.141
    1LIG    C11   17  -1.514   0.467  -1.131
    1LIG    C12   18  -1.272   0.316  -1.590
    1LIG    C13   19  -1.194   0.199  -1.605
    1LIG    C14   20  -1.068   0.202  -1.664
    1LIG    C15   21  -1.017   0.324  -1.711
    1LIG    C16   22  -1.091   0.440  -1.696
    1LIG    C17   23  -1.217   0.436  -1.636
    1LIG     O2   24  -0.985   0.094  -1.683
    1LIG    C18   25  -0.992  -0.009  -1.586
    1LIG     H3   26  -1.377   0.471  -1.395
    1LIG     H4   27  -1.478   0.147  -1.642
    1LIG     H5   28  -1.699   0.143  -1.546
    1LIG     H6   29  -1.758   0.297  -1.370
    1LIG     H7   30  -1.597   0.641  -1.407
    1LIG     H8   31  -1.493   0.671  -1.265
    1LIG     H9   32  -1.836   0.684  -1.372
    1LIG    H10   33  -1.881   0.758  -1.218
    1LIG    H11   34  -1.750   0.613  -1.192
    1LIG    H12   35  -1.413   0.487  -1.160
    1LIG    H13   36  -1.523   0.365  -1.100
    1LIG    H14   37  -1.541   0.531  -1.050
    1LIG    H15   38  -1.232   0.109  -1.572
    1LIG    H16   39  -0.924   0.327  -1.755
    1LIG    H17   40  -1.053   0.530  -1.731
    1LIG    H18   41  -1.270   0.524  -1.625
    1LIG    H19   42  -0.923  -0.087  -1.612
    1LIG    H20   43  -1.091  -0.048  -1.582
    1LIG    H21   44  -0.966   0.031  -1.490
   0.00000   0.00000   0.00000
