Great Red Owns Many ACres of Sand 
   65
    1LIG      O    1  -1.365   0.274  -1.561
    1LIG     C1    2  -1.387   0.380  -1.619
    1LIG     N1    3  -1.373   0.403  -1.752
    1LIG     C2    4  -1.349   0.298  -1.848
    1LIG     C3    5  -1.389   0.534  -1.775
    1LIG     N2    6  -1.421   0.607  -1.673
    1LIG    HN3    7  -1.431   0.709  -1.670
    1LIG     C4    8  -1.443   0.510  -1.560
    1LIG     C5    9  -1.592   0.497  -1.526
    1LIG     C6   10  -1.683   0.599  -1.562
    1LIG     C7   11  -1.822   0.583  -1.553
    1LIG     C8   12  -1.870   0.463  -1.498
    1LIG     C9   13  -1.783   0.363  -1.455
    1LIG    C10   14  -1.645   0.380  -1.469
    1LIG    C11   15  -1.914   0.687  -1.604
    1LIG    C12   16  -1.911   0.731  -1.735
    1LIG     N3   17  -1.994   0.825  -1.787
    1LIG    C13   18  -2.084   0.875  -1.702
    1LIG    HN4   19  -1.987   0.855  -1.884
    1LIG     N4   20  -2.099   0.841  -1.574
    1LIG    C14   21  -2.013   0.747  -1.528
    1LIG    HN5   22  -2.171   0.882  -1.514
    1LIG    C15   23  -1.374   0.557  -1.436
    1LIG    C16   24  -1.424   0.571  -1.307
    1LIG     N5   25  -1.322   0.621  -1.230
    1LIG     N6   26  -1.208   0.638  -1.298
    1LIG    C17   27  -1.239   0.599  -1.422
    1LIG    HN6   28  -1.118   0.672  -1.264
    1LIG    C18   29  -1.326   0.650  -1.088
    1LIG    C19   30  -1.248   0.549  -1.001
    1LIG    C20   31  -1.334   0.466  -0.905
    1LIG    C21   32  -1.396   0.550  -0.793
    1LIG    C22   33  -1.446   0.395  -0.983
    1LIG     N7   34  -1.369   0.588  -1.897
    1LIG     H1   35  -1.381   0.689  -1.898
    1LIG     H2   36  -1.287   0.558  -1.948
    1LIG    HC1   37  -1.340   0.202  -1.797
    1LIG    HC2   38  -1.256   0.318  -1.902
    1LIG    HC3   39  -1.431   0.294  -1.919
    1LIG     HC   40  -1.494   0.518  -1.798
    1LIG    HN2   41  -1.324   0.615  -1.647
    1LIG    HC4   42  -1.643   0.692  -1.598
    1LIG    HC5   43  -1.977   0.447  -1.490
    1LIG    HC6   44  -1.822   0.272  -1.411
    1LIG    HC7   45  -1.579   0.302  -1.435
    1LIG    HC8   46  -1.837   0.688  -1.801
    1LIG    HC9   47  -2.151   0.950  -1.741
    1LIG   HC10   48  -2.021   0.717  -1.425
    1LIG   HC11   49  -1.524   0.548  -1.274
    1LIG   HC12   50  -1.168   0.600  -1.504
    1LIG   HC13   51  -1.283   0.749  -1.072
    1LIG   HC14   52  -1.430   0.651  -1.055
    1LIG   HC15   53  -1.176   0.605  -0.942
    1LIG   HC16   54  -1.194   0.482  -1.067
    1LIG   HC17   55  -1.271   0.390  -0.860
    1LIG   HC18   56  -1.316   0.600  -0.738
    1LIG   HC19   57  -1.463   0.624  -0.836
    1LIG   HC20   58  -1.452   0.485  -0.725
    1LIG   HC21   59  -1.402   0.335  -1.062
    1LIG   HC22   60  -1.502   0.330  -0.915
    1LIG   HC23   61  -1.513   0.469  -1.026
    1LIG    HN1   62  -1.446   0.553  -1.952
    1LIG    H33   63  -1.840   0.809  -1.707
    1LIG    H34   64  -2.014   0.953  -1.673
    1LIG    H35   65  -1.455   0.673  -1.331
   0.00000   0.00000   0.00000
