Gravel Rubs Often Many Awfully Cauterized Sores
   46
    1LIG     C1    1  -1.568   0.422  -1.416
    1LIG     C2    2  -1.442   0.399  -1.478
    1LIG     C3    3  -1.411   0.283  -1.552
    1LIG     C4    4  -1.513   0.188  -1.565
    1LIG     C5    5  -1.637   0.208  -1.505
    1LIG     C6    6  -1.665   0.323  -1.430
    1LIG     C7    7  -1.585   0.553  -1.336
    1LIG     C8    8  -1.560   0.672  -1.433
    1LIG     C9    9  -1.655   0.789  -1.408
    1LIG     O1   10  -1.794   0.749  -1.415
    1LIG    C10   11  -1.827   0.625  -1.347
    1LIG    C11   12  -1.712   0.588  -1.258
    1LIG     O2   13  -1.711   0.498  -1.153
    1LIG    C12   14  -1.578   0.512  -1.123
    1LIG     N1   15  -1.494   0.545  -1.218
    1LIG     HN   16  -1.393   0.562  -1.212
    1LIG     N2   17  -1.553   0.500  -0.991
    1LIG     H1   18  -1.460   0.467  -0.970
    1LIG     H2   19  -1.624   0.447  -0.943
    1LIG    C13   20  -1.275   0.261  -1.608
    1LIG    C14   21  -1.241   0.138  -1.670
    1LIG    C15   22  -1.116   0.115  -1.727
    1LIG    C16   23  -1.019   0.215  -1.722
    1LIG    C17   24  -1.048   0.338  -1.662
    1LIG    C18   25  -1.174   0.360  -1.605
    1LIG     O3   26  -1.076  -0.001  -1.788
    1LIG    C19   27  -0.984  -0.082  -1.716
    1LIG     H3   28  -1.370   0.471  -1.469
    1LIG     H4   29  -1.496   0.102  -1.620
    1LIG     H5   30  -1.711   0.136  -1.515
    1LIG     H6   31  -1.757   0.334  -1.385
    1LIG     H7   32  -1.460   0.706  -1.420
    1LIG     H8   33  -1.578   0.636  -1.532
    1LIG     H9   34  -1.637   0.864  -1.483
    1LIG    H10   35  -1.637   0.827  -1.310
    1LIG    H11   36  -1.842   0.547  -1.420
    1LIG    H12   37  -1.916   0.637  -1.290
    1LIG    H13   38  -1.723   0.681  -1.206
    1LIG    H14   39  -1.484   0.468  -1.150
    1LIG    H15   40  -1.312   0.063  -1.673
    1LIG    H16   41  -0.926   0.199  -1.764
    1LIG    H17   42  -0.977   0.412  -1.660
    1LIG    H18   43  -1.194   0.450  -1.560
    1LIG    H19   44  -0.960  -0.169  -1.774
    1LIG    H20   45  -1.028  -0.112  -1.623
    1LIG    H21   46  -0.894  -0.026  -1.697
   0.00000   0.00000   0.00000
