; Created by cgenff_charmm2gmx.py

[ moleculetype ]
; Name			   nrexcl
LIG				 3

[ atoms ]
;	 nr		  type	resnr residue  atom   cgnr	   charge		mass  typeB    chargeB		massB
; residue	 1 LIG rtp LIG q	qsum
     1     CG2R61      1    LIG     C1      1     -0.067     12.011   ;
     2     CG2R61      1    LIG     C2      2     -0.166     12.011   ;
     3     CG2R67      1    LIG     C3      3      0.006     12.011   ;
     4     CG2R61      1    LIG     C4      4     -0.119     12.011   ;
     5     CG2R61      1    LIG     C5      5     -0.116     12.011   ;
     6     CG2R61      1    LIG     C6      6     -0.159     12.011   ;
     7     CG3RC1      1    LIG     C7      7      0.367     12.011   ;
     8      CG321      1    LIG     C8      8     -0.120     12.011   ;
     9      CG321      1    LIG     C9      9     -0.006     12.011   ;
    10     OG3C61      1    LIG     O1     10     -0.445     15.999   ;
    11      CG321      1    LIG    C10     11      0.031     12.011   ;
    12     CG3RC1      1    LIG    C11     12      0.124     12.011   ;
    13     OG3C51      1    LIG     O2     13     -0.403     15.999   ;
    14     CG3C51      1    LIG    C12     14      0.277     12.011   ;
    15     NG3C51      1    LIG     N1     15     -0.525     14.007   ;
    16       HGP1      1    LIG     HN     16      0.284      1.008   ;
    17      NG321      1    LIG     N2     17     -1.079     14.007   ;
    18     HGPAM2      1    LIG     H1     18      0.454      1.008   ;
    19     HGPAM2      1    LIG     H2     19      0.454      1.008   ;
    20     CG2R67      1    LIG    C13     20      0.006     12.011   ;
    21     CG2R61      1    LIG    C14     21     -0.122     12.011   ;
    22     CG2R61      1    LIG    C15     22      0.209     12.011   ;
    23     CG2R61      1    LIG    C16     23     -0.115     12.011   ;
    24     CG2R61      1    LIG    C17     24     -0.116     12.011   ;
    25     CG2R61      1    LIG    C18     25     -0.119     12.011   ;
    26      OG301      1    LIG     O3     26     -0.383     15.999   ;
    27      CG331      1    LIG    C19     27     -0.094     12.011   ;
    28      HGR61      1    LIG     H3     28      0.119      1.008   ;
    29      HGR61      1    LIG     H4     29      0.116      1.008   ;
    30      HGR61      1    LIG     H5     30      0.116      1.008   ;
    31      HGR61      1    LIG     H6     31      0.119      1.008   ;
    32       HGA2      1    LIG     H7     32      0.090      1.008   ;
    33       HGA2      1    LIG     H8     33      0.090      1.008   ;
    34       HGA2      1    LIG     H9     34      0.090      1.008   ;
    35       HGA2      1    LIG    H10     35      0.090      1.008   ;
    36       HGA2      1    LIG    H11     36      0.090      1.008   ;
    37       HGA2      1    LIG    H12     37      0.090      1.008   ;
    38       HGA1      1    LIG    H13     38      0.090      1.008   ;
    39       HGA1      1    LIG    H14     39      0.108      1.008   ;
    40      HGR61      1    LIG    H15     40      0.116      1.008   ;
    41      HGR61      1    LIG    H16     41      0.116      1.008   ;
    42      HGR61      1    LIG    H17     42      0.116      1.008   ;
    43      HGR61      1    LIG    H18     43      0.116      1.008   ;
    44       HGA3      1    LIG    H19     44      0.090      1.008   ;
    45       HGA3      1    LIG    H20     45      0.090      1.008   ;
    46       HGA3      1    LIG    H21     46      0.090      1.008   ;

[ bonds ]
;	ai	  aj funct			  c0			c1			  c2			c3
    1     2	 1 ;      CG2R61     CG2R61
    1     6	 1 ;      CG2R61     CG2R61
    1     7	 1 ;      CG2R61     CG3RC1
    2     3	 1 ;      CG2R61     CG2R67
    2    28	 1 ;      CG2R61      HGR61
    3    20	 1 ;      CG2R67     CG2R67
    3     4	 1 ;      CG2R67     CG2R61
    4     5	 1 ;      CG2R61     CG2R61
    4    29	 1 ;      CG2R61      HGR61
    5     6	 1 ;      CG2R61     CG2R61
    5    30	 1 ;      CG2R61      HGR61
    6    31	 1 ;      CG2R61      HGR61
    7     8	 1 ;      CG3RC1      CG321
    7    12	 1 ;      CG3RC1     CG3RC1
    7    15	 1 ;      CG3RC1     NG3C51
    8     9	 1 ;       CG321      CG321
    8    32	 1 ;       CG321       HGA2
    8    33	 1 ;       CG321       HGA2
    9    10	 1 ;       CG321     OG3C61
    9    34	 1 ;       CG321       HGA2
    9    35	 1 ;       CG321       HGA2
   10    11	 1 ;      OG3C61      CG321
   11    12	 1 ;       CG321     CG3RC1
   11    36	 1 ;       CG321       HGA2
   11    37	 1 ;       CG321       HGA2
   12    13	 1 ;      CG3RC1     OG3C51
   12    38	 1 ;      CG3RC1       HGA1
   13    14	 1 ;      OG3C51     CG3C51
   14    15	 1 ;      CG3C51     NG3C51
   14    17	 1 ;      CG3C51      NG321
   14    39	 1 ;      CG3C51       HGA1
   15    16	 1 ;      NG3C51       HGP1
   17    18	 1 ;       NG321     HGPAM2
   17    19	 1 ;       NG321     HGPAM2
   20    21	 1 ;      CG2R67     CG2R61
   20    25	 1 ;      CG2R67     CG2R61
   21    22	 1 ;      CG2R61     CG2R61
   21    40	 1 ;      CG2R61      HGR61
   22    26	 1 ;      CG2R61      OG301
   22    23	 1 ;      CG2R61     CG2R61
   23    24	 1 ;      CG2R61     CG2R61
   23    41	 1 ;      CG2R61      HGR61
   24    25	 1 ;      CG2R61     CG2R61
   24    42	 1 ;      CG2R61      HGR61
   25    43	 1 ;      CG2R61      HGR61
   26    27	 1 ;       OG301      CG331
   27    44	 1 ;       CG331       HGA3
   27    45	 1 ;       CG331       HGA3
   27    46	 1 ;       CG331       HGA3

[ pairs ]
;	ai	  aj funct			  c0			c1			  c2			c3
    1    20	 1
    1     4	 1
    1    30	 1
    1     9	 1
    1    32	 1
    1    33	 1
    1    11	 1
    1    13	 1
    1    38	 1
    1    16	 1
    1    14	 1
    2     5	 1
    2    31	 1
    2     8	 1
    2    12	 1
    2    15	 1
    2    21	 1
    2    25	 1
    2    29	 1
    3     6	 1
    3     7	 1
    3    30	 1
    3    22	 1
    3    40	 1
    3    24	 1
    3    43	 1
    4    28	 1
    4    21	 1
    4    25	 1
    4    31	 1
    5     7	 1
    5    20	 1
    6    28	 1
    6     8	 1
    6    12	 1
    6    15	 1
    6    29	 1
    7    28	 1
    7    31	 1
    7    10	 1
    7    34	 1
    7    35	 1
    7    36	 1
    7    37	 1
    7    17	 1
    7    39	 1
    8    11	 1
    8    13	 1
    8    38	 1
    8    16	 1
    8    14	 1
    9    12	 1
    9    15	 1
    9    36	 1
    9    37	 1
   10    32	 1
   10    33	 1
   10    13	 1
   10    38	 1
   11    15	 1
   11    34	 1
   11    35	 1
   11    14	 1
   12    32	 1
   12    33	 1
   12    16	 1
   12    17	 1
   12    39	 1
   13    36	 1
   13    37	 1
   13    16	 1
   13    18	 1
   13    19	 1
   14    38	 1
   15    32	 1
   15    33	 1
   15    38	 1
   15    18	 1
   15    19	 1
   16    17	 1
   16    39	 1
   18    39	 1
   19    39	 1
   20    28	 1
   20    29	 1
   20    26	 1
   20    23	 1
   20    42	 1
   21    24	 1
   21    43	 1
   21    27	 1
   21    41	 1
   22    25	 1
   22    42	 1
   22    44	 1
   22    45	 1
   22    46	 1
   23    40	 1
   23    27	 1
   23    43	 1
   24    26	 1
   25    40	 1
   25    41	 1
   26    40	 1
   26    41	 1
   29    30	 1
   30    31	 1
   32    34	 1
   32    35	 1
   33    34	 1
   33    35	 1
   36    38	 1
   37    38	 1
   41    42	 1
   42    43	 1

[ angles ]
;	ai	  aj	ak funct			c0			  c1			c2			  c3
    2     1     6	5 ;     CG2R61     CG2R61     CG2R61
    2     1     7	5 ;     CG2R61     CG2R61     CG3RC1
    6     1     7	5 ;     CG2R61     CG2R61     CG3RC1
    3     2     1	5 ;     CG2R67     CG2R61     CG2R61
    3     2    28	5 ;     CG2R67     CG2R61      HGR61
    1     2    28	5 ;     CG2R61     CG2R61      HGR61
   20     3     4	5 ;     CG2R67     CG2R67     CG2R61
   20     3     2	5 ;     CG2R67     CG2R67     CG2R61
    4     3     2	5 ;     CG2R61     CG2R67     CG2R61
    3     4     5	5 ;     CG2R67     CG2R61     CG2R61
    3     4    29	5 ;     CG2R67     CG2R61      HGR61
    5     4    29	5 ;     CG2R61     CG2R61      HGR61
    4     5     6	5 ;     CG2R61     CG2R61     CG2R61
    4     5    30	5 ;     CG2R61     CG2R61      HGR61
    6     5    30	5 ;     CG2R61     CG2R61      HGR61
    5     6     1	5 ;     CG2R61     CG2R61     CG2R61
    5     6    31	5 ;     CG2R61     CG2R61      HGR61
    1     6    31	5 ;     CG2R61     CG2R61      HGR61
    8     7     1	5 ;      CG321     CG3RC1     CG2R61
    8     7    12	5 ;      CG321     CG3RC1     CG3RC1
    8     7    15	5 ;      CG321     CG3RC1     NG3C51
    1     7    12	5 ;     CG2R61     CG3RC1     CG3RC1
    1     7    15	5 ;     CG2R61     CG3RC1     NG3C51
   12     7    15	5 ;     CG3RC1     CG3RC1     NG3C51
    9     8     7	5 ;      CG321      CG321     CG3RC1
    9     8    32	5 ;      CG321      CG321       HGA2
    9     8    33	5 ;      CG321      CG321       HGA2
    7     8    32	5 ;     CG3RC1      CG321       HGA2
    7     8    33	5 ;     CG3RC1      CG321       HGA2
   32     8    33	5 ;       HGA2      CG321       HGA2
    8     9    10	5 ;      CG321      CG321     OG3C61
    8     9    34	5 ;      CG321      CG321       HGA2
    8     9    35	5 ;      CG321      CG321       HGA2
   10     9    34	5 ;     OG3C61      CG321       HGA2
   10     9    35	5 ;     OG3C61      CG321       HGA2
   34     9    35	5 ;       HGA2      CG321       HGA2
    9    10    11	5 ;      CG321     OG3C61      CG321
   10    11    12	5 ;     OG3C61      CG321     CG3RC1
   10    11    36	5 ;     OG3C61      CG321       HGA2
   10    11    37	5 ;     OG3C61      CG321       HGA2
   12    11    36	5 ;     CG3RC1      CG321       HGA2
   12    11    37	5 ;     CG3RC1      CG321       HGA2
   36    11    37	5 ;       HGA2      CG321       HGA2
   11    12     7	5 ;      CG321     CG3RC1     CG3RC1
   11    12    13	5 ;      CG321     CG3RC1     OG3C51
   11    12    38	5 ;      CG321     CG3RC1       HGA1
    7    12    13	5 ;     CG3RC1     CG3RC1     OG3C51
    7    12    38	5 ;     CG3RC1     CG3RC1       HGA1
   13    12    38	5 ;     OG3C51     CG3RC1       HGA1
   12    13    14	5 ;     CG3RC1     OG3C51     CG3C51
   15    14    13	5 ;     NG3C51     CG3C51     OG3C51
   15    14    17	5 ;     NG3C51     CG3C51      NG321
   15    14    39	5 ;     NG3C51     CG3C51       HGA1
   13    14    17	5 ;     OG3C51     CG3C51      NG321
   13    14    39	5 ;     OG3C51     CG3C51       HGA1
   17    14    39	5 ;      NG321     CG3C51       HGA1
    7    15    16	5 ;     CG3RC1     NG3C51       HGP1
    7    15    14	5 ;     CG3RC1     NG3C51     CG3C51
   16    15    14	5 ;       HGP1     NG3C51     CG3C51
   14    17    18	5 ;     CG3C51      NG321     HGPAM2
   14    17    19	5 ;     CG3C51      NG321     HGPAM2
   18    17    19	5 ;     HGPAM2      NG321     HGPAM2
   21    20    25	5 ;     CG2R61     CG2R67     CG2R61
   21    20     3	5 ;     CG2R61     CG2R67     CG2R67
   25    20     3	5 ;     CG2R61     CG2R67     CG2R67
   22    21    20	5 ;     CG2R61     CG2R61     CG2R67
   22    21    40	5 ;     CG2R61     CG2R61      HGR61
   20    21    40	5 ;     CG2R67     CG2R61      HGR61
   26    22    23	5 ;      OG301     CG2R61     CG2R61
   26    22    21	5 ;      OG301     CG2R61     CG2R61
   23    22    21	5 ;     CG2R61     CG2R61     CG2R61
   22    23    24	5 ;     CG2R61     CG2R61     CG2R61
   22    23    41	5 ;     CG2R61     CG2R61      HGR61
   24    23    41	5 ;     CG2R61     CG2R61      HGR61
   23    24    25	5 ;     CG2R61     CG2R61     CG2R61
   23    24    42	5 ;     CG2R61     CG2R61      HGR61
   25    24    42	5 ;     CG2R61     CG2R61      HGR61
   24    25    20	5 ;     CG2R61     CG2R61     CG2R67
   24    25    43	5 ;     CG2R61     CG2R61      HGR61
   20    25    43	5 ;     CG2R67     CG2R61      HGR61
   22    26    27	5 ;     CG2R61      OG301      CG331
   26    27    44	5 ;      OG301      CG331       HGA3
   26    27    45	5 ;      OG301      CG331       HGA3
   26    27    46	5 ;      OG301      CG331       HGA3
   44    27    45	5 ;       HGA3      CG331       HGA3
   44    27    46	5 ;       HGA3      CG331       HGA3
   45    27    46	5 ;       HGA3      CG331       HGA3

[ dihedrals ]
;	ai	  aj	ak	  al funct			  c0			c1			  c2			c3			  c4			c5
    6     1     2     3	 9 ;     CG2R61     CG2R61     CG2R61     CG2R67
    6     1     2    28	 9 ;     CG2R61     CG2R61     CG2R61      HGR61
    7     1     2     3	 9 ;     CG3RC1     CG2R61     CG2R61     CG2R67
    7     1     2    28	 9 ;     CG3RC1     CG2R61     CG2R61      HGR61
    2     1     6     5	 9 ;     CG2R61     CG2R61     CG2R61     CG2R61
    2     1     6    31	 9 ;     CG2R61     CG2R61     CG2R61      HGR61
    7     1     6     5	 9 ;     CG3RC1     CG2R61     CG2R61     CG2R61
    7     1     6    31	 9 ;     CG3RC1     CG2R61     CG2R61      HGR61
    2     1     7     8	 9 ;     CG2R61     CG2R61     CG3RC1      CG321
    2     1     7    12	 9 ;     CG2R61     CG2R61     CG3RC1     CG3RC1
    2     1     7    15	 9 ;     CG2R61     CG2R61     CG3RC1     NG3C51
    6     1     7     8	 9 ;     CG2R61     CG2R61     CG3RC1      CG321
    6     1     7    12	 9 ;     CG2R61     CG2R61     CG3RC1     CG3RC1
    6     1     7    15	 9 ;     CG2R61     CG2R61     CG3RC1     NG3C51
    1     2     3    20	 9 ;     CG2R61     CG2R61     CG2R67     CG2R67
    1     2     3     4	 9 ;     CG2R61     CG2R61     CG2R67     CG2R61
   28     2     3    20	 9 ;      HGR61     CG2R61     CG2R67     CG2R67
   28     2     3     4	 9 ;      HGR61     CG2R61     CG2R67     CG2R61
    4     3    20    21	 9 ;     CG2R61     CG2R67     CG2R67     CG2R61
    4     3    20    25	 9 ;     CG2R61     CG2R67     CG2R67     CG2R61
    2     3    20    21	 9 ;     CG2R61     CG2R67     CG2R67     CG2R61
    2     3    20    25	 9 ;     CG2R61     CG2R67     CG2R67     CG2R61
   20     3     4     5	 9 ;     CG2R67     CG2R67     CG2R61     CG2R61
   20     3     4    29	 9 ;     CG2R67     CG2R67     CG2R61      HGR61
    2     3     4     5	 9 ;     CG2R61     CG2R67     CG2R61     CG2R61
    2     3     4    29	 9 ;     CG2R61     CG2R67     CG2R61      HGR61
    3     4     5     6	 9 ;     CG2R67     CG2R61     CG2R61     CG2R61
    3     4     5    30	 9 ;     CG2R67     CG2R61     CG2R61      HGR61
   29     4     5     6	 9 ;      HGR61     CG2R61     CG2R61     CG2R61
   29     4     5    30	 9 ;      HGR61     CG2R61     CG2R61      HGR61
    4     5     6     1	 9 ;     CG2R61     CG2R61     CG2R61     CG2R61
    4     5     6    31	 9 ;     CG2R61     CG2R61     CG2R61      HGR61
   30     5     6     1	 9 ;      HGR61     CG2R61     CG2R61     CG2R61
   30     5     6    31	 9 ;      HGR61     CG2R61     CG2R61      HGR61
    1     7     8     9	 9 ;     CG2R61     CG3RC1      CG321      CG321
    1     7     8    32	 9 ;     CG2R61     CG3RC1      CG321       HGA2
    1     7     8    33	 9 ;     CG2R61     CG3RC1      CG321       HGA2
   12     7     8     9	 9 ;     CG3RC1     CG3RC1      CG321      CG321
   12     7     8    32	 9 ;     CG3RC1     CG3RC1      CG321       HGA2
   12     7     8    33	 9 ;     CG3RC1     CG3RC1      CG321       HGA2
   15     7     8     9	 9 ;     NG3C51     CG3RC1      CG321      CG321
   15     7     8    32	 9 ;     NG3C51     CG3RC1      CG321       HGA2
   15     7     8    33	 9 ;     NG3C51     CG3RC1      CG321       HGA2
    8     7    12    11	 9 ;      CG321     CG3RC1     CG3RC1      CG321
    8     7    12    13	 9 ;      CG321     CG3RC1     CG3RC1     OG3C51
    8     7    12    38	 9 ;      CG321     CG3RC1     CG3RC1       HGA1
    1     7    12    11	 9 ;     CG2R61     CG3RC1     CG3RC1      CG321
    1     7    12    13	 9 ;     CG2R61     CG3RC1     CG3RC1     OG3C51
    1     7    12    38	 9 ;     CG2R61     CG3RC1     CG3RC1       HGA1
   15     7    12    11	 9 ;     NG3C51     CG3RC1     CG3RC1      CG321
   15     7    12    13	 9 ;     NG3C51     CG3RC1     CG3RC1     OG3C51
   15     7    12    38	 9 ;     NG3C51     CG3RC1     CG3RC1       HGA1
    8     7    15    16	 9 ;      CG321     CG3RC1     NG3C51       HGP1
    8     7    15    14	 9 ;      CG321     CG3RC1     NG3C51     CG3C51
    1     7    15    16	 9 ;     CG2R61     CG3RC1     NG3C51       HGP1
    1     7    15    14	 9 ;     CG2R61     CG3RC1     NG3C51     CG3C51
   12     7    15    16	 9 ;     CG3RC1     CG3RC1     NG3C51       HGP1
   12     7    15    14	 9 ;     CG3RC1     CG3RC1     NG3C51     CG3C51
    7     8     9    10	 9 ;     CG3RC1      CG321      CG321     OG3C61
    7     8     9    34	 9 ;     CG3RC1      CG321      CG321       HGA2
    7     8     9    35	 9 ;     CG3RC1      CG321      CG321       HGA2
   32     8     9    10	 9 ;       HGA2      CG321      CG321     OG3C61
   32     8     9    34	 9 ;       HGA2      CG321      CG321       HGA2
   32     8     9    35	 9 ;       HGA2      CG321      CG321       HGA2
   33     8     9    10	 9 ;       HGA2      CG321      CG321     OG3C61
   33     8     9    34	 9 ;       HGA2      CG321      CG321       HGA2
   33     8     9    35	 9 ;       HGA2      CG321      CG321       HGA2
    8     9    10    11	 9 ;      CG321      CG321     OG3C61      CG321
   34     9    10    11	 9 ;       HGA2      CG321     OG3C61      CG321
   35     9    10    11	 9 ;       HGA2      CG321     OG3C61      CG321
    9    10    11    12	 9 ;      CG321     OG3C61      CG321     CG3RC1
    9    10    11    36	 9 ;      CG321     OG3C61      CG321       HGA2
    9    10    11    37	 9 ;      CG321     OG3C61      CG321       HGA2
   10    11    12     7	 9 ;     OG3C61      CG321     CG3RC1     CG3RC1
   10    11    12    13	 9 ;     OG3C61      CG321     CG3RC1     OG3C51
   10    11    12    38	 9 ;     OG3C61      CG321     CG3RC1       HGA1
   36    11    12     7	 9 ;       HGA2      CG321     CG3RC1     CG3RC1
   36    11    12    13	 9 ;       HGA2      CG321     CG3RC1     OG3C51
   36    11    12    38	 9 ;       HGA2      CG321     CG3RC1       HGA1
   37    11    12     7	 9 ;       HGA2      CG321     CG3RC1     CG3RC1
   37    11    12    13	 9 ;       HGA2      CG321     CG3RC1     OG3C51
   37    11    12    38	 9 ;       HGA2      CG321     CG3RC1       HGA1
   11    12    13    14	 9 ;      CG321     CG3RC1     OG3C51     CG3C51
    7    12    13    14	 9 ;     CG3RC1     CG3RC1     OG3C51     CG3C51
   38    12    13    14	 9 ;       HGA1     CG3RC1     OG3C51     CG3C51
   12    13    14    15	 9 ;     CG3RC1     OG3C51     CG3C51     NG3C51
   12    13    14    17	 9 ;     CG3RC1     OG3C51     CG3C51      NG321
   12    13    14    39	 9 ;     CG3RC1     OG3C51     CG3C51       HGA1
   13    14    15     7	 9 ;     OG3C51     CG3C51     NG3C51     CG3RC1
   13    14    15    16	 9 ;     OG3C51     CG3C51     NG3C51       HGP1
   17    14    15     7	 9 ;      NG321     CG3C51     NG3C51     CG3RC1
   17    14    15    16	 9 ;      NG321     CG3C51     NG3C51       HGP1
   39    14    15     7	 9 ;       HGA1     CG3C51     NG3C51     CG3RC1
   39    14    15    16	 9 ;       HGA1     CG3C51     NG3C51       HGP1
   15    14    17    18	 9 ;     NG3C51     CG3C51      NG321     HGPAM2
   15    14    17    19	 9 ;     NG3C51     CG3C51      NG321     HGPAM2
   13    14    17    18	 9 ;     OG3C51     CG3C51      NG321     HGPAM2
   13    14    17    19	 9 ;     OG3C51     CG3C51      NG321     HGPAM2
   39    14    17    18	 9 ;       HGA1     CG3C51      NG321     HGPAM2
   39    14    17    19	 9 ;       HGA1     CG3C51      NG321     HGPAM2
   25    20    21    22	 9 ;     CG2R61     CG2R67     CG2R61     CG2R61
   25    20    21    40	 9 ;     CG2R61     CG2R67     CG2R61      HGR61
    3    20    21    22	 9 ;     CG2R67     CG2R67     CG2R61     CG2R61
    3    20    21    40	 9 ;     CG2R67     CG2R67     CG2R61      HGR61
   21    20    25    24	 9 ;     CG2R61     CG2R67     CG2R61     CG2R61
   21    20    25    43	 9 ;     CG2R61     CG2R67     CG2R61      HGR61
    3    20    25    24	 9 ;     CG2R67     CG2R67     CG2R61     CG2R61
    3    20    25    43	 9 ;     CG2R67     CG2R67     CG2R61      HGR61
   20    21    22    26	 9 ;     CG2R67     CG2R61     CG2R61      OG301
   20    21    22    23	 9 ;     CG2R67     CG2R61     CG2R61     CG2R61
   40    21    22    26	 9 ;      HGR61     CG2R61     CG2R61      OG301
   40    21    22    23	 9 ;      HGR61     CG2R61     CG2R61     CG2R61
   23    22    26    27	 9 ;     CG2R61     CG2R61      OG301      CG331
   21    22    26    27	 9 ;     CG2R61     CG2R61      OG301      CG331
   26    22    23    24	 9 ;      OG301     CG2R61     CG2R61     CG2R61
   26    22    23    41	 9 ;      OG301     CG2R61     CG2R61      HGR61
   21    22    23    24	 9 ;     CG2R61     CG2R61     CG2R61     CG2R61
   21    22    23    41	 9 ;     CG2R61     CG2R61     CG2R61      HGR61
   22    23    24    25	 9 ;     CG2R61     CG2R61     CG2R61     CG2R61
   22    23    24    42	 9 ;     CG2R61     CG2R61     CG2R61      HGR61
   41    23    24    25	 9 ;      HGR61     CG2R61     CG2R61     CG2R61
   41    23    24    42	 9 ;      HGR61     CG2R61     CG2R61      HGR61
   23    24    25    20	 9 ;     CG2R61     CG2R61     CG2R61     CG2R67
   23    24    25    43	 9 ;     CG2R61     CG2R61     CG2R61      HGR61
   42    24    25    20	 9 ;      HGR61     CG2R61     CG2R61     CG2R67
   42    24    25    43	 9 ;      HGR61     CG2R61     CG2R61      HGR61
   22    26    27    44	 9 ;     CG2R61      OG301      CG331       HGA3
   22    26    27    45	 9 ;     CG2R61      OG301      CG331       HGA3
   22    26    27    46	 9 ;     CG2R61      OG301      CG331       HGA3

