; Created by cgenff_charmm2gmx.py

[ moleculetype ]
; Name			   nrexcl
LIG				 3

[ atoms ]
;	 nr		  type	resnr residue  atom   cgnr	   charge		mass  typeB    chargeB		massB
; residue	 1 LIG rtp LIG q	qsum
     1      CG301      1    LIG     C1      1      0.289     12.011   ;
     2      CG321      1    LIG     C2      2     -0.133     12.011   ;
     3      CG321      1    LIG     C3      3     -0.190     12.011   ;
     4      CG311      1    LIG     C4      4      0.070     12.011   ;
     5      CG321      1    LIG     C5      5     -0.190     12.011   ;
     6      CG321      1    LIG     C6      6     -0.133     12.011   ;
     7      NG3P2      1    LIG     N1      7     -0.450     14.007   ;
     8       HGP2      1    LIG     H1      8      0.341      1.008   ;
     9       HGP2      1    LIG     H2      9      0.341      1.008   ;
    10      CG324      1    LIG     C7     10      0.208     12.011   ;
    11      CG311      1    LIG     C8     11      0.089     12.011   ;
    12      CG311      1    LIG     C9     12     -0.007     12.011   ;
    13      CG321      1    LIG    C10     13     -0.153     12.011   ;
    14     CG2R61      1    LIG    C11     14      0.057     12.011   ;
    15     CG2R61      1    LIG    C12     15     -0.218     12.011   ;
    16     CG2R66      1    LIG    C13     16      0.261     12.011   ;
    17       FGR1      1    LIG     F1     17     -0.210     18.998   ;
    18     CG2R61      1    LIG    C14     18     -0.240     12.011   ;
    19     CG2R66      1    LIG    C15     19      0.261     12.011   ;
    20     CG2R61      1    LIG    C16     20     -0.218     12.011   ;
    21       FGR1      1    LIG     F2     21     -0.210     18.998   ;
    22      NG2S1      1    LIG     N2     22     -0.339     14.007   ;
    23      CG2O1      1    LIG    C17     23      0.488     12.011   ;
    24      OG2D1      1    LIG     O1     24     -0.509     15.999   ;
    25      CG331      1    LIG    C18     25     -0.270     12.011   ;
    26       HGP1      1    LIG     H3     26      0.261      1.008   ;
    27      OG311      1    LIG     O2     27     -0.625     15.999   ;
    28       HGP1      1    LIG     H4     28      0.415      1.008   ;
    29     CG2R61      1    LIG    C19     29      0.085     12.011   ;
    30     CG2R61      1    LIG    C20     30     -0.134     12.011   ;
    31     CG2R61      1    LIG    C21     31      0.082     12.011   ;
    32     CG2R61      1    LIG    C22     32     -0.121     12.011   ;
    33     CG2R61      1    LIG    C23     33     -0.110     12.011   ;
    34     CG2R61      1    LIG    C24     34     -0.129     12.011   ;
    35      CG301      1    LIG    C25     35     -0.018     12.011   ;
    36      CG331      1    LIG    C26     36     -0.289     12.011   ;
    37      CG331      1    LIG    C27     37     -0.289     12.011   ;
    38      CG331      1    LIG    C28     38     -0.289     12.011   ;
    39      NG2S0      1    LIG     N3     39     -0.226     14.007   ;
    40      CG2O1      1    LIG    C29     40      0.530     12.011   ;
    41      OG2D1      1    LIG     O3     41     -0.473     15.999   ;
    42      CG331      1    LIG    C30     42     -0.214     12.011   ;
    43      OG311      1    LIG     O4     43     -0.300     15.999   ;
    44       HGP1      1    LIG     H5     44      0.211      1.008   ;
    45       HGA2      1    LIG    HC2     45      0.090      1.008   ;
    46       HGA2      1    LIG    HC3     46      0.090      1.008   ;
    47       HGA2      1    LIG    HC4     47      0.090      1.008   ;
    48       HGA2      1    LIG    HC5     48      0.090      1.008   ;
    49       HGA1      1    LIG     HC     49      0.090      1.008   ;
    50       HGA2      1    LIG    HC6     50      0.090      1.008   ;
    51       HGA2      1    LIG    HC7     51      0.090      1.008   ;
    52       HGA2      1    LIG    HC8     52      0.090      1.008   ;
    53       HGA2      1    LIG    HC9     53      0.090      1.008   ;
    54       HGA2      1    LIG   HC10     54      0.090      1.008   ;
    55       HGA2      1    LIG   HC11     55      0.090      1.008   ;
    56       HGA1      1    LIG    HC1     56      0.090      1.008   ;
    57       HGA1      1    LIG   HC12     57      0.090      1.008   ;
    58       HGA2      1    LIG   HC13     58      0.090      1.008   ;
    59       HGA2      1    LIG   HC14     59      0.090      1.008   ;
    60      HGR62      1    LIG   HC15     60      0.174      1.008   ;
    61      HGR62      1    LIG   HC16     61      0.186      1.008   ;
    62      HGR62      1    LIG   HC17     62      0.174      1.008   ;
    63      HGR61      1    LIG   HC18     63      0.116      1.008   ;
    64      HGR61      1    LIG   HC19     64      0.116      1.008   ;
    65      HGR61      1    LIG   HC20     65      0.116      1.008   ;
    66      HGR61      1    LIG   HC21     66      0.116      1.008   ;
    67       HGA3      1    LIG   HC22     67      0.090      1.008   ;
    68       HGA3      1    LIG   HC23     68      0.090      1.008   ;
    69       HGA3      1    LIG   HC24     69      0.090      1.008   ;
    70       HGA3      1    LIG   HC25     70      0.090      1.008   ;
    71       HGA3      1    LIG   HC26     71      0.090      1.008   ;
    72       HGA3      1    LIG   HC27     72      0.090      1.008   ;
    73       HGA3      1    LIG   HC28     73      0.090      1.008   ;
    74       HGA3      1    LIG   HC29     74      0.090      1.008   ;
    75       HGA3      1    LIG   HC30     75      0.090      1.008   ;
    76       HGA3      1    LIG   HC31     76      0.090      1.008   ;
    77       HGA3      1    LIG   HC32     77      0.090      1.008   ;
    78       HGA3      1    LIG   HC33     78      0.090      1.008   ;
    79       HGA3      1    LIG   HC34     79      0.090      1.008   ;
    80       HGA3      1    LIG   HC35     80      0.090      1.008   ;
    81       HGA3      1    LIG   HC36     81      0.090      1.008   ;

[ bonds ]
;	ai	  aj funct			  c0			c1			  c2			c3
    1     7	 1 ;       CG301      NG3P2
    1    29	 1 ;       CG301     CG2R61
    1     6	 1 ;       CG301      CG321
    1     2	 1 ;       CG301      CG321
    2     3	 1 ;       CG321      CG321
    2    45	 1 ;       CG321       HGA2
    2    46	 1 ;       CG321       HGA2
    3     4	 1 ;       CG321      CG311
    3    47	 1 ;       CG321       HGA2
    3    48	 1 ;       CG321       HGA2
    4     5	 1 ;       CG311      CG321
    4    39	 1 ;       CG311      NG2S0
    4    49	 1 ;       CG311       HGA1
    5     6	 1 ;       CG321      CG321
    5    50	 1 ;       CG321       HGA2
    5    51	 1 ;       CG321       HGA2
    6    52	 1 ;       CG321       HGA2
    6    53	 1 ;       CG321       HGA2
    7     8	 1 ;       NG3P2       HGP2
    7     9	 1 ;       NG3P2       HGP2
    7    10	 1 ;       NG3P2      CG324
   10    11	 1 ;       CG324      CG311
   10    54	 1 ;       CG324       HGA2
   10    55	 1 ;       CG324       HGA2
   11    27	 1 ;       CG311      OG311
   11    12	 1 ;       CG311      CG311
   11    56	 1 ;       CG311       HGA1
   12    13	 1 ;       CG311      CG321
   12    22	 1 ;       CG311      NG2S1
   12    57	 1 ;       CG311       HGA1
   13    14	 1 ;       CG321     CG2R61
   13    58	 1 ;       CG321       HGA2
   13    59	 1 ;       CG321       HGA2
   14    15	 1 ;      CG2R61     CG2R61
   14    20	 1 ;      CG2R61     CG2R61
   15    16	 1 ;      CG2R61     CG2R66
   15    60	 1 ;      CG2R61      HGR62
   16    17	 1 ;      CG2R66       FGR1
   16    18	 1 ;      CG2R66     CG2R61
   18    19	 1 ;      CG2R61     CG2R66
   18    61	 1 ;      CG2R61      HGR62
   19    20	 1 ;      CG2R66     CG2R61
   19    21	 1 ;      CG2R66       FGR1
   20    62	 1 ;      CG2R61      HGR62
   22    26	 1 ;       NG2S1       HGP1
   22    23	 1 ;       NG2S1      CG2O1
   23    25	 1 ;       CG2O1      CG331
   23    24	 1 ;       CG2O1      OG2D1
   25    70	 1 ;       CG331       HGA3
   25    71	 1 ;       CG331       HGA3
   25    72	 1 ;       CG331       HGA3
   27    28	 1 ;       OG311       HGP1
   29    30	 1 ;      CG2R61     CG2R61
   29    34	 1 ;      CG2R61     CG2R61
   30    31	 1 ;      CG2R61     CG2R61
   30    63	 1 ;      CG2R61      HGR61
   31    35	 1 ;      CG2R61      CG301
   31    32	 1 ;      CG2R61     CG2R61
   32    33	 1 ;      CG2R61     CG2R61
   32    64	 1 ;      CG2R61      HGR61
   33    34	 1 ;      CG2R61     CG2R61
   33    65	 1 ;      CG2R61      HGR61
   34    66	 1 ;      CG2R61      HGR61
   35    38	 1 ;       CG301      CG331
   35    36	 1 ;       CG301      CG331
   35    37	 1 ;       CG301      CG331
   36    73	 1 ;       CG331       HGA3
   36    74	 1 ;       CG331       HGA3
   36    75	 1 ;       CG331       HGA3
   37    67	 1 ;       CG331       HGA3
   37    68	 1 ;       CG331       HGA3
   37    69	 1 ;       CG331       HGA3
   38    79	 1 ;       CG331       HGA3
   38    80	 1 ;       CG331       HGA3
   38    81	 1 ;       CG331       HGA3
   39    40	 1 ;       NG2S0      CG2O1
   39    43	 1 ;       NG2S0      OG311
   40    41	 1 ;       CG2O1      OG2D1
   40    42	 1 ;       CG2O1      CG331
   42    76	 1 ;       CG331       HGA3
   42    77	 1 ;       CG331       HGA3
   42    78	 1 ;       CG331       HGA3
   43    44	 1 ;       OG311       HGP1

[ pairs ]
;	ai	  aj funct			  c0			c1			  c2			c3
    1     4	 1
    1    47	 1
    1    48	 1
    1    50	 1
    1    51	 1
    1    11	 1
    1    54	 1
    1    55	 1
    1    31	 1
    1    63	 1
    1    33	 1
    1    66	 1
    2     8	 1
    2     9	 1
    2    10	 1
    2    30	 1
    2    34	 1
    2     5	 1
    2    52	 1
    2    53	 1
    2    39	 1
    2    49	 1
    3     7	 1
    3    29	 1
    3     6	 1
    3    50	 1
    3    51	 1
    3    40	 1
    3    43	 1
    4    45	 1
    4    46	 1
    4    52	 1
    4    53	 1
    4    41	 1
    4    42	 1
    4    44	 1
    5     7	 1
    5    29	 1
    5    47	 1
    5    48	 1
    5    40	 1
    5    43	 1
    6     8	 1
    6     9	 1
    6    10	 1
    6    30	 1
    6    34	 1
    6    45	 1
    6    46	 1
    6    39	 1
    6    49	 1
    7    30	 1
    7    34	 1
    7    52	 1
    7    53	 1
    7    45	 1
    7    46	 1
    7    27	 1
    7    12	 1
    7    56	 1
    8    29	 1
    8    11	 1
    8    54	 1
    8    55	 1
    9    29	 1
    9    11	 1
    9    54	 1
    9    55	 1
   10    29	 1
   10    28	 1
   10    13	 1
   10    22	 1
   10    57	 1
   11    14	 1
   11    58	 1
   11    59	 1
   11    26	 1
   11    23	 1
   12    54	 1
   12    55	 1
   12    28	 1
   12    15	 1
   12    20	 1
   12    25	 1
   12    24	 1
   13    27	 1
   13    56	 1
   13    26	 1
   13    23	 1
   13    16	 1
   13    60	 1
   13    19	 1
   13    62	 1
   14    22	 1
   14    57	 1
   14    17	 1
   14    18	 1
   14    21	 1
   15    58	 1
   15    59	 1
   15    19	 1
   15    62	 1
   15    61	 1
   16    20	 1
   16    21	 1
   17    60	 1
   17    19	 1
   17    61	 1
   18    60	 1
   18    62	 1
   20    58	 1
   20    59	 1
   20    60	 1
   20    61	 1
   21    61	 1
   21    62	 1
   22    27	 1
   22    56	 1
   22    58	 1
   22    59	 1
   22    70	 1
   22    71	 1
   22    72	 1
   23    57	 1
   24    26	 1
   24    70	 1
   24    71	 1
   24    72	 1
   25    26	 1
   26    57	 1
   27    54	 1
   27    55	 1
   27    57	 1
   28    56	 1
   29    52	 1
   29    53	 1
   29    45	 1
   29    46	 1
   29    35	 1
   29    32	 1
   29    65	 1
   30    33	 1
   30    66	 1
   30    38	 1
   30    36	 1
   30    37	 1
   30    64	 1
   31    34	 1
   31    65	 1
   31    79	 1
   31    80	 1
   31    81	 1
   31    73	 1
   31    74	 1
   31    75	 1
   31    67	 1
   31    68	 1
   31    69	 1
   32    63	 1
   32    38	 1
   32    36	 1
   32    37	 1
   32    66	 1
   33    35	 1
   34    63	 1
   34    64	 1
   35    63	 1
   35    64	 1
   36    79	 1
   36    80	 1
   36    81	 1
   36    67	 1
   36    68	 1
   36    69	 1
   37    79	 1
   37    80	 1
   37    81	 1
   37    73	 1
   37    74	 1
   37    75	 1
   38    73	 1
   38    74	 1
   38    75	 1
   38    67	 1
   38    68	 1
   38    69	 1
   39    47	 1
   39    48	 1
   39    50	 1
   39    51	 1
   39    76	 1
   39    77	 1
   39    78	 1
   40    49	 1
   40    44	 1
   41    43	 1
   41    76	 1
   41    77	 1
   41    78	 1
   42    43	 1
   43    49	 1
   45    47	 1
   45    48	 1
   46    47	 1
   46    48	 1
   47    49	 1
   48    49	 1
   49    50	 1
   49    51	 1
   50    52	 1
   50    53	 1
   51    52	 1
   51    53	 1
   54    56	 1
   55    56	 1
   56    57	 1
   57    58	 1
   57    59	 1
   64    65	 1
   65    66	 1

[ angles ]
;	ai	  aj	ak funct			c0			  c1			c2			  c3
    7     1    29	5 ;      NG3P2      CG301     CG2R61
    7     1     6	5 ;      NG3P2      CG301      CG321
    7     1     2	5 ;      NG3P2      CG301      CG321
   29     1     6	5 ;     CG2R61      CG301      CG321
   29     1     2	5 ;     CG2R61      CG301      CG321
    6     1     2	5 ;      CG321      CG301      CG321
    1     2     3	5 ;      CG301      CG321      CG321
    1     2    45	5 ;      CG301      CG321       HGA2
    1     2    46	5 ;      CG301      CG321       HGA2
    3     2    45	5 ;      CG321      CG321       HGA2
    3     2    46	5 ;      CG321      CG321       HGA2
   45     2    46	5 ;       HGA2      CG321       HGA2
    2     3     4	5 ;      CG321      CG321      CG311
    2     3    47	5 ;      CG321      CG321       HGA2
    2     3    48	5 ;      CG321      CG321       HGA2
    4     3    47	5 ;      CG311      CG321       HGA2
    4     3    48	5 ;      CG311      CG321       HGA2
   47     3    48	5 ;       HGA2      CG321       HGA2
    5     4     3	5 ;      CG321      CG311      CG321
    5     4    39	5 ;      CG321      CG311      NG2S0
    5     4    49	5 ;      CG321      CG311       HGA1
    3     4    39	5 ;      CG321      CG311      NG2S0
    3     4    49	5 ;      CG321      CG311       HGA1
   39     4    49	5 ;      NG2S0      CG311       HGA1
    6     5     4	5 ;      CG321      CG321      CG311
    6     5    50	5 ;      CG321      CG321       HGA2
    6     5    51	5 ;      CG321      CG321       HGA2
    4     5    50	5 ;      CG311      CG321       HGA2
    4     5    51	5 ;      CG311      CG321       HGA2
   50     5    51	5 ;       HGA2      CG321       HGA2
    1     6     5	5 ;      CG301      CG321      CG321
    1     6    52	5 ;      CG301      CG321       HGA2
    1     6    53	5 ;      CG301      CG321       HGA2
    5     6    52	5 ;      CG321      CG321       HGA2
    5     6    53	5 ;      CG321      CG321       HGA2
   52     6    53	5 ;       HGA2      CG321       HGA2
    8     7     9	5 ;       HGP2      NG3P2       HGP2
    8     7    10	5 ;       HGP2      NG3P2      CG324
    8     7     1	5 ;       HGP2      NG3P2      CG301
    9     7    10	5 ;       HGP2      NG3P2      CG324
    9     7     1	5 ;       HGP2      NG3P2      CG301
   10     7     1	5 ;      CG324      NG3P2      CG301
    7    10    11	5 ;      NG3P2      CG324      CG311
    7    10    54	5 ;      NG3P2      CG324       HGA2
    7    10    55	5 ;      NG3P2      CG324       HGA2
   11    10    54	5 ;      CG311      CG324       HGA2
   11    10    55	5 ;      CG311      CG324       HGA2
   54    10    55	5 ;       HGA2      CG324       HGA2
   27    11    10	5 ;      OG311      CG311      CG324
   27    11    12	5 ;      OG311      CG311      CG311
   27    11    56	5 ;      OG311      CG311       HGA1
   10    11    12	5 ;      CG324      CG311      CG311
   10    11    56	5 ;      CG324      CG311       HGA1
   12    11    56	5 ;      CG311      CG311       HGA1
   11    12    13	5 ;      CG311      CG311      CG321
   11    12    22	5 ;      CG311      CG311      NG2S1
   11    12    57	5 ;      CG311      CG311       HGA1
   13    12    22	5 ;      CG321      CG311      NG2S1
   13    12    57	5 ;      CG321      CG311       HGA1
   22    12    57	5 ;      NG2S1      CG311       HGA1
   14    13    12	5 ;     CG2R61      CG321      CG311
   14    13    58	5 ;     CG2R61      CG321       HGA2
   14    13    59	5 ;     CG2R61      CG321       HGA2
   12    13    58	5 ;      CG311      CG321       HGA2
   12    13    59	5 ;      CG311      CG321       HGA2
   58    13    59	5 ;       HGA2      CG321       HGA2
   15    14    13	5 ;     CG2R61     CG2R61      CG321
   15    14    20	5 ;     CG2R61     CG2R61     CG2R61
   13    14    20	5 ;      CG321     CG2R61     CG2R61
   14    15    16	5 ;     CG2R61     CG2R61     CG2R66
   14    15    60	5 ;     CG2R61     CG2R61      HGR62
   16    15    60	5 ;     CG2R66     CG2R61      HGR62
   15    16    17	5 ;     CG2R61     CG2R66       FGR1
   15    16    18	5 ;     CG2R61     CG2R66     CG2R61
   17    16    18	5 ;       FGR1     CG2R66     CG2R61
   16    18    19	5 ;     CG2R66     CG2R61     CG2R66
   16    18    61	5 ;     CG2R66     CG2R61      HGR62
   19    18    61	5 ;     CG2R66     CG2R61      HGR62
   18    19    20	5 ;     CG2R61     CG2R66     CG2R61
   18    19    21	5 ;     CG2R61     CG2R66       FGR1
   20    19    21	5 ;     CG2R61     CG2R66       FGR1
   14    20    19	5 ;     CG2R61     CG2R61     CG2R66
   14    20    62	5 ;     CG2R61     CG2R61      HGR62
   19    20    62	5 ;     CG2R66     CG2R61      HGR62
   12    22    26	5 ;      CG311      NG2S1       HGP1
   12    22    23	5 ;      CG311      NG2S1      CG2O1
   26    22    23	5 ;       HGP1      NG2S1      CG2O1
   22    23    25	5 ;      NG2S1      CG2O1      CG331
   22    23    24	5 ;      NG2S1      CG2O1      OG2D1
   25    23    24	5 ;      CG331      CG2O1      OG2D1
   23    25    70	5 ;      CG2O1      CG331       HGA3
   23    25    71	5 ;      CG2O1      CG331       HGA3
   23    25    72	5 ;      CG2O1      CG331       HGA3
   70    25    71	5 ;       HGA3      CG331       HGA3
   70    25    72	5 ;       HGA3      CG331       HGA3
   71    25    72	5 ;       HGA3      CG331       HGA3
   28    27    11	5 ;       HGP1      OG311      CG311
   30    29     1	5 ;     CG2R61     CG2R61      CG301
   30    29    34	5 ;     CG2R61     CG2R61     CG2R61
    1    29    34	5 ;      CG301     CG2R61     CG2R61
   31    30    29	5 ;     CG2R61     CG2R61     CG2R61
   31    30    63	5 ;     CG2R61     CG2R61      HGR61
   29    30    63	5 ;     CG2R61     CG2R61      HGR61
   35    31    30	5 ;      CG301     CG2R61     CG2R61
   35    31    32	5 ;      CG301     CG2R61     CG2R61
   30    31    32	5 ;     CG2R61     CG2R61     CG2R61
   31    32    33	5 ;     CG2R61     CG2R61     CG2R61
   31    32    64	5 ;     CG2R61     CG2R61      HGR61
   33    32    64	5 ;     CG2R61     CG2R61      HGR61
   32    33    34	5 ;     CG2R61     CG2R61     CG2R61
   32    33    65	5 ;     CG2R61     CG2R61      HGR61
   34    33    65	5 ;     CG2R61     CG2R61      HGR61
   29    34    33	5 ;     CG2R61     CG2R61     CG2R61
   29    34    66	5 ;     CG2R61     CG2R61      HGR61
   33    34    66	5 ;     CG2R61     CG2R61      HGR61
   38    35    36	5 ;      CG331      CG301      CG331
   38    35    37	5 ;      CG331      CG301      CG331
   38    35    31	5 ;      CG331      CG301     CG2R61
   36    35    37	5 ;      CG331      CG301      CG331
   36    35    31	5 ;      CG331      CG301     CG2R61
   37    35    31	5 ;      CG331      CG301     CG2R61
   35    36    73	5 ;      CG301      CG331       HGA3
   35    36    74	5 ;      CG301      CG331       HGA3
   35    36    75	5 ;      CG301      CG331       HGA3
   73    36    74	5 ;       HGA3      CG331       HGA3
   73    36    75	5 ;       HGA3      CG331       HGA3
   74    36    75	5 ;       HGA3      CG331       HGA3
   35    37    67	5 ;      CG301      CG331       HGA3
   35    37    68	5 ;      CG301      CG331       HGA3
   35    37    69	5 ;      CG301      CG331       HGA3
   67    37    68	5 ;       HGA3      CG331       HGA3
   67    37    69	5 ;       HGA3      CG331       HGA3
   68    37    69	5 ;       HGA3      CG331       HGA3
   35    38    79	5 ;      CG301      CG331       HGA3
   35    38    80	5 ;      CG301      CG331       HGA3
   35    38    81	5 ;      CG301      CG331       HGA3
   79    38    80	5 ;       HGA3      CG331       HGA3
   79    38    81	5 ;       HGA3      CG331       HGA3
   80    38    81	5 ;       HGA3      CG331       HGA3
    4    39    40	5 ;      CG311      NG2S0      CG2O1
    4    39    43	5 ;      CG311      NG2S0      OG311
   40    39    43	5 ;      CG2O1      NG2S0      OG311
   41    40    39	5 ;      OG2D1      CG2O1      NG2S0
   41    40    42	5 ;      OG2D1      CG2O1      CG331
   39    40    42	5 ;      NG2S0      CG2O1      CG331
   40    42    76	5 ;      CG2O1      CG331       HGA3
   40    42    77	5 ;      CG2O1      CG331       HGA3
   40    42    78	5 ;      CG2O1      CG331       HGA3
   76    42    77	5 ;       HGA3      CG331       HGA3
   76    42    78	5 ;       HGA3      CG331       HGA3
   77    42    78	5 ;       HGA3      CG331       HGA3
   39    43    44	5 ;      NG2S0      OG311       HGP1

[ dihedrals ]
;	ai	  aj	ak	  al funct			  c0			c1			  c2			c3			  c4			c5
   29     1     7     8	 9 ;     CG2R61      CG301      NG3P2       HGP2
   29     1     7     9	 9 ;     CG2R61      CG301      NG3P2       HGP2
   29     1     7    10	 9 ;     CG2R61      CG301      NG3P2      CG324
    6     1     7     8	 9 ;      CG321      CG301      NG3P2       HGP2
    6     1     7     9	 9 ;      CG321      CG301      NG3P2       HGP2
    6     1     7    10	 9 ;      CG321      CG301      NG3P2      CG324
    2     1     7     8	 9 ;      CG321      CG301      NG3P2       HGP2
    2     1     7     9	 9 ;      CG321      CG301      NG3P2       HGP2
    2     1     7    10	 9 ;      CG321      CG301      NG3P2      CG324
    7     1    29    30	 9 ;      NG3P2      CG301     CG2R61     CG2R61
    7     1    29    34	 9 ;      NG3P2      CG301     CG2R61     CG2R61
    6     1    29    30	 9 ;      CG321      CG301     CG2R61     CG2R61
    6     1    29    34	 9 ;      CG321      CG301     CG2R61     CG2R61
    2     1    29    30	 9 ;      CG321      CG301     CG2R61     CG2R61
    2     1    29    34	 9 ;      CG321      CG301     CG2R61     CG2R61
    7     1     6     5	 9 ;      NG3P2      CG301      CG321      CG321
    7     1     6    52	 9 ;      NG3P2      CG301      CG321       HGA2
    7     1     6    53	 9 ;      NG3P2      CG301      CG321       HGA2
   29     1     6     5	 9 ;     CG2R61      CG301      CG321      CG321
   29     1     6    52	 9 ;     CG2R61      CG301      CG321       HGA2
   29     1     6    53	 9 ;     CG2R61      CG301      CG321       HGA2
    2     1     6     5	 9 ;      CG321      CG301      CG321      CG321
    2     1     6    52	 9 ;      CG321      CG301      CG321       HGA2
    2     1     6    53	 9 ;      CG321      CG301      CG321       HGA2
    7     1     2     3	 9 ;      NG3P2      CG301      CG321      CG321
    7     1     2    45	 9 ;      NG3P2      CG301      CG321       HGA2
    7     1     2    46	 9 ;      NG3P2      CG301      CG321       HGA2
   29     1     2     3	 9 ;     CG2R61      CG301      CG321      CG321
   29     1     2    45	 9 ;     CG2R61      CG301      CG321       HGA2
   29     1     2    46	 9 ;     CG2R61      CG301      CG321       HGA2
    6     1     2     3	 9 ;      CG321      CG301      CG321      CG321
    6     1     2    45	 9 ;      CG321      CG301      CG321       HGA2
    6     1     2    46	 9 ;      CG321      CG301      CG321       HGA2
    1     2     3     4	 9 ;      CG301      CG321      CG321      CG311
    1     2     3    47	 9 ;      CG301      CG321      CG321       HGA2
    1     2     3    48	 9 ;      CG301      CG321      CG321       HGA2
   45     2     3     4	 9 ;       HGA2      CG321      CG321      CG311
   45     2     3    47	 9 ;       HGA2      CG321      CG321       HGA2
   45     2     3    48	 9 ;       HGA2      CG321      CG321       HGA2
   46     2     3     4	 9 ;       HGA2      CG321      CG321      CG311
   46     2     3    47	 9 ;       HGA2      CG321      CG321       HGA2
   46     2     3    48	 9 ;       HGA2      CG321      CG321       HGA2
    2     3     4     5	 9 ;      CG321      CG321      CG311      CG321
    2     3     4    39	 9 ;      CG321      CG321      CG311      NG2S0
    2     3     4    49	 9 ;      CG321      CG321      CG311       HGA1
   47     3     4     5	 9 ;       HGA2      CG321      CG311      CG321
   47     3     4    39	 9 ;       HGA2      CG321      CG311      NG2S0
   47     3     4    49	 9 ;       HGA2      CG321      CG311       HGA1
   48     3     4     5	 9 ;       HGA2      CG321      CG311      CG321
   48     3     4    39	 9 ;       HGA2      CG321      CG311      NG2S0
   48     3     4    49	 9 ;       HGA2      CG321      CG311       HGA1
    3     4     5     6	 9 ;      CG321      CG311      CG321      CG321
    3     4     5    50	 9 ;      CG321      CG311      CG321       HGA2
    3     4     5    51	 9 ;      CG321      CG311      CG321       HGA2
   39     4     5     6	 9 ;      NG2S0      CG311      CG321      CG321
   39     4     5    50	 9 ;      NG2S0      CG311      CG321       HGA2
   39     4     5    51	 9 ;      NG2S0      CG311      CG321       HGA2
   49     4     5     6	 9 ;       HGA1      CG311      CG321      CG321
   49     4     5    50	 9 ;       HGA1      CG311      CG321       HGA2
   49     4     5    51	 9 ;       HGA1      CG311      CG321       HGA2
    5     4    39    40	 9 ;      CG321      CG311      NG2S0      CG2O1
    5     4    39    43	 9 ;      CG321      CG311      NG2S0      OG311
    3     4    39    40	 9 ;      CG321      CG311      NG2S0      CG2O1
    3     4    39    43	 9 ;      CG321      CG311      NG2S0      OG311
   49     4    39    40	 9 ;       HGA1      CG311      NG2S0      CG2O1
   49     4    39    43	 9 ;       HGA1      CG311      NG2S0      OG311
    4     5     6     1	 9 ;      CG311      CG321      CG321      CG301
    4     5     6    52	 9 ;      CG311      CG321      CG321       HGA2
    4     5     6    53	 9 ;      CG311      CG321      CG321       HGA2
   50     5     6     1	 9 ;       HGA2      CG321      CG321      CG301
   50     5     6    52	 9 ;       HGA2      CG321      CG321       HGA2
   50     5     6    53	 9 ;       HGA2      CG321      CG321       HGA2
   51     5     6     1	 9 ;       HGA2      CG321      CG321      CG301
   51     5     6    52	 9 ;       HGA2      CG321      CG321       HGA2
   51     5     6    53	 9 ;       HGA2      CG321      CG321       HGA2
    8     7    10    11	 9 ;       HGP2      NG3P2      CG324      CG311
    8     7    10    54	 9 ;       HGP2      NG3P2      CG324       HGA2
    8     7    10    55	 9 ;       HGP2      NG3P2      CG324       HGA2
    9     7    10    11	 9 ;       HGP2      NG3P2      CG324      CG311
    9     7    10    54	 9 ;       HGP2      NG3P2      CG324       HGA2
    9     7    10    55	 9 ;       HGP2      NG3P2      CG324       HGA2
    1     7    10    11	 9 ;      CG301      NG3P2      CG324      CG311
    1     7    10    54	 9 ;      CG301      NG3P2      CG324       HGA2
    1     7    10    55	 9 ;      CG301      NG3P2      CG324       HGA2
    7    10    11    27	 9 ;      NG3P2      CG324      CG311      OG311
    7    10    11    12	 9 ;      NG3P2      CG324      CG311      CG311
    7    10    11    56	 9 ;      NG3P2      CG324      CG311       HGA1
   54    10    11    27	 9 ;       HGA2      CG324      CG311      OG311
   54    10    11    12	 9 ;       HGA2      CG324      CG311      CG311
   54    10    11    56	 9 ;       HGA2      CG324      CG311       HGA1
   55    10    11    27	 9 ;       HGA2      CG324      CG311      OG311
   55    10    11    12	 9 ;       HGA2      CG324      CG311      CG311
   55    10    11    56	 9 ;       HGA2      CG324      CG311       HGA1
   10    11    27    28	 9 ;      CG324      CG311      OG311       HGP1
   12    11    27    28	 9 ;      CG311      CG311      OG311       HGP1
   56    11    27    28	 9 ;       HGA1      CG311      OG311       HGP1
   27    11    12    13	 9 ;      OG311      CG311      CG311      CG321
   27    11    12    22	 9 ;      OG311      CG311      CG311      NG2S1
   27    11    12    57	 9 ;      OG311      CG311      CG311       HGA1
   10    11    12    13	 9 ;      CG324      CG311      CG311      CG321
   10    11    12    22	 9 ;      CG324      CG311      CG311      NG2S1
   10    11    12    57	 9 ;      CG324      CG311      CG311       HGA1
   56    11    12    13	 9 ;       HGA1      CG311      CG311      CG321
   56    11    12    22	 9 ;       HGA1      CG311      CG311      NG2S1
   56    11    12    57	 9 ;       HGA1      CG311      CG311       HGA1
   11    12    13    14	 9 ;      CG311      CG311      CG321     CG2R61
   11    12    13    58	 9 ;      CG311      CG311      CG321       HGA2
   11    12    13    59	 9 ;      CG311      CG311      CG321       HGA2
   22    12    13    14	 9 ;      NG2S1      CG311      CG321     CG2R61
   22    12    13    58	 9 ;      NG2S1      CG311      CG321       HGA2
   22    12    13    59	 9 ;      NG2S1      CG311      CG321       HGA2
   57    12    13    14	 9 ;       HGA1      CG311      CG321     CG2R61
   57    12    13    58	 9 ;       HGA1      CG311      CG321       HGA2
   57    12    13    59	 9 ;       HGA1      CG311      CG321       HGA2
   11    12    22    26	 9 ;      CG311      CG311      NG2S1       HGP1
   11    12    22    23	 9 ;      CG311      CG311      NG2S1      CG2O1
   13    12    22    26	 9 ;      CG321      CG311      NG2S1       HGP1
   13    12    22    23	 9 ;      CG321      CG311      NG2S1      CG2O1
   57    12    22    26	 9 ;       HGA1      CG311      NG2S1       HGP1
   57    12    22    23	 9 ;       HGA1      CG311      NG2S1      CG2O1
   12    13    14    15	 9 ;      CG311      CG321     CG2R61     CG2R61
   12    13    14    20	 9 ;      CG311      CG321     CG2R61     CG2R61
   58    13    14    15	 9 ;       HGA2      CG321     CG2R61     CG2R61
   58    13    14    20	 9 ;       HGA2      CG321     CG2R61     CG2R61
   59    13    14    15	 9 ;       HGA2      CG321     CG2R61     CG2R61
   59    13    14    20	 9 ;       HGA2      CG321     CG2R61     CG2R61
   13    14    15    16	 9 ;      CG321     CG2R61     CG2R61     CG2R66
   13    14    15    60	 9 ;      CG321     CG2R61     CG2R61      HGR62
   20    14    15    16	 9 ;     CG2R61     CG2R61     CG2R61     CG2R66
   20    14    15    60	 9 ;     CG2R61     CG2R61     CG2R61      HGR62
   15    14    20    19	 9 ;     CG2R61     CG2R61     CG2R61     CG2R66
   15    14    20    62	 9 ;     CG2R61     CG2R61     CG2R61      HGR62
   13    14    20    19	 9 ;      CG321     CG2R61     CG2R61     CG2R66
   13    14    20    62	 9 ;      CG321     CG2R61     CG2R61      HGR62
   14    15    16    17	 9 ;     CG2R61     CG2R61     CG2R66       FGR1
   14    15    16    18	 9 ;     CG2R61     CG2R61     CG2R66     CG2R61
   60    15    16    17	 9 ;      HGR62     CG2R61     CG2R66       FGR1
   60    15    16    18	 9 ;      HGR62     CG2R61     CG2R66     CG2R61
   15    16    18    19	 9 ;     CG2R61     CG2R66     CG2R61     CG2R66
   15    16    18    61	 9 ;     CG2R61     CG2R66     CG2R61      HGR62
   17    16    18    19	 9 ;       FGR1     CG2R66     CG2R61     CG2R66
   17    16    18    61	 9 ;       FGR1     CG2R66     CG2R61      HGR62
   16    18    19    20	 9 ;     CG2R66     CG2R61     CG2R66     CG2R61
   16    18    19    21	 9 ;     CG2R66     CG2R61     CG2R66       FGR1
   61    18    19    20	 9 ;      HGR62     CG2R61     CG2R66     CG2R61
   61    18    19    21	 9 ;      HGR62     CG2R61     CG2R66       FGR1
   18    19    20    14	 9 ;     CG2R61     CG2R66     CG2R61     CG2R61
   18    19    20    62	 9 ;     CG2R61     CG2R66     CG2R61      HGR62
   21    19    20    14	 9 ;       FGR1     CG2R66     CG2R61     CG2R61
   21    19    20    62	 9 ;       FGR1     CG2R66     CG2R61      HGR62
   12    22    23    25	 9 ;      CG311      NG2S1      CG2O1      CG331
   12    22    23    24	 9 ;      CG311      NG2S1      CG2O1      OG2D1
   26    22    23    25	 9 ;       HGP1      NG2S1      CG2O1      CG331
   26    22    23    24	 9 ;       HGP1      NG2S1      CG2O1      OG2D1
   22    23    25    70	 9 ;      NG2S1      CG2O1      CG331       HGA3
   22    23    25    71	 9 ;      NG2S1      CG2O1      CG331       HGA3
   22    23    25    72	 9 ;      NG2S1      CG2O1      CG331       HGA3
   24    23    25    70	 9 ;      OG2D1      CG2O1      CG331       HGA3
   24    23    25    71	 9 ;      OG2D1      CG2O1      CG331       HGA3
   24    23    25    72	 9 ;      OG2D1      CG2O1      CG331       HGA3
    1    29    30    31	 9 ;      CG301     CG2R61     CG2R61     CG2R61
    1    29    30    63	 9 ;      CG301     CG2R61     CG2R61      HGR61
   34    29    30    31	 9 ;     CG2R61     CG2R61     CG2R61     CG2R61
   34    29    30    63	 9 ;     CG2R61     CG2R61     CG2R61      HGR61
   30    29    34    33	 9 ;     CG2R61     CG2R61     CG2R61     CG2R61
   30    29    34    66	 9 ;     CG2R61     CG2R61     CG2R61      HGR61
    1    29    34    33	 9 ;      CG301     CG2R61     CG2R61     CG2R61
    1    29    34    66	 9 ;      CG301     CG2R61     CG2R61      HGR61
   29    30    31    35	 9 ;     CG2R61     CG2R61     CG2R61      CG301
   29    30    31    32	 9 ;     CG2R61     CG2R61     CG2R61     CG2R61
   63    30    31    35	 9 ;      HGR61     CG2R61     CG2R61      CG301
   63    30    31    32	 9 ;      HGR61     CG2R61     CG2R61     CG2R61
   30    31    35    38	 9 ;     CG2R61     CG2R61      CG301      CG331
   30    31    35    36	 9 ;     CG2R61     CG2R61      CG301      CG331
   30    31    35    37	 9 ;     CG2R61     CG2R61      CG301      CG331
   32    31    35    38	 9 ;     CG2R61     CG2R61      CG301      CG331
   32    31    35    36	 9 ;     CG2R61     CG2R61      CG301      CG331
   32    31    35    37	 9 ;     CG2R61     CG2R61      CG301      CG331
   35    31    32    33	 9 ;      CG301     CG2R61     CG2R61     CG2R61
   35    31    32    64	 9 ;      CG301     CG2R61     CG2R61      HGR61
   30    31    32    33	 9 ;     CG2R61     CG2R61     CG2R61     CG2R61
   30    31    32    64	 9 ;     CG2R61     CG2R61     CG2R61      HGR61
   31    32    33    34	 9 ;     CG2R61     CG2R61     CG2R61     CG2R61
   31    32    33    65	 9 ;     CG2R61     CG2R61     CG2R61      HGR61
   64    32    33    34	 9 ;      HGR61     CG2R61     CG2R61     CG2R61
   64    32    33    65	 9 ;      HGR61     CG2R61     CG2R61      HGR61
   32    33    34    29	 9 ;     CG2R61     CG2R61     CG2R61     CG2R61
   32    33    34    66	 9 ;     CG2R61     CG2R61     CG2R61      HGR61
   65    33    34    29	 9 ;      HGR61     CG2R61     CG2R61     CG2R61
   65    33    34    66	 9 ;      HGR61     CG2R61     CG2R61      HGR61
   36    35    38    79	 9 ;      CG331      CG301      CG331       HGA3
   36    35    38    80	 9 ;      CG331      CG301      CG331       HGA3
   36    35    38    81	 9 ;      CG331      CG301      CG331       HGA3
   37    35    38    79	 9 ;      CG331      CG301      CG331       HGA3
   37    35    38    80	 9 ;      CG331      CG301      CG331       HGA3
   37    35    38    81	 9 ;      CG331      CG301      CG331       HGA3
   31    35    38    79	 9 ;     CG2R61      CG301      CG331       HGA3
   31    35    38    80	 9 ;     CG2R61      CG301      CG331       HGA3
   31    35    38    81	 9 ;     CG2R61      CG301      CG331       HGA3
   38    35    36    73	 9 ;      CG331      CG301      CG331       HGA3
   38    35    36    74	 9 ;      CG331      CG301      CG331       HGA3
   38    35    36    75	 9 ;      CG331      CG301      CG331       HGA3
   37    35    36    73	 9 ;      CG331      CG301      CG331       HGA3
   37    35    36    74	 9 ;      CG331      CG301      CG331       HGA3
   37    35    36    75	 9 ;      CG331      CG301      CG331       HGA3
   31    35    36    73	 9 ;     CG2R61      CG301      CG331       HGA3
   31    35    36    74	 9 ;     CG2R61      CG301      CG331       HGA3
   31    35    36    75	 9 ;     CG2R61      CG301      CG331       HGA3
   38    35    37    67	 9 ;      CG331      CG301      CG331       HGA3
   38    35    37    68	 9 ;      CG331      CG301      CG331       HGA3
   38    35    37    69	 9 ;      CG331      CG301      CG331       HGA3
   36    35    37    67	 9 ;      CG331      CG301      CG331       HGA3
   36    35    37    68	 9 ;      CG331      CG301      CG331       HGA3
   36    35    37    69	 9 ;      CG331      CG301      CG331       HGA3
   31    35    37    67	 9 ;     CG2R61      CG301      CG331       HGA3
   31    35    37    68	 9 ;     CG2R61      CG301      CG331       HGA3
   31    35    37    69	 9 ;     CG2R61      CG301      CG331       HGA3
    4    39    40    41	 9 ;      CG311      NG2S0      CG2O1      OG2D1
    4    39    40    42	 9 ;      CG311      NG2S0      CG2O1      CG331
   43    39    40    41	 9 ;      OG311      NG2S0      CG2O1      OG2D1
   43    39    40    42	 9 ;      OG311      NG2S0      CG2O1      CG331
    4    39    43    44	 9 ;      CG311      NG2S0      OG311       HGP1
   40    39    43    44	 9 ;      CG2O1      NG2S0      OG311       HGP1
   41    40    42    76	 9 ;      OG2D1      CG2O1      CG331       HGA3
   41    40    42    77	 9 ;      OG2D1      CG2O1      CG331       HGA3
   41    40    42    78	 9 ;      OG2D1      CG2O1      CG331       HGA3
   39    40    42    76	 9 ;      NG2S0      CG2O1      CG331       HGA3
   39    40    42    77	 9 ;      NG2S0      CG2O1      CG331       HGA3
   39    40    42    78	 9 ;      NG2S0      CG2O1      CG331       HGA3

[ dihedrals ]
;	ai	  aj	ak	  al funct			  c0			c1			  c2			c3
   23    25    22    24	 2
   40    42    39    41	 2

