Giant Rising Ordinary Mutants for A Clerical Setup
   81
    1LIG     C1    1  -1.384   0.669  -1.783
    1LIG     C2    2  -1.496   0.675  -1.674
    1LIG     C3    3  -1.509   0.812  -1.605
    1LIG     C4    4  -1.523   0.930  -1.702
    1LIG     C5    5  -1.410   0.930  -1.804
    1LIG     C6    6  -1.385   0.795  -1.875
    1LIG     N1    7  -1.410   0.540  -1.880
    1LIG     H1    8  -1.333   0.537  -1.948
    1LIG     H2    9  -1.493   0.562  -1.936
    1LIG     C7   10  -1.433   0.393  -1.823
    1LIG     C8   11  -1.319   0.338  -1.727
    1LIG     C9   12  -1.359   0.287  -1.577
    1LIG    C10   13  -1.237   0.268  -1.484
    1LIG    C11   14  -1.230   0.141  -1.403
    1LIG    C12   15  -1.120   0.123  -1.316
    1LIG    C13   16  -1.113   0.012  -1.233
    1LIG     F1   17  -1.007  -0.002  -1.152
    1LIG    C14   18  -1.214  -0.083  -1.232
    1LIG    C15   19  -1.324  -0.065  -1.315
    1LIG    C16   20  -1.334   0.047  -1.398
    1LIG     F2   21  -1.423  -0.154  -1.313
    1LIG     N2   22  -1.462   0.371  -1.508
    1LIG    C17   23  -1.598   0.357  -1.496
    1LIG     O1   24  -1.658   0.435  -1.422
    1LIG    C18   25  -1.675   0.249  -1.570
    1LIG     H3   26  -1.429   0.450  -1.454
    1LIG     O2   27  -1.247   0.234  -1.795
    1LIG     H4   28  -1.299   0.150  -1.786
    1LIG    C19   29  -1.245   0.655  -1.707
    1LIG    C20   30  -1.122   0.634  -1.776
    1LIG    C21   31  -0.995   0.630  -1.711
    1LIG    C22   32  -0.993   0.645  -1.571
    1LIG    C23   33  -1.111   0.655  -1.500
    1LIG    C24   34  -1.234   0.661  -1.566
    1LIG    C25   35  -0.860   0.625  -1.787
    1LIG    C26   36  -0.865   0.693  -1.925
    1LIG    C27   37  -0.758   0.699  -1.699
    1LIG    C28   38  -0.807   0.481  -1.810
    1LIG     N3   39  -1.659   0.941  -1.760
    1LIG    C29   40  -1.698   1.006  -1.875
    1LIG     O3   41  -1.621   1.060  -1.953
    1LIG    C30   42  -1.844   1.005  -1.908
    1LIG     O4   43  -1.760   0.910  -1.667
    1LIG     H5   44  -1.717   0.843  -1.609
    1LIG    HC2   45  -1.591   0.651  -1.721
    1LIG    HC3   46  -1.475   0.600  -1.598
    1LIG    HC4   47  -1.419   0.829  -1.545
    1LIG    HC5   48  -1.595   0.811  -1.539
    1LIG     HC   49  -1.509   1.020  -1.642
    1LIG    HC6   50  -1.318   0.957  -1.753
    1LIG    HC7   51  -1.431   1.005  -1.880
    1LIG    HC8   52  -1.289   0.801  -1.926
    1LIG    HC9   53  -1.463   0.782  -1.951
    1LIG   HC10   54  -1.442   0.325  -1.908
    1LIG   HC11   55  -1.528   0.392  -1.768
    1LIG    HC1   56  -1.248   0.419  -1.714
    1LIG   HC12   57  -1.403   0.188  -1.589
    1LIG   HC13   58  -1.147   0.272  -1.546
    1LIG   HC14   59  -1.233   0.352  -1.415
    1LIG   HC15   60  -1.041   0.196  -1.315
    1LIG   HC16   61  -1.207  -0.170  -1.168
    1LIG   HC17   62  -1.421   0.060  -1.460
    1LIG   HC18   63  -1.125   0.620  -1.883
    1LIG   HC19   64  -0.899   0.648  -1.519
    1LIG   HC20   65  -1.109   0.660  -1.392
    1LIG   HC21   66  -1.324   0.669  -1.508
    1LIG   HC22   67  -0.667   0.717  -1.757
    1LIG   HC23   68  -0.800   0.794  -1.667
    1LIG   HC24   69  -0.734   0.639  -1.612
    1LIG   HC25   70  -1.781   0.259  -1.550
    1LIG   HC26   71  -1.657   0.258  -1.677
    1LIG   HC27   72  -1.641   0.151  -1.536
    1LIG   HC28   73  -0.902   0.795  -1.914
    1LIG   HC29   74  -0.932   0.637  -1.991
    1LIG   HC30   75  -0.765   0.695  -1.968
    1LIG   HC31   76  -1.859   1.047  -2.008
    1LIG   HC32   77  -1.899   1.066  -1.835
    1LIG   HC33   78  -1.882   0.903  -1.906
    1LIG   HC34   79  -0.802   0.428  -1.715
    1LIG   HC35   80  -0.708   0.485  -1.854
    1LIG   HC36   81  -0.874   0.428  -1.877
   0.00000   0.00000   0.00000
