GRowing Old MAkes el Chrono Sweat
   26
    1LIG     O2    1   8.470   1.753   9.711
    1LIG     C1    2   8.360   1.728   9.501
    1LIG     C2    3   8.397   1.798   9.625
    1LIG     O3    4   8.285   1.629   9.255
    1LIG     C3    5   8.451   1.461   9.258
    1LIG     C4    6   8.558   1.401   9.329
    1LIG     C5    7   8.406   1.405   9.138
    1LIG     C6    8   8.616   1.285   9.278
    1LIG     C7    9   8.467   1.290   9.089
    1LIG     C8   10   8.571   1.230   9.158
    1LIG     C9   11   8.441   1.645   9.434
    1LIG    C10   12   8.584   1.610   9.464
    1LIG    C11   13   8.384   1.582   9.311
    1LIG    C12   14   8.605   1.459   9.460
    1LIG     O1   15   8.426   1.233   8.972
    1LIG     H1   16   8.372   1.297   8.923
    1LIG     O4   17   8.339   1.919   9.632
    1LIG    H10   18   8.354   1.977   9.555
    1LIG     H2   19   8.265   1.743   9.464
    1LIG     H3   20   8.328   1.449   9.086
    1LIG     H4   21   8.693   1.239   9.329
    1LIG     H5   22   8.615   1.144   9.120
    1LIG     H6   23   8.609   1.645   9.562
    1LIG     H7   24   8.647   1.655   9.391
    1LIG     H8   25   8.709   1.437   9.472
    1LIG     H9   26   8.547   1.414   9.539
   0.00000   0.00000   0.00000
