Good gRace! Old Maple Actually Chews Slate
   79
    1LIG     C1    1  -1.307   0.474  -1.761
    1LIG     O1    2  -1.255   0.439  -1.870
    1LIG     N1    3  -1.280   0.604  -1.738
    1LIG     H1    4  -1.233   0.630  -1.825
    1LIG     C2    5  -1.276   0.722  -1.646
    1LIG     C3    6  -1.412   0.781  -1.589
    1LIG     C4    7  -1.553   0.745  -1.642
    1LIG     C5    8  -1.662   0.774  -1.539
    1LIG     C6    9  -1.584   0.831  -1.768
    1LIG     C7   10  -1.169   0.722  -1.528
    1LIG     O2   11  -1.217   0.645  -1.418
    1LIG     H2   12  -1.304   0.609  -1.445
    1LIG     C8   13  -1.014   0.704  -1.551
    1LIG     C9   14  -0.949   0.762  -1.682
    1LIG    C10   15  -0.812   0.813  -1.643
    1LIG    C11   16  -0.937   0.664  -1.807
    1LIG     O3   17  -1.020   0.666  -1.898
    1LIG     N2   18  -0.823   0.579  -1.811
    1LIG     H3   19  -0.748   0.606  -1.748
    1LIG    C12   20  -0.785   0.506  -1.933
    1LIG    C13   21  -0.848   0.367  -1.973
    1LIG    C14   22  -0.911   0.278  -1.865
    1LIG    C15   23  -0.943   0.373  -2.093
    1LIG    C16   24  -1.392   0.362  -1.690
    1LIG     N3   25  -1.283   0.264  -1.643
    1LIG    C17   26  -1.203   0.274  -1.526
    1LIG     O4   27  -1.183   0.378  -1.467
    1LIG     H4   28  -1.318   0.170  -1.656
    1LIG    C18   29  -1.150   0.138  -1.474
    1LIG    C19   30  -1.043   0.128  -1.381
    1LIG    C20   31  -1.009   0.004  -1.323
    1LIG    C21   32  -1.080  -0.113  -1.355
    1LIG    C22   33  -1.179  -0.105  -1.452
    1LIG    C23   34  -1.211   0.018  -1.511
    1LIG    C24   35  -1.499   0.396  -1.581
    1LIG    C25   36  -1.650   0.366  -1.573
    1LIG    C26   37  -1.706   0.282  -1.672
    1LIG    C27   38  -1.841   0.244  -1.673
    1LIG    C28   39  -1.925   0.287  -1.572
    1LIG    C29   40  -1.872   0.366  -1.470
    1LIG    C30   41  -1.736   0.405  -1.469
    1LIG    HC2   42  -1.413   0.754  -1.483
    1LIG    HC3   43  -1.403   0.889  -1.593
    1LIG     HC   44  -1.556   0.639  -1.669
    1LIG    HC1   45  -1.644   0.715  -1.449
    1LIG    HC4   46  -1.661   0.880  -1.514
    1LIG    HC5   47  -1.760   0.747  -1.581
    1LIG    HC6   48  -1.508   0.813  -1.844
    1LIG    HC7   49  -1.584   0.937  -1.741
    1LIG    HC8   50  -1.682   0.804  -1.807
    1LIG    HC9   51  -0.994   0.597  -1.549
    1LIG   HC10   52  -0.962   0.749  -1.466
    1LIG   HC11   53  -1.008   0.847  -1.713
    1LIG   HC12   54  -0.762   0.854  -1.730
    1LIG   HC13   55  -0.753   0.731  -1.602
    1LIG   HC14   56  -0.823   0.891  -1.567
    1LIG   HC15   57  -0.677   0.489  -1.926
    1LIG   HC16   58  -0.801   0.574  -2.017
    1LIG   HC17   59  -0.763   0.309  -2.009
    1LIG   HC18   60  -0.844   0.273  -1.779
    1LIG   HC19   61  -0.927   0.178  -1.906
    1LIG   HC20   62  -1.007   0.320  -1.835
    1LIG   HC21   63  -0.899   0.437  -2.170
    1LIG   HC22   64  -0.958   0.273  -2.132
    1LIG   HC23   65  -1.038   0.415  -2.061
    1LIG   HC24   66  -1.445   0.310  -1.770
    1LIG   HC25   67  -0.986   0.216  -1.355
    1LIG   HC26   68  -0.928  -0.002  -1.252
    1LIG   HC27   69  -1.057  -0.206  -1.307
    1LIG   HC28   70  -1.233  -0.195  -1.481
    1LIG   HC29   71  -1.286   0.020  -1.589
    1LIG   HC30   72  -1.494   0.504  -1.573
    1LIG   HC31   73  -1.458   0.358  -1.487
    1LIG   HC32   74  -1.642   0.244  -1.751
    1LIG   HC33   75  -1.880   0.181  -1.752
    1LIG   HC34   76  -2.030   0.261  -1.573
    1LIG   HC35   77  -1.936   0.399  -1.389
    1LIG   HC36   78  -1.697   0.464  -1.388
    1LIG    H42   79  -1.176   0.824  -1.490
   0.00000   0.00000   0.00000
