; Created by cgenff_charmm2gmx.py

[ moleculetype ]
; Name			   nrexcl
LIG				 3

[ atoms ]
;	 nr		  type	resnr residue  atom   cgnr	   charge		mass  typeB    chargeB		massB
; residue	 1 LIG rtp LIG q	qsum
     1      CG2O1      1    LIG     C1      1      0.686     12.011   ;
     2      OG2D1      1    LIG     O1      2     -0.509     15.999   ;
     3      NG2P1      1    LIG     N1      3     -0.329     14.007   ;
     4       HGP2      1    LIG     H1      4      0.414      1.008   ;
     5     CG2DC1      1    LIG     C2      5      0.609     12.011   ;
     6      CG321      1    LIG     C3      6     -0.118     12.011   ;
     7      CG311      1    LIG     C4      7     -0.105     12.011   ;
     8      CG331      1    LIG     C5      8     -0.267     12.011   ;
     9      CG331      1    LIG     C6      9     -0.267     12.011   ;
    10      CG311      1    LIG     C7     10      0.171     12.011   ;
    11      OG311      1    LIG     O2     11     -0.637     15.999   ;
    12       HGP1      1    LIG     H2     12      0.414      1.008   ;
    13      CG321      1    LIG     C8     13     -0.225     12.011   ;
    14      CG311      1    LIG     C9     14     -0.020     12.011   ;
    15      CG331      1    LIG    C10     15     -0.266     12.011   ;
    16      CG2O1      1    LIG    C11     16      0.492     12.011   ;
    17      OG2D1      1    LIG     O3     17     -0.514     15.999   ;
    18      NG2S1      1    LIG     N2     18     -0.471     14.007   ;
    19       HGP1      1    LIG     H3     19      0.310      1.008   ;
    20      CG321      1    LIG    C12     20     -0.007     12.011   ;
    21      CG311      1    LIG    C13     21     -0.133     12.011   ;
    22      CG331      1    LIG    C14     22     -0.258     12.011   ;
    23      CG331      1    LIG    C15     23     -0.258     12.011   ;
    24      CG311      1    LIG    C16     24      0.090     12.011   ;
    25      NG2S1      1    LIG     N3     25     -0.308     14.007   ;
    26      CG2O1      1    LIG    C17     26      0.320     12.011   ;
    27      OG2D1      1    LIG     O4     27     -0.463     15.999   ;
    28       HGP1      1    LIG     H4     28      0.309      1.008   ;
    29     CG2R61      1    LIG    C18     29     -0.107     12.011   ;
    30     CG2R61      1    LIG    C19     30     -0.060     12.011   ;
    31     CG2R61      1    LIG    C20     31     -0.114     12.011   ;
    32     CG2R61      1    LIG    C21     32     -0.116     12.011   ;
    33     CG2R61      1    LIG    C22     33     -0.114     12.011   ;
    34     CG2R61      1    LIG    C23     34     -0.060     12.011   ;
    35      CG321      1    LIG    C24     35     -0.180     12.011   ;
    36     CG2R61      1    LIG    C25     36     -0.003     12.011   ;
    37     CG2R61      1    LIG    C26     37     -0.123     12.011   ;
    38     CG2R61      1    LIG    C27     38     -0.112     12.011   ;
    39     CG2R61      1    LIG    C28     39     -0.116     12.011   ;
    40     CG2R61      1    LIG    C29     40     -0.112     12.011   ;
    41     CG2R61      1    LIG    C30     41     -0.123     12.011   ;
    42       HGA2      1    LIG    HC2     42      0.090      1.008   ;
    43       HGA2      1    LIG    HC3     43      0.090      1.008   ;
    44       HGA1      1    LIG     HC     44      0.090      1.008   ;
    45       HGA3      1    LIG    HC1     45      0.090      1.008   ;
    46       HGA3      1    LIG    HC4     46      0.090      1.008   ;
    47       HGA3      1    LIG    HC5     47      0.090      1.008   ;
    48       HGA3      1    LIG    HC6     48      0.090      1.008   ;
    49       HGA3      1    LIG    HC7     49      0.090      1.008   ;
    50       HGA3      1    LIG    HC8     50      0.090      1.008   ;
    51       HGA2      1    LIG    HC9     51      0.090      1.008   ;
    52       HGA2      1    LIG   HC10     52      0.090      1.008   ;
    53       HGA1      1    LIG   HC11     53      0.090      1.008   ;
    54       HGA3      1    LIG   HC12     54      0.090      1.008   ;
    55       HGA3      1    LIG   HC13     55      0.090      1.008   ;
    56       HGA3      1    LIG   HC14     56      0.090      1.008   ;
    57       HGA2      1    LIG   HC15     57      0.090      1.008   ;
    58       HGA2      1    LIG   HC16     58      0.090      1.008   ;
    59       HGA1      1    LIG   HC17     59      0.090      1.008   ;
    60       HGA3      1    LIG   HC18     60      0.090      1.008   ;
    61       HGA3      1    LIG   HC19     61      0.090      1.008   ;
    62       HGA3      1    LIG   HC20     62      0.090      1.008   ;
    63       HGA3      1    LIG   HC21     63      0.090      1.008   ;
    64       HGA3      1    LIG   HC22     64      0.090      1.008   ;
    65       HGA3      1    LIG   HC23     65      0.090      1.008   ;
    66       HGA1      1    LIG   HC24     66      0.090      1.008   ;
    67      HGR61      1    LIG   HC25     67      0.116      1.008   ;
    68      HGR61      1    LIG   HC26     68      0.116      1.008   ;
    69      HGR61      1    LIG   HC27     69      0.116      1.008   ;
    70      HGR61      1    LIG   HC28     70      0.116      1.008   ;
    71      HGR61      1    LIG   HC29     71      0.116      1.008   ;
    72       HGA2      1    LIG   HC30     72      0.090      1.008   ;
    73       HGA2      1    LIG   HC31     73      0.090      1.008   ;
    74      HGR61      1    LIG   HC32     74      0.116      1.008   ;
    75      HGR61      1    LIG   HC33     75      0.116      1.008   ;
    76      HGR61      1    LIG   HC34     76      0.116      1.008   ;
    77      HGR61      1    LIG   HC35     77      0.116      1.008   ;
    78      HGR61      1    LIG   HC36     78      0.116      1.008   ;
    79       HGA1      1    LIG    H42     79      0.090      1.008   ;

[ bonds ]
;	ai	  aj funct			  c0			c1			  c2			c3
    1     2	 1 ;       CG2O1      OG2D1
    1     3	 1 ;       CG2O1      NG2P1
    1    24	 1 ;       CG2O1      CG311
    3     4	 1 ;       NG2P1       HGP2
    3     5	 1 ;       NG2P1     CG2DC1
    5    10	 1 ;      CG2DC1      CG311
    5     6	 1 ;      CG2DC1      CG321
    6     7	 1 ;       CG321      CG311
    6    42	 1 ;       CG321       HGA2
    6    43	 1 ;       CG321       HGA2
    7     9	 1 ;       CG311      CG331
    7     8	 1 ;       CG311      CG331
    7    44	 1 ;       CG311       HGA1
    8    45	 1 ;       CG331       HGA3
    8    46	 1 ;       CG331       HGA3
    8    47	 1 ;       CG331       HGA3
    9    48	 1 ;       CG331       HGA3
    9    49	 1 ;       CG331       HGA3
    9    50	 1 ;       CG331       HGA3
   10    13	 1 ;       CG311      CG321
   10    11	 1 ;       CG311      OG311
   10    79	 1 ;       CG311       HGA1
   11    12	 1 ;       OG311       HGP1
   13    14	 1 ;       CG321      CG311
   13    51	 1 ;       CG321       HGA2
   13    52	 1 ;       CG321       HGA2
   14    15	 1 ;       CG311      CG331
   14    16	 1 ;       CG311      CG2O1
   14    53	 1 ;       CG311       HGA1
   15    54	 1 ;       CG331       HGA3
   15    55	 1 ;       CG331       HGA3
   15    56	 1 ;       CG331       HGA3
   16    18	 1 ;       CG2O1      NG2S1
   16    17	 1 ;       CG2O1      OG2D1
   18    20	 1 ;       NG2S1      CG321
   18    19	 1 ;       NG2S1       HGP1
   20    21	 1 ;       CG321      CG311
   20    57	 1 ;       CG321       HGA2
   20    58	 1 ;       CG321       HGA2
   21    23	 1 ;       CG311      CG331
   21    22	 1 ;       CG311      CG331
   21    59	 1 ;       CG311       HGA1
   22    60	 1 ;       CG331       HGA3
   22    61	 1 ;       CG331       HGA3
   22    62	 1 ;       CG331       HGA3
   23    63	 1 ;       CG331       HGA3
   23    64	 1 ;       CG331       HGA3
   23    65	 1 ;       CG331       HGA3
   24    25	 1 ;       CG311      NG2S1
   24    35	 1 ;       CG311      CG321
   24    66	 1 ;       CG311       HGA1
   25    26	 1 ;       NG2S1      CG2O1
   25    28	 1 ;       NG2S1       HGP1
   26    27	 1 ;       CG2O1      OG2D1
   26    29	 1 ;       CG2O1     CG2R61
   29    30	 1 ;      CG2R61     CG2R61
   29    34	 1 ;      CG2R61     CG2R61
   30    31	 1 ;      CG2R61     CG2R61
   30    67	 1 ;      CG2R61      HGR61
   31    32	 1 ;      CG2R61     CG2R61
   31    68	 1 ;      CG2R61      HGR61
   32    33	 1 ;      CG2R61     CG2R61
   32    69	 1 ;      CG2R61      HGR61
   33    34	 1 ;      CG2R61     CG2R61
   33    70	 1 ;      CG2R61      HGR61
   34    71	 1 ;      CG2R61      HGR61
   35    36	 1 ;       CG321     CG2R61
   35    72	 1 ;       CG321       HGA2
   35    73	 1 ;       CG321       HGA2
   36    37	 1 ;      CG2R61     CG2R61
   36    41	 1 ;      CG2R61     CG2R61
   37    38	 1 ;      CG2R61     CG2R61
   37    74	 1 ;      CG2R61      HGR61
   38    39	 1 ;      CG2R61     CG2R61
   38    75	 1 ;      CG2R61      HGR61
   39    40	 1 ;      CG2R61     CG2R61
   39    76	 1 ;      CG2R61      HGR61
   40    41	 1 ;      CG2R61     CG2R61
   40    77	 1 ;      CG2R61      HGR61
   41    78	 1 ;      CG2R61      HGR61

[ pairs ]
;	ai	  aj funct			  c0			c1			  c2			c3
    1    10	 1
    1     6	 1
    1    26	 1
    1    28	 1
    1    36	 1
    1    72	 1
    1    73	 1
    2     4	 1
    2     5	 1
    2    25	 1
    2    35	 1
    2    66	 1
    3    25	 1
    3    35	 1
    3    66	 1
    3    13	 1
    3    11	 1
    3    79	 1
    3     7	 1
    3    42	 1
    3    43	 1
    4    24	 1
    4    10	 1
    4     6	 1
    5    24	 1
    5     9	 1
    5     8	 1
    5    44	 1
    5    14	 1
    5    51	 1
    5    52	 1
    5    12	 1
    6    13	 1
    6    11	 1
    6    79	 1
    6    48	 1
    6    49	 1
    6    50	 1
    6    45	 1
    6    46	 1
    6    47	 1
    7    10	 1
    8    42	 1
    8    43	 1
    8    48	 1
    8    49	 1
    8    50	 1
    9    42	 1
    9    43	 1
    9    45	 1
    9    46	 1
    9    47	 1
   10    42	 1
   10    43	 1
   10    15	 1
   10    16	 1
   10    53	 1
   11    14	 1
   11    51	 1
   11    52	 1
   12    13	 1
   12    79	 1
   13    54	 1
   13    55	 1
   13    56	 1
   13    18	 1
   13    17	 1
   14    79	 1
   14    20	 1
   14    19	 1
   15    51	 1
   15    52	 1
   15    18	 1
   15    17	 1
   16    51	 1
   16    52	 1
   16    54	 1
   16    55	 1
   16    56	 1
   16    21	 1
   16    57	 1
   16    58	 1
   17    53	 1
   17    20	 1
   17    19	 1
   18    53	 1
   18    23	 1
   18    22	 1
   18    59	 1
   19    21	 1
   19    57	 1
   19    58	 1
   20    63	 1
   20    64	 1
   20    65	 1
   20    60	 1
   20    61	 1
   20    62	 1
   22    57	 1
   22    58	 1
   22    63	 1
   22    64	 1
   22    65	 1
   23    57	 1
   23    58	 1
   23    60	 1
   23    61	 1
   23    62	 1
   24    27	 1
   24    29	 1
   24    37	 1
   24    41	 1
   25    36	 1
   25    72	 1
   25    73	 1
   25    30	 1
   25    34	 1
   26    35	 1
   26    66	 1
   26    31	 1
   26    67	 1
   26    33	 1
   26    71	 1
   27    28	 1
   27    30	 1
   27    34	 1
   28    35	 1
   28    66	 1
   28    29	 1
   29    32	 1
   29    68	 1
   29    70	 1
   30    33	 1
   30    71	 1
   30    69	 1
   31    34	 1
   31    70	 1
   32    67	 1
   32    71	 1
   33    68	 1
   34    67	 1
   34    69	 1
   35    38	 1
   35    74	 1
   35    40	 1
   35    78	 1
   36    66	 1
   36    39	 1
   36    75	 1
   36    77	 1
   37    72	 1
   37    73	 1
   37    40	 1
   37    78	 1
   37    76	 1
   38    41	 1
   38    77	 1
   39    74	 1
   39    78	 1
   40    75	 1
   41    72	 1
   41    73	 1
   41    74	 1
   41    76	 1
   42    44	 1
   43    44	 1
   44    48	 1
   44    49	 1
   44    50	 1
   44    45	 1
   44    46	 1
   44    47	 1
   51    79	 1
   51    53	 1
   52    79	 1
   52    53	 1
   53    54	 1
   53    55	 1
   53    56	 1
   57    59	 1
   58    59	 1
   59    63	 1
   59    64	 1
   59    65	 1
   59    60	 1
   59    61	 1
   59    62	 1
   66    72	 1
   66    73	 1
   67    68	 1
   68    69	 1
   69    70	 1
   70    71	 1
   74    75	 1
   75    76	 1
   76    77	 1
   77    78	 1

[ angles ]
;	ai	  aj	ak funct			c0			  c1			c2			  c3
    2     1     3	5 ;      OG2D1      CG2O1      NG2P1
    2     1    24	5 ;      OG2D1      CG2O1      CG311
    3     1    24	5 ;      NG2P1      CG2O1      CG311
    4     3     5	5 ;       HGP2      NG2P1     CG2DC1
    4     3     1	5 ;       HGP2      NG2P1      CG2O1
    5     3     1	5 ;     CG2DC1      NG2P1      CG2O1
    3     5    10	5 ;      NG2P1     CG2DC1      CG311
    3     5     6	5 ;      NG2P1     CG2DC1      CG321
   10     5     6	5 ;      CG311     CG2DC1      CG321
    5     6     7	5 ;     CG2DC1      CG321      CG311
    5     6    42	5 ;     CG2DC1      CG321       HGA2
    5     6    43	5 ;     CG2DC1      CG321       HGA2
    7     6    42	5 ;      CG311      CG321       HGA2
    7     6    43	5 ;      CG311      CG321       HGA2
   42     6    43	5 ;       HGA2      CG321       HGA2
    6     7     9	5 ;      CG321      CG311      CG331
    6     7     8	5 ;      CG321      CG311      CG331
    6     7    44	5 ;      CG321      CG311       HGA1
    9     7     8	5 ;      CG331      CG311      CG331
    9     7    44	5 ;      CG331      CG311       HGA1
    8     7    44	5 ;      CG331      CG311       HGA1
    7     8    45	5 ;      CG311      CG331       HGA3
    7     8    46	5 ;      CG311      CG331       HGA3
    7     8    47	5 ;      CG311      CG331       HGA3
   45     8    46	5 ;       HGA3      CG331       HGA3
   45     8    47	5 ;       HGA3      CG331       HGA3
   46     8    47	5 ;       HGA3      CG331       HGA3
    7     9    48	5 ;      CG311      CG331       HGA3
    7     9    49	5 ;      CG311      CG331       HGA3
    7     9    50	5 ;      CG311      CG331       HGA3
   48     9    49	5 ;       HGA3      CG331       HGA3
   48     9    50	5 ;       HGA3      CG331       HGA3
   49     9    50	5 ;       HGA3      CG331       HGA3
   13    10     5	5 ;      CG321      CG311     CG2DC1
   13    10    11	5 ;      CG321      CG311      OG311
   13    10    79	5 ;      CG321      CG311       HGA1
    5    10    11	5 ;     CG2DC1      CG311      OG311
    5    10    79	5 ;     CG2DC1      CG311       HGA1
   11    10    79	5 ;      OG311      CG311       HGA1
   10    11    12	5 ;      CG311      OG311       HGP1
   14    13    10	5 ;      CG311      CG321      CG311
   14    13    51	5 ;      CG311      CG321       HGA2
   14    13    52	5 ;      CG311      CG321       HGA2
   10    13    51	5 ;      CG311      CG321       HGA2
   10    13    52	5 ;      CG311      CG321       HGA2
   51    13    52	5 ;       HGA2      CG321       HGA2
   15    14    16	5 ;      CG331      CG311      CG2O1
   15    14    13	5 ;      CG331      CG311      CG321
   15    14    53	5 ;      CG331      CG311       HGA1
   16    14    13	5 ;      CG2O1      CG311      CG321
   16    14    53	5 ;      CG2O1      CG311       HGA1
   13    14    53	5 ;      CG321      CG311       HGA1
   14    15    54	5 ;      CG311      CG331       HGA3
   14    15    55	5 ;      CG311      CG331       HGA3
   14    15    56	5 ;      CG311      CG331       HGA3
   54    15    55	5 ;       HGA3      CG331       HGA3
   54    15    56	5 ;       HGA3      CG331       HGA3
   55    15    56	5 ;       HGA3      CG331       HGA3
   18    16    17	5 ;      NG2S1      CG2O1      OG2D1
   18    16    14	5 ;      NG2S1      CG2O1      CG311
   17    16    14	5 ;      OG2D1      CG2O1      CG311
   20    18    19	5 ;      CG321      NG2S1       HGP1
   20    18    16	5 ;      CG321      NG2S1      CG2O1
   19    18    16	5 ;       HGP1      NG2S1      CG2O1
   21    20    18	5 ;      CG311      CG321      NG2S1
   21    20    57	5 ;      CG311      CG321       HGA2
   21    20    58	5 ;      CG311      CG321       HGA2
   18    20    57	5 ;      NG2S1      CG321       HGA2
   18    20    58	5 ;      NG2S1      CG321       HGA2
   57    20    58	5 ;       HGA2      CG321       HGA2
   20    21    23	5 ;      CG321      CG311      CG331
   20    21    22	5 ;      CG321      CG311      CG331
   20    21    59	5 ;      CG321      CG311       HGA1
   23    21    22	5 ;      CG331      CG311      CG331
   23    21    59	5 ;      CG331      CG311       HGA1
   22    21    59	5 ;      CG331      CG311       HGA1
   21    22    60	5 ;      CG311      CG331       HGA3
   21    22    61	5 ;      CG311      CG331       HGA3
   21    22    62	5 ;      CG311      CG331       HGA3
   60    22    61	5 ;       HGA3      CG331       HGA3
   60    22    62	5 ;       HGA3      CG331       HGA3
   61    22    62	5 ;       HGA3      CG331       HGA3
   21    23    63	5 ;      CG311      CG331       HGA3
   21    23    64	5 ;      CG311      CG331       HGA3
   21    23    65	5 ;      CG311      CG331       HGA3
   63    23    64	5 ;       HGA3      CG331       HGA3
   63    23    65	5 ;       HGA3      CG331       HGA3
   64    23    65	5 ;       HGA3      CG331       HGA3
    1    24    25	5 ;      CG2O1      CG311      NG2S1
    1    24    35	5 ;      CG2O1      CG311      CG321
    1    24    66	5 ;      CG2O1      CG311       HGA1
   25    24    35	5 ;      NG2S1      CG311      CG321
   25    24    66	5 ;      NG2S1      CG311       HGA1
   35    24    66	5 ;      CG321      CG311       HGA1
   26    25    28	5 ;      CG2O1      NG2S1       HGP1
   26    25    24	5 ;      CG2O1      NG2S1      CG311
   28    25    24	5 ;       HGP1      NG2S1      CG311
   27    26    25	5 ;      OG2D1      CG2O1      NG2S1
   27    26    29	5 ;      OG2D1      CG2O1     CG2R61
   25    26    29	5 ;      NG2S1      CG2O1     CG2R61
   30    29    26	5 ;     CG2R61     CG2R61      CG2O1
   30    29    34	5 ;     CG2R61     CG2R61     CG2R61
   26    29    34	5 ;      CG2O1     CG2R61     CG2R61
   31    30    29	5 ;     CG2R61     CG2R61     CG2R61
   31    30    67	5 ;     CG2R61     CG2R61      HGR61
   29    30    67	5 ;     CG2R61     CG2R61      HGR61
   30    31    32	5 ;     CG2R61     CG2R61     CG2R61
   30    31    68	5 ;     CG2R61     CG2R61      HGR61
   32    31    68	5 ;     CG2R61     CG2R61      HGR61
   31    32    33	5 ;     CG2R61     CG2R61     CG2R61
   31    32    69	5 ;     CG2R61     CG2R61      HGR61
   33    32    69	5 ;     CG2R61     CG2R61      HGR61
   34    33    32	5 ;     CG2R61     CG2R61     CG2R61
   34    33    70	5 ;     CG2R61     CG2R61      HGR61
   32    33    70	5 ;     CG2R61     CG2R61      HGR61
   29    34    33	5 ;     CG2R61     CG2R61     CG2R61
   29    34    71	5 ;     CG2R61     CG2R61      HGR61
   33    34    71	5 ;     CG2R61     CG2R61      HGR61
   24    35    36	5 ;      CG311      CG321     CG2R61
   24    35    72	5 ;      CG311      CG321       HGA2
   24    35    73	5 ;      CG311      CG321       HGA2
   36    35    72	5 ;     CG2R61      CG321       HGA2
   36    35    73	5 ;     CG2R61      CG321       HGA2
   72    35    73	5 ;       HGA2      CG321       HGA2
   35    36    37	5 ;      CG321     CG2R61     CG2R61
   35    36    41	5 ;      CG321     CG2R61     CG2R61
   37    36    41	5 ;     CG2R61     CG2R61     CG2R61
   36    37    38	5 ;     CG2R61     CG2R61     CG2R61
   36    37    74	5 ;     CG2R61     CG2R61      HGR61
   38    37    74	5 ;     CG2R61     CG2R61      HGR61
   37    38    39	5 ;     CG2R61     CG2R61     CG2R61
   37    38    75	5 ;     CG2R61     CG2R61      HGR61
   39    38    75	5 ;     CG2R61     CG2R61      HGR61
   38    39    40	5 ;     CG2R61     CG2R61     CG2R61
   38    39    76	5 ;     CG2R61     CG2R61      HGR61
   40    39    76	5 ;     CG2R61     CG2R61      HGR61
   41    40    39	5 ;     CG2R61     CG2R61     CG2R61
   41    40    77	5 ;     CG2R61     CG2R61      HGR61
   39    40    77	5 ;     CG2R61     CG2R61      HGR61
   36    41    40	5 ;     CG2R61     CG2R61     CG2R61
   36    41    78	5 ;     CG2R61     CG2R61      HGR61
   40    41    78	5 ;     CG2R61     CG2R61      HGR61

[ dihedrals ]
;	ai	  aj	ak	  al funct			  c0			c1			  c2			c3			  c4			c5
    2     1     3     4	 9 ;      OG2D1      CG2O1      NG2P1       HGP2
    2     1     3     5	 9 ;      OG2D1      CG2O1      NG2P1     CG2DC1
   24     1     3     4	 9 ;      CG311      CG2O1      NG2P1       HGP2
   24     1     3     5	 9 ;      CG311      CG2O1      NG2P1     CG2DC1
    2     1    24    25	 9 ;      OG2D1      CG2O1      CG311      NG2S1
    2     1    24    35	 9 ;      OG2D1      CG2O1      CG311      CG321
    2     1    24    66	 9 ;      OG2D1      CG2O1      CG311       HGA1
    3     1    24    25	 9 ;      NG2P1      CG2O1      CG311      NG2S1
    3     1    24    35	 9 ;      NG2P1      CG2O1      CG311      CG321
    3     1    24    66	 9 ;      NG2P1      CG2O1      CG311       HGA1
    4     3     5    10	 9 ;       HGP2      NG2P1     CG2DC1      CG311
    4     3     5     6	 9 ;       HGP2      NG2P1     CG2DC1      CG321
    1     3     5    10	 9 ;      CG2O1      NG2P1     CG2DC1      CG311
    1     3     5     6	 9 ;      CG2O1      NG2P1     CG2DC1      CG321
    3     5    10    13	 9 ;      NG2P1     CG2DC1      CG311      CG321
    3     5    10    11	 9 ;      NG2P1     CG2DC1      CG311      OG311
    3     5    10    79	 9 ;      NG2P1     CG2DC1      CG311       HGA1
    6     5    10    13	 9 ;      CG321     CG2DC1      CG311      CG321
    6     5    10    11	 9 ;      CG321     CG2DC1      CG311      OG311
    6     5    10    79	 9 ;      CG321     CG2DC1      CG311       HGA1
    3     5     6     7	 9 ;      NG2P1     CG2DC1      CG321      CG311
    3     5     6    42	 9 ;      NG2P1     CG2DC1      CG321       HGA2
    3     5     6    43	 9 ;      NG2P1     CG2DC1      CG321       HGA2
   10     5     6     7	 9 ;      CG311     CG2DC1      CG321      CG311
   10     5     6    42	 9 ;      CG311     CG2DC1      CG321       HGA2
   10     5     6    43	 9 ;      CG311     CG2DC1      CG321       HGA2
    5     6     7     9	 9 ;     CG2DC1      CG321      CG311      CG331
    5     6     7     8	 9 ;     CG2DC1      CG321      CG311      CG331
    5     6     7    44	 9 ;     CG2DC1      CG321      CG311       HGA1
   42     6     7     9	 9 ;       HGA2      CG321      CG311      CG331
   42     6     7     8	 9 ;       HGA2      CG321      CG311      CG331
   42     6     7    44	 9 ;       HGA2      CG321      CG311       HGA1
   43     6     7     9	 9 ;       HGA2      CG321      CG311      CG331
   43     6     7     8	 9 ;       HGA2      CG321      CG311      CG331
   43     6     7    44	 9 ;       HGA2      CG321      CG311       HGA1
    6     7     9    48	 9 ;      CG321      CG311      CG331       HGA3
    6     7     9    49	 9 ;      CG321      CG311      CG331       HGA3
    6     7     9    50	 9 ;      CG321      CG311      CG331       HGA3
    8     7     9    48	 9 ;      CG331      CG311      CG331       HGA3
    8     7     9    49	 9 ;      CG331      CG311      CG331       HGA3
    8     7     9    50	 9 ;      CG331      CG311      CG331       HGA3
   44     7     9    48	 9 ;       HGA1      CG311      CG331       HGA3
   44     7     9    49	 9 ;       HGA1      CG311      CG331       HGA3
   44     7     9    50	 9 ;       HGA1      CG311      CG331       HGA3
    6     7     8    45	 9 ;      CG321      CG311      CG331       HGA3
    6     7     8    46	 9 ;      CG321      CG311      CG331       HGA3
    6     7     8    47	 9 ;      CG321      CG311      CG331       HGA3
    9     7     8    45	 9 ;      CG331      CG311      CG331       HGA3
    9     7     8    46	 9 ;      CG331      CG311      CG331       HGA3
    9     7     8    47	 9 ;      CG331      CG311      CG331       HGA3
   44     7     8    45	 9 ;       HGA1      CG311      CG331       HGA3
   44     7     8    46	 9 ;       HGA1      CG311      CG331       HGA3
   44     7     8    47	 9 ;       HGA1      CG311      CG331       HGA3
    5    10    13    14	 9 ;     CG2DC1      CG311      CG321      CG311
    5    10    13    51	 9 ;     CG2DC1      CG311      CG321       HGA2
    5    10    13    52	 9 ;     CG2DC1      CG311      CG321       HGA2
   11    10    13    14	 9 ;      OG311      CG311      CG321      CG311
   11    10    13    51	 9 ;      OG311      CG311      CG321       HGA2
   11    10    13    52	 9 ;      OG311      CG311      CG321       HGA2
   79    10    13    14	 9 ;       HGA1      CG311      CG321      CG311
   79    10    13    51	 9 ;       HGA1      CG311      CG321       HGA2
   79    10    13    52	 9 ;       HGA1      CG311      CG321       HGA2
   13    10    11    12	 9 ;      CG321      CG311      OG311       HGP1
    5    10    11    12	 9 ;     CG2DC1      CG311      OG311       HGP1
   79    10    11    12	 9 ;       HGA1      CG311      OG311       HGP1
   10    13    14    15	 9 ;      CG311      CG321      CG311      CG331
   10    13    14    16	 9 ;      CG311      CG321      CG311      CG2O1
   10    13    14    53	 9 ;      CG311      CG321      CG311       HGA1
   51    13    14    15	 9 ;       HGA2      CG321      CG311      CG331
   51    13    14    16	 9 ;       HGA2      CG321      CG311      CG2O1
   51    13    14    53	 9 ;       HGA2      CG321      CG311       HGA1
   52    13    14    15	 9 ;       HGA2      CG321      CG311      CG331
   52    13    14    16	 9 ;       HGA2      CG321      CG311      CG2O1
   52    13    14    53	 9 ;       HGA2      CG321      CG311       HGA1
   16    14    15    54	 9 ;      CG2O1      CG311      CG331       HGA3
   16    14    15    55	 9 ;      CG2O1      CG311      CG331       HGA3
   16    14    15    56	 9 ;      CG2O1      CG311      CG331       HGA3
   13    14    15    54	 9 ;      CG321      CG311      CG331       HGA3
   13    14    15    55	 9 ;      CG321      CG311      CG331       HGA3
   13    14    15    56	 9 ;      CG321      CG311      CG331       HGA3
   53    14    15    54	 9 ;       HGA1      CG311      CG331       HGA3
   53    14    15    55	 9 ;       HGA1      CG311      CG331       HGA3
   53    14    15    56	 9 ;       HGA1      CG311      CG331       HGA3
   15    14    16    18	 9 ;      CG331      CG311      CG2O1      NG2S1
   15    14    16    17	 9 ;      CG331      CG311      CG2O1      OG2D1
   13    14    16    18	 9 ;      CG321      CG311      CG2O1      NG2S1
   13    14    16    17	 9 ;      CG321      CG311      CG2O1      OG2D1
   53    14    16    18	 9 ;       HGA1      CG311      CG2O1      NG2S1
   53    14    16    17	 9 ;       HGA1      CG311      CG2O1      OG2D1
   17    16    18    20	 9 ;      OG2D1      CG2O1      NG2S1      CG321
   17    16    18    19	 9 ;      OG2D1      CG2O1      NG2S1       HGP1
   14    16    18    20	 9 ;      CG311      CG2O1      NG2S1      CG321
   14    16    18    19	 9 ;      CG311      CG2O1      NG2S1       HGP1
   19    18    20    21	 9 ;       HGP1      NG2S1      CG321      CG311
   19    18    20    57	 9 ;       HGP1      NG2S1      CG321       HGA2
   19    18    20    58	 9 ;       HGP1      NG2S1      CG321       HGA2
   16    18    20    21	 9 ;      CG2O1      NG2S1      CG321      CG311
   16    18    20    57	 9 ;      CG2O1      NG2S1      CG321       HGA2
   16    18    20    58	 9 ;      CG2O1      NG2S1      CG321       HGA2
   18    20    21    23	 9 ;      NG2S1      CG321      CG311      CG331
   18    20    21    22	 9 ;      NG2S1      CG321      CG311      CG331
   18    20    21    59	 9 ;      NG2S1      CG321      CG311       HGA1
   57    20    21    23	 9 ;       HGA2      CG321      CG311      CG331
   57    20    21    22	 9 ;       HGA2      CG321      CG311      CG331
   57    20    21    59	 9 ;       HGA2      CG321      CG311       HGA1
   58    20    21    23	 9 ;       HGA2      CG321      CG311      CG331
   58    20    21    22	 9 ;       HGA2      CG321      CG311      CG331
   58    20    21    59	 9 ;       HGA2      CG321      CG311       HGA1
   20    21    23    63	 9 ;      CG321      CG311      CG331       HGA3
   20    21    23    64	 9 ;      CG321      CG311      CG331       HGA3
   20    21    23    65	 9 ;      CG321      CG311      CG331       HGA3
   22    21    23    63	 9 ;      CG331      CG311      CG331       HGA3
   22    21    23    64	 9 ;      CG331      CG311      CG331       HGA3
   22    21    23    65	 9 ;      CG331      CG311      CG331       HGA3
   59    21    23    63	 9 ;       HGA1      CG311      CG331       HGA3
   59    21    23    64	 9 ;       HGA1      CG311      CG331       HGA3
   59    21    23    65	 9 ;       HGA1      CG311      CG331       HGA3
   20    21    22    60	 9 ;      CG321      CG311      CG331       HGA3
   20    21    22    61	 9 ;      CG321      CG311      CG331       HGA3
   20    21    22    62	 9 ;      CG321      CG311      CG331       HGA3
   23    21    22    60	 9 ;      CG331      CG311      CG331       HGA3
   23    21    22    61	 9 ;      CG331      CG311      CG331       HGA3
   23    21    22    62	 9 ;      CG331      CG311      CG331       HGA3
   59    21    22    60	 9 ;       HGA1      CG311      CG331       HGA3
   59    21    22    61	 9 ;       HGA1      CG311      CG331       HGA3
   59    21    22    62	 9 ;       HGA1      CG311      CG331       HGA3
    1    24    25    26	 9 ;      CG2O1      CG311      NG2S1      CG2O1
    1    24    25    28	 9 ;      CG2O1      CG311      NG2S1       HGP1
   35    24    25    26	 9 ;      CG321      CG311      NG2S1      CG2O1
   35    24    25    28	 9 ;      CG321      CG311      NG2S1       HGP1
   66    24    25    26	 9 ;       HGA1      CG311      NG2S1      CG2O1
   66    24    25    28	 9 ;       HGA1      CG311      NG2S1       HGP1
    1    24    35    36	 9 ;      CG2O1      CG311      CG321     CG2R61
    1    24    35    72	 9 ;      CG2O1      CG311      CG321       HGA2
    1    24    35    73	 9 ;      CG2O1      CG311      CG321       HGA2
   25    24    35    36	 9 ;      NG2S1      CG311      CG321     CG2R61
   25    24    35    72	 9 ;      NG2S1      CG311      CG321       HGA2
   25    24    35    73	 9 ;      NG2S1      CG311      CG321       HGA2
   66    24    35    36	 9 ;       HGA1      CG311      CG321     CG2R61
   66    24    35    72	 9 ;       HGA1      CG311      CG321       HGA2
   66    24    35    73	 9 ;       HGA1      CG311      CG321       HGA2
   28    25    26    27	 9 ;       HGP1      NG2S1      CG2O1      OG2D1
   28    25    26    29	 9 ;       HGP1      NG2S1      CG2O1     CG2R61
   24    25    26    27	 9 ;      CG311      NG2S1      CG2O1      OG2D1
   24    25    26    29	 9 ;      CG311      NG2S1      CG2O1     CG2R61
   27    26    29    30	 9 ;      OG2D1      CG2O1     CG2R61     CG2R61
   27    26    29    34	 9 ;      OG2D1      CG2O1     CG2R61     CG2R61
   25    26    29    30	 9 ;      NG2S1      CG2O1     CG2R61     CG2R61
   25    26    29    34	 9 ;      NG2S1      CG2O1     CG2R61     CG2R61
   26    29    30    31	 9 ;      CG2O1     CG2R61     CG2R61     CG2R61
   26    29    30    67	 9 ;      CG2O1     CG2R61     CG2R61      HGR61
   34    29    30    31	 9 ;     CG2R61     CG2R61     CG2R61     CG2R61
   34    29    30    67	 9 ;     CG2R61     CG2R61     CG2R61      HGR61
   30    29    34    33	 9 ;     CG2R61     CG2R61     CG2R61     CG2R61
   30    29    34    71	 9 ;     CG2R61     CG2R61     CG2R61      HGR61
   26    29    34    33	 9 ;      CG2O1     CG2R61     CG2R61     CG2R61
   26    29    34    71	 9 ;      CG2O1     CG2R61     CG2R61      HGR61
   29    30    31    32	 9 ;     CG2R61     CG2R61     CG2R61     CG2R61
   29    30    31    68	 9 ;     CG2R61     CG2R61     CG2R61      HGR61
   67    30    31    32	 9 ;      HGR61     CG2R61     CG2R61     CG2R61
   67    30    31    68	 9 ;      HGR61     CG2R61     CG2R61      HGR61
   30    31    32    33	 9 ;     CG2R61     CG2R61     CG2R61     CG2R61
   30    31    32    69	 9 ;     CG2R61     CG2R61     CG2R61      HGR61
   68    31    32    33	 9 ;      HGR61     CG2R61     CG2R61     CG2R61
   68    31    32    69	 9 ;      HGR61     CG2R61     CG2R61      HGR61
   31    32    33    34	 9 ;     CG2R61     CG2R61     CG2R61     CG2R61
   31    32    33    70	 9 ;     CG2R61     CG2R61     CG2R61      HGR61
   69    32    33    34	 9 ;      HGR61     CG2R61     CG2R61     CG2R61
   69    32    33    70	 9 ;      HGR61     CG2R61     CG2R61      HGR61
   32    33    34    29	 9 ;     CG2R61     CG2R61     CG2R61     CG2R61
   32    33    34    71	 9 ;     CG2R61     CG2R61     CG2R61      HGR61
   70    33    34    29	 9 ;      HGR61     CG2R61     CG2R61     CG2R61
   70    33    34    71	 9 ;      HGR61     CG2R61     CG2R61      HGR61
   24    35    36    37	 9 ;      CG311      CG321     CG2R61     CG2R61
   24    35    36    41	 9 ;      CG311      CG321     CG2R61     CG2R61
   72    35    36    37	 9 ;       HGA2      CG321     CG2R61     CG2R61
   72    35    36    41	 9 ;       HGA2      CG321     CG2R61     CG2R61
   73    35    36    37	 9 ;       HGA2      CG321     CG2R61     CG2R61
   73    35    36    41	 9 ;       HGA2      CG321     CG2R61     CG2R61
   35    36    37    38	 9 ;      CG321     CG2R61     CG2R61     CG2R61
   35    36    37    74	 9 ;      CG321     CG2R61     CG2R61      HGR61
   41    36    37    38	 9 ;     CG2R61     CG2R61     CG2R61     CG2R61
   41    36    37    74	 9 ;     CG2R61     CG2R61     CG2R61      HGR61
   35    36    41    40	 9 ;      CG321     CG2R61     CG2R61     CG2R61
   35    36    41    78	 9 ;      CG321     CG2R61     CG2R61      HGR61
   37    36    41    40	 9 ;     CG2R61     CG2R61     CG2R61     CG2R61
   37    36    41    78	 9 ;     CG2R61     CG2R61     CG2R61      HGR61
   36    37    38    39	 9 ;     CG2R61     CG2R61     CG2R61     CG2R61
   36    37    38    75	 9 ;     CG2R61     CG2R61     CG2R61      HGR61
   74    37    38    39	 9 ;      HGR61     CG2R61     CG2R61     CG2R61
   74    37    38    75	 9 ;      HGR61     CG2R61     CG2R61      HGR61
   37    38    39    40	 9 ;     CG2R61     CG2R61     CG2R61     CG2R61
   37    38    39    76	 9 ;     CG2R61     CG2R61     CG2R61      HGR61
   75    38    39    40	 9 ;      HGR61     CG2R61     CG2R61     CG2R61
   75    38    39    76	 9 ;      HGR61     CG2R61     CG2R61      HGR61
   38    39    40    41	 9 ;     CG2R61     CG2R61     CG2R61     CG2R61
   38    39    40    77	 9 ;     CG2R61     CG2R61     CG2R61      HGR61
   76    39    40    41	 9 ;      HGR61     CG2R61     CG2R61     CG2R61
   76    39    40    77	 9 ;      HGR61     CG2R61     CG2R61      HGR61
   39    40    41    36	 9 ;     CG2R61     CG2R61     CG2R61     CG2R61
   39    40    41    78	 9 ;     CG2R61     CG2R61     CG2R61      HGR61
   77    40    41    36	 9 ;      HGR61     CG2R61     CG2R61     CG2R61
   77    40    41    78	 9 ;      HGR61     CG2R61     CG2R61      HGR61

[ dihedrals ]
;	ai	  aj	ak	  al funct			  c0			c1			  c2			c3
    1    24     3     2	 2
    5    10     6     3	 2
   16    14    18    17	 2
   26    29    25    27	 2

