; Created by cgenff_charmm2gmx.py

[ moleculetype ]
; Name			   nrexcl
LIG				 3

[ atoms ]
;	 nr		  type	resnr residue  atom   cgnr	   charge		mass  typeB    chargeB		massB
; residue	 1 LIG rtp LIG q	qsum
     1     CG2R61      1    LIG     C1      1      0.142     12.011   ;
     2     CG2R61      1    LIG     C2      2     -0.121     12.011   ;
     3     CG2R61      1    LIG     C3      3     -0.112     12.011   ;
     4     CG2R61      1    LIG     C4      4     -0.114     12.011   ;
     5     CG2R61      1    LIG     C5      5     -0.114     12.011   ;
     6     CG2R61      1    LIG     C6      6     -0.018     12.011   ;
     7      CG1N1      1    LIG     C7      7      0.365     12.011   ;
     8      NG1T1      1    LIG     N1      8     -0.463     14.007   ;
     9      NG301      1    LIG     N2      9     -0.117     14.007   ;
    10      SG3O2      1    LIG      S     10      0.466     32.060   ;
    11      OG2P1      1    LIG     O1     11     -0.412     15.999   ;
    12      OG2P1      1    LIG     O2     12     -0.412     15.999   ;
    13      CG331      1    LIG     C8     13      0.033     12.011   ;
    14     CG2R61      1    LIG     C9     14      0.151     12.011   ;
    15     CG2R61      1    LIG    C10     15     -0.067     12.011   ;
    16     CG2R61      1    LIG    C11     16     -0.103     12.011   ;
    17     CG2R61      1    LIG    C12     17     -0.060     12.011   ;
    18     CG2R61      1    LIG    C13     18     -0.110     12.011   ;
    19     CG2R61      1    LIG    C14     19     -0.123     12.011   ;
    20      CG2O1      1    LIG    C15     20      0.302     12.011   ;
    21      OG2D1      1    LIG     O3     21     -0.463     15.999   ;
    22      NG2S1      1    LIG     N3     22     -0.226     14.007   ;
    23       HGP1      1    LIG     H1     23      0.262      1.008   ;
    24      CG311      1    LIG    C16     24      0.010     12.011   ;
    25      CG321      1    LIG    C17     25     -0.111     12.011   ;
    26     CG2R61      1    LIG    C18     26     -0.019     12.011   ;
    27     CG2R61      1    LIG    C19     27     -0.123     12.011   ;
    28     CG2R61      1    LIG    C20     28     -0.112     12.011   ;
    29     CG2R61      1    LIG    C21     29     -0.116     12.011   ;
    30     CG2R61      1    LIG    C22     30     -0.112     12.011   ;
    31     CG2R61      1    LIG    C23     31     -0.123     12.011   ;
    32      CG311      1    LIG    C24     32      0.089     12.011   ;
    33      CG324      1    LIG    C25     33      0.198     12.011   ;
    34      NG3P2      1    LIG     N4     34     -0.406     14.007   ;
    35       HGP2      1    LIG     H2     35      0.329      1.008   ;
    36       HGP2      1    LIG     H3     36      0.329      1.008   ;
    37      CG314      1    LIG    C26     37      0.189     12.011   ;
    38      CG331      1    LIG    C27     38     -0.216     12.011   ;
    39      CG2O1      1    LIG    C28     39      0.385     12.011   ;
    40      OG2D1      1    LIG     O4     40     -0.443     15.999   ;
    41      NG2S1      1    LIG     N5     41     -0.285     14.007   ;
    42       HGP1      1    LIG     H4     42      0.319      1.008   ;
    43      CG311      1    LIG    C29     43     -0.146     12.011   ;
    44      CG321      1    LIG    C30     44     -0.115     12.011   ;
    45      CG321      1    LIG    C31     45     -0.198     12.011   ;
    46      CG321      1    LIG    C32     46     -0.154     12.011   ;
    47      CG321      1    LIG    C33     47     -0.198     12.011   ;
    48      CG321      1    LIG    C34     48     -0.115     12.011   ;
    49      OG311      1    LIG     O5     49     -0.625     15.999   ;
    50       HGP1      1    LIG     H5     50      0.415      1.008   ;
    51      HGR61      1    LIG     HC     51      0.116      1.008   ;
    52      HGR61      1    LIG    HC1     52      0.116      1.008   ;
    53      HGR61      1    LIG    HC2     53      0.116      1.008   ;
    54      HGR61      1    LIG    HC3     54      0.116      1.008   ;
    55      HGR61      1    LIG    HC4     55      0.116      1.008   ;
    56      HGR61      1    LIG    HC5     56      0.116      1.008   ;
    57      HGR61      1    LIG    HC6     57      0.116      1.008   ;
    58      HGR61      1    LIG    HC7     58      0.116      1.008   ;
    59       HGA1      1    LIG    HC8     59      0.090      1.008   ;
    60       HGA2      1    LIG    HC9     60      0.090      1.008   ;
    61       HGA2      1    LIG   HC10     61      0.090      1.008   ;
    62      HGR61      1    LIG   HC11     62      0.116      1.008   ;
    63      HGR61      1    LIG   HC12     63      0.116      1.008   ;
    64      HGR61      1    LIG   HC13     64      0.116      1.008   ;
    65      HGR61      1    LIG   HC14     65      0.116      1.008   ;
    66      HGR61      1    LIG   HC15     66      0.116      1.008   ;
    67       HGA1      1    LIG   HC16     67      0.090      1.008   ;
    68       HGA2      1    LIG   HC17     68      0.090      1.008   ;
    69       HGA2      1    LIG   HC18     69      0.090      1.008   ;
    70       HGA1      1    LIG   HC19     70      0.090      1.008   ;
    71       HGA1      1    LIG   HC20     71      0.090      1.008   ;
    72       HGA2      1    LIG   HC21     72      0.090      1.008   ;
    73       HGA2      1    LIG   HC22     73      0.090      1.008   ;
    74       HGA2      1    LIG   HC23     74      0.090      1.008   ;
    75       HGA2      1    LIG   HC24     75      0.090      1.008   ;
    76       HGA2      1    LIG   HC25     76      0.090      1.008   ;
    77       HGA2      1    LIG   HC26     77      0.090      1.008   ;
    78       HGA2      1    LIG   HC27     78      0.090      1.008   ;
    79       HGA2      1    LIG   HC28     79      0.090      1.008   ;
    80       HGA2      1    LIG   HC29     80      0.090      1.008   ;
    81       HGA2      1    LIG   HC30     81      0.090      1.008   ;
    82       HGA3      1    LIG   HC31     82      0.090      1.008   ;
    83       HGA3      1    LIG   HC32     83      0.090      1.008   ;
    84       HGA3      1    LIG   HC33     84      0.090      1.008   ;
    85       HGA3      1    LIG   HC34     85      0.090      1.008   ;
    86       HGA3      1    LIG   HC35     86      0.090      1.008   ;
    87       HGA3      1    LIG   HC36     87      0.090      1.008   ;

[ bonds ]
;	ai	  aj funct			  c0			c1			  c2			c3
    1     9	 1 ;      CG2R61      NG301
    1     2	 1 ;      CG2R61     CG2R61
    1     6	 1 ;      CG2R61     CG2R61
    2     3	 1 ;      CG2R61     CG2R61
    2    51	 1 ;      CG2R61      HGR61
    3     4	 1 ;      CG2R61     CG2R61
    3    52	 1 ;      CG2R61      HGR61
    4     5	 1 ;      CG2R61     CG2R61
    4    53	 1 ;      CG2R61      HGR61
    5     6	 1 ;      CG2R61     CG2R61
    5    54	 1 ;      CG2R61      HGR61
    6     7	 1 ;      CG2R61      CG1N1
    7     8	 1 ;       CG1N1      NG1T1
    9    14	 1 ;       NG301     CG2R61
    9    10	 1 ;       NG301      SG3O2
   10    12	 1 ;       SG3O2      OG2P1
   10    13	 1 ;       SG3O2      CG331
   10    11	 1 ;       SG3O2      OG2P1
   13    82	 1 ;       CG331       HGA3
   13    83	 1 ;       CG331       HGA3
   13    84	 1 ;       CG331       HGA3
   14    19	 1 ;      CG2R61     CG2R61
   14    15	 1 ;      CG2R61     CG2R61
   15    16	 1 ;      CG2R61     CG2R61
   15    55	 1 ;      CG2R61      HGR61
   16    17	 1 ;      CG2R61     CG2R61
   16    20	 1 ;      CG2R61      CG2O1
   17    18	 1 ;      CG2R61     CG2R61
   17    56	 1 ;      CG2R61      HGR61
   18    19	 1 ;      CG2R61     CG2R61
   18    57	 1 ;      CG2R61      HGR61
   19    58	 1 ;      CG2R61      HGR61
   20    22	 1 ;       CG2O1      NG2S1
   20    21	 1 ;       CG2O1      OG2D1
   22    24	 1 ;       NG2S1      CG311
   22    23	 1 ;       NG2S1       HGP1
   24    32	 1 ;       CG311      CG311
   24    25	 1 ;       CG311      CG321
   24    59	 1 ;       CG311       HGA1
   25    26	 1 ;       CG321     CG2R61
   25    60	 1 ;       CG321       HGA2
   25    61	 1 ;       CG321       HGA2
   26    27	 1 ;      CG2R61     CG2R61
   26    31	 1 ;      CG2R61     CG2R61
   27    28	 1 ;      CG2R61     CG2R61
   27    62	 1 ;      CG2R61      HGR61
   28    29	 1 ;      CG2R61     CG2R61
   28    63	 1 ;      CG2R61      HGR61
   29    30	 1 ;      CG2R61     CG2R61
   29    64	 1 ;      CG2R61      HGR61
   30    31	 1 ;      CG2R61     CG2R61
   30    65	 1 ;      CG2R61      HGR61
   31    66	 1 ;      CG2R61      HGR61
   32    33	 1 ;       CG311      CG324
   32    49	 1 ;       CG311      OG311
   32    67	 1 ;       CG311       HGA1
   33    34	 1 ;       CG324      NG3P2
   33    68	 1 ;       CG324       HGA2
   33    69	 1 ;       CG324       HGA2
   34    37	 1 ;       NG3P2      CG314
   34    35	 1 ;       NG3P2       HGP2
   34    36	 1 ;       NG3P2       HGP2
   37    38	 1 ;       CG314      CG331
   37    39	 1 ;       CG314      CG2O1
   37    70	 1 ;       CG314       HGA1
   38    85	 1 ;       CG331       HGA3
   38    86	 1 ;       CG331       HGA3
   38    87	 1 ;       CG331       HGA3
   39    41	 1 ;       CG2O1      NG2S1
   39    40	 1 ;       CG2O1      OG2D1
   41    42	 1 ;       NG2S1       HGP1
   41    43	 1 ;       NG2S1      CG311
   43    44	 1 ;       CG311      CG321
   43    48	 1 ;       CG311      CG321
   43    71	 1 ;       CG311       HGA1
   44    45	 1 ;       CG321      CG321
   44    72	 1 ;       CG321       HGA2
   44    73	 1 ;       CG321       HGA2
   45    46	 1 ;       CG321      CG321
   45    74	 1 ;       CG321       HGA2
   45    75	 1 ;       CG321       HGA2
   46    47	 1 ;       CG321      CG321
   46    76	 1 ;       CG321       HGA2
   46    77	 1 ;       CG321       HGA2
   47    48	 1 ;       CG321      CG321
   47    78	 1 ;       CG321       HGA2
   47    79	 1 ;       CG321       HGA2
   48    80	 1 ;       CG321       HGA2
   48    81	 1 ;       CG321       HGA2
   49    50	 1 ;       OG311       HGP1

[ pairs ]
;	ai	  aj funct			  c0			c1			  c2			c3
    1     4	 1
    1    52	 1
    1    54	 1
    1     8	 1
    1    19	 1
    1    15	 1
    1    12	 1
    1    13	 1
    1    11	 1
    2    14	 1
    2    10	 1
    2     7	 1
    2     5	 1
    2    53	 1
    3     9	 1
    3     6	 1
    3    54	 1
    4    51	 1
    4     7	 1
    5     9	 1
    5    52	 1
    5     8	 1
    6    14	 1
    6    10	 1
    6    51	 1
    6    53	 1
    7     9	 1
    7    54	 1
    9    51	 1
    9    82	 1
    9    83	 1
    9    84	 1
    9    18	 1
    9    58	 1
    9    16	 1
    9    55	 1
   10    19	 1
   10    15	 1
   11    14	 1
   11    82	 1
   11    83	 1
   11    84	 1
   12    14	 1
   12    82	 1
   12    83	 1
   12    84	 1
   13    14	 1
   14    17	 1
   14    20	 1
   14    57	 1
   15    18	 1
   15    58	 1
   15    56	 1
   15    22	 1
   15    21	 1
   16    19	 1
   16    57	 1
   16    24	 1
   16    23	 1
   17    55	 1
   17    22	 1
   17    21	 1
   17    58	 1
   18    20	 1
   19    55	 1
   19    56	 1
   20    55	 1
   20    56	 1
   20    32	 1
   20    25	 1
   20    59	 1
   21    24	 1
   21    23	 1
   22    33	 1
   22    49	 1
   22    67	 1
   22    26	 1
   22    60	 1
   22    61	 1
   23    32	 1
   23    25	 1
   23    59	 1
   24    27	 1
   24    31	 1
   24    34	 1
   24    68	 1
   24    69	 1
   24    50	 1
   25    33	 1
   25    49	 1
   25    67	 1
   25    28	 1
   25    62	 1
   25    30	 1
   25    66	 1
   26    32	 1
   26    59	 1
   26    29	 1
   26    63	 1
   26    65	 1
   27    60	 1
   27    61	 1
   27    30	 1
   27    66	 1
   27    64	 1
   28    31	 1
   28    65	 1
   29    62	 1
   29    66	 1
   30    63	 1
   31    60	 1
   31    61	 1
   31    62	 1
   31    64	 1
   32    60	 1
   32    61	 1
   32    37	 1
   32    35	 1
   32    36	 1
   33    59	 1
   33    50	 1
   33    38	 1
   33    39	 1
   33    70	 1
   34    49	 1
   34    67	 1
   34    85	 1
   34    86	 1
   34    87	 1
   34    41	 1
   34    40	 1
   35    68	 1
   35    69	 1
   35    38	 1
   35    39	 1
   35    70	 1
   36    68	 1
   36    69	 1
   36    38	 1
   36    39	 1
   36    70	 1
   37    68	 1
   37    69	 1
   37    42	 1
   37    43	 1
   38    41	 1
   38    40	 1
   39    85	 1
   39    86	 1
   39    87	 1
   39    44	 1
   39    48	 1
   39    71	 1
   40    70	 1
   40    42	 1
   40    43	 1
   41    70	 1
   41    45	 1
   41    72	 1
   41    73	 1
   41    47	 1
   41    80	 1
   41    81	 1
   42    44	 1
   42    48	 1
   42    71	 1
   43    46	 1
   43    74	 1
   43    75	 1
   43    78	 1
   43    79	 1
   44    47	 1
   44    80	 1
   44    81	 1
   44    76	 1
   44    77	 1
   45    48	 1
   45    71	 1
   45    78	 1
   45    79	 1
   46    72	 1
   46    73	 1
   46    80	 1
   46    81	 1
   47    71	 1
   47    74	 1
   47    75	 1
   48    72	 1
   48    73	 1
   48    76	 1
   48    77	 1
   49    59	 1
   49    68	 1
   49    69	 1
   50    67	 1
   51    52	 1
   52    53	 1
   53    54	 1
   56    57	 1
   57    58	 1
   59    67	 1
   59    60	 1
   59    61	 1
   62    63	 1
   63    64	 1
   64    65	 1
   65    66	 1
   67    68	 1
   67    69	 1
   70    85	 1
   70    86	 1
   70    87	 1
   71    72	 1
   71    73	 1
   71    80	 1
   71    81	 1
   72    74	 1
   72    75	 1
   73    74	 1
   73    75	 1
   74    76	 1
   74    77	 1
   75    76	 1
   75    77	 1
   76    78	 1
   76    79	 1
   77    78	 1
   77    79	 1
   78    80	 1
   78    81	 1
   79    80	 1
   79    81	 1

[ angles ]
;	ai	  aj	ak funct			c0			  c1			c2			  c3
    9     1     2	5 ;      NG301     CG2R61     CG2R61
    9     1     6	5 ;      NG301     CG2R61     CG2R61
    2     1     6	5 ;     CG2R61     CG2R61     CG2R61
    1     2     3	5 ;     CG2R61     CG2R61     CG2R61
    1     2    51	5 ;     CG2R61     CG2R61      HGR61
    3     2    51	5 ;     CG2R61     CG2R61      HGR61
    2     3     4	5 ;     CG2R61     CG2R61     CG2R61
    2     3    52	5 ;     CG2R61     CG2R61      HGR61
    4     3    52	5 ;     CG2R61     CG2R61      HGR61
    3     4     5	5 ;     CG2R61     CG2R61     CG2R61
    3     4    53	5 ;     CG2R61     CG2R61      HGR61
    5     4    53	5 ;     CG2R61     CG2R61      HGR61
    6     5     4	5 ;     CG2R61     CG2R61     CG2R61
    6     5    54	5 ;     CG2R61     CG2R61      HGR61
    4     5    54	5 ;     CG2R61     CG2R61      HGR61
    1     6     7	5 ;     CG2R61     CG2R61      CG1N1
    1     6     5	5 ;     CG2R61     CG2R61     CG2R61
    7     6     5	5 ;      CG1N1     CG2R61     CG2R61
    6     7     8	5 ;     CG2R61      CG1N1      NG1T1
   14     9     1	5 ;     CG2R61      NG301     CG2R61
   14     9    10	5 ;     CG2R61      NG301      SG3O2
    1     9    10	5 ;     CG2R61      NG301      SG3O2
    9    10    12	5 ;      NG301      SG3O2      OG2P1
    9    10    13	5 ;      NG301      SG3O2      CG331
    9    10    11	5 ;      NG301      SG3O2      OG2P1
   12    10    13	5 ;      OG2P1      SG3O2      CG331
   12    10    11	5 ;      OG2P1      SG3O2      OG2P1
   13    10    11	5 ;      CG331      SG3O2      OG2P1
   10    13    82	5 ;      SG3O2      CG331       HGA3
   10    13    83	5 ;      SG3O2      CG331       HGA3
   10    13    84	5 ;      SG3O2      CG331       HGA3
   82    13    83	5 ;       HGA3      CG331       HGA3
   82    13    84	5 ;       HGA3      CG331       HGA3
   83    13    84	5 ;       HGA3      CG331       HGA3
   19    14    15	5 ;     CG2R61     CG2R61     CG2R61
   19    14     9	5 ;     CG2R61     CG2R61      NG301
   15    14     9	5 ;     CG2R61     CG2R61      NG301
   16    15    14	5 ;     CG2R61     CG2R61     CG2R61
   16    15    55	5 ;     CG2R61     CG2R61      HGR61
   14    15    55	5 ;     CG2R61     CG2R61      HGR61
   17    16    20	5 ;     CG2R61     CG2R61      CG2O1
   17    16    15	5 ;     CG2R61     CG2R61     CG2R61
   20    16    15	5 ;      CG2O1     CG2R61     CG2R61
   18    17    16	5 ;     CG2R61     CG2R61     CG2R61
   18    17    56	5 ;     CG2R61     CG2R61      HGR61
   16    17    56	5 ;     CG2R61     CG2R61      HGR61
   17    18    19	5 ;     CG2R61     CG2R61     CG2R61
   17    18    57	5 ;     CG2R61     CG2R61      HGR61
   19    18    57	5 ;     CG2R61     CG2R61      HGR61
   18    19    14	5 ;     CG2R61     CG2R61     CG2R61
   18    19    58	5 ;     CG2R61     CG2R61      HGR61
   14    19    58	5 ;     CG2R61     CG2R61      HGR61
   22    20    21	5 ;      NG2S1      CG2O1      OG2D1
   22    20    16	5 ;      NG2S1      CG2O1     CG2R61
   21    20    16	5 ;      OG2D1      CG2O1     CG2R61
   24    22    23	5 ;      CG311      NG2S1       HGP1
   24    22    20	5 ;      CG311      NG2S1      CG2O1
   23    22    20	5 ;       HGP1      NG2S1      CG2O1
   32    24    22	5 ;      CG311      CG311      NG2S1
   32    24    25	5 ;      CG311      CG311      CG321
   32    24    59	5 ;      CG311      CG311       HGA1
   22    24    25	5 ;      NG2S1      CG311      CG321
   22    24    59	5 ;      NG2S1      CG311       HGA1
   25    24    59	5 ;      CG321      CG311       HGA1
   24    25    26	5 ;      CG311      CG321     CG2R61
   24    25    60	5 ;      CG311      CG321       HGA2
   24    25    61	5 ;      CG311      CG321       HGA2
   26    25    60	5 ;     CG2R61      CG321       HGA2
   26    25    61	5 ;     CG2R61      CG321       HGA2
   60    25    61	5 ;       HGA2      CG321       HGA2
   27    26    25	5 ;     CG2R61     CG2R61      CG321
   27    26    31	5 ;     CG2R61     CG2R61     CG2R61
   25    26    31	5 ;      CG321     CG2R61     CG2R61
   28    27    26	5 ;     CG2R61     CG2R61     CG2R61
   28    27    62	5 ;     CG2R61     CG2R61      HGR61
   26    27    62	5 ;     CG2R61     CG2R61      HGR61
   27    28    29	5 ;     CG2R61     CG2R61     CG2R61
   27    28    63	5 ;     CG2R61     CG2R61      HGR61
   29    28    63	5 ;     CG2R61     CG2R61      HGR61
   28    29    30	5 ;     CG2R61     CG2R61     CG2R61
   28    29    64	5 ;     CG2R61     CG2R61      HGR61
   30    29    64	5 ;     CG2R61     CG2R61      HGR61
   29    30    31	5 ;     CG2R61     CG2R61     CG2R61
   29    30    65	5 ;     CG2R61     CG2R61      HGR61
   31    30    65	5 ;     CG2R61     CG2R61      HGR61
   26    31    30	5 ;     CG2R61     CG2R61     CG2R61
   26    31    66	5 ;     CG2R61     CG2R61      HGR61
   30    31    66	5 ;     CG2R61     CG2R61      HGR61
   33    32    49	5 ;      CG324      CG311      OG311
   33    32    24	5 ;      CG324      CG311      CG311
   33    32    67	5 ;      CG324      CG311       HGA1
   49    32    24	5 ;      OG311      CG311      CG311
   49    32    67	5 ;      OG311      CG311       HGA1
   24    32    67	5 ;      CG311      CG311       HGA1
   34    33    32	5 ;      NG3P2      CG324      CG311
   34    33    68	5 ;      NG3P2      CG324       HGA2
   34    33    69	5 ;      NG3P2      CG324       HGA2
   32    33    68	5 ;      CG311      CG324       HGA2
   32    33    69	5 ;      CG311      CG324       HGA2
   68    33    69	5 ;       HGA2      CG324       HGA2
   37    34    33	5 ;      CG314      NG3P2      CG324
   37    34    35	5 ;      CG314      NG3P2       HGP2
   37    34    36	5 ;      CG314      NG3P2       HGP2
   33    34    35	5 ;      CG324      NG3P2       HGP2
   33    34    36	5 ;      CG324      NG3P2       HGP2
   35    34    36	5 ;       HGP2      NG3P2       HGP2
   38    37    34	5 ;      CG331      CG314      NG3P2
   38    37    39	5 ;      CG331      CG314      CG2O1
   38    37    70	5 ;      CG331      CG314       HGA1
   34    37    39	5 ;      NG3P2      CG314      CG2O1
   34    37    70	5 ;      NG3P2      CG314       HGA1
   39    37    70	5 ;      CG2O1      CG314       HGA1
   37    38    85	5 ;      CG314      CG331       HGA3
   37    38    86	5 ;      CG314      CG331       HGA3
   37    38    87	5 ;      CG314      CG331       HGA3
   85    38    86	5 ;       HGA3      CG331       HGA3
   85    38    87	5 ;       HGA3      CG331       HGA3
   86    38    87	5 ;       HGA3      CG331       HGA3
   37    39    41	5 ;      CG314      CG2O1      NG2S1
   37    39    40	5 ;      CG314      CG2O1      OG2D1
   41    39    40	5 ;      NG2S1      CG2O1      OG2D1
   42    41    39	5 ;       HGP1      NG2S1      CG2O1
   42    41    43	5 ;       HGP1      NG2S1      CG311
   39    41    43	5 ;      CG2O1      NG2S1      CG311
   41    43    44	5 ;      NG2S1      CG311      CG321
   41    43    48	5 ;      NG2S1      CG311      CG321
   41    43    71	5 ;      NG2S1      CG311       HGA1
   44    43    48	5 ;      CG321      CG311      CG321
   44    43    71	5 ;      CG321      CG311       HGA1
   48    43    71	5 ;      CG321      CG311       HGA1
   45    44    43	5 ;      CG321      CG321      CG311
   45    44    72	5 ;      CG321      CG321       HGA2
   45    44    73	5 ;      CG321      CG321       HGA2
   43    44    72	5 ;      CG311      CG321       HGA2
   43    44    73	5 ;      CG311      CG321       HGA2
   72    44    73	5 ;       HGA2      CG321       HGA2
   44    45    46	5 ;      CG321      CG321      CG321
   44    45    74	5 ;      CG321      CG321       HGA2
   44    45    75	5 ;      CG321      CG321       HGA2
   46    45    74	5 ;      CG321      CG321       HGA2
   46    45    75	5 ;      CG321      CG321       HGA2
   74    45    75	5 ;       HGA2      CG321       HGA2
   45    46    47	5 ;      CG321      CG321      CG321
   45    46    76	5 ;      CG321      CG321       HGA2
   45    46    77	5 ;      CG321      CG321       HGA2
   47    46    76	5 ;      CG321      CG321       HGA2
   47    46    77	5 ;      CG321      CG321       HGA2
   76    46    77	5 ;       HGA2      CG321       HGA2
   46    47    48	5 ;      CG321      CG321      CG321
   46    47    78	5 ;      CG321      CG321       HGA2
   46    47    79	5 ;      CG321      CG321       HGA2
   48    47    78	5 ;      CG321      CG321       HGA2
   48    47    79	5 ;      CG321      CG321       HGA2
   78    47    79	5 ;       HGA2      CG321       HGA2
   43    48    47	5 ;      CG311      CG321      CG321
   43    48    80	5 ;      CG311      CG321       HGA2
   43    48    81	5 ;      CG311      CG321       HGA2
   47    48    80	5 ;      CG321      CG321       HGA2
   47    48    81	5 ;      CG321      CG321       HGA2
   80    48    81	5 ;       HGA2      CG321       HGA2
   50    49    32	5 ;       HGP1      OG311      CG311

[ dihedrals ]
;	ai	  aj	ak	  al funct			  c0			c1			  c2			c3			  c4			c5
    2     1     9    14	 9 ;     CG2R61     CG2R61      NG301     CG2R61
    2     1     9    10	 9 ;     CG2R61     CG2R61      NG301      SG3O2
    6     1     9    14	 9 ;     CG2R61     CG2R61      NG301     CG2R61
    6     1     9    10	 9 ;     CG2R61     CG2R61      NG301      SG3O2
    9     1     2     3	 9 ;      NG301     CG2R61     CG2R61     CG2R61
    9     1     2    51	 9 ;      NG301     CG2R61     CG2R61      HGR61
    6     1     2     3	 9 ;     CG2R61     CG2R61     CG2R61     CG2R61
    6     1     2    51	 9 ;     CG2R61     CG2R61     CG2R61      HGR61
    9     1     6     7	 9 ;      NG301     CG2R61     CG2R61      CG1N1
    9     1     6     5	 9 ;      NG301     CG2R61     CG2R61     CG2R61
    2     1     6     7	 9 ;     CG2R61     CG2R61     CG2R61      CG1N1
    2     1     6     5	 9 ;     CG2R61     CG2R61     CG2R61     CG2R61
    1     2     3     4	 9 ;     CG2R61     CG2R61     CG2R61     CG2R61
    1     2     3    52	 9 ;     CG2R61     CG2R61     CG2R61      HGR61
   51     2     3     4	 9 ;      HGR61     CG2R61     CG2R61     CG2R61
   51     2     3    52	 9 ;      HGR61     CG2R61     CG2R61      HGR61
    2     3     4     5	 9 ;     CG2R61     CG2R61     CG2R61     CG2R61
    2     3     4    53	 9 ;     CG2R61     CG2R61     CG2R61      HGR61
   52     3     4     5	 9 ;      HGR61     CG2R61     CG2R61     CG2R61
   52     3     4    53	 9 ;      HGR61     CG2R61     CG2R61      HGR61
    3     4     5     6	 9 ;     CG2R61     CG2R61     CG2R61     CG2R61
    3     4     5    54	 9 ;     CG2R61     CG2R61     CG2R61      HGR61
   53     4     5     6	 9 ;      HGR61     CG2R61     CG2R61     CG2R61
   53     4     5    54	 9 ;      HGR61     CG2R61     CG2R61      HGR61
    4     5     6     1	 9 ;     CG2R61     CG2R61     CG2R61     CG2R61
    4     5     6     7	 9 ;     CG2R61     CG2R61     CG2R61      CG1N1
   54     5     6     1	 9 ;      HGR61     CG2R61     CG2R61     CG2R61
   54     5     6     7	 9 ;      HGR61     CG2R61     CG2R61      CG1N1
    1     9    14    19	 9 ;     CG2R61      NG301     CG2R61     CG2R61
    1     9    14    15	 9 ;     CG2R61      NG301     CG2R61     CG2R61
   10     9    14    19	 9 ;      SG3O2      NG301     CG2R61     CG2R61
   10     9    14    15	 9 ;      SG3O2      NG301     CG2R61     CG2R61
   14     9    10    12	 9 ;     CG2R61      NG301      SG3O2      OG2P1
   14     9    10    13	 9 ;     CG2R61      NG301      SG3O2      CG331
   14     9    10    11	 9 ;     CG2R61      NG301      SG3O2      OG2P1
    1     9    10    12	 9 ;     CG2R61      NG301      SG3O2      OG2P1
    1     9    10    13	 9 ;     CG2R61      NG301      SG3O2      CG331
    1     9    10    11	 9 ;     CG2R61      NG301      SG3O2      OG2P1
    9    10    13    82	 9 ;      NG301      SG3O2      CG331       HGA3
    9    10    13    83	 9 ;      NG301      SG3O2      CG331       HGA3
    9    10    13    84	 9 ;      NG301      SG3O2      CG331       HGA3
   12    10    13    82	 9 ;      OG2P1      SG3O2      CG331       HGA3
   12    10    13    83	 9 ;      OG2P1      SG3O2      CG331       HGA3
   12    10    13    84	 9 ;      OG2P1      SG3O2      CG331       HGA3
   11    10    13    82	 9 ;      OG2P1      SG3O2      CG331       HGA3
   11    10    13    83	 9 ;      OG2P1      SG3O2      CG331       HGA3
   11    10    13    84	 9 ;      OG2P1      SG3O2      CG331       HGA3
   15    14    19    18	 9 ;     CG2R61     CG2R61     CG2R61     CG2R61
   15    14    19    58	 9 ;     CG2R61     CG2R61     CG2R61      HGR61
    9    14    19    18	 9 ;      NG301     CG2R61     CG2R61     CG2R61
    9    14    19    58	 9 ;      NG301     CG2R61     CG2R61      HGR61
   19    14    15    16	 9 ;     CG2R61     CG2R61     CG2R61     CG2R61
   19    14    15    55	 9 ;     CG2R61     CG2R61     CG2R61      HGR61
    9    14    15    16	 9 ;      NG301     CG2R61     CG2R61     CG2R61
    9    14    15    55	 9 ;      NG301     CG2R61     CG2R61      HGR61
   14    15    16    17	 9 ;     CG2R61     CG2R61     CG2R61     CG2R61
   14    15    16    20	 9 ;     CG2R61     CG2R61     CG2R61      CG2O1
   55    15    16    17	 9 ;      HGR61     CG2R61     CG2R61     CG2R61
   55    15    16    20	 9 ;      HGR61     CG2R61     CG2R61      CG2O1
   20    16    17    18	 9 ;      CG2O1     CG2R61     CG2R61     CG2R61
   20    16    17    56	 9 ;      CG2O1     CG2R61     CG2R61      HGR61
   15    16    17    18	 9 ;     CG2R61     CG2R61     CG2R61     CG2R61
   15    16    17    56	 9 ;     CG2R61     CG2R61     CG2R61      HGR61
   17    16    20    22	 9 ;     CG2R61     CG2R61      CG2O1      NG2S1
   17    16    20    21	 9 ;     CG2R61     CG2R61      CG2O1      OG2D1
   15    16    20    22	 9 ;     CG2R61     CG2R61      CG2O1      NG2S1
   15    16    20    21	 9 ;     CG2R61     CG2R61      CG2O1      OG2D1
   16    17    18    19	 9 ;     CG2R61     CG2R61     CG2R61     CG2R61
   16    17    18    57	 9 ;     CG2R61     CG2R61     CG2R61      HGR61
   56    17    18    19	 9 ;      HGR61     CG2R61     CG2R61     CG2R61
   56    17    18    57	 9 ;      HGR61     CG2R61     CG2R61      HGR61
   17    18    19    14	 9 ;     CG2R61     CG2R61     CG2R61     CG2R61
   17    18    19    58	 9 ;     CG2R61     CG2R61     CG2R61      HGR61
   57    18    19    14	 9 ;      HGR61     CG2R61     CG2R61     CG2R61
   57    18    19    58	 9 ;      HGR61     CG2R61     CG2R61      HGR61
   21    20    22    24	 9 ;      OG2D1      CG2O1      NG2S1      CG311
   21    20    22    23	 9 ;      OG2D1      CG2O1      NG2S1       HGP1
   16    20    22    24	 9 ;     CG2R61      CG2O1      NG2S1      CG311
   16    20    22    23	 9 ;     CG2R61      CG2O1      NG2S1       HGP1
   23    22    24    32	 9 ;       HGP1      NG2S1      CG311      CG311
   23    22    24    25	 9 ;       HGP1      NG2S1      CG311      CG321
   23    22    24    59	 9 ;       HGP1      NG2S1      CG311       HGA1
   20    22    24    32	 9 ;      CG2O1      NG2S1      CG311      CG311
   20    22    24    25	 9 ;      CG2O1      NG2S1      CG311      CG321
   20    22    24    59	 9 ;      CG2O1      NG2S1      CG311       HGA1
   22    24    32    33	 9 ;      NG2S1      CG311      CG311      CG324
   22    24    32    49	 9 ;      NG2S1      CG311      CG311      OG311
   22    24    32    67	 9 ;      NG2S1      CG311      CG311       HGA1
   25    24    32    33	 9 ;      CG321      CG311      CG311      CG324
   25    24    32    49	 9 ;      CG321      CG311      CG311      OG311
   25    24    32    67	 9 ;      CG321      CG311      CG311       HGA1
   59    24    32    33	 9 ;       HGA1      CG311      CG311      CG324
   59    24    32    49	 9 ;       HGA1      CG311      CG311      OG311
   59    24    32    67	 9 ;       HGA1      CG311      CG311       HGA1
   32    24    25    26	 9 ;      CG311      CG311      CG321     CG2R61
   32    24    25    60	 9 ;      CG311      CG311      CG321       HGA2
   32    24    25    61	 9 ;      CG311      CG311      CG321       HGA2
   22    24    25    26	 9 ;      NG2S1      CG311      CG321     CG2R61
   22    24    25    60	 9 ;      NG2S1      CG311      CG321       HGA2
   22    24    25    61	 9 ;      NG2S1      CG311      CG321       HGA2
   59    24    25    26	 9 ;       HGA1      CG311      CG321     CG2R61
   59    24    25    60	 9 ;       HGA1      CG311      CG321       HGA2
   59    24    25    61	 9 ;       HGA1      CG311      CG321       HGA2
   24    25    26    27	 9 ;      CG311      CG321     CG2R61     CG2R61
   24    25    26    31	 9 ;      CG311      CG321     CG2R61     CG2R61
   60    25    26    27	 9 ;       HGA2      CG321     CG2R61     CG2R61
   60    25    26    31	 9 ;       HGA2      CG321     CG2R61     CG2R61
   61    25    26    27	 9 ;       HGA2      CG321     CG2R61     CG2R61
   61    25    26    31	 9 ;       HGA2      CG321     CG2R61     CG2R61
   25    26    27    28	 9 ;      CG321     CG2R61     CG2R61     CG2R61
   25    26    27    62	 9 ;      CG321     CG2R61     CG2R61      HGR61
   31    26    27    28	 9 ;     CG2R61     CG2R61     CG2R61     CG2R61
   31    26    27    62	 9 ;     CG2R61     CG2R61     CG2R61      HGR61
   27    26    31    30	 9 ;     CG2R61     CG2R61     CG2R61     CG2R61
   27    26    31    66	 9 ;     CG2R61     CG2R61     CG2R61      HGR61
   25    26    31    30	 9 ;      CG321     CG2R61     CG2R61     CG2R61
   25    26    31    66	 9 ;      CG321     CG2R61     CG2R61      HGR61
   26    27    28    29	 9 ;     CG2R61     CG2R61     CG2R61     CG2R61
   26    27    28    63	 9 ;     CG2R61     CG2R61     CG2R61      HGR61
   62    27    28    29	 9 ;      HGR61     CG2R61     CG2R61     CG2R61
   62    27    28    63	 9 ;      HGR61     CG2R61     CG2R61      HGR61
   27    28    29    30	 9 ;     CG2R61     CG2R61     CG2R61     CG2R61
   27    28    29    64	 9 ;     CG2R61     CG2R61     CG2R61      HGR61
   63    28    29    30	 9 ;      HGR61     CG2R61     CG2R61     CG2R61
   63    28    29    64	 9 ;      HGR61     CG2R61     CG2R61      HGR61
   28    29    30    31	 9 ;     CG2R61     CG2R61     CG2R61     CG2R61
   28    29    30    65	 9 ;     CG2R61     CG2R61     CG2R61      HGR61
   64    29    30    31	 9 ;      HGR61     CG2R61     CG2R61     CG2R61
   64    29    30    65	 9 ;      HGR61     CG2R61     CG2R61      HGR61
   29    30    31    26	 9 ;     CG2R61     CG2R61     CG2R61     CG2R61
   29    30    31    66	 9 ;     CG2R61     CG2R61     CG2R61      HGR61
   65    30    31    26	 9 ;      HGR61     CG2R61     CG2R61     CG2R61
   65    30    31    66	 9 ;      HGR61     CG2R61     CG2R61      HGR61
   49    32    33    34	 9 ;      OG311      CG311      CG324      NG3P2
   49    32    33    68	 9 ;      OG311      CG311      CG324       HGA2
   49    32    33    69	 9 ;      OG311      CG311      CG324       HGA2
   24    32    33    34	 9 ;      CG311      CG311      CG324      NG3P2
   24    32    33    68	 9 ;      CG311      CG311      CG324       HGA2
   24    32    33    69	 9 ;      CG311      CG311      CG324       HGA2
   67    32    33    34	 9 ;       HGA1      CG311      CG324      NG3P2
   67    32    33    68	 9 ;       HGA1      CG311      CG324       HGA2
   67    32    33    69	 9 ;       HGA1      CG311      CG324       HGA2
   33    32    49    50	 9 ;      CG324      CG311      OG311       HGP1
   24    32    49    50	 9 ;      CG311      CG311      OG311       HGP1
   67    32    49    50	 9 ;       HGA1      CG311      OG311       HGP1
   32    33    34    37	 9 ;      CG311      CG324      NG3P2      CG314
   32    33    34    35	 9 ;      CG311      CG324      NG3P2       HGP2
   32    33    34    36	 9 ;      CG311      CG324      NG3P2       HGP2
   68    33    34    37	 9 ;       HGA2      CG324      NG3P2      CG314
   68    33    34    35	 9 ;       HGA2      CG324      NG3P2       HGP2
   68    33    34    36	 9 ;       HGA2      CG324      NG3P2       HGP2
   69    33    34    37	 9 ;       HGA2      CG324      NG3P2      CG314
   69    33    34    35	 9 ;       HGA2      CG324      NG3P2       HGP2
   69    33    34    36	 9 ;       HGA2      CG324      NG3P2       HGP2
   33    34    37    38	 9 ;      CG324      NG3P2      CG314      CG331
   33    34    37    39	 9 ;      CG324      NG3P2      CG314      CG2O1
   33    34    37    70	 9 ;      CG324      NG3P2      CG314       HGA1
   35    34    37    38	 9 ;       HGP2      NG3P2      CG314      CG331
   35    34    37    39	 9 ;       HGP2      NG3P2      CG314      CG2O1
   35    34    37    70	 9 ;       HGP2      NG3P2      CG314       HGA1
   36    34    37    38	 9 ;       HGP2      NG3P2      CG314      CG331
   36    34    37    39	 9 ;       HGP2      NG3P2      CG314      CG2O1
   36    34    37    70	 9 ;       HGP2      NG3P2      CG314       HGA1
   34    37    38    85	 9 ;      NG3P2      CG314      CG331       HGA3
   34    37    38    86	 9 ;      NG3P2      CG314      CG331       HGA3
   34    37    38    87	 9 ;      NG3P2      CG314      CG331       HGA3
   39    37    38    85	 9 ;      CG2O1      CG314      CG331       HGA3
   39    37    38    86	 9 ;      CG2O1      CG314      CG331       HGA3
   39    37    38    87	 9 ;      CG2O1      CG314      CG331       HGA3
   70    37    38    85	 9 ;       HGA1      CG314      CG331       HGA3
   70    37    38    86	 9 ;       HGA1      CG314      CG331       HGA3
   70    37    38    87	 9 ;       HGA1      CG314      CG331       HGA3
   38    37    39    41	 9 ;      CG331      CG314      CG2O1      NG2S1
   38    37    39    40	 9 ;      CG331      CG314      CG2O1      OG2D1
   34    37    39    41	 9 ;      NG3P2      CG314      CG2O1      NG2S1
   34    37    39    40	 9 ;      NG3P2      CG314      CG2O1      OG2D1
   70    37    39    41	 9 ;       HGA1      CG314      CG2O1      NG2S1
   70    37    39    40	 9 ;       HGA1      CG314      CG2O1      OG2D1
   37    39    41    42	 9 ;      CG314      CG2O1      NG2S1       HGP1
   37    39    41    43	 9 ;      CG314      CG2O1      NG2S1      CG311
   40    39    41    42	 9 ;      OG2D1      CG2O1      NG2S1       HGP1
   40    39    41    43	 9 ;      OG2D1      CG2O1      NG2S1      CG311
   42    41    43    44	 9 ;       HGP1      NG2S1      CG311      CG321
   42    41    43    48	 9 ;       HGP1      NG2S1      CG311      CG321
   42    41    43    71	 9 ;       HGP1      NG2S1      CG311       HGA1
   39    41    43    44	 9 ;      CG2O1      NG2S1      CG311      CG321
   39    41    43    48	 9 ;      CG2O1      NG2S1      CG311      CG321
   39    41    43    71	 9 ;      CG2O1      NG2S1      CG311       HGA1
   41    43    44    45	 9 ;      NG2S1      CG311      CG321      CG321
   41    43    44    72	 9 ;      NG2S1      CG311      CG321       HGA2
   41    43    44    73	 9 ;      NG2S1      CG311      CG321       HGA2
   48    43    44    45	 9 ;      CG321      CG311      CG321      CG321
   48    43    44    72	 9 ;      CG321      CG311      CG321       HGA2
   48    43    44    73	 9 ;      CG321      CG311      CG321       HGA2
   71    43    44    45	 9 ;       HGA1      CG311      CG321      CG321
   71    43    44    72	 9 ;       HGA1      CG311      CG321       HGA2
   71    43    44    73	 9 ;       HGA1      CG311      CG321       HGA2
   41    43    48    47	 9 ;      NG2S1      CG311      CG321      CG321
   41    43    48    80	 9 ;      NG2S1      CG311      CG321       HGA2
   41    43    48    81	 9 ;      NG2S1      CG311      CG321       HGA2
   44    43    48    47	 9 ;      CG321      CG311      CG321      CG321
   44    43    48    80	 9 ;      CG321      CG311      CG321       HGA2
   44    43    48    81	 9 ;      CG321      CG311      CG321       HGA2
   71    43    48    47	 9 ;       HGA1      CG311      CG321      CG321
   71    43    48    80	 9 ;       HGA1      CG311      CG321       HGA2
   71    43    48    81	 9 ;       HGA1      CG311      CG321       HGA2
   43    44    45    46	 9 ;      CG311      CG321      CG321      CG321
   43    44    45    74	 9 ;      CG311      CG321      CG321       HGA2
   43    44    45    75	 9 ;      CG311      CG321      CG321       HGA2
   72    44    45    46	 9 ;       HGA2      CG321      CG321      CG321
   72    44    45    74	 9 ;       HGA2      CG321      CG321       HGA2
   72    44    45    75	 9 ;       HGA2      CG321      CG321       HGA2
   73    44    45    46	 9 ;       HGA2      CG321      CG321      CG321
   73    44    45    74	 9 ;       HGA2      CG321      CG321       HGA2
   73    44    45    75	 9 ;       HGA2      CG321      CG321       HGA2
   44    45    46    47	 9 ;      CG321      CG321      CG321      CG321
   44    45    46    76	 9 ;      CG321      CG321      CG321       HGA2
   44    45    46    77	 9 ;      CG321      CG321      CG321       HGA2
   74    45    46    47	 9 ;       HGA2      CG321      CG321      CG321
   74    45    46    76	 9 ;       HGA2      CG321      CG321       HGA2
   74    45    46    77	 9 ;       HGA2      CG321      CG321       HGA2
   75    45    46    47	 9 ;       HGA2      CG321      CG321      CG321
   75    45    46    76	 9 ;       HGA2      CG321      CG321       HGA2
   75    45    46    77	 9 ;       HGA2      CG321      CG321       HGA2
   45    46    47    48	 9 ;      CG321      CG321      CG321      CG321
   45    46    47    78	 9 ;      CG321      CG321      CG321       HGA2
   45    46    47    79	 9 ;      CG321      CG321      CG321       HGA2
   76    46    47    48	 9 ;       HGA2      CG321      CG321      CG321
   76    46    47    78	 9 ;       HGA2      CG321      CG321       HGA2
   76    46    47    79	 9 ;       HGA2      CG321      CG321       HGA2
   77    46    47    48	 9 ;       HGA2      CG321      CG321      CG321
   77    46    47    78	 9 ;       HGA2      CG321      CG321       HGA2
   77    46    47    79	 9 ;       HGA2      CG321      CG321       HGA2
   46    47    48    43	 9 ;      CG321      CG321      CG321      CG311
   46    47    48    80	 9 ;      CG321      CG321      CG321       HGA2
   46    47    48    81	 9 ;      CG321      CG321      CG321       HGA2
   78    47    48    43	 9 ;       HGA2      CG321      CG321      CG311
   78    47    48    80	 9 ;       HGA2      CG321      CG321       HGA2
   78    47    48    81	 9 ;       HGA2      CG321      CG321       HGA2
   79    47    48    43	 9 ;       HGA2      CG321      CG321      CG311
   79    47    48    80	 9 ;       HGA2      CG321      CG321       HGA2
   79    47    48    81	 9 ;       HGA2      CG321      CG321       HGA2

[ dihedrals ]
;	ai	  aj	ak	  al funct			  c0			c1			  c2			c3
   20    16    22    21	 2
   39    37    41    40	 2

