Gravel Rubs Often Many Awfully Cauterized Sores
   87
    1LIG     C1    1  -2.137   0.538  -1.495
    1LIG     C2    2  -2.133   0.401  -1.470
    1LIG     C3    3  -2.110   0.352  -1.340
    1LIG     C4    4  -2.091   0.439  -1.234
    1LIG     C5    5  -2.098   0.576  -1.256
    1LIG     C6    6  -2.120   0.626  -1.386
    1LIG     C7    7  -2.128   0.768  -1.403
    1LIG     N1    8  -2.135   0.882  -1.418
    1LIG     N2    9  -2.166   0.590  -1.628
    1LIG      S   10  -2.322   0.559  -1.694
    1LIG     O1   11  -2.423   0.593  -1.596
    1LIG     O2   12  -2.321   0.429  -1.758
    1LIG     C8   13  -2.332   0.680  -1.825
    1LIG     C9   14  -2.060   0.613  -1.724
    1LIG    C10   15  -1.977   0.726  -1.723
    1LIG    C11   16  -1.853   0.730  -1.793
    1LIG    C12   17  -1.815   0.617  -1.864
    1LIG    C13   18  -1.900   0.506  -1.872
    1LIG    C14   19  -2.021   0.504  -1.803
    1LIG    C15   20  -1.762   0.847  -1.768
    1LIG     O3   21  -1.793   0.957  -1.814
    1LIG     N3   22  -1.644   0.845  -1.696
    1LIG     H1   23  -1.617   0.941  -1.675
    1LIG    C16   24  -1.543   0.742  -1.659
    1LIG    C17   25  -1.600   0.663  -1.535
    1LIG    C18   26  -1.635   0.515  -1.547
    1LIG    C19   27  -1.534   0.421  -1.575
    1LIG    C20   28  -1.565   0.287  -1.600
    1LIG    C21   29  -1.697   0.244  -1.593
    1LIG    C22   30  -1.796   0.332  -1.549
    1LIG    C23   31  -1.764   0.467  -1.524
    1LIG    C24   32  -1.397   0.809  -1.648
    1LIG    C25   33  -1.280   0.705  -1.658
    1LIG     N4   34  -1.216   0.664  -1.524
    1LIG     H2   35  -1.151   0.742  -1.502
    1LIG     H3   36  -1.285   0.663  -1.448
    1LIG    C26   37  -1.127   0.538  -1.516
    1LIG    C27   38  -1.139   0.466  -1.652
    1LIG    C28   39  -1.169   0.441  -1.402
    1LIG     O4   40  -1.183   0.485  -1.288
    1LIG     N5   41  -1.190   0.308  -1.436
    1LIG     H4   42  -1.194   0.281  -1.534
    1LIG    C29   43  -1.232   0.202  -1.339
    1LIG    C30   44  -1.113   0.153  -1.255
    1LIG    C31   45  -1.128   0.016  -1.190
    1LIG    C32   46  -1.189  -0.089  -1.281
    1LIG    C33   47  -1.322  -0.044  -1.340
    1LIG    C34   48  -1.319   0.094  -1.406
    1LIG     O5   49  -1.381   0.913  -1.746
    1LIG     H5   50  -1.362   0.878  -1.835
    1LIG     HC   51  -2.148   0.331  -1.552
    1LIG    HC1   52  -2.107   0.245  -1.323
    1LIG    HC2   53  -2.070   0.401  -1.135
    1LIG    HC3   54  -2.087   0.645  -1.174
    1LIG    HC4   55  -2.009   0.813  -1.667
    1LIG    HC5   56  -1.719   0.614  -1.914
    1LIG    HC6   57  -1.872   0.421  -1.933
    1LIG    HC7   58  -2.086   0.417  -1.810
    1LIG    HC8   59  -1.538   0.672  -1.742
    1LIG    HC9   60  -1.526   0.671  -1.455
    1LIG   HC10   61  -1.690   0.715  -1.501
    1LIG   HC11   62  -1.431   0.453  -1.577
    1LIG   HC12   63  -1.487   0.218  -1.625
    1LIG   HC13   64  -1.723   0.143  -1.621
    1LIG   HC14   65  -1.897   0.297  -1.534
    1LIG   HC15   66  -1.841   0.533  -1.487
    1LIG   HC16   67  -1.391   0.857  -1.550
    1LIG   HC17   68  -1.202   0.747  -1.720
    1LIG   HC18   69  -1.318   0.615  -1.706
    1LIG   HC19   70  -1.023   0.568  -1.501
    1LIG   HC20   71  -1.298   0.252  -1.269
    1LIG   HC21   72  -1.096   0.226  -1.176
    1LIG   HC22   73  -1.025   0.150  -1.319
    1LIG   HC23   74  -1.193   0.026  -1.102
    1LIG   HC24   75  -1.030  -0.019  -1.157
    1LIG   HC25   76  -1.120  -0.108  -1.363
    1LIG   HC26   77  -1.204  -0.181  -1.225
    1LIG   HC27   78  -1.353  -0.117  -1.414
    1LIG   HC28   79  -1.396  -0.042  -1.260
    1LIG   HC29   80  -1.421   0.131  -1.410
    1LIG   HC30   81  -1.284   0.081  -1.509
    1LIG   HC31   82  -2.436   0.695  -1.852
    1LIG   HC32   83  -2.276   0.644  -1.912
    1LIG   HC33   84  -2.289   0.774  -1.791
    1LIG   HC34   85  -1.083   0.373  -1.649
    1LIG   HC35   86  -1.244   0.445  -1.673
    1LIG   HC36   87  -1.099   0.530  -1.730
   0.00000   0.00000   0.00000
