Guyana Rwanda Oman Macau Angola Cameroon Senegal
   62
    1LIG     N1    1  -1.647   0.370  -1.547
    1LIG     H1    2  -1.656   0.271  -1.525
    1LIG     H2    3  -1.683   0.379  -1.644
    1LIG     C1    4  -1.504   0.414  -1.557
    1LIG     C2    5  -1.416   0.301  -1.502
    1LIG     O1    6  -1.406   0.203  -1.607
    1LIG     H3    7  -1.357   0.126  -1.573
    1LIG     C3    8  -1.278   0.346  -1.444
    1LIG     N2    9  -1.261   0.492  -1.439
    1LIG     C4   10  -1.180   0.565  -1.521
    1LIG     O2   11  -1.106   0.514  -1.605
    1LIG     C5   12  -1.184   0.714  -1.497
    1LIG     H4   13  -1.333   0.544  -1.390
    1LIG     C6   14  -1.250   0.273  -1.311
    1LIG     C7   15  -1.180   0.140  -1.322
    1LIG     C8   16  -1.248   0.022  -1.288
    1LIG     C9   17  -1.186  -0.103  -1.300
    1LIG    C10   18  -1.055  -0.111  -1.347
    1LIG    C11   19  -0.987   0.005  -1.383
    1LIG    C12   20  -1.049   0.130  -1.370
    1LIG    C13   21  -1.734   0.452  -1.456
    1LIG    C14   22  -1.851   0.370  -1.401
    1LIG    C15   23  -1.972   0.362  -1.497
    1LIG     O3   24  -1.950   0.435  -1.621
    1LIG    C16   25  -2.117   0.389  -1.432
    1LIG    C17   26  -2.021   0.217  -1.521
    1LIG    C18   27  -1.896   0.560  -1.607
    1LIG    C19   28  -1.783   0.573  -1.527
    1LIG     N3   29  -1.945   0.657  -1.685
    1LIG    C20   30  -1.716   0.696  -1.527
    1LIG    C21   31  -1.766   0.799  -1.606
    1LIG     CL   32  -1.684   0.950  -1.612
    1LIG    C22   33  -1.880   0.776  -1.681
    1LIG     HN   34  -2.026   0.642  -1.744
    1LIG    C23   35  -2.105   0.236  -1.396
    1LIG    HC2   36  -1.478   0.433  -1.662
    1LIG    HC3   37  -1.488   0.504  -1.499
    1LIG     HC   38  -1.471   0.254  -1.420
    1LIG    HC1   39  -1.203   0.310  -1.515
    1LIG    HC4   40  -1.117   0.765  -1.566
    1LIG    HC5   41  -1.286   0.750  -1.513
    1LIG    HC6   42  -1.154   0.736  -1.394
    1LIG    HC7   43  -1.187   0.338  -1.249
    1LIG    HC8   44  -1.344   0.258  -1.259
    1LIG    HC9   45  -1.350   0.027  -1.253
    1LIG   HC10   46  -1.239  -0.192  -1.273
    1LIG   HC11   47  -1.007  -0.207  -1.355
    1LIG   HC12   48  -0.886  -0.001  -1.420
    1LIG   HC13   49  -0.995   0.220  -1.398
    1LIG   HC14   50  -1.673   0.484  -1.372
    1LIG   HC15   51  -1.884   0.415  -1.308
    1LIG   HC16   52  -1.816   0.268  -1.381
    1LIG   HC17   53  -2.118   0.458  -1.347
    1LIG   HC18   54  -2.194   0.409  -1.506
    1LIG   HC19   55  -1.943   0.140  -1.513
    1LIG   HC20   56  -2.081   0.206  -1.611
    1LIG   HC21   57  -1.627   0.710  -1.467
    1LIG   HC22   58  -1.919   0.858  -1.741
    1LIG   HC23   59  -2.200   0.182  -1.396
    1LIG   HC24   60  -2.048   0.219  -1.304
    1LIG    H31   61  -1.963   0.586  -1.525
    1LIG    LP1   62  -1.606   1.094  -1.617
   0.00000   0.00000   0.00000
