Gromacs Runs On Most of All Computer Systems
   58
    1LIG     C1    1  -1.370   0.345  -1.517
    1LIG     N1    2  -1.292   0.250  -1.602
    1LIG    HN1    3  -1.278   0.252  -1.703
    1LIG     C2    4  -1.247   0.164  -1.518
    1LIG     C3    5  -1.165   0.044  -1.551
    1LIG     C4    6  -1.289   0.193  -1.379
    1LIG     N2    7  -1.365   0.297  -1.375
    1LIG    HN2    8  -1.411   0.337  -1.294
    1LIG     N3    9  -1.254   0.120  -1.269
    1LIG     H1   10  -1.312   0.139  -1.189
    1LIG     H2   11  -1.232   0.022  -1.281
    1LIG     C5   12  -1.519   0.349  -1.561
    1LIG     C6   13  -1.560   0.327  -1.692
    1LIG     C7   14  -1.696   0.330  -1.729
    1LIG     C8   15  -1.795   0.357  -1.631
    1LIG     C9   16  -1.734   0.301  -1.871
    1LIG    C10   17  -1.756   0.381  -1.498
    1LIG    C11   18  -1.619   0.374  -1.465
    1LIG    C12   19  -1.850   0.417  -1.387
    1LIG      O   20  -1.921   0.371  -1.682
    1LIG    C13   21  -2.017   0.271  -1.650
    1LIG    C14   22  -1.307   0.485  -1.530
    1LIG    C15   23  -1.383   0.590  -1.583
    1LIG    C16   24  -1.337   0.723  -1.586
    1LIG    C17   25  -1.206   0.747  -1.539
    1LIG    C18   26  -1.127   0.643  -1.491
    1LIG    C19   27  -1.177   0.513  -1.485
    1LIG    C20   28  -1.424   0.832  -1.633
    1LIG    C21   29  -1.395   0.908  -1.745
    1LIG     N4   30  -1.471   1.010  -1.792
    1LIG    C22   31  -1.582   1.036  -1.722
    1LIG    HN3   32  -1.445   1.064  -1.874
    1LIG     N5   33  -1.624   0.969  -1.614
    1LIG    C23   34  -1.543   0.868  -1.572
    1LIG    HN4   35  -1.711   0.992  -1.566
    1LIG    HC1   36  -1.145   0.042  -1.658
    1LIG    HC2   37  -1.070   0.049  -1.497
    1LIG    HC3   38  -1.219  -0.046  -1.522
    1LIG     HC   39  -1.485   0.308  -1.768
    1LIG    HC4   40  -1.644   0.275  -1.928
    1LIG    HC5   41  -1.781   0.389  -1.915
    1LIG    HC6   42  -1.804   0.217  -1.874
    1LIG    HC7   43  -1.589   0.390  -1.362
    1LIG    HC8   44  -1.952   0.419  -1.425
    1LIG    HC9   45  -1.824   0.516  -1.348
    1LIG   HC10   46  -1.842   0.343  -1.307
    1LIG   HC11   47  -2.113   0.296  -1.697
    1LIG   HC12   48  -2.031   0.267  -1.542
    1LIG   HC13   49  -1.983   0.175  -1.686
    1LIG   HC14   50  -1.481   0.569  -1.623
    1LIG   HC15   51  -1.167   0.848  -1.541
    1LIG   HC16   52  -1.026   0.663  -1.458
    1LIG   HC17   53  -1.115   0.433  -1.447
    1LIG   HC18   54  -1.305   0.885  -1.800
    1LIG   HC19   55  -1.644   1.118  -1.756
    1LIG   HC20   56  -1.574   0.812  -1.485
    1LIG    H28   57  -1.339   0.978  -1.683
    1LIG    H29   58  -1.526   1.104  -1.658
   0.00000   0.00000   0.00000
