; Created by cgenff_charmm2gmx.py

[ moleculetype ]
; Name			   nrexcl
LIG				 3

[ atoms ]
;	 nr		  type	resnr residue  atom   cgnr	   charge		mass  typeB    chargeB		massB
; residue	 1 LIG rtp LIG q	qsum
     1     CG3C50      1    LIG     C1      1      1.380     12.011   ;
     2     NG3C51      1    LIG     N1      2     -0.747     14.007   ;
     3       HGP1      1    LIG    HN1      3      0.253      1.008   ;
     4     CG2R51      1    LIG     C2      4     -0.266     12.011   ;
     5      CG331      1    LIG     C3      5     -0.073     12.011   ;
     6     CG2R51      1    LIG     C4      6     -0.040     12.011   ;
     7     NG3C51      1    LIG     N2      7     -0.780     14.007   ;
     8       HGP1      1    LIG    HN2      8      0.253      1.008   ;
     9      NG321      1    LIG     N3      9     -0.622     14.007   ;
    10     HGPAM2      1    LIG     H1     10      0.371      1.008   ;
    11     HGPAM2      1    LIG     H2     11      0.371      1.008   ;
    12     CG2R61      1    LIG     C5     12     -0.005     12.011   ;
    13     CG2R61      1    LIG     C6     13     -0.234     12.011   ;
    14     CG2R61      1    LIG     C7     14      0.000     12.011   ;
    15     CG2R61      1    LIG     C8     15      0.261     12.011   ;
    16      CG331      1    LIG     C9     16     -0.262     12.011   ;
    17     CG2R61      1    LIG    C10     17      0.000     12.011   ;
    18     CG2R61      1    LIG    C11     18     -0.234     12.011   ;
    19      CG331      1    LIG    C12     19     -0.262     12.011   ;
    20      OG301      1    LIG      O     20     -0.397     15.999   ;
    21      CG331      1    LIG    C13     21     -0.094     12.011   ;
    22     CG2R61      1    LIG    C14     22      0.028     12.011   ;
    23     CG2R61      1    LIG    C15     23     -0.236     12.011   ;
    24     CG2R61      1    LIG    C16     24      0.025     12.011   ;
    25     CG2R61      1    LIG    C17     25     -0.120     12.011   ;
    26     CG2R61      1    LIG    C18     26     -0.102     12.011   ;
    27     CG2R61      1    LIG    C19     27     -0.232     12.011   ;
    28     CG2DC1      1    LIG    C20     28     -0.086     12.011   ;
    29      CG321      1    LIG    C21     29      0.013     12.011   ;
    30      NG311      1    LIG     N4     30     -0.656     14.007   ;
    31      CG321      1    LIG    C22     31      0.131     12.011   ;
    32     HGPAM1      1    LIG    HN3     32      0.367      1.008   ;
    33      NG311      1    LIG     N5     33     -0.598     14.007   ;
    34     CG2D1O      1    LIG    C23     34     -0.097     12.011   ;
    35     HGPAM1      1    LIG    HN4     35      0.406      1.008   ;
    36       HGA3      1    LIG    HC1     36      0.090      1.008   ;
    37       HGA3      1    LIG    HC2     37      0.090      1.008   ;
    38       HGA3      1    LIG    HC3     38      0.090      1.008   ;
    39      HGR61      1    LIG     HC     39      0.116      1.008   ;
    40       HGA3      1    LIG    HC4     40      0.090      1.008   ;
    41       HGA3      1    LIG    HC5     41      0.090      1.008   ;
    42       HGA3      1    LIG    HC6     42      0.090      1.008   ;
    43      HGR61      1    LIG    HC7     43      0.116      1.008   ;
    44       HGA3      1    LIG    HC8     44      0.090      1.008   ;
    45       HGA3      1    LIG    HC9     45      0.090      1.008   ;
    46       HGA3      1    LIG   HC10     46      0.090      1.008   ;
    47       HGA3      1    LIG   HC11     47      0.090      1.008   ;
    48       HGA3      1    LIG   HC12     48      0.090      1.008   ;
    49       HGA3      1    LIG   HC13     49      0.090      1.008   ;
    50      HGR61      1    LIG   HC14     50      0.116      1.008   ;
    51      HGR61      1    LIG   HC15     51      0.116      1.008   ;
    52      HGR61      1    LIG   HC16     52      0.116      1.008   ;
    53      HGR61      1    LIG   HC17     53      0.116      1.008   ;
    54       HGA2      1    LIG   HC18     54      0.090      1.008   ;
    55       HGA2      1    LIG   HC19     55      0.090      1.008   ;
    56       HGA4      1    LIG   HC20     56      0.148      1.008   ;
    57       HGA2      1    LIG    H28     57      0.090      1.008   ;
    58       HGA2      1    LIG    H29     58      0.090      1.008   ;

[ bonds ]
;	ai	  aj funct			  c0			c1			  c2			c3
    1     2	 1 ;      CG3C50     NG3C51
    1    22	 1 ;      CG3C50     CG2R61
    1     7	 1 ;      CG3C50     NG3C51
    1    12	 1 ;      CG3C50     CG2R61
    2     3	 1 ;      NG3C51       HGP1
    2     4	 1 ;      NG3C51     CG2R51
    4     5	 1 ;      CG2R51      CG331
    4     6	 1 ;      CG2R51     CG2R51
    5    36	 1 ;       CG331       HGA3
    5    37	 1 ;       CG331       HGA3
    5    38	 1 ;       CG331       HGA3
    6     7	 1 ;      CG2R51     NG3C51
    6     9	 1 ;      CG2R51      NG321
    7     8	 1 ;      NG3C51       HGP1
    9    11	 1 ;       NG321     HGPAM2
    9    10	 1 ;       NG321     HGPAM2
   12    13	 1 ;      CG2R61     CG2R61
   12    18	 1 ;      CG2R61     CG2R61
   13    14	 1 ;      CG2R61     CG2R61
   13    39	 1 ;      CG2R61      HGR61
   14    16	 1 ;      CG2R61      CG331
   14    15	 1 ;      CG2R61     CG2R61
   15    17	 1 ;      CG2R61     CG2R61
   15    20	 1 ;      CG2R61      OG301
   16    40	 1 ;       CG331       HGA3
   16    41	 1 ;       CG331       HGA3
   16    42	 1 ;       CG331       HGA3
   17    18	 1 ;      CG2R61     CG2R61
   17    19	 1 ;      CG2R61      CG331
   18    43	 1 ;      CG2R61      HGR61
   19    44	 1 ;       CG331       HGA3
   19    45	 1 ;       CG331       HGA3
   19    46	 1 ;       CG331       HGA3
   20    21	 1 ;       OG301      CG331
   21    47	 1 ;       CG331       HGA3
   21    48	 1 ;       CG331       HGA3
   21    49	 1 ;       CG331       HGA3
   22    27	 1 ;      CG2R61     CG2R61
   22    23	 1 ;      CG2R61     CG2R61
   23    24	 1 ;      CG2R61     CG2R61
   23    50	 1 ;      CG2R61      HGR61
   24    25	 1 ;      CG2R61     CG2R61
   24    28	 1 ;      CG2R61     CG2DC1
   25    26	 1 ;      CG2R61     CG2R61
   25    51	 1 ;      CG2R61      HGR61
   26    27	 1 ;      CG2R61     CG2R61
   26    52	 1 ;      CG2R61      HGR61
   27    53	 1 ;      CG2R61      HGR61
   28    29	 1 ;      CG2DC1      CG321
   28    34	 1 ;      CG2DC1     CG2D1O
   29    30	 1 ;       CG321      NG311
   29    54	 1 ;       CG321       HGA2
   29    57	 1 ;       CG321       HGA2
   30    32	 1 ;       NG311     HGPAM1
   30    31	 1 ;       NG311      CG321
   31    33	 1 ;       CG321      NG311
   31    55	 1 ;       CG321       HGA2
   31    58	 1 ;       CG321       HGA2
   33    34	 1 ;       NG311     CG2D1O
   33    35	 1 ;       NG311     HGPAM1
   34    56	 1 ;      CG2D1O       HGA4

[ pairs ]
;	ai	  aj funct			  c0			c1			  c2			c3
    1     5	 1
    1     9	 1
    1    14	 1
    1    39	 1
    1    17	 1
    1    43	 1
    1    26	 1
    1    53	 1
    1    24	 1
    1    50	 1
    2    27	 1
    2    23	 1
    2     8	 1
    2    13	 1
    2    18	 1
    2    36	 1
    2    37	 1
    2    38	 1
    2     9	 1
    3    22	 1
    3     7	 1
    3    12	 1
    3     5	 1
    3     6	 1
    4    22	 1
    4    12	 1
    4     8	 1
    4    11	 1
    4    10	 1
    5     7	 1
    5     9	 1
    6    22	 1
    6    12	 1
    6    36	 1
    6    37	 1
    6    38	 1
    7    27	 1
    7    23	 1
    7    13	 1
    7    18	 1
    7    11	 1
    7    10	 1
    8    22	 1
    8    12	 1
    8     9	 1
   12    27	 1
   12    23	 1
   12    16	 1
   12    15	 1
   12    19	 1
   13    22	 1
   13    17	 1
   13    43	 1
   13    40	 1
   13    41	 1
   13    42	 1
   13    20	 1
   14    18	 1
   14    19	 1
   14    21	 1
   15    39	 1
   15    40	 1
   15    41	 1
   15    42	 1
   15    43	 1
   15    44	 1
   15    45	 1
   15    46	 1
   15    47	 1
   15    48	 1
   15    49	 1
   16    39	 1
   16    17	 1
   16    20	 1
   17    21	 1
   18    22	 1
   18    39	 1
   18    20	 1
   18    44	 1
   18    45	 1
   18    46	 1
   19    20	 1
   19    43	 1
   22    25	 1
   22    28	 1
   22    52	 1
   23    26	 1
   23    53	 1
   23    51	 1
   23    29	 1
   23    34	 1
   24    27	 1
   24    52	 1
   24    30	 1
   24    54	 1
   24    57	 1
   24    33	 1
   24    56	 1
   25    50	 1
   25    29	 1
   25    34	 1
   25    53	 1
   26    28	 1
   27    50	 1
   27    51	 1
   28    50	 1
   28    51	 1
   28    32	 1
   28    31	 1
   28    35	 1
   29    33	 1
   29    56	 1
   29    55	 1
   29    58	 1
   30    34	 1
   30    35	 1
   31    54	 1
   31    57	 1
   31    56	 1
   32    54	 1
   32    57	 1
   32    33	 1
   32    55	 1
   32    58	 1
   34    54	 1
   34    57	 1
   34    55	 1
   34    58	 1
   35    55	 1
   35    58	 1
   35    56	 1
   51    52	 1
   52    53	 1

[ angles ]
;	ai	  aj	ak funct			c0			  c1			c2			  c3
    2     1    22	5 ;     NG3C51     CG3C50     CG2R61
    2     1     7	5 ;     NG3C51     CG3C50     NG3C51
    2     1    12	5 ;     NG3C51     CG3C50     CG2R61
   22     1     7	5 ;     CG2R61     CG3C50     NG3C51
   22     1    12	5 ;     CG2R61     CG3C50     CG2R61
    7     1    12	5 ;     NG3C51     CG3C50     CG2R61
    3     2     4	5 ;       HGP1     NG3C51     CG2R51
    3     2     1	5 ;       HGP1     NG3C51     CG3C50
    4     2     1	5 ;     CG2R51     NG3C51     CG3C50
    5     4     2	5 ;      CG331     CG2R51     NG3C51
    5     4     6	5 ;      CG331     CG2R51     CG2R51
    2     4     6	5 ;     NG3C51     CG2R51     CG2R51
    4     5    36	5 ;     CG2R51      CG331       HGA3
    4     5    37	5 ;     CG2R51      CG331       HGA3
    4     5    38	5 ;     CG2R51      CG331       HGA3
   36     5    37	5 ;       HGA3      CG331       HGA3
   36     5    38	5 ;       HGA3      CG331       HGA3
   37     5    38	5 ;       HGA3      CG331       HGA3
    4     6     7	5 ;     CG2R51     CG2R51     NG3C51
    4     6     9	5 ;     CG2R51     CG2R51      NG321
    7     6     9	5 ;     NG3C51     CG2R51      NG321
    1     7     6	5 ;     CG3C50     NG3C51     CG2R51
    1     7     8	5 ;     CG3C50     NG3C51       HGP1
    6     7     8	5 ;     CG2R51     NG3C51       HGP1
    6     9    11	5 ;     CG2R51      NG321     HGPAM2
    6     9    10	5 ;     CG2R51      NG321     HGPAM2
   11     9    10	5 ;     HGPAM2      NG321     HGPAM2
    1    12    13	5 ;     CG3C50     CG2R61     CG2R61
    1    12    18	5 ;     CG3C50     CG2R61     CG2R61
   13    12    18	5 ;     CG2R61     CG2R61     CG2R61
   12    13    14	5 ;     CG2R61     CG2R61     CG2R61
   12    13    39	5 ;     CG2R61     CG2R61      HGR61
   14    13    39	5 ;     CG2R61     CG2R61      HGR61
   13    14    16	5 ;     CG2R61     CG2R61      CG331
   13    14    15	5 ;     CG2R61     CG2R61     CG2R61
   16    14    15	5 ;      CG331     CG2R61     CG2R61
   14    15    17	5 ;     CG2R61     CG2R61     CG2R61
   14    15    20	5 ;     CG2R61     CG2R61      OG301
   17    15    20	5 ;     CG2R61     CG2R61      OG301
   14    16    40	5 ;     CG2R61      CG331       HGA3
   14    16    41	5 ;     CG2R61      CG331       HGA3
   14    16    42	5 ;     CG2R61      CG331       HGA3
   40    16    41	5 ;       HGA3      CG331       HGA3
   40    16    42	5 ;       HGA3      CG331       HGA3
   41    16    42	5 ;       HGA3      CG331       HGA3
   18    17    15	5 ;     CG2R61     CG2R61     CG2R61
   18    17    19	5 ;     CG2R61     CG2R61      CG331
   15    17    19	5 ;     CG2R61     CG2R61      CG331
   12    18    17	5 ;     CG2R61     CG2R61     CG2R61
   12    18    43	5 ;     CG2R61     CG2R61      HGR61
   17    18    43	5 ;     CG2R61     CG2R61      HGR61
   17    19    44	5 ;     CG2R61      CG331       HGA3
   17    19    45	5 ;     CG2R61      CG331       HGA3
   17    19    46	5 ;     CG2R61      CG331       HGA3
   44    19    45	5 ;       HGA3      CG331       HGA3
   44    19    46	5 ;       HGA3      CG331       HGA3
   45    19    46	5 ;       HGA3      CG331       HGA3
   15    20    21	5 ;     CG2R61      OG301      CG331
   20    21    47	5 ;      OG301      CG331       HGA3
   20    21    48	5 ;      OG301      CG331       HGA3
   20    21    49	5 ;      OG301      CG331       HGA3
   47    21    48	5 ;       HGA3      CG331       HGA3
   47    21    49	5 ;       HGA3      CG331       HGA3
   48    21    49	5 ;       HGA3      CG331       HGA3
   27    22    23	5 ;     CG2R61     CG2R61     CG2R61
   27    22     1	5 ;     CG2R61     CG2R61     CG3C50
   23    22     1	5 ;     CG2R61     CG2R61     CG3C50
   24    23    22	5 ;     CG2R61     CG2R61     CG2R61
   24    23    50	5 ;     CG2R61     CG2R61      HGR61
   22    23    50	5 ;     CG2R61     CG2R61      HGR61
   25    24    28	5 ;     CG2R61     CG2R61     CG2DC1
   25    24    23	5 ;     CG2R61     CG2R61     CG2R61
   28    24    23	5 ;     CG2DC1     CG2R61     CG2R61
   26    25    24	5 ;     CG2R61     CG2R61     CG2R61
   26    25    51	5 ;     CG2R61     CG2R61      HGR61
   24    25    51	5 ;     CG2R61     CG2R61      HGR61
   25    26    27	5 ;     CG2R61     CG2R61     CG2R61
   25    26    52	5 ;     CG2R61     CG2R61      HGR61
   27    26    52	5 ;     CG2R61     CG2R61      HGR61
   26    27    22	5 ;     CG2R61     CG2R61     CG2R61
   26    27    53	5 ;     CG2R61     CG2R61      HGR61
   22    27    53	5 ;     CG2R61     CG2R61      HGR61
   29    28    24	5 ;      CG321     CG2DC1     CG2R61
   29    28    34	5 ;      CG321     CG2DC1     CG2D1O
   24    28    34	5 ;     CG2R61     CG2DC1     CG2D1O
   30    29    28	5 ;      NG311      CG321     CG2DC1
   30    29    54	5 ;      NG311      CG321       HGA2
   30    29    57	5 ;      NG311      CG321       HGA2
   28    29    54	5 ;     CG2DC1      CG321       HGA2
   28    29    57	5 ;     CG2DC1      CG321       HGA2
   54    29    57	5 ;       HGA2      CG321       HGA2
   32    30    29	5 ;     HGPAM1      NG311      CG321
   32    30    31	5 ;     HGPAM1      NG311      CG321
   29    30    31	5 ;      CG321      NG311      CG321
   30    31    33	5 ;      NG311      CG321      NG311
   30    31    55	5 ;      NG311      CG321       HGA2
   30    31    58	5 ;      NG311      CG321       HGA2
   33    31    55	5 ;      NG311      CG321       HGA2
   33    31    58	5 ;      NG311      CG321       HGA2
   55    31    58	5 ;       HGA2      CG321       HGA2
   31    33    34	5 ;      CG321      NG311     CG2D1O
   31    33    35	5 ;      CG321      NG311     HGPAM1
   34    33    35	5 ;     CG2D1O      NG311     HGPAM1
   28    34    33	5 ;     CG2DC1     CG2D1O      NG311
   28    34    56	5 ;     CG2DC1     CG2D1O       HGA4
   33    34    56	5 ;      NG311     CG2D1O       HGA4

[ dihedrals ]
;	ai	  aj	ak	  al funct			  c0			c1			  c2			c3			  c4			c5
   22     1     2     3	 9 ;     CG2R61     CG3C50     NG3C51       HGP1
   22     1     2     4	 9 ;     CG2R61     CG3C50     NG3C51     CG2R51
    7     1     2     3	 9 ;     NG3C51     CG3C50     NG3C51       HGP1
    7     1     2     4	 9 ;     NG3C51     CG3C50     NG3C51     CG2R51
   12     1     2     3	 9 ;     CG2R61     CG3C50     NG3C51       HGP1
   12     1     2     4	 9 ;     CG2R61     CG3C50     NG3C51     CG2R51
    2     1    22    27	 9 ;     NG3C51     CG3C50     CG2R61     CG2R61
    2     1    22    23	 9 ;     NG3C51     CG3C50     CG2R61     CG2R61
    7     1    22    27	 9 ;     NG3C51     CG3C50     CG2R61     CG2R61
    7     1    22    23	 9 ;     NG3C51     CG3C50     CG2R61     CG2R61
   12     1    22    27	 9 ;     CG2R61     CG3C50     CG2R61     CG2R61
   12     1    22    23	 9 ;     CG2R61     CG3C50     CG2R61     CG2R61
    2     1     7     6	 9 ;     NG3C51     CG3C50     NG3C51     CG2R51
    2     1     7     8	 9 ;     NG3C51     CG3C50     NG3C51       HGP1
   22     1     7     6	 9 ;     CG2R61     CG3C50     NG3C51     CG2R51
   22     1     7     8	 9 ;     CG2R61     CG3C50     NG3C51       HGP1
   12     1     7     6	 9 ;     CG2R61     CG3C50     NG3C51     CG2R51
   12     1     7     8	 9 ;     CG2R61     CG3C50     NG3C51       HGP1
    2     1    12    13	 9 ;     NG3C51     CG3C50     CG2R61     CG2R61
    2     1    12    18	 9 ;     NG3C51     CG3C50     CG2R61     CG2R61
   22     1    12    13	 9 ;     CG2R61     CG3C50     CG2R61     CG2R61
   22     1    12    18	 9 ;     CG2R61     CG3C50     CG2R61     CG2R61
    7     1    12    13	 9 ;     NG3C51     CG3C50     CG2R61     CG2R61
    7     1    12    18	 9 ;     NG3C51     CG3C50     CG2R61     CG2R61
    3     2     4     5	 9 ;       HGP1     NG3C51     CG2R51      CG331
    3     2     4     6	 9 ;       HGP1     NG3C51     CG2R51     CG2R51
    1     2     4     5	 9 ;     CG3C50     NG3C51     CG2R51      CG331
    1     2     4     6	 9 ;     CG3C50     NG3C51     CG2R51     CG2R51
    2     4     5    36	 9 ;     NG3C51     CG2R51      CG331       HGA3
    2     4     5    37	 9 ;     NG3C51     CG2R51      CG331       HGA3
    2     4     5    38	 9 ;     NG3C51     CG2R51      CG331       HGA3
    6     4     5    36	 9 ;     CG2R51     CG2R51      CG331       HGA3
    6     4     5    37	 9 ;     CG2R51     CG2R51      CG331       HGA3
    6     4     5    38	 9 ;     CG2R51     CG2R51      CG331       HGA3
    5     4     6     7	 9 ;      CG331     CG2R51     CG2R51     NG3C51
    5     4     6     9	 9 ;      CG331     CG2R51     CG2R51      NG321
    2     4     6     7	 9 ;     NG3C51     CG2R51     CG2R51     NG3C51
    2     4     6     9	 9 ;     NG3C51     CG2R51     CG2R51      NG321
    4     6     7     1	 9 ;     CG2R51     CG2R51     NG3C51     CG3C50
    4     6     7     8	 9 ;     CG2R51     CG2R51     NG3C51       HGP1
    9     6     7     1	 9 ;      NG321     CG2R51     NG3C51     CG3C50
    9     6     7     8	 9 ;      NG321     CG2R51     NG3C51       HGP1
    4     6     9    11	 9 ;     CG2R51     CG2R51      NG321     HGPAM2
    4     6     9    10	 9 ;     CG2R51     CG2R51      NG321     HGPAM2
    7     6     9    11	 9 ;     NG3C51     CG2R51      NG321     HGPAM2
    7     6     9    10	 9 ;     NG3C51     CG2R51      NG321     HGPAM2
    1    12    13    14	 9 ;     CG3C50     CG2R61     CG2R61     CG2R61
    1    12    13    39	 9 ;     CG3C50     CG2R61     CG2R61      HGR61
   18    12    13    14	 9 ;     CG2R61     CG2R61     CG2R61     CG2R61
   18    12    13    39	 9 ;     CG2R61     CG2R61     CG2R61      HGR61
    1    12    18    17	 9 ;     CG3C50     CG2R61     CG2R61     CG2R61
    1    12    18    43	 9 ;     CG3C50     CG2R61     CG2R61      HGR61
   13    12    18    17	 9 ;     CG2R61     CG2R61     CG2R61     CG2R61
   13    12    18    43	 9 ;     CG2R61     CG2R61     CG2R61      HGR61
   12    13    14    16	 9 ;     CG2R61     CG2R61     CG2R61      CG331
   12    13    14    15	 9 ;     CG2R61     CG2R61     CG2R61     CG2R61
   39    13    14    16	 9 ;      HGR61     CG2R61     CG2R61      CG331
   39    13    14    15	 9 ;      HGR61     CG2R61     CG2R61     CG2R61
   13    14    16    40	 9 ;     CG2R61     CG2R61      CG331       HGA3
   13    14    16    41	 9 ;     CG2R61     CG2R61      CG331       HGA3
   13    14    16    42	 9 ;     CG2R61     CG2R61      CG331       HGA3
   15    14    16    40	 9 ;     CG2R61     CG2R61      CG331       HGA3
   15    14    16    41	 9 ;     CG2R61     CG2R61      CG331       HGA3
   15    14    16    42	 9 ;     CG2R61     CG2R61      CG331       HGA3
   13    14    15    17	 9 ;     CG2R61     CG2R61     CG2R61     CG2R61
   13    14    15    20	 9 ;     CG2R61     CG2R61     CG2R61      OG301
   16    14    15    17	 9 ;      CG331     CG2R61     CG2R61     CG2R61
   16    14    15    20	 9 ;      CG331     CG2R61     CG2R61      OG301
   14    15    17    18	 9 ;     CG2R61     CG2R61     CG2R61     CG2R61
   14    15    17    19	 9 ;     CG2R61     CG2R61     CG2R61      CG331
   20    15    17    18	 9 ;      OG301     CG2R61     CG2R61     CG2R61
   20    15    17    19	 9 ;      OG301     CG2R61     CG2R61      CG331
   14    15    20    21	 9 ;     CG2R61     CG2R61      OG301      CG331
   17    15    20    21	 9 ;     CG2R61     CG2R61      OG301      CG331
   15    17    18    12	 9 ;     CG2R61     CG2R61     CG2R61     CG2R61
   15    17    18    43	 9 ;     CG2R61     CG2R61     CG2R61      HGR61
   19    17    18    12	 9 ;      CG331     CG2R61     CG2R61     CG2R61
   19    17    18    43	 9 ;      CG331     CG2R61     CG2R61      HGR61
   18    17    19    44	 9 ;     CG2R61     CG2R61      CG331       HGA3
   18    17    19    45	 9 ;     CG2R61     CG2R61      CG331       HGA3
   18    17    19    46	 9 ;     CG2R61     CG2R61      CG331       HGA3
   15    17    19    44	 9 ;     CG2R61     CG2R61      CG331       HGA3
   15    17    19    45	 9 ;     CG2R61     CG2R61      CG331       HGA3
   15    17    19    46	 9 ;     CG2R61     CG2R61      CG331       HGA3
   15    20    21    47	 9 ;     CG2R61      OG301      CG331       HGA3
   15    20    21    48	 9 ;     CG2R61      OG301      CG331       HGA3
   15    20    21    49	 9 ;     CG2R61      OG301      CG331       HGA3
   23    22    27    26	 9 ;     CG2R61     CG2R61     CG2R61     CG2R61
   23    22    27    53	 9 ;     CG2R61     CG2R61     CG2R61      HGR61
    1    22    27    26	 9 ;     CG3C50     CG2R61     CG2R61     CG2R61
    1    22    27    53	 9 ;     CG3C50     CG2R61     CG2R61      HGR61
   27    22    23    24	 9 ;     CG2R61     CG2R61     CG2R61     CG2R61
   27    22    23    50	 9 ;     CG2R61     CG2R61     CG2R61      HGR61
    1    22    23    24	 9 ;     CG3C50     CG2R61     CG2R61     CG2R61
    1    22    23    50	 9 ;     CG3C50     CG2R61     CG2R61      HGR61
   22    23    24    25	 9 ;     CG2R61     CG2R61     CG2R61     CG2R61
   22    23    24    28	 9 ;     CG2R61     CG2R61     CG2R61     CG2DC1
   50    23    24    25	 9 ;      HGR61     CG2R61     CG2R61     CG2R61
   50    23    24    28	 9 ;      HGR61     CG2R61     CG2R61     CG2DC1
   28    24    25    26	 9 ;     CG2DC1     CG2R61     CG2R61     CG2R61
   28    24    25    51	 9 ;     CG2DC1     CG2R61     CG2R61      HGR61
   23    24    25    26	 9 ;     CG2R61     CG2R61     CG2R61     CG2R61
   23    24    25    51	 9 ;     CG2R61     CG2R61     CG2R61      HGR61
   25    24    28    29	 9 ;     CG2R61     CG2R61     CG2DC1      CG321
   25    24    28    34	 9 ;     CG2R61     CG2R61     CG2DC1     CG2D1O
   23    24    28    29	 9 ;     CG2R61     CG2R61     CG2DC1      CG321
   23    24    28    34	 9 ;     CG2R61     CG2R61     CG2DC1     CG2D1O
   24    25    26    27	 9 ;     CG2R61     CG2R61     CG2R61     CG2R61
   24    25    26    52	 9 ;     CG2R61     CG2R61     CG2R61      HGR61
   51    25    26    27	 9 ;      HGR61     CG2R61     CG2R61     CG2R61
   51    25    26    52	 9 ;      HGR61     CG2R61     CG2R61      HGR61
   25    26    27    22	 9 ;     CG2R61     CG2R61     CG2R61     CG2R61
   25    26    27    53	 9 ;     CG2R61     CG2R61     CG2R61      HGR61
   52    26    27    22	 9 ;      HGR61     CG2R61     CG2R61     CG2R61
   52    26    27    53	 9 ;      HGR61     CG2R61     CG2R61      HGR61
   24    28    29    30	 9 ;     CG2R61     CG2DC1      CG321      NG311
   24    28    29    54	 9 ;     CG2R61     CG2DC1      CG321       HGA2
   24    28    29    57	 9 ;     CG2R61     CG2DC1      CG321       HGA2
   34    28    29    30	 9 ;     CG2D1O     CG2DC1      CG321      NG311
   34    28    29    54	 9 ;     CG2D1O     CG2DC1      CG321       HGA2
   34    28    29    57	 9 ;     CG2D1O     CG2DC1      CG321       HGA2
   29    28    34    33	 9 ;      CG321     CG2DC1     CG2D1O      NG311
   29    28    34    56	 9 ;      CG321     CG2DC1     CG2D1O       HGA4
   24    28    34    33	 9 ;     CG2R61     CG2DC1     CG2D1O      NG311
   24    28    34    56	 9 ;     CG2R61     CG2DC1     CG2D1O       HGA4
   28    29    30    32	 9 ;     CG2DC1      CG321      NG311     HGPAM1
   28    29    30    31	 9 ;     CG2DC1      CG321      NG311      CG321
   54    29    30    32	 9 ;       HGA2      CG321      NG311     HGPAM1
   54    29    30    31	 9 ;       HGA2      CG321      NG311      CG321
   57    29    30    32	 9 ;       HGA2      CG321      NG311     HGPAM1
   57    29    30    31	 9 ;       HGA2      CG321      NG311      CG321
   32    30    31    33	 9 ;     HGPAM1      NG311      CG321      NG311
   32    30    31    55	 9 ;     HGPAM1      NG311      CG321       HGA2
   32    30    31    58	 9 ;     HGPAM1      NG311      CG321       HGA2
   29    30    31    33	 9 ;      CG321      NG311      CG321      NG311
   29    30    31    55	 9 ;      CG321      NG311      CG321       HGA2
   29    30    31    58	 9 ;      CG321      NG311      CG321       HGA2
   30    31    33    34	 9 ;      NG311      CG321      NG311     CG2D1O
   30    31    33    35	 9 ;      NG311      CG321      NG311     HGPAM1
   55    31    33    34	 9 ;       HGA2      CG321      NG311     CG2D1O
   55    31    33    35	 9 ;       HGA2      CG321      NG311     HGPAM1
   58    31    33    34	 9 ;       HGA2      CG321      NG311     CG2D1O
   58    31    33    35	 9 ;       HGA2      CG321      NG311     HGPAM1
   31    33    34    28	 9 ;      CG321      NG311     CG2D1O     CG2DC1
   31    33    34    56	 9 ;      CG321      NG311     CG2D1O       HGA4
   35    33    34    28	 9 ;     HGPAM1      NG311     CG2D1O     CG2DC1
   35    33    34    56	 9 ;     HGPAM1      NG311     CG2D1O       HGA4

[ dihedrals ]
;	ai	  aj	ak	  al funct			  c0			c1			  c2			c3
   34    28    33    56	 2

