; Created by cgenff_charmm2gmx.py

[ moleculetype ]
; Name			   nrexcl
LIG				 3

[ atoms ]
;	 nr		  type	resnr residue  atom   cgnr	   charge		mass  typeB    chargeB		massB
; residue	 1 LIG rtp LIG q	qsum
     1      SG3O2      1    LIG      S      1      0.113     32.060   ;
     2      OG2P1      1    LIG     O1      2     -0.300     15.999   ;
     3      OG2P1      1    LIG     O2      3     -0.300     15.999   ;
     4      CG321      1    LIG     C1      4      0.180     12.011   ;
     5      CG311      1    LIG     C2      5     -0.145     12.011   ;
     6      CG311      1    LIG     C3      6      0.100     12.011   ;
     7      CG314      1    LIG     C4      7     -0.043     12.011   ;
     8      CG321      1    LIG     C5      8      0.224     12.011   ;
     9      CG321      1    LIG     C6      9     -0.084     12.011   ;
    10     CG2R61      1    LIG     C7     10     -0.137     12.011   ;
    11     CG2R61      1    LIG     C8     11     -0.112     12.011   ;
    12     CG2R66      1    LIG     C9     12      0.085     12.011   ;
    13       FGR1      1    LIG     F1     13     -0.159     18.998   ;
    14     CG2RC0      1    LIG    C10     14      0.313     12.011   ;
    15     NG3C51      1    LIG     N1     15     -0.758     14.007   ;
    16     CG2RC0      1    LIG    C11     16      0.379     12.011   ;
    17     CG3C52      1    LIG    C12     17      0.184     12.011   ;
    18       HGP1      1    LIG     H1     18      0.335      1.008   ;
    19     CG3C50      1    LIG    C13     19     -0.542     12.011   ;
    20      CG321      1    LIG    C14     20     -0.108     12.011   ;
    21      CG321      1    LIG    C15     21     -0.108     12.011   ;
    22      CG321      1    LIG    C16     22     -0.106     12.011   ;
    23      CG312      1    LIG    C17     23      0.200     12.011   ;
    24       FGA2      1    LIG     F2     24     -0.206     18.998   ;
    25       FGA2      1    LIG     F3     25     -0.206     18.998   ;
    26      CG321      1    LIG    C18     26     -0.106     12.011   ;
    27     CG2R61      1    LIG    C19     27     -0.242     12.011   ;
    28      OG311      1    LIG     O3     28     -0.595     15.999   ;
    29       HGP1      1    LIG     H2     29      0.422      1.008   ;
    30      NG3P2      1    LIG     N2     30     -0.444     14.007   ;
    31       HGP2      1    LIG     H3     31      0.346      1.008   ;
    32       HGP2      1    LIG     H4     32      0.346      1.008   ;
    33      CG324      1    LIG    C20     33      0.178     12.011   ;
    34     CG2R61      1    LIG    C21     34      0.036     12.011   ;
    35     CG2R61      1    LIG    C22     35     -0.124     12.011   ;
    36     CG2R61      1    LIG    C23     36      0.084     12.011   ;
    37     CG2R61      1    LIG    C24     37     -0.121     12.011   ;
    38     CG2R61      1    LIG    C25     38     -0.108     12.011   ;
    39     CG2R61      1    LIG    C26     39     -0.119     12.011   ;
    40      CG301      1    LIG    C27     40     -0.018     12.011   ;
    41      CG331      1    LIG    C28     41     -0.289     12.011   ;
    42      CG331      1    LIG    C29     42     -0.289     12.011   ;
    43      CG331      1    LIG    C30     43     -0.289     12.011   ;
    44       HGA2      1    LIG    HC2     44      0.090      1.008   ;
    45       HGA2      1    LIG    HC3     45      0.090      1.008   ;
    46       HGA1      1    LIG     HC     46      0.090      1.008   ;
    47       HGA1      1    LIG    HC1     47      0.090      1.008   ;
    48       HGA1      1    LIG    HC4     48      0.109      1.008   ;
    49       HGA2      1    LIG    HC5     49      0.090      1.008   ;
    50       HGA2      1    LIG    HC6     50      0.090      1.008   ;
    51       HGA2      1    LIG    HC7     51      0.090      1.008   ;
    52       HGA2      1    LIG    HC8     52      0.090      1.008   ;
    53      HGR62      1    LIG    HC9     53      0.161      1.008   ;
    54       HGA2      1    LIG   HC10     54      0.090      1.008   ;
    55       HGA2      1    LIG   HC11     55      0.090      1.008   ;
    56       HGA2      1    LIG   HC12     56      0.090      1.008   ;
    57       HGA2      1    LIG   HC13     57      0.090      1.008   ;
    58       HGA2      1    LIG   HC14     58      0.090      1.008   ;
    59       HGA2      1    LIG   HC15     59      0.090      1.008   ;
    60       HGA2      1    LIG   HC16     60      0.090      1.008   ;
    61       HGA2      1    LIG   HC17     61      0.090      1.008   ;
    62       HGA2      1    LIG   HC18     62      0.090      1.008   ;
    63       HGA2      1    LIG   HC19     63      0.090      1.008   ;
    64      HGR61      1    LIG   HC20     64      0.189      1.008   ;
    65       HGA2      1    LIG   HC21     65      0.090      1.008   ;
    66       HGA2      1    LIG   HC22     66      0.090      1.008   ;
    67      HGR61      1    LIG   HC23     67      0.116      1.008   ;
    68      HGR61      1    LIG   HC24     68      0.116      1.008   ;
    69      HGR61      1    LIG   HC25     69      0.116      1.008   ;
    70      HGR61      1    LIG   HC26     70      0.116      1.008   ;
    71       HGA3      1    LIG   HC27     71      0.090      1.008   ;
    72       HGA3      1    LIG   HC28     72      0.090      1.008   ;
    73       HGA3      1    LIG   HC29     73      0.090      1.008   ;
    74       HGA3      1    LIG   HC30     74      0.090      1.008   ;
    75       HGA3      1    LIG   HC31     75      0.090      1.008   ;
    76       HGA3      1    LIG   HC32     76      0.090      1.008   ;
    77       HGA3      1    LIG   HC33     77      0.090      1.008   ;
    78       HGA3      1    LIG   HC34     78      0.090      1.008   ;
    79       HGA3      1    LIG   HC35     79      0.090      1.008   ;

[ bonds ]
;	ai	  aj funct			  c0			c1			  c2			c3
    1     2	 1 ;       SG3O2      OG2P1
    1     4	 1 ;       SG3O2      CG321
    1     8	 1 ;       SG3O2      CG321
    1     3	 1 ;       SG3O2      OG2P1
    4     5	 1 ;       CG321      CG311
    4    44	 1 ;       CG321       HGA2
    4    45	 1 ;       CG321       HGA2
    5     9	 1 ;       CG311      CG321
    5     6	 1 ;       CG311      CG311
    5    46	 1 ;       CG311       HGA1
    6     7	 1 ;       CG311      CG314
    6    28	 1 ;       CG311      OG311
    6    47	 1 ;       CG311       HGA1
    7    30	 1 ;       CG314      NG3P2
    7     8	 1 ;       CG314      CG321
    7    48	 1 ;       CG314       HGA1
    8    49	 1 ;       CG321       HGA2
    8    50	 1 ;       CG321       HGA2
    9    10	 1 ;       CG321     CG2R61
    9    51	 1 ;       CG321       HGA2
    9    52	 1 ;       CG321       HGA2
   10    11	 1 ;      CG2R61     CG2R61
   10    27	 1 ;      CG2R61     CG2R61
   11    12	 1 ;      CG2R61     CG2R66
   11    53	 1 ;      CG2R61      HGR62
   12    13	 1 ;      CG2R66       FGR1
   12    14	 1 ;      CG2R66     CG2RC0
   14    15	 1 ;      CG2RC0     NG3C51
   14    16	 1 ;      CG2RC0     CG2RC0
   15    18	 1 ;      NG3C51       HGP1
   15    17	 1 ;      NG3C51     CG3C52
   16    19	 1 ;      CG2RC0     CG3C50
   16    27	 1 ;      CG2RC0     CG2R61
   17    19	 1 ;      CG3C52     CG3C50
   17    54	 1 ;      CG3C52       HGA2
   17    55	 1 ;      CG3C52       HGA2
   19    21	 1 ;      CG3C50      CG321
   19    20	 1 ;      CG3C50      CG321
   20    22	 1 ;       CG321      CG321
   20    56	 1 ;       CG321       HGA2
   20    57	 1 ;       CG321       HGA2
   21    26	 1 ;       CG321      CG321
   21    58	 1 ;       CG321       HGA2
   21    59	 1 ;       CG321       HGA2
   22    23	 1 ;       CG321      CG312
   22    60	 1 ;       CG321       HGA2
   22    61	 1 ;       CG321       HGA2
   23    26	 1 ;       CG312      CG321
   23    24	 1 ;       CG312       FGA2
   23    25	 1 ;       CG312       FGA2
   26    62	 1 ;       CG321       HGA2
   26    63	 1 ;       CG321       HGA2
   27    64	 1 ;      CG2R61      HGR61
   28    29	 1 ;       OG311       HGP1
   30    33	 1 ;       NG3P2      CG324
   30    31	 1 ;       NG3P2       HGP2
   30    32	 1 ;       NG3P2       HGP2
   33    34	 1 ;       CG324     CG2R61
   33    65	 1 ;       CG324       HGA2
   33    66	 1 ;       CG324       HGA2
   34    39	 1 ;      CG2R61     CG2R61
   34    35	 1 ;      CG2R61     CG2R61
   35    36	 1 ;      CG2R61     CG2R61
   35    67	 1 ;      CG2R61      HGR61
   36    37	 1 ;      CG2R61     CG2R61
   36    40	 1 ;      CG2R61      CG301
   37    38	 1 ;      CG2R61     CG2R61
   37    68	 1 ;      CG2R61      HGR61
   38    39	 1 ;      CG2R61     CG2R61
   38    69	 1 ;      CG2R61      HGR61
   39    70	 1 ;      CG2R61      HGR61
   40    43	 1 ;       CG301      CG331
   40    41	 1 ;       CG301      CG331
   40    42	 1 ;       CG301      CG331
   41    71	 1 ;       CG331       HGA3
   41    72	 1 ;       CG331       HGA3
   41    73	 1 ;       CG331       HGA3
   42    74	 1 ;       CG331       HGA3
   42    75	 1 ;       CG331       HGA3
   42    76	 1 ;       CG331       HGA3
   43    77	 1 ;       CG331       HGA3
   43    78	 1 ;       CG331       HGA3
   43    79	 1 ;       CG331       HGA3

[ pairs ]
;	ai	  aj funct			  c0			c1			  c2			c3
    1     9	 1
    1     6	 1
    1    46	 1
    1    30	 1
    1    48	 1
    2     5	 1
    2    44	 1
    2    45	 1
    2     7	 1
    2    49	 1
    2    50	 1
    3     5	 1
    3    44	 1
    3    45	 1
    3     7	 1
    3    49	 1
    3    50	 1
    4     7	 1
    4    49	 1
    4    50	 1
    4    10	 1
    4    51	 1
    4    52	 1
    4    28	 1
    4    47	 1
    5     8	 1
    5    30	 1
    5    48	 1
    5    29	 1
    5    11	 1
    5    27	 1
    6    44	 1
    6    45	 1
    6    10	 1
    6    51	 1
    6    52	 1
    6    33	 1
    6    31	 1
    6    32	 1
    6    49	 1
    6    50	 1
    7     9	 1
    7    46	 1
    7    29	 1
    7    34	 1
    7    65	 1
    7    66	 1
    8    44	 1
    8    45	 1
    8    28	 1
    8    47	 1
    8    33	 1
    8    31	 1
    8    32	 1
    9    44	 1
    9    45	 1
    9    28	 1
    9    47	 1
    9    12	 1
    9    53	 1
    9    16	 1
    9    64	 1
   10    46	 1
   10    13	 1
   10    14	 1
   10    19	 1
   11    51	 1
   11    52	 1
   11    16	 1
   11    64	 1
   11    15	 1
   12    27	 1
   12    18	 1
   12    17	 1
   12    19	 1
   13    53	 1
   13    15	 1
   13    16	 1
   14    53	 1
   14    54	 1
   14    55	 1
   14    21	 1
   14    20	 1
   14    64	 1
   15    27	 1
   15    21	 1
   15    20	 1
   16    18	 1
   16    54	 1
   16    55	 1
   16    26	 1
   16    58	 1
   16    59	 1
   16    22	 1
   16    56	 1
   16    57	 1
   17    27	 1
   17    26	 1
   17    58	 1
   17    59	 1
   17    22	 1
   17    56	 1
   17    57	 1
   18    19	 1
   18    54	 1
   18    55	 1
   19    64	 1
   19    23	 1
   19    60	 1
   19    61	 1
   19    62	 1
   19    63	 1
   20    27	 1
   20    54	 1
   20    55	 1
   20    26	 1
   20    58	 1
   20    59	 1
   20    24	 1
   20    25	 1
   21    27	 1
   21    54	 1
   21    55	 1
   21    22	 1
   21    56	 1
   21    57	 1
   21    24	 1
   21    25	 1
   22    62	 1
   22    63	 1
   23    56	 1
   23    57	 1
   23    58	 1
   23    59	 1
   24    60	 1
   24    61	 1
   24    62	 1
   24    63	 1
   25    60	 1
   25    61	 1
   25    62	 1
   25    63	 1
   26    60	 1
   26    61	 1
   27    51	 1
   27    52	 1
   27    53	 1
   28    46	 1
   28    30	 1
   28    48	 1
   29    47	 1
   30    47	 1
   30    49	 1
   30    50	 1
   30    39	 1
   30    35	 1
   31    48	 1
   31    34	 1
   31    65	 1
   31    66	 1
   32    48	 1
   32    34	 1
   32    65	 1
   32    66	 1
   33    48	 1
   33    38	 1
   33    70	 1
   33    36	 1
   33    67	 1
   34    37	 1
   34    40	 1
   34    69	 1
   35    65	 1
   35    66	 1
   35    38	 1
   35    70	 1
   35    68	 1
   35    43	 1
   35    41	 1
   35    42	 1
   36    39	 1
   36    69	 1
   36    77	 1
   36    78	 1
   36    79	 1
   36    71	 1
   36    72	 1
   36    73	 1
   36    74	 1
   36    75	 1
   36    76	 1
   37    67	 1
   37    43	 1
   37    41	 1
   37    42	 1
   37    70	 1
   38    40	 1
   39    65	 1
   39    66	 1
   39    67	 1
   39    68	 1
   40    67	 1
   40    68	 1
   41    77	 1
   41    78	 1
   41    79	 1
   41    74	 1
   41    75	 1
   41    76	 1
   42    77	 1
   42    78	 1
   42    79	 1
   42    71	 1
   42    72	 1
   42    73	 1
   43    71	 1
   43    72	 1
   43    73	 1
   43    74	 1
   43    75	 1
   43    76	 1
   44    46	 1
   45    46	 1
   46    51	 1
   46    52	 1
   46    47	 1
   47    48	 1
   48    49	 1
   48    50	 1
   56    60	 1
   56    61	 1
   57    60	 1
   57    61	 1
   58    62	 1
   58    63	 1
   59    62	 1
   59    63	 1
   68    69	 1
   69    70	 1

[ angles ]
;	ai	  aj	ak funct			c0			  c1			c2			  c3
    2     1     4	5 ;      OG2P1      SG3O2      CG321
    2     1     8	5 ;      OG2P1      SG3O2      CG321
    2     1     3	5 ;      OG2P1      SG3O2      OG2P1
    4     1     8	5 ;      CG321      SG3O2      CG321
    4     1     3	5 ;      CG321      SG3O2      OG2P1
    8     1     3	5 ;      CG321      SG3O2      OG2P1
    5     4     1	5 ;      CG311      CG321      SG3O2
    5     4    44	5 ;      CG311      CG321       HGA2
    5     4    45	5 ;      CG311      CG321       HGA2
    1     4    44	5 ;      SG3O2      CG321       HGA2
    1     4    45	5 ;      SG3O2      CG321       HGA2
   44     4    45	5 ;       HGA2      CG321       HGA2
    9     5     6	5 ;      CG321      CG311      CG311
    9     5     4	5 ;      CG321      CG311      CG321
    9     5    46	5 ;      CG321      CG311       HGA1
    6     5     4	5 ;      CG311      CG311      CG321
    6     5    46	5 ;      CG311      CG311       HGA1
    4     5    46	5 ;      CG321      CG311       HGA1
    5     6     7	5 ;      CG311      CG311      CG314
    5     6    28	5 ;      CG311      CG311      OG311
    5     6    47	5 ;      CG311      CG311       HGA1
    7     6    28	5 ;      CG314      CG311      OG311
    7     6    47	5 ;      CG314      CG311       HGA1
   28     6    47	5 ;      OG311      CG311       HGA1
   30     7     6	5 ;      NG3P2      CG314      CG311
   30     7     8	5 ;      NG3P2      CG314      CG321
   30     7    48	5 ;      NG3P2      CG314       HGA1
    6     7     8	5 ;      CG311      CG314      CG321
    6     7    48	5 ;      CG311      CG314       HGA1
    8     7    48	5 ;      CG321      CG314       HGA1
    7     8     1	5 ;      CG314      CG321      SG3O2
    7     8    49	5 ;      CG314      CG321       HGA2
    7     8    50	5 ;      CG314      CG321       HGA2
    1     8    49	5 ;      SG3O2      CG321       HGA2
    1     8    50	5 ;      SG3O2      CG321       HGA2
   49     8    50	5 ;       HGA2      CG321       HGA2
   10     9     5	5 ;     CG2R61      CG321      CG311
   10     9    51	5 ;     CG2R61      CG321       HGA2
   10     9    52	5 ;     CG2R61      CG321       HGA2
    5     9    51	5 ;      CG311      CG321       HGA2
    5     9    52	5 ;      CG311      CG321       HGA2
   51     9    52	5 ;       HGA2      CG321       HGA2
   11    10    27	5 ;     CG2R61     CG2R61     CG2R61
   11    10     9	5 ;     CG2R61     CG2R61      CG321
   27    10     9	5 ;     CG2R61     CG2R61      CG321
   12    11    10	5 ;     CG2R66     CG2R61     CG2R61
   12    11    53	5 ;     CG2R66     CG2R61      HGR62
   10    11    53	5 ;     CG2R61     CG2R61      HGR62
   13    12    14	5 ;       FGR1     CG2R66     CG2RC0
   13    12    11	5 ;       FGR1     CG2R66     CG2R61
   14    12    11	5 ;     CG2RC0     CG2R66     CG2R61
   15    14    12	5 ;     NG3C51     CG2RC0     CG2R66
   15    14    16	5 ;     NG3C51     CG2RC0     CG2RC0
   12    14    16	5 ;     CG2R66     CG2RC0     CG2RC0
   18    15    17	5 ;       HGP1     NG3C51     CG3C52
   18    15    14	5 ;       HGP1     NG3C51     CG2RC0
   17    15    14	5 ;     CG3C52     NG3C51     CG2RC0
   14    16    19	5 ;     CG2RC0     CG2RC0     CG3C50
   14    16    27	5 ;     CG2RC0     CG2RC0     CG2R61
   19    16    27	5 ;     CG3C50     CG2RC0     CG2R61
   15    17    19	5 ;     NG3C51     CG3C52     CG3C50
   15    17    54	5 ;     NG3C51     CG3C52       HGA2
   15    17    55	5 ;     NG3C51     CG3C52       HGA2
   19    17    54	5 ;     CG3C50     CG3C52       HGA2
   19    17    55	5 ;     CG3C50     CG3C52       HGA2
   54    17    55	5 ;       HGA2     CG3C52       HGA2
   17    19    16	5 ;     CG3C52     CG3C50     CG2RC0
   17    19    21	5 ;     CG3C52     CG3C50      CG321
   17    19    20	5 ;     CG3C52     CG3C50      CG321
   16    19    21	5 ;     CG2RC0     CG3C50      CG321
   16    19    20	5 ;     CG2RC0     CG3C50      CG321
   21    19    20	5 ;      CG321     CG3C50      CG321
   19    20    22	5 ;     CG3C50      CG321      CG321
   19    20    56	5 ;     CG3C50      CG321       HGA2
   19    20    57	5 ;     CG3C50      CG321       HGA2
   22    20    56	5 ;      CG321      CG321       HGA2
   22    20    57	5 ;      CG321      CG321       HGA2
   56    20    57	5 ;       HGA2      CG321       HGA2
   19    21    26	5 ;     CG3C50      CG321      CG321
   19    21    58	5 ;     CG3C50      CG321       HGA2
   19    21    59	5 ;     CG3C50      CG321       HGA2
   26    21    58	5 ;      CG321      CG321       HGA2
   26    21    59	5 ;      CG321      CG321       HGA2
   58    21    59	5 ;       HGA2      CG321       HGA2
   20    22    23	5 ;      CG321      CG321      CG312
   20    22    60	5 ;      CG321      CG321       HGA2
   20    22    61	5 ;      CG321      CG321       HGA2
   23    22    60	5 ;      CG312      CG321       HGA2
   23    22    61	5 ;      CG312      CG321       HGA2
   60    22    61	5 ;       HGA2      CG321       HGA2
   26    23    22	5 ;      CG321      CG312      CG321
   26    23    24	5 ;      CG321      CG312       FGA2
   26    23    25	5 ;      CG321      CG312       FGA2
   22    23    24	5 ;      CG321      CG312       FGA2
   22    23    25	5 ;      CG321      CG312       FGA2
   24    23    25	5 ;       FGA2      CG312       FGA2
   21    26    23	5 ;      CG321      CG321      CG312
   21    26    62	5 ;      CG321      CG321       HGA2
   21    26    63	5 ;      CG321      CG321       HGA2
   23    26    62	5 ;      CG312      CG321       HGA2
   23    26    63	5 ;      CG312      CG321       HGA2
   62    26    63	5 ;       HGA2      CG321       HGA2
   16    27    10	5 ;     CG2RC0     CG2R61     CG2R61
   16    27    64	5 ;     CG2RC0     CG2R61      HGR61
   10    27    64	5 ;     CG2R61     CG2R61      HGR61
    6    28    29	5 ;      CG311      OG311       HGP1
   33    30    31	5 ;      CG324      NG3P2       HGP2
   33    30    32	5 ;      CG324      NG3P2       HGP2
   33    30     7	5 ;      CG324      NG3P2      CG314
   31    30    32	5 ;       HGP2      NG3P2       HGP2
   31    30     7	5 ;       HGP2      NG3P2      CG314
   32    30     7	5 ;       HGP2      NG3P2      CG314
   34    33    30	5 ;     CG2R61      CG324      NG3P2
   34    33    65	5 ;     CG2R61      CG324       HGA2
   34    33    66	5 ;     CG2R61      CG324       HGA2
   30    33    65	5 ;      NG3P2      CG324       HGA2
   30    33    66	5 ;      NG3P2      CG324       HGA2
   65    33    66	5 ;       HGA2      CG324       HGA2
   39    34    35	5 ;     CG2R61     CG2R61     CG2R61
   39    34    33	5 ;     CG2R61     CG2R61      CG324
   35    34    33	5 ;     CG2R61     CG2R61      CG324
   36    35    34	5 ;     CG2R61     CG2R61     CG2R61
   36    35    67	5 ;     CG2R61     CG2R61      HGR61
   34    35    67	5 ;     CG2R61     CG2R61      HGR61
   37    36    40	5 ;     CG2R61     CG2R61      CG301
   37    36    35	5 ;     CG2R61     CG2R61     CG2R61
   40    36    35	5 ;      CG301     CG2R61     CG2R61
   38    37    36	5 ;     CG2R61     CG2R61     CG2R61
   38    37    68	5 ;     CG2R61     CG2R61      HGR61
   36    37    68	5 ;     CG2R61     CG2R61      HGR61
   37    38    39	5 ;     CG2R61     CG2R61     CG2R61
   37    38    69	5 ;     CG2R61     CG2R61      HGR61
   39    38    69	5 ;     CG2R61     CG2R61      HGR61
   38    39    34	5 ;     CG2R61     CG2R61     CG2R61
   38    39    70	5 ;     CG2R61     CG2R61      HGR61
   34    39    70	5 ;     CG2R61     CG2R61      HGR61
   43    40    41	5 ;      CG331      CG301      CG331
   43    40    36	5 ;      CG331      CG301     CG2R61
   43    40    42	5 ;      CG331      CG301      CG331
   41    40    36	5 ;      CG331      CG301     CG2R61
   41    40    42	5 ;      CG331      CG301      CG331
   36    40    42	5 ;     CG2R61      CG301      CG331
   40    41    71	5 ;      CG301      CG331       HGA3
   40    41    72	5 ;      CG301      CG331       HGA3
   40    41    73	5 ;      CG301      CG331       HGA3
   71    41    72	5 ;       HGA3      CG331       HGA3
   71    41    73	5 ;       HGA3      CG331       HGA3
   72    41    73	5 ;       HGA3      CG331       HGA3
   40    42    74	5 ;      CG301      CG331       HGA3
   40    42    75	5 ;      CG301      CG331       HGA3
   40    42    76	5 ;      CG301      CG331       HGA3
   74    42    75	5 ;       HGA3      CG331       HGA3
   74    42    76	5 ;       HGA3      CG331       HGA3
   75    42    76	5 ;       HGA3      CG331       HGA3
   40    43    77	5 ;      CG301      CG331       HGA3
   40    43    78	5 ;      CG301      CG331       HGA3
   40    43    79	5 ;      CG301      CG331       HGA3
   77    43    78	5 ;       HGA3      CG331       HGA3
   77    43    79	5 ;       HGA3      CG331       HGA3
   78    43    79	5 ;       HGA3      CG331       HGA3

[ dihedrals ]
;	ai	  aj	ak	  al funct			  c0			c1			  c2			c3			  c4			c5
    2     1     4     5	 9 ;      OG2P1      SG3O2      CG321      CG311
    2     1     4    44	 9 ;      OG2P1      SG3O2      CG321       HGA2
    2     1     4    45	 9 ;      OG2P1      SG3O2      CG321       HGA2
    8     1     4     5	 9 ;      CG321      SG3O2      CG321      CG311
    8     1     4    44	 9 ;      CG321      SG3O2      CG321       HGA2
    8     1     4    45	 9 ;      CG321      SG3O2      CG321       HGA2
    3     1     4     5	 9 ;      OG2P1      SG3O2      CG321      CG311
    3     1     4    44	 9 ;      OG2P1      SG3O2      CG321       HGA2
    3     1     4    45	 9 ;      OG2P1      SG3O2      CG321       HGA2
    2     1     8     7	 9 ;      OG2P1      SG3O2      CG321      CG314
    2     1     8    49	 9 ;      OG2P1      SG3O2      CG321       HGA2
    2     1     8    50	 9 ;      OG2P1      SG3O2      CG321       HGA2
    4     1     8     7	 9 ;      CG321      SG3O2      CG321      CG314
    4     1     8    49	 9 ;      CG321      SG3O2      CG321       HGA2
    4     1     8    50	 9 ;      CG321      SG3O2      CG321       HGA2
    3     1     8     7	 9 ;      OG2P1      SG3O2      CG321      CG314
    3     1     8    49	 9 ;      OG2P1      SG3O2      CG321       HGA2
    3     1     8    50	 9 ;      OG2P1      SG3O2      CG321       HGA2
    1     4     5     9	 9 ;      SG3O2      CG321      CG311      CG321
    1     4     5     6	 9 ;      SG3O2      CG321      CG311      CG311
    1     4     5    46	 9 ;      SG3O2      CG321      CG311       HGA1
   44     4     5     9	 9 ;       HGA2      CG321      CG311      CG321
   44     4     5     6	 9 ;       HGA2      CG321      CG311      CG311
   44     4     5    46	 9 ;       HGA2      CG321      CG311       HGA1
   45     4     5     9	 9 ;       HGA2      CG321      CG311      CG321
   45     4     5     6	 9 ;       HGA2      CG321      CG311      CG311
   45     4     5    46	 9 ;       HGA2      CG321      CG311       HGA1
    6     5     9    10	 9 ;      CG311      CG311      CG321     CG2R61
    6     5     9    51	 9 ;      CG311      CG311      CG321       HGA2
    6     5     9    52	 9 ;      CG311      CG311      CG321       HGA2
    4     5     9    10	 9 ;      CG321      CG311      CG321     CG2R61
    4     5     9    51	 9 ;      CG321      CG311      CG321       HGA2
    4     5     9    52	 9 ;      CG321      CG311      CG321       HGA2
   46     5     9    10	 9 ;       HGA1      CG311      CG321     CG2R61
   46     5     9    51	 9 ;       HGA1      CG311      CG321       HGA2
   46     5     9    52	 9 ;       HGA1      CG311      CG321       HGA2
    9     5     6     7	 9 ;      CG321      CG311      CG311      CG314
    9     5     6    28	 9 ;      CG321      CG311      CG311      OG311
    9     5     6    47	 9 ;      CG321      CG311      CG311       HGA1
    4     5     6     7	 9 ;      CG321      CG311      CG311      CG314
    4     5     6    28	 9 ;      CG321      CG311      CG311      OG311
    4     5     6    47	 9 ;      CG321      CG311      CG311       HGA1
   46     5     6     7	 9 ;       HGA1      CG311      CG311      CG314
   46     5     6    28	 9 ;       HGA1      CG311      CG311      OG311
   46     5     6    47	 9 ;       HGA1      CG311      CG311       HGA1
    5     6     7    30	 9 ;      CG311      CG311      CG314      NG3P2
    5     6     7     8	 9 ;      CG311      CG311      CG314      CG321
    5     6     7    48	 9 ;      CG311      CG311      CG314       HGA1
   28     6     7    30	 9 ;      OG311      CG311      CG314      NG3P2
   28     6     7     8	 9 ;      OG311      CG311      CG314      CG321
   28     6     7    48	 9 ;      OG311      CG311      CG314       HGA1
   47     6     7    30	 9 ;       HGA1      CG311      CG314      NG3P2
   47     6     7     8	 9 ;       HGA1      CG311      CG314      CG321
   47     6     7    48	 9 ;       HGA1      CG311      CG314       HGA1
    5     6    28    29	 9 ;      CG311      CG311      OG311       HGP1
    7     6    28    29	 9 ;      CG314      CG311      OG311       HGP1
   47     6    28    29	 9 ;       HGA1      CG311      OG311       HGP1
    6     7    30    33	 9 ;      CG311      CG314      NG3P2      CG324
    6     7    30    31	 9 ;      CG311      CG314      NG3P2       HGP2
    6     7    30    32	 9 ;      CG311      CG314      NG3P2       HGP2
    8     7    30    33	 9 ;      CG321      CG314      NG3P2      CG324
    8     7    30    31	 9 ;      CG321      CG314      NG3P2       HGP2
    8     7    30    32	 9 ;      CG321      CG314      NG3P2       HGP2
   48     7    30    33	 9 ;       HGA1      CG314      NG3P2      CG324
   48     7    30    31	 9 ;       HGA1      CG314      NG3P2       HGP2
   48     7    30    32	 9 ;       HGA1      CG314      NG3P2       HGP2
   30     7     8     1	 9 ;      NG3P2      CG314      CG321      SG3O2
   30     7     8    49	 9 ;      NG3P2      CG314      CG321       HGA2
   30     7     8    50	 9 ;      NG3P2      CG314      CG321       HGA2
    6     7     8     1	 9 ;      CG311      CG314      CG321      SG3O2
    6     7     8    49	 9 ;      CG311      CG314      CG321       HGA2
    6     7     8    50	 9 ;      CG311      CG314      CG321       HGA2
   48     7     8     1	 9 ;       HGA1      CG314      CG321      SG3O2
   48     7     8    49	 9 ;       HGA1      CG314      CG321       HGA2
   48     7     8    50	 9 ;       HGA1      CG314      CG321       HGA2
    5     9    10    11	 9 ;      CG311      CG321     CG2R61     CG2R61
    5     9    10    27	 9 ;      CG311      CG321     CG2R61     CG2R61
   51     9    10    11	 9 ;       HGA2      CG321     CG2R61     CG2R61
   51     9    10    27	 9 ;       HGA2      CG321     CG2R61     CG2R61
   52     9    10    11	 9 ;       HGA2      CG321     CG2R61     CG2R61
   52     9    10    27	 9 ;       HGA2      CG321     CG2R61     CG2R61
   27    10    11    12	 9 ;     CG2R61     CG2R61     CG2R61     CG2R66
   27    10    11    53	 9 ;     CG2R61     CG2R61     CG2R61      HGR62
    9    10    11    12	 9 ;      CG321     CG2R61     CG2R61     CG2R66
    9    10    11    53	 9 ;      CG321     CG2R61     CG2R61      HGR62
   11    10    27    16	 9 ;     CG2R61     CG2R61     CG2R61     CG2RC0
   11    10    27    64	 9 ;     CG2R61     CG2R61     CG2R61      HGR61
    9    10    27    16	 9 ;      CG321     CG2R61     CG2R61     CG2RC0
    9    10    27    64	 9 ;      CG321     CG2R61     CG2R61      HGR61
   10    11    12    13	 9 ;     CG2R61     CG2R61     CG2R66       FGR1
   10    11    12    14	 9 ;     CG2R61     CG2R61     CG2R66     CG2RC0
   53    11    12    13	 9 ;      HGR62     CG2R61     CG2R66       FGR1
   53    11    12    14	 9 ;      HGR62     CG2R61     CG2R66     CG2RC0
   13    12    14    15	 9 ;       FGR1     CG2R66     CG2RC0     NG3C51
   13    12    14    16	 9 ;       FGR1     CG2R66     CG2RC0     CG2RC0
   11    12    14    15	 9 ;     CG2R61     CG2R66     CG2RC0     NG3C51
   11    12    14    16	 9 ;     CG2R61     CG2R66     CG2RC0     CG2RC0
   12    14    15    18	 9 ;     CG2R66     CG2RC0     NG3C51       HGP1
   12    14    15    17	 9 ;     CG2R66     CG2RC0     NG3C51     CG3C52
   16    14    15    18	 9 ;     CG2RC0     CG2RC0     NG3C51       HGP1
   16    14    15    17	 9 ;     CG2RC0     CG2RC0     NG3C51     CG3C52
   15    14    16    19	 9 ;     NG3C51     CG2RC0     CG2RC0     CG3C50
   15    14    16    27	 9 ;     NG3C51     CG2RC0     CG2RC0     CG2R61
   12    14    16    19	 9 ;     CG2R66     CG2RC0     CG2RC0     CG3C50
   12    14    16    27	 9 ;     CG2R66     CG2RC0     CG2RC0     CG2R61
   18    15    17    19	 9 ;       HGP1     NG3C51     CG3C52     CG3C50
   18    15    17    54	 9 ;       HGP1     NG3C51     CG3C52       HGA2
   18    15    17    55	 9 ;       HGP1     NG3C51     CG3C52       HGA2
   14    15    17    19	 9 ;     CG2RC0     NG3C51     CG3C52     CG3C50
   14    15    17    54	 9 ;     CG2RC0     NG3C51     CG3C52       HGA2
   14    15    17    55	 9 ;     CG2RC0     NG3C51     CG3C52       HGA2
   14    16    19    17	 9 ;     CG2RC0     CG2RC0     CG3C50     CG3C52
   14    16    19    21	 9 ;     CG2RC0     CG2RC0     CG3C50      CG321
   14    16    19    20	 9 ;     CG2RC0     CG2RC0     CG3C50      CG321
   27    16    19    17	 9 ;     CG2R61     CG2RC0     CG3C50     CG3C52
   27    16    19    21	 9 ;     CG2R61     CG2RC0     CG3C50      CG321
   27    16    19    20	 9 ;     CG2R61     CG2RC0     CG3C50      CG321
   14    16    27    10	 9 ;     CG2RC0     CG2RC0     CG2R61     CG2R61
   14    16    27    64	 9 ;     CG2RC0     CG2RC0     CG2R61      HGR61
   19    16    27    10	 9 ;     CG3C50     CG2RC0     CG2R61     CG2R61
   19    16    27    64	 9 ;     CG3C50     CG2RC0     CG2R61      HGR61
   15    17    19    16	 9 ;     NG3C51     CG3C52     CG3C50     CG2RC0
   15    17    19    21	 9 ;     NG3C51     CG3C52     CG3C50      CG321
   15    17    19    20	 9 ;     NG3C51     CG3C52     CG3C50      CG321
   54    17    19    16	 9 ;       HGA2     CG3C52     CG3C50     CG2RC0
   54    17    19    21	 9 ;       HGA2     CG3C52     CG3C50      CG321
   54    17    19    20	 9 ;       HGA2     CG3C52     CG3C50      CG321
   55    17    19    16	 9 ;       HGA2     CG3C52     CG3C50     CG2RC0
   55    17    19    21	 9 ;       HGA2     CG3C52     CG3C50      CG321
   55    17    19    20	 9 ;       HGA2     CG3C52     CG3C50      CG321
   17    19    21    26	 9 ;     CG3C52     CG3C50      CG321      CG321
   17    19    21    58	 9 ;     CG3C52     CG3C50      CG321       HGA2
   17    19    21    59	 9 ;     CG3C52     CG3C50      CG321       HGA2
   16    19    21    26	 9 ;     CG2RC0     CG3C50      CG321      CG321
   16    19    21    58	 9 ;     CG2RC0     CG3C50      CG321       HGA2
   16    19    21    59	 9 ;     CG2RC0     CG3C50      CG321       HGA2
   20    19    21    26	 9 ;      CG321     CG3C50      CG321      CG321
   20    19    21    58	 9 ;      CG321     CG3C50      CG321       HGA2
   20    19    21    59	 9 ;      CG321     CG3C50      CG321       HGA2
   17    19    20    22	 9 ;     CG3C52     CG3C50      CG321      CG321
   17    19    20    56	 9 ;     CG3C52     CG3C50      CG321       HGA2
   17    19    20    57	 9 ;     CG3C52     CG3C50      CG321       HGA2
   16    19    20    22	 9 ;     CG2RC0     CG3C50      CG321      CG321
   16    19    20    56	 9 ;     CG2RC0     CG3C50      CG321       HGA2
   16    19    20    57	 9 ;     CG2RC0     CG3C50      CG321       HGA2
   21    19    20    22	 9 ;      CG321     CG3C50      CG321      CG321
   21    19    20    56	 9 ;      CG321     CG3C50      CG321       HGA2
   21    19    20    57	 9 ;      CG321     CG3C50      CG321       HGA2
   19    20    22    23	 9 ;     CG3C50      CG321      CG321      CG312
   19    20    22    60	 9 ;     CG3C50      CG321      CG321       HGA2
   19    20    22    61	 9 ;     CG3C50      CG321      CG321       HGA2
   56    20    22    23	 9 ;       HGA2      CG321      CG321      CG312
   56    20    22    60	 9 ;       HGA2      CG321      CG321       HGA2
   56    20    22    61	 9 ;       HGA2      CG321      CG321       HGA2
   57    20    22    23	 9 ;       HGA2      CG321      CG321      CG312
   57    20    22    60	 9 ;       HGA2      CG321      CG321       HGA2
   57    20    22    61	 9 ;       HGA2      CG321      CG321       HGA2
   19    21    26    23	 9 ;     CG3C50      CG321      CG321      CG312
   19    21    26    62	 9 ;     CG3C50      CG321      CG321       HGA2
   19    21    26    63	 9 ;     CG3C50      CG321      CG321       HGA2
   58    21    26    23	 9 ;       HGA2      CG321      CG321      CG312
   58    21    26    62	 9 ;       HGA2      CG321      CG321       HGA2
   58    21    26    63	 9 ;       HGA2      CG321      CG321       HGA2
   59    21    26    23	 9 ;       HGA2      CG321      CG321      CG312
   59    21    26    62	 9 ;       HGA2      CG321      CG321       HGA2
   59    21    26    63	 9 ;       HGA2      CG321      CG321       HGA2
   20    22    23    26	 9 ;      CG321      CG321      CG312      CG321
   20    22    23    24	 9 ;      CG321      CG321      CG312       FGA2
   20    22    23    25	 9 ;      CG321      CG321      CG312       FGA2
   60    22    23    26	 9 ;       HGA2      CG321      CG312      CG321
   60    22    23    24	 9 ;       HGA2      CG321      CG312       FGA2
   60    22    23    25	 9 ;       HGA2      CG321      CG312       FGA2
   61    22    23    26	 9 ;       HGA2      CG321      CG312      CG321
   61    22    23    24	 9 ;       HGA2      CG321      CG312       FGA2
   61    22    23    25	 9 ;       HGA2      CG321      CG312       FGA2
   22    23    26    21	 9 ;      CG321      CG312      CG321      CG321
   22    23    26    62	 9 ;      CG321      CG312      CG321       HGA2
   22    23    26    63	 9 ;      CG321      CG312      CG321       HGA2
   24    23    26    21	 9 ;       FGA2      CG312      CG321      CG321
   24    23    26    62	 9 ;       FGA2      CG312      CG321       HGA2
   24    23    26    63	 9 ;       FGA2      CG312      CG321       HGA2
   25    23    26    21	 9 ;       FGA2      CG312      CG321      CG321
   25    23    26    62	 9 ;       FGA2      CG312      CG321       HGA2
   25    23    26    63	 9 ;       FGA2      CG312      CG321       HGA2
   31    30    33    34	 9 ;       HGP2      NG3P2      CG324     CG2R61
   31    30    33    65	 9 ;       HGP2      NG3P2      CG324       HGA2
   31    30    33    66	 9 ;       HGP2      NG3P2      CG324       HGA2
   32    30    33    34	 9 ;       HGP2      NG3P2      CG324     CG2R61
   32    30    33    65	 9 ;       HGP2      NG3P2      CG324       HGA2
   32    30    33    66	 9 ;       HGP2      NG3P2      CG324       HGA2
    7    30    33    34	 9 ;      CG314      NG3P2      CG324     CG2R61
    7    30    33    65	 9 ;      CG314      NG3P2      CG324       HGA2
    7    30    33    66	 9 ;      CG314      NG3P2      CG324       HGA2
   30    33    34    39	 9 ;      NG3P2      CG324     CG2R61     CG2R61
   30    33    34    35	 9 ;      NG3P2      CG324     CG2R61     CG2R61
   65    33    34    39	 9 ;       HGA2      CG324     CG2R61     CG2R61
   65    33    34    35	 9 ;       HGA2      CG324     CG2R61     CG2R61
   66    33    34    39	 9 ;       HGA2      CG324     CG2R61     CG2R61
   66    33    34    35	 9 ;       HGA2      CG324     CG2R61     CG2R61
   35    34    39    38	 9 ;     CG2R61     CG2R61     CG2R61     CG2R61
   35    34    39    70	 9 ;     CG2R61     CG2R61     CG2R61      HGR61
   33    34    39    38	 9 ;      CG324     CG2R61     CG2R61     CG2R61
   33    34    39    70	 9 ;      CG324     CG2R61     CG2R61      HGR61
   39    34    35    36	 9 ;     CG2R61     CG2R61     CG2R61     CG2R61
   39    34    35    67	 9 ;     CG2R61     CG2R61     CG2R61      HGR61
   33    34    35    36	 9 ;      CG324     CG2R61     CG2R61     CG2R61
   33    34    35    67	 9 ;      CG324     CG2R61     CG2R61      HGR61
   34    35    36    37	 9 ;     CG2R61     CG2R61     CG2R61     CG2R61
   34    35    36    40	 9 ;     CG2R61     CG2R61     CG2R61      CG301
   67    35    36    37	 9 ;      HGR61     CG2R61     CG2R61     CG2R61
   67    35    36    40	 9 ;      HGR61     CG2R61     CG2R61      CG301
   40    36    37    38	 9 ;      CG301     CG2R61     CG2R61     CG2R61
   40    36    37    68	 9 ;      CG301     CG2R61     CG2R61      HGR61
   35    36    37    38	 9 ;     CG2R61     CG2R61     CG2R61     CG2R61
   35    36    37    68	 9 ;     CG2R61     CG2R61     CG2R61      HGR61
   37    36    40    43	 9 ;     CG2R61     CG2R61      CG301      CG331
   37    36    40    41	 9 ;     CG2R61     CG2R61      CG301      CG331
   37    36    40    42	 9 ;     CG2R61     CG2R61      CG301      CG331
   35    36    40    43	 9 ;     CG2R61     CG2R61      CG301      CG331
   35    36    40    41	 9 ;     CG2R61     CG2R61      CG301      CG331
   35    36    40    42	 9 ;     CG2R61     CG2R61      CG301      CG331
   36    37    38    39	 9 ;     CG2R61     CG2R61     CG2R61     CG2R61
   36    37    38    69	 9 ;     CG2R61     CG2R61     CG2R61      HGR61
   68    37    38    39	 9 ;      HGR61     CG2R61     CG2R61     CG2R61
   68    37    38    69	 9 ;      HGR61     CG2R61     CG2R61      HGR61
   37    38    39    34	 9 ;     CG2R61     CG2R61     CG2R61     CG2R61
   37    38    39    70	 9 ;     CG2R61     CG2R61     CG2R61      HGR61
   69    38    39    34	 9 ;      HGR61     CG2R61     CG2R61     CG2R61
   69    38    39    70	 9 ;      HGR61     CG2R61     CG2R61      HGR61
   41    40    43    77	 9 ;      CG331      CG301      CG331       HGA3
   41    40    43    78	 9 ;      CG331      CG301      CG331       HGA3
   41    40    43    79	 9 ;      CG331      CG301      CG331       HGA3
   36    40    43    77	 9 ;     CG2R61      CG301      CG331       HGA3
   36    40    43    78	 9 ;     CG2R61      CG301      CG331       HGA3
   36    40    43    79	 9 ;     CG2R61      CG301      CG331       HGA3
   42    40    43    77	 9 ;      CG331      CG301      CG331       HGA3
   42    40    43    78	 9 ;      CG331      CG301      CG331       HGA3
   42    40    43    79	 9 ;      CG331      CG301      CG331       HGA3
   43    40    41    71	 9 ;      CG331      CG301      CG331       HGA3
   43    40    41    72	 9 ;      CG331      CG301      CG331       HGA3
   43    40    41    73	 9 ;      CG331      CG301      CG331       HGA3
   36    40    41    71	 9 ;     CG2R61      CG301      CG331       HGA3
   36    40    41    72	 9 ;     CG2R61      CG301      CG331       HGA3
   36    40    41    73	 9 ;     CG2R61      CG301      CG331       HGA3
   42    40    41    71	 9 ;      CG331      CG301      CG331       HGA3
   42    40    41    72	 9 ;      CG331      CG301      CG331       HGA3
   42    40    41    73	 9 ;      CG331      CG301      CG331       HGA3
   43    40    42    74	 9 ;      CG331      CG301      CG331       HGA3
   43    40    42    75	 9 ;      CG331      CG301      CG331       HGA3
   43    40    42    76	 9 ;      CG331      CG301      CG331       HGA3
   41    40    42    74	 9 ;      CG331      CG301      CG331       HGA3
   41    40    42    75	 9 ;      CG331      CG301      CG331       HGA3
   41    40    42    76	 9 ;      CG331      CG301      CG331       HGA3
   36    40    42    74	 9 ;     CG2R61      CG301      CG331       HGA3
   36    40    42    75	 9 ;     CG2R61      CG301      CG331       HGA3
   36    40    42    76	 9 ;     CG2R61      CG301      CG331       HGA3

