Getting the Right Output Means no Artefacts in Calculating Stuff
   79
    1LIG      S    1  -1.989   0.428  -1.667
    1LIG     O1    2  -1.932   0.508  -1.775
    1LIG     O2    3  -2.126   0.381  -1.673
    1LIG     C1    4  -1.879   0.292  -1.634
    1LIG     C2    5  -1.735   0.337  -1.601
    1LIG     C3    6  -1.735   0.441  -1.487
    1LIG     C4    7  -1.826   0.566  -1.506
    1LIG     C5    8  -1.972   0.529  -1.523
    1LIG     C6    9  -1.652   0.374  -1.729
    1LIG     C7   10  -1.502   0.342  -1.730
    1LIG     C8   11  -1.418   0.405  -1.823
    1LIG     C9   12  -1.281   0.380  -1.825
    1LIG     F1   13  -1.203   0.438  -1.916
    1LIG    C10   14  -1.226   0.293  -1.731
    1LIG     N1   15  -1.091   0.252  -1.728
    1LIG    C11   16  -1.305   0.231  -1.634
    1LIG    C12   17  -1.074   0.184  -1.599
    1LIG     H1   18  -1.028   0.329  -1.746
    1LIG    C13   19  -1.216   0.146  -1.543
    1LIG    C14   20  -1.227   0.186  -1.393
    1LIG    C15   21  -1.242  -0.006  -1.556
    1LIG    C16   22  -1.136   0.102  -1.302
    1LIG    C17   23  -1.166  -0.046  -1.317
    1LIG     F2   24  -1.081  -0.117  -1.240
    1LIG     F3   25  -1.291  -0.071  -1.272
    1LIG    C18   26  -1.155  -0.091  -1.461
    1LIG    C19   27  -1.444   0.257  -1.632
    1LIG     O3   28  -1.786   0.375  -1.370
    1LIG     H2   29  -1.743   0.287  -1.362
    1LIG     N2   30  -1.774   0.654  -1.618
    1LIG     H3   31  -1.727   0.596  -1.689
    1LIG     H4   32  -1.852   0.703  -1.665
    1LIG    C20   33  -1.680   0.763  -1.577
    1LIG    C21   34  -1.553   0.753  -1.654
    1LIG    C22   35  -1.434   0.738  -1.582
    1LIG    C23   36  -1.310   0.725  -1.645
    1LIG    C24   37  -1.306   0.750  -1.783
    1LIG    C25   38  -1.424   0.767  -1.857
    1LIG    C26   39  -1.548   0.764  -1.793
    1LIG    C27   40  -1.191   0.663  -1.569
    1LIG    C28   41  -1.127   0.764  -1.470
    1LIG    C29   42  -1.246   0.548  -1.482
    1LIG    C30   43  -1.078   0.610  -1.660
    1LIG    HC2   44  -1.876   0.228  -1.722
    1LIG    HC3   45  -1.918   0.235  -1.550
    1LIG     HC   46  -1.686   0.249  -1.560
    1LIG    HC1   47  -1.633   0.474  -1.468
    1LIG    HC4   48  -1.819   0.624  -1.414
    1LIG    HC5   49  -2.032   0.619  -1.535
    1LIG    HC6   50  -2.006   0.473  -1.436
    1LIG    HC7   51  -1.662   0.482  -1.743
    1LIG    HC8   52  -1.697   0.325  -1.814
    1LIG    HC9   53  -1.460   0.475  -1.895
    1LIG   HC10   54  -1.015   0.093  -1.613
    1LIG   HC11   55  -1.023   0.250  -1.530
    1LIG   HC12   56  -1.198   0.291  -1.383
    1LIG   HC13   57  -1.330   0.175  -1.361
    1LIG   HC14   58  -1.221  -0.036  -1.658
    1LIG   HC15   59  -1.347  -0.025  -1.534
    1LIG   HC16   60  -1.153   0.132  -1.198
    1LIG   HC17   61  -1.032   0.121  -1.327
    1LIG   HC18   62  -1.187  -0.195  -1.468
    1LIG   HC19   63  -1.051  -0.085  -1.493
    1LIG   HC20   64  -1.506   0.212  -1.556
    1LIG   HC21   65  -1.726   0.860  -1.598
    1LIG   HC22   66  -1.659   0.755  -1.471
    1LIG   HC23   67  -1.438   0.737  -1.474
    1LIG   HC24   68  -1.211   0.756  -1.833
    1LIG   HC25   69  -1.419   0.782  -1.964
    1LIG   HC26   70  -1.639   0.770  -1.850
    1LIG   HC27   71  -1.086   0.848  -1.526
    1LIG   HC28   72  -1.202   0.800  -1.401
    1LIG   HC29   73  -1.047   0.715  -1.415
    1LIG   HC30   74  -1.163   0.483  -1.451
    1LIG   HC31   75  -1.318   0.490  -1.539
    1LIG   HC32   76  -1.294   0.589  -1.394
    1LIG   HC33   77  -1.120   0.538  -1.731
    1LIG   HC34   78  -1.033   0.693  -1.714
    1LIG   HC35   79  -1.003   0.561  -1.599
   0.00000   0.00000   0.00000
