God Rules Over Mankind, Animals, Cosmos and Such
   55
    1LIG     C1    1  -1.401   0.730  -1.626
    1LIG     N1    2  -1.439   0.785  -1.492
    1LIG    HN3    3  -1.447   0.734  -1.404
    1LIG     C2    4  -1.460   0.911  -1.511
    1LIG     N2    5  -1.439   0.957  -1.636
    1LIG     C3    6  -1.481   1.085  -1.689
    1LIG     C4    7  -1.389   0.856  -1.712
    1LIG     O1    8  -1.350   0.865  -1.828
    1LIG     C5    9  -1.283   0.635  -1.615
    1LIG     C6   10  -1.303   0.510  -1.551
    1LIG     C7   11  -1.210   0.405  -1.556
    1LIG     C8   12  -1.087   0.433  -1.617
    1LIG     C9   13  -1.059   0.559  -1.670
    1LIG    C10   14  -1.157   0.659  -1.670
    1LIG    C11   15  -1.245   0.269  -1.508
    1LIG    C12   16  -1.332   0.186  -1.581
    1LIG    C13   17  -1.363   0.058  -1.537
    1LIG    C14   18  -1.307   0.014  -1.419
    1LIG     N3   19  -1.222   0.089  -1.345
    1LIG    C15   20  -1.194   0.213  -1.390
    1LIG    HN4   21  -1.182   0.053  -1.258
    1LIG      F   22  -1.110   0.285  -1.314
    1LIG    C16   23  -1.515   0.644  -1.683
    1LIG    C17   24  -1.524   0.600  -1.815
    1LIG      S   25  -1.661   0.505  -1.845
    1LIG    C18   26  -1.714   0.517  -1.683
    1LIG    C19   27  -1.630   0.598  -1.609
    1LIG    C20   28  -1.834   0.446  -1.641
    1LIG     O2   29  -1.947   0.473  -1.682
    1LIG    C21   30  -1.817   0.333  -1.540
    1LIG    C22   31  -1.706   0.236  -1.578
    1LIG     N4   32  -1.499   0.993  -1.411
    1LIG     H1   33  -1.420   1.041  -1.368
    1LIG     H2   34  -1.576   1.056  -1.431
    1LIG    HN2   35  -1.537   0.766  -1.512
    1LIG     HC   36  -1.564   0.891  -1.536
    1LIG    HC1   37  -1.395   0.494  -1.497
    1LIG    HC2   38  -1.011   0.356  -1.622
    1LIG    HC3   39  -0.962   0.580  -1.712
    1LIG    HC4   40  -1.135   0.756  -1.714
    1LIG    HC5   41  -1.374   0.222  -1.674
    1LIG    HC6   42  -1.431  -0.005  -1.593
    1LIG    HC7   43  -1.331  -0.085  -1.384
    1LIG    HC8   44  -1.450   0.624  -1.890
    1LIG    HC9   45  -1.648   0.623  -1.506
    1LIG   HC10   46  -1.793   0.377  -1.443
    1LIG   HC11   47  -1.911   0.278  -1.532
    1LIG    HN1   48  -1.535   0.932  -1.339
    1LIG   HC12   49  -1.449   1.093  -1.793
    1LIG   HC13   50  -1.436   1.165  -1.631
    1LIG   HC14   51  -1.590   1.092  -1.684
    1LIG   HC15   52  -1.723   0.141  -1.528
    1LIG   HC16   53  -1.706   0.222  -1.686
    1LIG   HC17   54  -1.610   0.277  -1.546
    1LIG    H25   55  -1.391   0.054  -1.363
   0.00000   0.00000   0.00000
