; Created by cgenff_charmm2gmx.py

[ moleculetype ]
; Name			   nrexcl
LIG				 3

[ atoms ]
;	 nr		  type	resnr residue  atom   cgnr	   charge		mass  typeB    chargeB		massB
; residue	 1 LIG rtp LIG q	qsum
     1     CG3C50      1    LIG     C1      1      1.875     12.011   ;
     2      NG3P2      1    LIG     N1      2     -0.573     14.007   ;
     3       HGP2      1    LIG    HN3      3      0.364      1.008   ;
     4     CG3C53      1    LIG     C2      4      0.784     12.011   ;
     5     NG2R53      1    LIG     N2      5     -0.209     14.007   ;
     6      CG331      1    LIG     C3      6     -0.169     12.011   ;
     7     CG2R53      1    LIG     C4      7     -0.361     12.011   ;
     8      OG2D1      1    LIG     O1      8     -0.296     15.999   ;
     9     CG2R61      1    LIG     C5      9     -0.018     12.011   ;
    10     CG2R61      1    LIG     C6     10     -0.133     12.011   ;
    11     CG2R61      1    LIG     C7     11     -0.137     12.011   ;
    12     CG2R61      1    LIG     C8     12     -0.117     12.011   ;
    13     CG2R61      1    LIG     C9     13     -0.102     12.011   ;
    14     CG2R61      1    LIG    C10     14     -0.132     12.011   ;
    15     CG2DC1      1    LIG    C11     15      0.053     12.011   ;
    16     CG2DC2      1    LIG    C12     16     -0.246     12.011   ;
    17     CG2DC2      1    LIG    C13     17     -0.181     12.011   ;
    18      CG321      1    LIG    C14     18     -0.037     12.011   ;
    19      NG311      1    LIG     N3     19     -0.466     14.007   ;
    20     CG2D1O      1    LIG    C15     20      0.321     12.011   ;
    21     HGPAM1      1    LIG    HN4     21      0.324      1.008   ;
    22       FGA1      1    LIG      F     22     -0.107     18.998   ;
    23     CG2R57      1    LIG    C16     23     -0.638     12.011   ;
    24     CG2R51      1    LIG    C17     24     -0.230     12.011   ;
    25     SG2R50      1    LIG      S     25      0.108     32.060   ;
    26     CG2R51      1    LIG    C18     26     -0.455     12.011   ;
    27     CG2R51      1    LIG    C19     27     -0.028     12.011   ;
    28      CG2O5      1    LIG    C20     28      0.550     12.011   ;
    29      OG2D3      1    LIG     O2     29     -0.478     15.999   ;
    30      CG321      1    LIG    C21     30     -0.225     12.011   ;
    31      CG331      1    LIG    C22     31     -0.256     12.011   ;
    32      NG3P3      1    LIG     N4     32     -0.267     14.007   ;
    33       HGP2      1    LIG     H1     33      0.301      1.008   ;
    34       HGP2      1    LIG     H2     34      0.301      1.008   ;
    35       HGP2      1    LIG    HN2     35      0.364      1.008   ;
    36       HGA1      1    LIG     HC     36      0.073      1.008   ;
    37      HGR61      1    LIG    HC1     37      0.116      1.008   ;
    38      HGR61      1    LIG    HC2     38      0.116      1.008   ;
    39      HGR61      1    LIG    HC3     39      0.116      1.008   ;
    40      HGR61      1    LIG    HC4     40      0.116      1.008   ;
    41       HGA4      1    LIG    HC5     41      0.153      1.008   ;
    42       HGA4      1    LIG    HC6     42      0.150      1.008   ;
    43       HGA2      1    LIG    HC7     43      0.090      1.008   ;
    44      HGR52      1    LIG    HC8     44      0.191      1.008   ;
    45      HGR51      1    LIG    HC9     45      0.284      1.008   ;
    46       HGA2      1    LIG   HC10     46      0.090      1.008   ;
    47       HGA2      1    LIG   HC11     47      0.090      1.008   ;
    48       HGP2      1    LIG    HN1     48      0.301      1.008   ;
    49       HGA3      1    LIG   HC12     49      0.090      1.008   ;
    50       HGA3      1    LIG   HC13     50      0.090      1.008   ;
    51       HGA3      1    LIG   HC14     51      0.090      1.008   ;
    52       HGA3      1    LIG   HC15     52      0.090      1.008   ;
    53       HGA3      1    LIG   HC16     53      0.090      1.008   ;
    54       HGA3      1    LIG   HC17     54      0.090      1.008   ;
    55       HGA2      1    LIG    H25     55      0.090      1.008   ;

[ bonds ]
;	ai	  aj funct			  c0			c1			  c2			c3
    1     7	 1 ;      CG3C50     CG2R53
    1     9	 1 ;      CG3C50     CG2R61
    1    23	 1 ;      CG3C50     CG2R57
    1     2	 1 ;      CG3C50      NG3P2
    2     4	 1 ;       NG3P2     CG3C53
    2     3	 1 ;       NG3P2       HGP2
    2    35	 1 ;       NG3P2       HGP2
    4     5	 1 ;      CG3C53     NG2R53
    4    32	 1 ;      CG3C53      NG3P3
    4    36	 1 ;      CG3C53       HGA1
    5     7	 1 ;      NG2R53     CG2R53
    5     6	 1 ;      NG2R53      CG331
    6    49	 1 ;       CG331       HGA3
    6    50	 1 ;       CG331       HGA3
    6    51	 1 ;       CG331       HGA3
    7     8	 1 ;      CG2R53      OG2D1
    9    14	 1 ;      CG2R61     CG2R61
    9    10	 1 ;      CG2R61     CG2R61
   10    11	 1 ;      CG2R61     CG2R61
   10    37	 1 ;      CG2R61      HGR61
   11    12	 1 ;      CG2R61     CG2R61
   11    15	 1 ;      CG2R61     CG2DC1
   12    13	 1 ;      CG2R61     CG2R61
   12    38	 1 ;      CG2R61      HGR61
   13    14	 1 ;      CG2R61     CG2R61
   13    39	 1 ;      CG2R61      HGR61
   14    40	 1 ;      CG2R61      HGR61
   15    16	 1 ;      CG2DC1     CG2DC2
   15    20	 1 ;      CG2DC1     CG2D1O
   16    17	 1 ;      CG2DC2     CG2DC2
   16    41	 1 ;      CG2DC2       HGA4
   17    18	 1 ;      CG2DC2      CG321
   17    42	 1 ;      CG2DC2       HGA4
   18    19	 1 ;       CG321      NG311
   18    43	 1 ;       CG321       HGA2
   18    55	 1 ;       CG321       HGA2
   19    20	 1 ;       NG311     CG2D1O
   19    21	 1 ;       NG311     HGPAM1
   20    22	 1 ;      CG2D1O       FGA1
   23    24	 1 ;      CG2R57     CG2R51
   23    27	 1 ;      CG2R57     CG2R51
   24    25	 1 ;      CG2R51     SG2R50
   24    44	 1 ;      CG2R51      HGR52
   25    26	 1 ;      SG2R50     CG2R51
   26    27	 1 ;      CG2R51     CG2R51
   26    28	 1 ;      CG2R51      CG2O5
   27    45	 1 ;      CG2R51      HGR51
   28    29	 1 ;       CG2O5      OG2D3
   28    30	 1 ;       CG2O5      CG321
   30    31	 1 ;       CG321      CG331
   30    46	 1 ;       CG321       HGA2
   30    47	 1 ;       CG321       HGA2
   31    52	 1 ;       CG331       HGA3
   31    53	 1 ;       CG331       HGA3
   31    54	 1 ;       CG331       HGA3
   32    33	 1 ;       NG3P3       HGP2
   32    34	 1 ;       NG3P3       HGP2
   32    48	 1 ;       NG3P3       HGP2

[ pairs ]
;	ai	  aj funct			  c0			c1			  c2			c3
    1    32	 1
    1    36	 1
    1     6	 1
    1    13	 1
    1    40	 1
    1    11	 1
    1    37	 1
    1    25	 1
    1    44	 1
    1    26	 1
    1    45	 1
    2     8	 1
    2    14	 1
    2    10	 1
    2    24	 1
    2    27	 1
    2     6	 1
    2    33	 1
    2    34	 1
    2    48	 1
    3     7	 1
    3     9	 1
    3    23	 1
    3     5	 1
    3    32	 1
    3    36	 1
    4     9	 1
    4    23	 1
    4     8	 1
    4    49	 1
    4    50	 1
    4    51	 1
    5     9	 1
    5    23	 1
    5    35	 1
    5    33	 1
    5    34	 1
    5    48	 1
    6    32	 1
    6    36	 1
    6     8	 1
    7    14	 1
    7    10	 1
    7    24	 1
    7    27	 1
    7    35	 1
    7    32	 1
    7    36	 1
    7    49	 1
    7    50	 1
    7    51	 1
    8     9	 1
    8    23	 1
    9    24	 1
    9    27	 1
    9    35	 1
    9    12	 1
    9    15	 1
    9    39	 1
   10    23	 1
   10    13	 1
   10    40	 1
   10    38	 1
   10    16	 1
   10    20	 1
   11    14	 1
   11    39	 1
   11    17	 1
   11    41	 1
   11    22	 1
   11    19	 1
   12    37	 1
   12    16	 1
   12    20	 1
   12    40	 1
   13    15	 1
   14    23	 1
   14    37	 1
   14    38	 1
   15    37	 1
   15    38	 1
   15    18	 1
   15    42	 1
   15    21	 1
   16    22	 1
   16    19	 1
   16    43	 1
   16    55	 1
   17    20	 1
   17    21	 1
   18    41	 1
   18    22	 1
   19    42	 1
   20    41	 1
   20    43	 1
   20    55	 1
   21    43	 1
   21    55	 1
   21    22	 1
   23    35	 1
   23    28	 1
   24    45	 1
   24    28	 1
   25    45	 1
   25    29	 1
   25    30	 1
   26    44	 1
   26    31	 1
   26    46	 1
   26    47	 1
   27    44	 1
   27    29	 1
   27    30	 1
   28    45	 1
   28    52	 1
   28    53	 1
   28    54	 1
   29    31	 1
   29    46	 1
   29    47	 1
   32    35	 1
   33    36	 1
   34    36	 1
   35    36	 1
   36    48	 1
   38    39	 1
   39    40	 1
   41    42	 1
   42    43	 1
   42    55	 1
   46    52	 1
   46    53	 1
   46    54	 1
   47    52	 1
   47    53	 1
   47    54	 1

[ angles ]
;	ai	  aj	ak funct			c0			  c1			c2			  c3
    7     1     9	5 ;     CG2R53     CG3C50     CG2R61
    7     1    23	5 ;     CG2R53     CG3C50     CG2R57
    7     1     2	5 ;     CG2R53     CG3C50      NG3P2
    9     1    23	5 ;     CG2R61     CG3C50     CG2R57
    9     1     2	5 ;     CG2R61     CG3C50      NG3P2
   23     1     2	5 ;     CG2R57     CG3C50      NG3P2
    1     2     4	5 ;     CG3C50      NG3P2     CG3C53
    1     2     3	5 ;     CG3C50      NG3P2       HGP2
    1     2    35	5 ;     CG3C50      NG3P2       HGP2
    4     2     3	5 ;     CG3C53      NG3P2       HGP2
    4     2    35	5 ;     CG3C53      NG3P2       HGP2
    3     2    35	5 ;       HGP2      NG3P2       HGP2
    5     4     2	5 ;     NG2R53     CG3C53      NG3P2
    5     4    32	5 ;     NG2R53     CG3C53      NG3P3
    5     4    36	5 ;     NG2R53     CG3C53       HGA1
    2     4    32	5 ;      NG3P2     CG3C53      NG3P3
    2     4    36	5 ;      NG3P2     CG3C53       HGA1
   32     4    36	5 ;      NG3P3     CG3C53       HGA1
    7     5     6	5 ;     CG2R53     NG2R53      CG331
    7     5     4	5 ;     CG2R53     NG2R53     CG3C53
    6     5     4	5 ;      CG331     NG2R53     CG3C53
    5     6    49	5 ;     NG2R53      CG331       HGA3
    5     6    50	5 ;     NG2R53      CG331       HGA3
    5     6    51	5 ;     NG2R53      CG331       HGA3
   49     6    50	5 ;       HGA3      CG331       HGA3
   49     6    51	5 ;       HGA3      CG331       HGA3
   50     6    51	5 ;       HGA3      CG331       HGA3
    8     7     1	5 ;      OG2D1     CG2R53     CG3C50
    8     7     5	5 ;      OG2D1     CG2R53     NG2R53
    1     7     5	5 ;     CG3C50     CG2R53     NG2R53
   14     9     1	5 ;     CG2R61     CG2R61     CG3C50
   14     9    10	5 ;     CG2R61     CG2R61     CG2R61
    1     9    10	5 ;     CG3C50     CG2R61     CG2R61
    9    10    11	5 ;     CG2R61     CG2R61     CG2R61
    9    10    37	5 ;     CG2R61     CG2R61      HGR61
   11    10    37	5 ;     CG2R61     CG2R61      HGR61
   12    11    15	5 ;     CG2R61     CG2R61     CG2DC1
   12    11    10	5 ;     CG2R61     CG2R61     CG2R61
   15    11    10	5 ;     CG2DC1     CG2R61     CG2R61
   13    12    11	5 ;     CG2R61     CG2R61     CG2R61
   13    12    38	5 ;     CG2R61     CG2R61      HGR61
   11    12    38	5 ;     CG2R61     CG2R61      HGR61
   14    13    12	5 ;     CG2R61     CG2R61     CG2R61
   14    13    39	5 ;     CG2R61     CG2R61      HGR61
   12    13    39	5 ;     CG2R61     CG2R61      HGR61
   13    14     9	5 ;     CG2R61     CG2R61     CG2R61
   13    14    40	5 ;     CG2R61     CG2R61      HGR61
    9    14    40	5 ;     CG2R61     CG2R61      HGR61
   11    15    16	5 ;     CG2R61     CG2DC1     CG2DC2
   11    15    20	5 ;     CG2R61     CG2DC1     CG2D1O
   16    15    20	5 ;     CG2DC2     CG2DC1     CG2D1O
   15    16    17	5 ;     CG2DC1     CG2DC2     CG2DC2
   15    16    41	5 ;     CG2DC1     CG2DC2       HGA4
   17    16    41	5 ;     CG2DC2     CG2DC2       HGA4
   16    17    18	5 ;     CG2DC2     CG2DC2      CG321
   16    17    42	5 ;     CG2DC2     CG2DC2       HGA4
   18    17    42	5 ;      CG321     CG2DC2       HGA4
   17    18    19	5 ;     CG2DC2      CG321      NG311
   17    18    43	5 ;     CG2DC2      CG321       HGA2
   17    18    55	5 ;     CG2DC2      CG321       HGA2
   19    18    43	5 ;      NG311      CG321       HGA2
   19    18    55	5 ;      NG311      CG321       HGA2
   43    18    55	5 ;       HGA2      CG321       HGA2
   20    19    18	5 ;     CG2D1O      NG311      CG321
   20    19    21	5 ;     CG2D1O      NG311     HGPAM1
   18    19    21	5 ;      CG321      NG311     HGPAM1
   15    20    22	5 ;     CG2DC1     CG2D1O       FGA1
   15    20    19	5 ;     CG2DC1     CG2D1O      NG311
   22    20    19	5 ;       FGA1     CG2D1O      NG311
   24    23     1	5 ;     CG2R51     CG2R57     CG3C50
   24    23    27	5 ;     CG2R51     CG2R57     CG2R51
    1    23    27	5 ;     CG3C50     CG2R57     CG2R51
   25    24    23	5 ;     SG2R50     CG2R51     CG2R57
   25    24    44	5 ;     SG2R50     CG2R51      HGR52
   23    24    44	5 ;     CG2R57     CG2R51      HGR52
   24    25    26	5 ;     CG2R51     SG2R50     CG2R51
   25    26    27	5 ;     SG2R50     CG2R51     CG2R51
   25    26    28	5 ;     SG2R50     CG2R51      CG2O5
   27    26    28	5 ;     CG2R51     CG2R51      CG2O5
   23    27    26	5 ;     CG2R57     CG2R51     CG2R51
   23    27    45	5 ;     CG2R57     CG2R51      HGR51
   26    27    45	5 ;     CG2R51     CG2R51      HGR51
   26    28    29	5 ;     CG2R51      CG2O5      OG2D3
   26    28    30	5 ;     CG2R51      CG2O5      CG321
   29    28    30	5 ;      OG2D3      CG2O5      CG321
   31    30    28	5 ;      CG331      CG321      CG2O5
   31    30    46	5 ;      CG331      CG321       HGA2
   31    30    47	5 ;      CG331      CG321       HGA2
   28    30    46	5 ;      CG2O5      CG321       HGA2
   28    30    47	5 ;      CG2O5      CG321       HGA2
   46    30    47	5 ;       HGA2      CG321       HGA2
   30    31    52	5 ;      CG321      CG331       HGA3
   30    31    53	5 ;      CG321      CG331       HGA3
   30    31    54	5 ;      CG321      CG331       HGA3
   52    31    53	5 ;       HGA3      CG331       HGA3
   52    31    54	5 ;       HGA3      CG331       HGA3
   53    31    54	5 ;       HGA3      CG331       HGA3
    4    32    33	5 ;     CG3C53      NG3P3       HGP2
    4    32    34	5 ;     CG3C53      NG3P3       HGP2
    4    32    48	5 ;     CG3C53      NG3P3       HGP2
   33    32    34	5 ;       HGP2      NG3P3       HGP2
   33    32    48	5 ;       HGP2      NG3P3       HGP2
   34    32    48	5 ;       HGP2      NG3P3       HGP2

[ dihedrals ]
;	ai	  aj	ak	  al funct			  c0			c1			  c2			c3			  c4			c5
    9     1     7     8	 9 ;     CG2R61     CG3C50     CG2R53      OG2D1
    9     1     7     5	 9 ;     CG2R61     CG3C50     CG2R53     NG2R53
   23     1     7     8	 9 ;     CG2R57     CG3C50     CG2R53      OG2D1
   23     1     7     5	 9 ;     CG2R57     CG3C50     CG2R53     NG2R53
    2     1     7     8	 9 ;      NG3P2     CG3C50     CG2R53      OG2D1
    2     1     7     5	 9 ;      NG3P2     CG3C50     CG2R53     NG2R53
    7     1     9    14	 9 ;     CG2R53     CG3C50     CG2R61     CG2R61
    7     1     9    10	 9 ;     CG2R53     CG3C50     CG2R61     CG2R61
   23     1     9    14	 9 ;     CG2R57     CG3C50     CG2R61     CG2R61
   23     1     9    10	 9 ;     CG2R57     CG3C50     CG2R61     CG2R61
    2     1     9    14	 9 ;      NG3P2     CG3C50     CG2R61     CG2R61
    2     1     9    10	 9 ;      NG3P2     CG3C50     CG2R61     CG2R61
    7     1    23    24	 9 ;     CG2R53     CG3C50     CG2R57     CG2R51
    7     1    23    27	 9 ;     CG2R53     CG3C50     CG2R57     CG2R51
    9     1    23    24	 9 ;     CG2R61     CG3C50     CG2R57     CG2R51
    9     1    23    27	 9 ;     CG2R61     CG3C50     CG2R57     CG2R51
    2     1    23    24	 9 ;      NG3P2     CG3C50     CG2R57     CG2R51
    2     1    23    27	 9 ;      NG3P2     CG3C50     CG2R57     CG2R51
    7     1     2     4	 9 ;     CG2R53     CG3C50      NG3P2     CG3C53
    7     1     2     3	 9 ;     CG2R53     CG3C50      NG3P2       HGP2
    7     1     2    35	 9 ;     CG2R53     CG3C50      NG3P2       HGP2
    9     1     2     4	 9 ;     CG2R61     CG3C50      NG3P2     CG3C53
    9     1     2     3	 9 ;     CG2R61     CG3C50      NG3P2       HGP2
    9     1     2    35	 9 ;     CG2R61     CG3C50      NG3P2       HGP2
   23     1     2     4	 9 ;     CG2R57     CG3C50      NG3P2     CG3C53
   23     1     2     3	 9 ;     CG2R57     CG3C50      NG3P2       HGP2
   23     1     2    35	 9 ;     CG2R57     CG3C50      NG3P2       HGP2
    1     2     4     5	 9 ;     CG3C50      NG3P2     CG3C53     NG2R53
    1     2     4    32	 9 ;     CG3C50      NG3P2     CG3C53      NG3P3
    1     2     4    36	 9 ;     CG3C50      NG3P2     CG3C53       HGA1
    3     2     4     5	 9 ;       HGP2      NG3P2     CG3C53     NG2R53
    3     2     4    32	 9 ;       HGP2      NG3P2     CG3C53      NG3P3
    3     2     4    36	 9 ;       HGP2      NG3P2     CG3C53       HGA1
   35     2     4     5	 9 ;       HGP2      NG3P2     CG3C53     NG2R53
   35     2     4    32	 9 ;       HGP2      NG3P2     CG3C53      NG3P3
   35     2     4    36	 9 ;       HGP2      NG3P2     CG3C53       HGA1
    2     4     5     7	 9 ;      NG3P2     CG3C53     NG2R53     CG2R53
    2     4     5     6	 9 ;      NG3P2     CG3C53     NG2R53      CG331
   32     4     5     7	 9 ;      NG3P3     CG3C53     NG2R53     CG2R53
   32     4     5     6	 9 ;      NG3P3     CG3C53     NG2R53      CG331
   36     4     5     7	 9 ;       HGA1     CG3C53     NG2R53     CG2R53
   36     4     5     6	 9 ;       HGA1     CG3C53     NG2R53      CG331
    5     4    32    33	 9 ;     NG2R53     CG3C53      NG3P3       HGP2
    5     4    32    34	 9 ;     NG2R53     CG3C53      NG3P3       HGP2
    5     4    32    48	 9 ;     NG2R53     CG3C53      NG3P3       HGP2
    2     4    32    33	 9 ;      NG3P2     CG3C53      NG3P3       HGP2
    2     4    32    34	 9 ;      NG3P2     CG3C53      NG3P3       HGP2
    2     4    32    48	 9 ;      NG3P2     CG3C53      NG3P3       HGP2
   36     4    32    33	 9 ;       HGA1     CG3C53      NG3P3       HGP2
   36     4    32    34	 9 ;       HGA1     CG3C53      NG3P3       HGP2
   36     4    32    48	 9 ;       HGA1     CG3C53      NG3P3       HGP2
    6     5     7     8	 9 ;      CG331     NG2R53     CG2R53      OG2D1
    6     5     7     1	 9 ;      CG331     NG2R53     CG2R53     CG3C50
    4     5     7     8	 9 ;     CG3C53     NG2R53     CG2R53      OG2D1
    4     5     7     1	 9 ;     CG3C53     NG2R53     CG2R53     CG3C50
    7     5     6    49	 9 ;     CG2R53     NG2R53      CG331       HGA3
    7     5     6    50	 9 ;     CG2R53     NG2R53      CG331       HGA3
    7     5     6    51	 9 ;     CG2R53     NG2R53      CG331       HGA3
    4     5     6    49	 9 ;     CG3C53     NG2R53      CG331       HGA3
    4     5     6    50	 9 ;     CG3C53     NG2R53      CG331       HGA3
    4     5     6    51	 9 ;     CG3C53     NG2R53      CG331       HGA3
    1     9    14    13	 9 ;     CG3C50     CG2R61     CG2R61     CG2R61
    1     9    14    40	 9 ;     CG3C50     CG2R61     CG2R61      HGR61
   10     9    14    13	 9 ;     CG2R61     CG2R61     CG2R61     CG2R61
   10     9    14    40	 9 ;     CG2R61     CG2R61     CG2R61      HGR61
   14     9    10    11	 9 ;     CG2R61     CG2R61     CG2R61     CG2R61
   14     9    10    37	 9 ;     CG2R61     CG2R61     CG2R61      HGR61
    1     9    10    11	 9 ;     CG3C50     CG2R61     CG2R61     CG2R61
    1     9    10    37	 9 ;     CG3C50     CG2R61     CG2R61      HGR61
    9    10    11    12	 9 ;     CG2R61     CG2R61     CG2R61     CG2R61
    9    10    11    15	 9 ;     CG2R61     CG2R61     CG2R61     CG2DC1
   37    10    11    12	 9 ;      HGR61     CG2R61     CG2R61     CG2R61
   37    10    11    15	 9 ;      HGR61     CG2R61     CG2R61     CG2DC1
   15    11    12    13	 9 ;     CG2DC1     CG2R61     CG2R61     CG2R61
   15    11    12    38	 9 ;     CG2DC1     CG2R61     CG2R61      HGR61
   10    11    12    13	 9 ;     CG2R61     CG2R61     CG2R61     CG2R61
   10    11    12    38	 9 ;     CG2R61     CG2R61     CG2R61      HGR61
   12    11    15    16	 9 ;     CG2R61     CG2R61     CG2DC1     CG2DC2
   12    11    15    20	 9 ;     CG2R61     CG2R61     CG2DC1     CG2D1O
   10    11    15    16	 9 ;     CG2R61     CG2R61     CG2DC1     CG2DC2
   10    11    15    20	 9 ;     CG2R61     CG2R61     CG2DC1     CG2D1O
   11    12    13    14	 9 ;     CG2R61     CG2R61     CG2R61     CG2R61
   11    12    13    39	 9 ;     CG2R61     CG2R61     CG2R61      HGR61
   38    12    13    14	 9 ;      HGR61     CG2R61     CG2R61     CG2R61
   38    12    13    39	 9 ;      HGR61     CG2R61     CG2R61      HGR61
   12    13    14     9	 9 ;     CG2R61     CG2R61     CG2R61     CG2R61
   12    13    14    40	 9 ;     CG2R61     CG2R61     CG2R61      HGR61
   39    13    14     9	 9 ;      HGR61     CG2R61     CG2R61     CG2R61
   39    13    14    40	 9 ;      HGR61     CG2R61     CG2R61      HGR61
   11    15    16    17	 9 ;     CG2R61     CG2DC1     CG2DC2     CG2DC2
   11    15    16    41	 9 ;     CG2R61     CG2DC1     CG2DC2       HGA4
   20    15    16    17	 9 ;     CG2D1O     CG2DC1     CG2DC2     CG2DC2
   20    15    16    41	 9 ;     CG2D1O     CG2DC1     CG2DC2       HGA4
   11    15    20    22	 9 ;     CG2R61     CG2DC1     CG2D1O       FGA1
   11    15    20    19	 9 ;     CG2R61     CG2DC1     CG2D1O      NG311
   16    15    20    22	 9 ;     CG2DC2     CG2DC1     CG2D1O       FGA1
   16    15    20    19	 9 ;     CG2DC2     CG2DC1     CG2D1O      NG311
   15    16    17    18	 9 ;     CG2DC1     CG2DC2     CG2DC2      CG321
   15    16    17    42	 9 ;     CG2DC1     CG2DC2     CG2DC2       HGA4
   41    16    17    18	 9 ;       HGA4     CG2DC2     CG2DC2      CG321
   41    16    17    42	 9 ;       HGA4     CG2DC2     CG2DC2       HGA4
   16    17    18    19	 9 ;     CG2DC2     CG2DC2      CG321      NG311
   16    17    18    43	 9 ;     CG2DC2     CG2DC2      CG321       HGA2
   16    17    18    55	 9 ;     CG2DC2     CG2DC2      CG321       HGA2
   42    17    18    19	 9 ;       HGA4     CG2DC2      CG321      NG311
   42    17    18    43	 9 ;       HGA4     CG2DC2      CG321       HGA2
   42    17    18    55	 9 ;       HGA4     CG2DC2      CG321       HGA2
   17    18    19    20	 9 ;     CG2DC2      CG321      NG311     CG2D1O
   17    18    19    21	 9 ;     CG2DC2      CG321      NG311     HGPAM1
   43    18    19    20	 9 ;       HGA2      CG321      NG311     CG2D1O
   43    18    19    21	 9 ;       HGA2      CG321      NG311     HGPAM1
   55    18    19    20	 9 ;       HGA2      CG321      NG311     CG2D1O
   55    18    19    21	 9 ;       HGA2      CG321      NG311     HGPAM1
   18    19    20    15	 9 ;      CG321      NG311     CG2D1O     CG2DC1
   18    19    20    22	 9 ;      CG321      NG311     CG2D1O       FGA1
   21    19    20    15	 9 ;     HGPAM1      NG311     CG2D1O     CG2DC1
   21    19    20    22	 9 ;     HGPAM1      NG311     CG2D1O       FGA1
    1    23    24    25	 9 ;     CG3C50     CG2R57     CG2R51     SG2R50
    1    23    24    44	 9 ;     CG3C50     CG2R57     CG2R51      HGR52
   27    23    24    25	 9 ;     CG2R51     CG2R57     CG2R51     SG2R50
   27    23    24    44	 9 ;     CG2R51     CG2R57     CG2R51      HGR52
   24    23    27    26	 9 ;     CG2R51     CG2R57     CG2R51     CG2R51
   24    23    27    45	 9 ;     CG2R51     CG2R57     CG2R51      HGR51
    1    23    27    26	 9 ;     CG3C50     CG2R57     CG2R51     CG2R51
    1    23    27    45	 9 ;     CG3C50     CG2R57     CG2R51      HGR51
   23    24    25    26	 9 ;     CG2R57     CG2R51     SG2R50     CG2R51
   44    24    25    26	 9 ;      HGR52     CG2R51     SG2R50     CG2R51
   24    25    26    27	 9 ;     CG2R51     SG2R50     CG2R51     CG2R51
   24    25    26    28	 9 ;     CG2R51     SG2R50     CG2R51      CG2O5
   25    26    27    23	 9 ;     SG2R50     CG2R51     CG2R51     CG2R57
   25    26    27    45	 9 ;     SG2R50     CG2R51     CG2R51      HGR51
   28    26    27    23	 9 ;      CG2O5     CG2R51     CG2R51     CG2R57
   28    26    27    45	 9 ;      CG2O5     CG2R51     CG2R51      HGR51
   25    26    28    29	 9 ;     SG2R50     CG2R51      CG2O5      OG2D3
   25    26    28    30	 9 ;     SG2R50     CG2R51      CG2O5      CG321
   27    26    28    29	 9 ;     CG2R51     CG2R51      CG2O5      OG2D3
   27    26    28    30	 9 ;     CG2R51     CG2R51      CG2O5      CG321
   26    28    30    31	 9 ;     CG2R51      CG2O5      CG321      CG331
   26    28    30    46	 9 ;     CG2R51      CG2O5      CG321       HGA2
   26    28    30    47	 9 ;     CG2R51      CG2O5      CG321       HGA2
   29    28    30    31	 9 ;      OG2D3      CG2O5      CG321      CG331
   29    28    30    46	 9 ;      OG2D3      CG2O5      CG321       HGA2
   29    28    30    47	 9 ;      OG2D3      CG2O5      CG321       HGA2
   28    30    31    52	 9 ;      CG2O5      CG321      CG331       HGA3
   28    30    31    53	 9 ;      CG2O5      CG321      CG331       HGA3
   28    30    31    54	 9 ;      CG2O5      CG321      CG331       HGA3
   46    30    31    52	 9 ;       HGA2      CG321      CG331       HGA3
   46    30    31    53	 9 ;       HGA2      CG321      CG331       HGA3
   46    30    31    54	 9 ;       HGA2      CG321      CG331       HGA3
   47    30    31    52	 9 ;       HGA2      CG321      CG331       HGA3
   47    30    31    53	 9 ;       HGA2      CG321      CG331       HGA3
   47    30    31    54	 9 ;       HGA2      CG321      CG331       HGA3

[ dihedrals ]
;	ai	  aj	ak	  al funct			  c0			c1			  c2			c3
    7     1     5     8	 2
   20    15    19    22	 2
   28    26    30    29	 2

