; Created by cgenff_charmm2gmx.py

[ moleculetype ]
; Name			   nrexcl
LIG				 3

[ atoms ]
;	 nr		  type	resnr residue  atom   cgnr	   charge		mass  typeB    chargeB		massB
; residue	 1 LIG rtp LIG q	qsum
     1     CG2R51      1    LIG     C1      1     -0.204     12.011   ;
     2     NG2R51      1    LIG     N1      2     -0.093     14.007   ;
     3     CG2R51      1    LIG     C2      3     -0.202     12.011   ;
     4     CG2R51      1    LIG     C3      4     -0.231     12.011   ;
     5     CG2R51      1    LIG     C4      5     -0.231     12.011   ;
     6      CG321      1    LIG     C5      6      0.137     12.011   ;
     7      CG311      1    LIG     C6      7      0.189     12.011   ;
     8      NG311      1    LIG     N2      8     -0.486     14.007   ;
     9     CG2D1O      1    LIG     C7      9      0.215     12.011   ;
    10     HGPAM1      1    LIG     HN     10      0.358      1.008   ;
    11     CG2DC1      1    LIG     C8     11     -0.435     12.011   ;
    12     CG2DC2      1    LIG     C9     12     -0.142     12.011   ;
    13     CG2DC2      1    LIG    C10     13     -0.306     12.011   ;
    14      NG321      1    LIG     N3     14     -0.745     14.007   ;
    15     HGPAM2      1    LIG     H1     15      0.404      1.008   ;
    16     HGPAM2      1    LIG     H2     16      0.404      1.008   ;
    17     CG2R61      1    LIG    C11     17      0.182     12.011   ;
    18     CG2R61      1    LIG    C12     18     -0.118     12.011   ;
    19     CG2R61      1    LIG    C13     19     -0.111     12.011   ;
    20     CG2R61      1    LIG    C14     20     -0.116     12.011   ;
    21     CG2R61      1    LIG    C15     21     -0.104     12.011   ;
    22     CG2R61      1    LIG    C16     22      0.032     12.011   ;
    23      CLGR1      1    LIG     CL     23     -0.190     35.453   ;
    24     CG2R61      1    LIG    C17     24      0.129     12.011   ;
    25     CG2R61      1    LIG    C18     25     -0.118     12.011   ;
    26     CG2R61      1    LIG    C19     26     -0.120     12.011   ;
    27     CG2R61      1    LIG    C20     27      0.211     12.011   ;
    28     CG2R61      1    LIG    C21     28     -0.120     12.011   ;
    29     CG2R61      1    LIG    C22     29     -0.118     12.011   ;
    30      OG301      1    LIG      O     30     -0.383     15.999   ;
    31      CG331      1    LIG    C23     31     -0.094     12.011   ;
    32      HGR51      1    LIG     HC     32      0.202      1.008   ;
    33      HGR51      1    LIG    HC1     33      0.202      1.008   ;
    34       HGA2      1    LIG    HC2     34      0.090      1.008   ;
    35       HGA2      1    LIG    HC3     35      0.090      1.008   ;
    36       HGA4      1    LIG    HC4     36      0.150      1.008   ;
    37       HGA4      1    LIG    HC5     37      0.150      1.008   ;
    38       HGA4      1    LIG    HC6     38      0.150      1.008   ;
    39      HGR61      1    LIG    HC7     39      0.116      1.008   ;
    40      HGR61      1    LIG    HC8     40      0.116      1.008   ;
    41      HGR61      1    LIG    HC9     41      0.116      1.008   ;
    42      HGR62      1    LIG   HC10     42      0.150      1.008   ;
    43      HGR61      1    LIG   HC11     43      0.116      1.008   ;
    44      HGR61      1    LIG   HC12     44      0.116      1.008   ;
    45      HGR61      1    LIG   HC13     45      0.116      1.008   ;
    46      HGR61      1    LIG   HC14     46      0.116      1.008   ;
    47       HGA3      1    LIG   HC15     47      0.090      1.008   ;
    48       HGA3      1    LIG   HC16     48      0.090      1.008   ;
    49       HGA3      1    LIG   HC17     49      0.090      1.008   ;
    50       HGA1      1    LIG    H22     50      0.090      1.008   ;
    51        LPH      1    LIG    LP1     51      0.050      0.000   ;

[ bonds ]
;	ai	  aj funct			  c0			c1			  c2			c3
    1     5	 1 ;      CG2R51     CG2R51
    1    17	 1 ;      CG2R51     CG2R61
    1     2	 1 ;      CG2R51     NG2R51
    2     3	 1 ;      NG2R51     CG2R51
    2     6	 1 ;      NG2R51      CG321
    3     4	 1 ;      CG2R51     CG2R51
    3    24	 1 ;      CG2R51     CG2R61
    4     5	 1 ;      CG2R51     CG2R51
    4    32	 1 ;      CG2R51      HGR51
    5    33	 1 ;      CG2R51      HGR51
    6     7	 1 ;       CG321      CG311
    6    34	 1 ;       CG321       HGA2
    6    35	 1 ;       CG321       HGA2
    7    13	 1 ;       CG311     CG2DC2
    7     8	 1 ;       CG311      NG311
    7    50	 1 ;       CG311       HGA1
    8    10	 1 ;       NG311     HGPAM1
    8     9	 1 ;       NG311     CG2D1O
    9    11	 1 ;      CG2D1O     CG2DC1
    9    14	 1 ;      CG2D1O      NG321
   11    12	 1 ;      CG2DC1     CG2DC2
   11    36	 1 ;      CG2DC1       HGA4
   12    13	 1 ;      CG2DC2     CG2DC2
   12    37	 1 ;      CG2DC2       HGA4
   13    38	 1 ;      CG2DC2       HGA4
   14    15	 1 ;       NG321     HGPAM2
   14    16	 1 ;       NG321     HGPAM2
   17    18	 1 ;      CG2R61     CG2R61
   17    22	 1 ;      CG2R61     CG2R61
   18    19	 1 ;      CG2R61     CG2R61
   18    39	 1 ;      CG2R61      HGR61
   19    20	 1 ;      CG2R61     CG2R61
   19    40	 1 ;      CG2R61      HGR61
   20    21	 1 ;      CG2R61     CG2R61
   20    41	 1 ;      CG2R61      HGR61
   21    22	 1 ;      CG2R61     CG2R61
   21    42	 1 ;      CG2R61      HGR62
   22    23	 1 ;      CG2R61      CLGR1
   24    29	 1 ;      CG2R61     CG2R61
   24    25	 1 ;      CG2R61     CG2R61
   25    26	 1 ;      CG2R61     CG2R61
   25    43	 1 ;      CG2R61      HGR61
   26    27	 1 ;      CG2R61     CG2R61
   26    44	 1 ;      CG2R61      HGR61
   27    28	 1 ;      CG2R61     CG2R61
   27    30	 1 ;      CG2R61      OG301
   28    29	 1 ;      CG2R61     CG2R61
   28    45	 1 ;      CG2R61      HGR61
   29    46	 1 ;      CG2R61      HGR61
   30    31	 1 ;       OG301      CG331
   31    47	 1 ;       CG331       HGA3
   31    48	 1 ;       CG331       HGA3
   31    49	 1 ;       CG331       HGA3

[ pairs ]
;	ai	  aj funct			  c0			c1			  c2			c3
    1    24	 1
    1     7	 1
    1    34	 1
    1    35	 1
    1    32	 1
    1    19	 1
    1    39	 1
    1    23	 1
   51     1	 1
    1    21	 1
    2    33	 1
    2    18	 1
    2    22	 1
    2    32	 1
    2    29	 1
    2    25	 1
    2    13	 1
    2     8	 1
    2    50	 1
    3    17	 1
    3     7	 1
    3    34	 1
    3    35	 1
    3    33	 1
    3    28	 1
    3    46	 1
    3    26	 1
    3    43	 1
    4    17	 1
    4     6	 1
    4    29	 1
    4    25	 1
    5    18	 1
    5    22	 1
    5     6	 1
    5    24	 1
    6    17	 1
    6    24	 1
    6    12	 1
    6    38	 1
    6    10	 1
    6     9	 1
    7    11	 1
    7    14	 1
    7    37	 1
    8    34	 1
    8    35	 1
    8    12	 1
    8    38	 1
    8    36	 1
    8    15	 1
    8    16	 1
    9    13	 1
    9    50	 1
    9    37	 1
   10    13	 1
   10    50	 1
   10    11	 1
   10    14	 1
   11    15	 1
   11    16	 1
   11    38	 1
   12    50	 1
   12    14	 1
   13    34	 1
   13    35	 1
   13    36	 1
   14    36	 1
   17    33	 1
   17    20	 1
   17    40	 1
   17    42	 1
   18    23	 1
   51    18	 1
   18    21	 1
   18    41	 1
   19    22	 1
   19    42	 1
   20    39	 1
   20    23	 1
   51    20	 1
   21    40	 1
   22    39	 1
   22    41	 1
   23    42	 1
   51    42	 1
   24    32	 1
   24    27	 1
   24    44	 1
   24    45	 1
   25    28	 1
   25    46	 1
   25    30	 1
   26    29	 1
   26    45	 1
   26    31	 1
   27    43	 1
   27    46	 1
   27    47	 1
   27    48	 1
   27    49	 1
   28    44	 1
   28    31	 1
   29    43	 1
   29    30	 1
   30    44	 1
   30    45	 1
   32    33	 1
   34    50	 1
   35    50	 1
   36    37	 1
   37    38	 1
   38    50	 1
   39    40	 1
   40    41	 1
   41    42	 1
   43    44	 1
   45    46	 1

[ angles ]
;	ai	  aj	ak funct			c0			  c1			c2			  c3
    5     1    17	5 ;     CG2R51     CG2R51     CG2R61
    5     1     2	5 ;     CG2R51     CG2R51     NG2R51
   17     1     2	5 ;     CG2R61     CG2R51     NG2R51
    3     2     1	5 ;     CG2R51     NG2R51     CG2R51
    3     2     6	5 ;     CG2R51     NG2R51      CG321
    1     2     6	5 ;     CG2R51     NG2R51      CG321
    4     3    24	5 ;     CG2R51     CG2R51     CG2R61
    4     3     2	5 ;     CG2R51     CG2R51     NG2R51
   24     3     2	5 ;     CG2R61     CG2R51     NG2R51
    5     4     3	5 ;     CG2R51     CG2R51     CG2R51
    5     4    32	5 ;     CG2R51     CG2R51      HGR51
    3     4    32	5 ;     CG2R51     CG2R51      HGR51
    4     5     1	5 ;     CG2R51     CG2R51     CG2R51
    4     5    33	5 ;     CG2R51     CG2R51      HGR51
    1     5    33	5 ;     CG2R51     CG2R51      HGR51
    2     6     7	5 ;     NG2R51      CG321      CG311
    2     6    34	5 ;     NG2R51      CG321       HGA2
    2     6    35	5 ;     NG2R51      CG321       HGA2
    7     6    34	5 ;      CG311      CG321       HGA2
    7     6    35	5 ;      CG311      CG321       HGA2
   34     6    35	5 ;       HGA2      CG321       HGA2
    6     7    13	5 ;      CG321      CG311     CG2DC2
    6     7     8	5 ;      CG321      CG311      NG311
    6     7    50	5 ;      CG321      CG311       HGA1
   13     7     8	5 ;     CG2DC2      CG311      NG311
   13     7    50	5 ;     CG2DC2      CG311       HGA1
    8     7    50	5 ;      NG311      CG311       HGA1
    7     8    10	5 ;      CG311      NG311     HGPAM1
    7     8     9	5 ;      CG311      NG311     CG2D1O
   10     8     9	5 ;     HGPAM1      NG311     CG2D1O
    8     9    11	5 ;      NG311     CG2D1O     CG2DC1
    8     9    14	5 ;      NG311     CG2D1O      NG321
   11     9    14	5 ;     CG2DC1     CG2D1O      NG321
   12    11     9	5 ;     CG2DC2     CG2DC1     CG2D1O
   12    11    36	5 ;     CG2DC2     CG2DC1       HGA4
    9    11    36	5 ;     CG2D1O     CG2DC1       HGA4
   13    12    11	5 ;     CG2DC2     CG2DC2     CG2DC1
   13    12    37	5 ;     CG2DC2     CG2DC2       HGA4
   11    12    37	5 ;     CG2DC1     CG2DC2       HGA4
    7    13    12	5 ;      CG311     CG2DC2     CG2DC2
    7    13    38	5 ;      CG311     CG2DC2       HGA4
   12    13    38	5 ;     CG2DC2     CG2DC2       HGA4
    9    14    15	5 ;     CG2D1O      NG321     HGPAM2
    9    14    16	5 ;     CG2D1O      NG321     HGPAM2
   15    14    16	5 ;     HGPAM2      NG321     HGPAM2
    1    17    18	5 ;     CG2R51     CG2R61     CG2R61
    1    17    22	5 ;     CG2R51     CG2R61     CG2R61
   18    17    22	5 ;     CG2R61     CG2R61     CG2R61
   17    18    19	5 ;     CG2R61     CG2R61     CG2R61
   17    18    39	5 ;     CG2R61     CG2R61      HGR61
   19    18    39	5 ;     CG2R61     CG2R61      HGR61
   18    19    20	5 ;     CG2R61     CG2R61     CG2R61
   18    19    40	5 ;     CG2R61     CG2R61      HGR61
   20    19    40	5 ;     CG2R61     CG2R61      HGR61
   19    20    21	5 ;     CG2R61     CG2R61     CG2R61
   19    20    41	5 ;     CG2R61     CG2R61      HGR61
   21    20    41	5 ;     CG2R61     CG2R61      HGR61
   22    21    20	5 ;     CG2R61     CG2R61     CG2R61
   22    21    42	5 ;     CG2R61     CG2R61      HGR62
   20    21    42	5 ;     CG2R61     CG2R61      HGR62
   17    22    23	5 ;     CG2R61     CG2R61      CLGR1
   17    22    21	5 ;     CG2R61     CG2R61     CG2R61
   23    22    21	5 ;      CLGR1     CG2R61     CG2R61
    3    24    29	5 ;     CG2R51     CG2R61     CG2R61
    3    24    25	5 ;     CG2R51     CG2R61     CG2R61
   29    24    25	5 ;     CG2R61     CG2R61     CG2R61
   24    25    26	5 ;     CG2R61     CG2R61     CG2R61
   24    25    43	5 ;     CG2R61     CG2R61      HGR61
   26    25    43	5 ;     CG2R61     CG2R61      HGR61
   25    26    27	5 ;     CG2R61     CG2R61     CG2R61
   25    26    44	5 ;     CG2R61     CG2R61      HGR61
   27    26    44	5 ;     CG2R61     CG2R61      HGR61
   28    27    26	5 ;     CG2R61     CG2R61     CG2R61
   28    27    30	5 ;     CG2R61     CG2R61      OG301
   26    27    30	5 ;     CG2R61     CG2R61      OG301
   29    28    27	5 ;     CG2R61     CG2R61     CG2R61
   29    28    45	5 ;     CG2R61     CG2R61      HGR61
   27    28    45	5 ;     CG2R61     CG2R61      HGR61
   24    29    28	5 ;     CG2R61     CG2R61     CG2R61
   24    29    46	5 ;     CG2R61     CG2R61      HGR61
   28    29    46	5 ;     CG2R61     CG2R61      HGR61
   27    30    31	5 ;     CG2R61      OG301      CG331
   30    31    47	5 ;      OG301      CG331       HGA3
   30    31    48	5 ;      OG301      CG331       HGA3
   30    31    49	5 ;      OG301      CG331       HGA3
   47    31    48	5 ;       HGA3      CG331       HGA3
   47    31    49	5 ;       HGA3      CG331       HGA3
   48    31    49	5 ;       HGA3      CG331       HGA3

[ dihedrals ]
;	ai	  aj	ak	  al funct			  c0			c1			  c2			c3			  c4			c5
   17     1     5     4	 9 ;     CG2R61     CG2R51     CG2R51     CG2R51
   17     1     5    33	 9 ;     CG2R61     CG2R51     CG2R51      HGR51
    2     1     5     4	 9 ;     NG2R51     CG2R51     CG2R51     CG2R51
    2     1     5    33	 9 ;     NG2R51     CG2R51     CG2R51      HGR51
    5     1    17    18	 9 ;     CG2R51     CG2R51     CG2R61     CG2R61
    5     1    17    22	 9 ;     CG2R51     CG2R51     CG2R61     CG2R61
    2     1    17    18	 9 ;     NG2R51     CG2R51     CG2R61     CG2R61
    2     1    17    22	 9 ;     NG2R51     CG2R51     CG2R61     CG2R61
    5     1     2     3	 9 ;     CG2R51     CG2R51     NG2R51     CG2R51
    5     1     2     6	 9 ;     CG2R51     CG2R51     NG2R51      CG321
   17     1     2     3	 9 ;     CG2R61     CG2R51     NG2R51     CG2R51
   17     1     2     6	 9 ;     CG2R61     CG2R51     NG2R51      CG321
    1     2     3     4	 9 ;     CG2R51     NG2R51     CG2R51     CG2R51
    1     2     3    24	 9 ;     CG2R51     NG2R51     CG2R51     CG2R61
    6     2     3     4	 9 ;      CG321     NG2R51     CG2R51     CG2R51
    6     2     3    24	 9 ;      CG321     NG2R51     CG2R51     CG2R61
    3     2     6     7	 9 ;     CG2R51     NG2R51      CG321      CG311
    3     2     6    34	 9 ;     CG2R51     NG2R51      CG321       HGA2
    3     2     6    35	 9 ;     CG2R51     NG2R51      CG321       HGA2
    1     2     6     7	 9 ;     CG2R51     NG2R51      CG321      CG311
    1     2     6    34	 9 ;     CG2R51     NG2R51      CG321       HGA2
    1     2     6    35	 9 ;     CG2R51     NG2R51      CG321       HGA2
   24     3     4     5	 9 ;     CG2R61     CG2R51     CG2R51     CG2R51
   24     3     4    32	 9 ;     CG2R61     CG2R51     CG2R51      HGR51
    2     3     4     5	 9 ;     NG2R51     CG2R51     CG2R51     CG2R51
    2     3     4    32	 9 ;     NG2R51     CG2R51     CG2R51      HGR51
    4     3    24    29	 9 ;     CG2R51     CG2R51     CG2R61     CG2R61
    4     3    24    25	 9 ;     CG2R51     CG2R51     CG2R61     CG2R61
    2     3    24    29	 9 ;     NG2R51     CG2R51     CG2R61     CG2R61
    2     3    24    25	 9 ;     NG2R51     CG2R51     CG2R61     CG2R61
    3     4     5     1	 9 ;     CG2R51     CG2R51     CG2R51     CG2R51
    3     4     5    33	 9 ;     CG2R51     CG2R51     CG2R51      HGR51
   32     4     5     1	 9 ;      HGR51     CG2R51     CG2R51     CG2R51
   32     4     5    33	 9 ;      HGR51     CG2R51     CG2R51      HGR51
    2     6     7    13	 9 ;     NG2R51      CG321      CG311     CG2DC2
    2     6     7     8	 9 ;     NG2R51      CG321      CG311      NG311
    2     6     7    50	 9 ;     NG2R51      CG321      CG311       HGA1
   34     6     7    13	 9 ;       HGA2      CG321      CG311     CG2DC2
   34     6     7     8	 9 ;       HGA2      CG321      CG311      NG311
   34     6     7    50	 9 ;       HGA2      CG321      CG311       HGA1
   35     6     7    13	 9 ;       HGA2      CG321      CG311     CG2DC2
   35     6     7     8	 9 ;       HGA2      CG321      CG311      NG311
   35     6     7    50	 9 ;       HGA2      CG321      CG311       HGA1
    6     7    13    12	 9 ;      CG321      CG311     CG2DC2     CG2DC2
    6     7    13    38	 9 ;      CG321      CG311     CG2DC2       HGA4
    8     7    13    12	 9 ;      NG311      CG311     CG2DC2     CG2DC2
    8     7    13    38	 9 ;      NG311      CG311     CG2DC2       HGA4
   50     7    13    12	 9 ;       HGA1      CG311     CG2DC2     CG2DC2
   50     7    13    38	 9 ;       HGA1      CG311     CG2DC2       HGA4
    6     7     8    10	 9 ;      CG321      CG311      NG311     HGPAM1
    6     7     8     9	 9 ;      CG321      CG311      NG311     CG2D1O
   13     7     8    10	 9 ;     CG2DC2      CG311      NG311     HGPAM1
   13     7     8     9	 9 ;     CG2DC2      CG311      NG311     CG2D1O
   50     7     8    10	 9 ;       HGA1      CG311      NG311     HGPAM1
   50     7     8     9	 9 ;       HGA1      CG311      NG311     CG2D1O
    7     8     9    11	 9 ;      CG311      NG311     CG2D1O     CG2DC1
    7     8     9    14	 9 ;      CG311      NG311     CG2D1O      NG321
   10     8     9    11	 9 ;     HGPAM1      NG311     CG2D1O     CG2DC1
   10     8     9    14	 9 ;     HGPAM1      NG311     CG2D1O      NG321
    8     9    11    12	 9 ;      NG311     CG2D1O     CG2DC1     CG2DC2
    8     9    11    36	 9 ;      NG311     CG2D1O     CG2DC1       HGA4
   14     9    11    12	 9 ;      NG321     CG2D1O     CG2DC1     CG2DC2
   14     9    11    36	 9 ;      NG321     CG2D1O     CG2DC1       HGA4
    8     9    14    15	 9 ;      NG311     CG2D1O      NG321     HGPAM2
    8     9    14    16	 9 ;      NG311     CG2D1O      NG321     HGPAM2
   11     9    14    15	 9 ;     CG2DC1     CG2D1O      NG321     HGPAM2
   11     9    14    16	 9 ;     CG2DC1     CG2D1O      NG321     HGPAM2
    9    11    12    13	 9 ;     CG2D1O     CG2DC1     CG2DC2     CG2DC2
    9    11    12    37	 9 ;     CG2D1O     CG2DC1     CG2DC2       HGA4
   36    11    12    13	 9 ;       HGA4     CG2DC1     CG2DC2     CG2DC2
   36    11    12    37	 9 ;       HGA4     CG2DC1     CG2DC2       HGA4
   11    12    13     7	 9 ;     CG2DC1     CG2DC2     CG2DC2      CG311
   11    12    13    38	 9 ;     CG2DC1     CG2DC2     CG2DC2       HGA4
   37    12    13     7	 9 ;       HGA4     CG2DC2     CG2DC2      CG311
   37    12    13    38	 9 ;       HGA4     CG2DC2     CG2DC2       HGA4
    1    17    18    19	 9 ;     CG2R51     CG2R61     CG2R61     CG2R61
    1    17    18    39	 9 ;     CG2R51     CG2R61     CG2R61      HGR61
   22    17    18    19	 9 ;     CG2R61     CG2R61     CG2R61     CG2R61
   22    17    18    39	 9 ;     CG2R61     CG2R61     CG2R61      HGR61
    1    17    22    23	 9 ;     CG2R51     CG2R61     CG2R61      CLGR1
    1    17    22    21	 9 ;     CG2R51     CG2R61     CG2R61     CG2R61
   18    17    22    23	 9 ;     CG2R61     CG2R61     CG2R61      CLGR1
   18    17    22    21	 9 ;     CG2R61     CG2R61     CG2R61     CG2R61
   17    18    19    20	 9 ;     CG2R61     CG2R61     CG2R61     CG2R61
   17    18    19    40	 9 ;     CG2R61     CG2R61     CG2R61      HGR61
   39    18    19    20	 9 ;      HGR61     CG2R61     CG2R61     CG2R61
   39    18    19    40	 9 ;      HGR61     CG2R61     CG2R61      HGR61
   18    19    20    21	 9 ;     CG2R61     CG2R61     CG2R61     CG2R61
   18    19    20    41	 9 ;     CG2R61     CG2R61     CG2R61      HGR61
   40    19    20    21	 9 ;      HGR61     CG2R61     CG2R61     CG2R61
   40    19    20    41	 9 ;      HGR61     CG2R61     CG2R61      HGR61
   19    20    21    22	 9 ;     CG2R61     CG2R61     CG2R61     CG2R61
   19    20    21    42	 9 ;     CG2R61     CG2R61     CG2R61      HGR62
   41    20    21    22	 9 ;      HGR61     CG2R61     CG2R61     CG2R61
   41    20    21    42	 9 ;      HGR61     CG2R61     CG2R61      HGR62
   20    21    22    17	 9 ;     CG2R61     CG2R61     CG2R61     CG2R61
   20    21    22    23	 9 ;     CG2R61     CG2R61     CG2R61      CLGR1
   42    21    22    17	 9 ;      HGR62     CG2R61     CG2R61     CG2R61
   42    21    22    23	 9 ;      HGR62     CG2R61     CG2R61      CLGR1
    3    24    29    28	 9 ;     CG2R51     CG2R61     CG2R61     CG2R61
    3    24    29    46	 9 ;     CG2R51     CG2R61     CG2R61      HGR61
   25    24    29    28	 9 ;     CG2R61     CG2R61     CG2R61     CG2R61
   25    24    29    46	 9 ;     CG2R61     CG2R61     CG2R61      HGR61
    3    24    25    26	 9 ;     CG2R51     CG2R61     CG2R61     CG2R61
    3    24    25    43	 9 ;     CG2R51     CG2R61     CG2R61      HGR61
   29    24    25    26	 9 ;     CG2R61     CG2R61     CG2R61     CG2R61
   29    24    25    43	 9 ;     CG2R61     CG2R61     CG2R61      HGR61
   24    25    26    27	 9 ;     CG2R61     CG2R61     CG2R61     CG2R61
   24    25    26    44	 9 ;     CG2R61     CG2R61     CG2R61      HGR61
   43    25    26    27	 9 ;      HGR61     CG2R61     CG2R61     CG2R61
   43    25    26    44	 9 ;      HGR61     CG2R61     CG2R61      HGR61
   25    26    27    28	 9 ;     CG2R61     CG2R61     CG2R61     CG2R61
   25    26    27    30	 9 ;     CG2R61     CG2R61     CG2R61      OG301
   44    26    27    28	 9 ;      HGR61     CG2R61     CG2R61     CG2R61
   44    26    27    30	 9 ;      HGR61     CG2R61     CG2R61      OG301
   26    27    28    29	 9 ;     CG2R61     CG2R61     CG2R61     CG2R61
   26    27    28    45	 9 ;     CG2R61     CG2R61     CG2R61      HGR61
   30    27    28    29	 9 ;      OG301     CG2R61     CG2R61     CG2R61
   30    27    28    45	 9 ;      OG301     CG2R61     CG2R61      HGR61
   28    27    30    31	 9 ;     CG2R61     CG2R61      OG301      CG331
   26    27    30    31	 9 ;     CG2R61     CG2R61      OG301      CG331
   27    28    29    24	 9 ;     CG2R61     CG2R61     CG2R61     CG2R61
   27    28    29    46	 9 ;     CG2R61     CG2R61     CG2R61      HGR61
   45    28    29    24	 9 ;      HGR61     CG2R61     CG2R61     CG2R61
   45    28    29    46	 9 ;      HGR61     CG2R61     CG2R61      HGR61
   27    30    31    47	 9 ;     CG2R61      OG301      CG331       HGA3
   27    30    31    48	 9 ;     CG2R61      OG301      CG331       HGA3
   27    30    31    49	 9 ;     CG2R61      OG301      CG331       HGA3

[ dihedrals ]
;	ai	  aj	ak	  al funct			  c0			c1			  c2			c3
    9    11     8    14	 2

[ virtual_sites2 ]
; Site   from				funct a
   51    23    22     2   -0.164

[ exclusions ]
;	ai	  aj
   23    51
   51    22
   51    17
   51    21
   51     1
   51    18
   51    20
   51    42

