Georgetown Riga Oslo Madrid Amsterdam Chisinau Stockholm
   51
    1LIG     C1    1  -1.234   0.281  -1.572
    1LIG     N1    2  -1.338   0.375  -1.572
    1LIG     C2    3  -1.306   0.483  -1.656
    1LIG     C3    4  -1.183   0.453  -1.712
    1LIG     C4    5  -1.141   0.328  -1.664
    1LIG     C5    6  -1.454   0.372  -1.482
    1LIG     C6    7  -1.586   0.333  -1.549
    1LIG     N2    8  -1.704   0.375  -1.498
    1LIG     C7    9  -1.817   0.352  -1.566
    1LIG     HN   10  -1.707   0.424  -1.409
    1LIG     C8   11  -1.818   0.287  -1.689
    1LIG     C9   12  -1.698   0.238  -1.739
    1LIG    C10   13  -1.580   0.259  -1.668
    1LIG     N3   14  -1.935   0.403  -1.513
    1LIG     H1   15  -1.909   0.481  -1.454
    1LIG     H2   16  -1.988   0.333  -1.463
    1LIG    C11   17  -1.224   0.152  -1.497
    1LIG    C12   18  -1.231   0.029  -1.565
    1LIG    C13   19  -1.211  -0.094  -1.502
    1LIG    C14   20  -1.177  -0.097  -1.368
    1LIG    C15   21  -1.169   0.022  -1.296
    1LIG    C16   22  -1.196   0.145  -1.359
    1LIG     CL   23  -1.195   0.282  -1.253
    1LIG    C17   24  -1.383   0.607  -1.678
    1LIG    C18   25  -1.484   0.609  -1.776
    1LIG    C19   26  -1.561   0.724  -1.799
    1LIG    C20   27  -1.537   0.840  -1.725
    1LIG    C21   28  -1.439   0.838  -1.626
    1LIG    C22   29  -1.366   0.722  -1.600
    1LIG      O   30  -1.602   0.959  -1.740
    1LIG    C23   31  -1.681   1.003  -1.629
    1LIG     HC   32  -1.129   0.515  -1.782
    1LIG    HC1   33  -1.051   0.277  -1.694
    1LIG    HC2   34  -1.467   0.472  -1.440
    1LIG    HC3   35  -1.434   0.303  -1.401
    1LIG    HC4   36  -1.910   0.275  -1.744
    1LIG    HC5   37  -1.696   0.183  -1.832
    1LIG    HC6   38  -1.486   0.220  -1.704
    1LIG    HC7   39  -1.253   0.030  -1.671
    1LIG    HC8   40  -1.221  -0.185  -1.558
    1LIG    HC9   41  -1.156  -0.192  -1.319
    1LIG   HC10   42  -1.143   0.019  -1.191
    1LIG   HC11   43  -1.502   0.521  -1.835
    1LIG   HC12   44  -1.638   0.723  -1.874
    1LIG   HC13   45  -1.420   0.927  -1.569
    1LIG   HC14   46  -1.294   0.721  -1.520
    1LIG   HC15   47  -1.727   1.099  -1.653
    1LIG   HC16   48  -1.617   1.014  -1.541
    1LIG   HC17   49  -1.758   0.929  -1.609
    1LIG    H22   50  -1.590   0.241  -1.490
    1LIG    LP1   51  -1.194   0.413  -1.154
   0.00000   0.00000   0.00000
