GROwing Monsters And Cloning Shrimps
   98
    1LIG     N1    1  -1.580   0.368  -1.492
    1LIG     C1    2  -1.482   0.307  -1.569
    1LIG     O1    3  -1.511   0.249  -1.674
    1LIG     H1    4  -1.552   0.395  -1.396
    1LIG     C2    5  -1.720   0.387  -1.535
    1LIG     C3    6  -1.815   0.422  -1.417
    1LIG     C4    7  -1.959   0.376  -1.410
    1LIG     C5    8  -2.069   0.457  -1.382
    1LIG     C6    9  -2.197   0.400  -1.372
    1LIG     F1   10  -2.301   0.479  -1.345
    1LIG     C7   11  -2.218   0.264  -1.387
    1LIG     C8   12  -2.109   0.183  -1.414
    1LIG     C9   13  -1.982   0.237  -1.426
    1LIG     F2   14  -2.126   0.050  -1.428
    1LIG    C10   15  -1.728   0.507  -1.636
    1LIG     O2   16  -1.613   0.525  -1.721
    1LIG     H2   17  -1.533   0.492  -1.677
    1LIG    C11   18  -1.760   0.644  -1.575
    1LIG     N2   19  -1.865   0.713  -1.664
    1LIG    C12   20  -1.816   0.851  -1.687
    1LIG     H3   21  -1.876   0.661  -1.753
    1LIG     H4   22  -1.956   0.714  -1.616
    1LIG    C13   23  -1.727   0.876  -1.566
    1LIG    C14   24  -1.647   0.747  -1.566
    1LIG     O3   25  -1.647   0.992  -1.574
    1LIG    C15   26  -1.677   1.075  -1.688
    1LIG    C16   27  -1.557   1.107  -1.779
    1LIG    C17   28  -1.594   1.111  -1.926
    1LIG    C18   29  -1.336   0.327  -1.523
    1LIG     N3   30  -1.285   0.450  -1.585
    1LIG    C19   31  -1.312   0.583  -1.536
    1LIG    C20   32  -1.208   0.671  -1.605
    1LIG    C21   33  -1.170   0.596  -1.734
    1LIG    C22   34  -1.222   0.453  -1.708
    1LIG     O4   35  -1.212   0.355  -1.782
    1LIG     N4   36  -1.025   0.586  -1.756
    1LIG    C23   37  -0.940   0.695  -1.758
    1LIG     O5   38  -0.975   0.810  -1.735
    1LIG    C24   39  -0.798   0.658  -1.788
    1LIG     H5   40  -0.985   0.497  -1.781
    1LIG    C25   41  -1.243   0.650  -1.860
    1LIG    C26   42  -1.321   0.784  -1.850
    1LIG    C27   43  -1.255   0.901  -1.923
    1LIG    C28   44  -1.462   0.763  -1.908
    1LIG    C29   45  -1.320   0.328  -1.369
    1LIG    C30   46  -1.179   0.297  -1.318
    1LIG    C31   47  -1.146   0.150  -1.327
    1LIG    C32   48  -1.240   0.053  -1.289
    1LIG    C33   49  -1.209  -0.083  -1.295
    1LIG    C34   50  -1.084  -0.124  -1.339
    1LIG    C35   51  -0.989  -0.029  -1.377
    1LIG    C36   52  -1.020   0.107  -1.371
    1LIG     HC   53  -1.755   0.296  -1.584
    1LIG    HC2   54  -1.767   0.383  -1.327
    1LIG    HC3   55  -1.816   0.530  -1.408
    1LIG    HC1   56  -2.056   0.563  -1.369
    1LIG    HC4   57  -2.317   0.222  -1.378
    1LIG    HC5   58  -1.898   0.172  -1.447
    1LIG    HC6   59  -1.811   0.484  -1.703
    1LIG    HC7   60  -1.803   0.629  -1.475
    1LIG    HC8   61  -1.899   0.922  -1.690
    1LIG    HC9   62  -1.758   0.857  -1.779
    1LIG   HC10   63  -1.788   0.881  -1.476
    1LIG   HC11   64  -1.589   0.735  -1.475
    1LIG   HC12   65  -1.583   0.741  -1.654
    1LIG   HC13   66  -1.717   1.170  -1.651
    1LIG   HC14   67  -1.753   1.026  -1.748
    1LIG   HC15   68  -1.517   1.204  -1.750
    1LIG   HC16   69  -1.480   1.031  -1.763
    1LIG   HC17   70  -1.505   1.134  -1.985
    1LIG   HC18   71  -1.670   1.188  -1.943
    1LIG   HC19   72  -1.634   1.014  -1.956
    1LIG   HC20   73  -1.277   0.244  -1.562
    1LIG   HC21   74  -1.300   0.587  -1.428
    1LIG   HC22   75  -1.412   0.614  -1.564
    1LIG   HC23   76  -1.121   0.684  -1.541
    1LIG   HC24   77  -1.252   0.768  -1.629
    1LIG   HC25   78  -0.736   0.748  -1.787
    1LIG   HC26   79  -0.761   0.589  -1.711
    1LIG   HC27   80  -0.792   0.611  -1.885
    1LIG   HC28   81  -1.168   0.662  -1.938
    1LIG   HC29   82  -1.313   0.573  -1.893
    1LIG   HC30   83  -1.331   0.810  -1.745
    1LIG   HC31   84  -1.155   0.917  -1.883
    1LIG   HC32   85  -1.249   0.879  -2.029
    1LIG   HC33   86  -1.315   0.991  -1.908
    1LIG   HC34   87  -1.510   0.679  -1.857
    1LIG   HC35   88  -1.521   0.853  -1.893
    1LIG   HC36   89  -1.455   0.742  -2.015
    1LIG   HC37   90  -1.348   0.427  -1.333
    1LIG   HC38   91  -1.389   0.255  -1.327
    1LIG   HC39   92  -1.172   0.328  -1.214
    1LIG   HC40   93  -1.106   0.354  -1.377
    1LIG   HC41   94  -1.338   0.084  -1.254
    1LIG   HC42   95  -1.283  -0.157  -1.265
    1LIG   HC43   96  -1.059  -0.229  -1.344
    1LIG   HC44   97  -0.892  -0.060  -1.411
    1LIG   HC45   98  -0.946   0.180  -1.400
   0.00000   0.00000   0.00000
