; Created by cgenff_charmm2gmx.py

[ moleculetype ]
; Name			   nrexcl
LIG				 3

[ atoms ]
;	 nr		  type	resnr residue  atom   cgnr	   charge		mass  typeB    chargeB		massB
; residue	 1 LIG rtp LIG q	qsum
     1      NG2S1      1    LIG     N1      1     -0.385     14.007   ;
     2      CG2O1      1    LIG     C1      2      0.497     12.011   ;
     3      OG2D1      1    LIG     O1      3     -0.509     15.999   ;
     4       HGP1      1    LIG     H1      4      0.269      1.008   ;
     5      CG311      1    LIG     C2      5      0.112     12.011   ;
     6      CG321      1    LIG     C3      6     -0.149     12.011   ;
     7     CG2R61      1    LIG     C4      7      0.057     12.011   ;
     8     CG2R61      1    LIG     C5      8     -0.218     12.011   ;
     9     CG2R66      1    LIG     C6      9      0.261     12.011   ;
    10       FGR1      1    LIG     F1     10     -0.210     18.998   ;
    11     CG2R61      1    LIG     C7     11     -0.240     12.011   ;
    12     CG2R66      1    LIG     C8     12      0.261     12.011   ;
    13     CG2R61      1    LIG     C9     13     -0.218     12.011   ;
    14       FGR1      1    LIG     F2     14     -0.210     18.998   ;
    15      CG311      1    LIG    C10     15     -0.216     12.011   ;
    16      OG311      1    LIG     O2     16     -0.593     15.999   ;
    17       HGP1      1    LIG     H2     17      0.422      1.008   ;
    18     CG3C53      1    LIG    C11     18      0.379     12.011   ;
    19      NG3P2      1    LIG     N2     19     -0.259     14.007   ;
    20     CG3C54      1    LIG    C12     20     -0.434     12.011   ;
    21       HGP2      1    LIG     H3     21      0.302      1.008   ;
    22       HGP2      1    LIG     H4     22      0.302      1.008   ;
    23     CG3C51      1    LIG    C13     23      0.195     12.011   ;
    24     CG3C52      1    LIG    C14     24     -0.111     12.011   ;
    25      OG301      1    LIG     O3     25     -0.378     15.999   ;
    26      CG321      1    LIG    C15     26      0.110     12.011   ;
    27      CG321      1    LIG    C16     27     -0.196     12.011   ;
    28      CG331      1    LIG    C17     28     -0.270     12.011   ;
    29      CG311      1    LIG    C18     29      0.051     12.011   ;
    30     NG2R53      1    LIG     N3     30     -0.115     14.007   ;
    31     CG3C52      1    LIG    C19     31     -0.133     12.011   ;
    32     CG3C52      1    LIG    C20     32     -0.312     12.011   ;
    33     CG3C50      1    LIG    C21     33      0.631     12.011   ;
    34     CG2R53      1    LIG    C22     34      0.065     12.011   ;
    35      OG2D1      1    LIG     O4     35     -0.404     15.999   ;
    36      NG2S1      1    LIG     N4     36     -0.180     14.007   ;
    37      CG2O1      1    LIG    C23     37      0.398     12.011   ;
    38      OG2D1      1    LIG     O5     38     -0.536     15.999   ;
    39      CG331      1    LIG    C24     39     -0.269     12.011   ;
    40       HGP1      1    LIG     H5     40      0.256      1.008   ;
    41      CG321      1    LIG    C25     41     -0.301     12.011   ;
    42      CG311      1    LIG    C26     42     -0.111     12.011   ;
    43      CG331      1    LIG    C27     43     -0.267     12.011   ;
    44      CG331      1    LIG    C28     44     -0.267     12.011   ;
    45      CG321      1    LIG    C29     45     -0.187     12.011   ;
    46      CG321      1    LIG    C30     46     -0.185     12.011   ;
    47     CG2R61      1    LIG    C31     47      0.007     12.011   ;
    48     CG2R61      1    LIG    C32     48     -0.123     12.011   ;
    49     CG2R61      1    LIG    C33     49     -0.112     12.011   ;
    50     CG2R61      1    LIG    C34     50     -0.116     12.011   ;
    51     CG2R61      1    LIG    C35     51     -0.112     12.011   ;
    52     CG2R61      1    LIG    C36     52     -0.123     12.011   ;
    53       HGA1      1    LIG     HC     53      0.090      1.008   ;
    54       HGA2      1    LIG    HC2     54      0.090      1.008   ;
    55       HGA2      1    LIG    HC3     55      0.090      1.008   ;
    56      HGR62      1    LIG    HC1     56      0.174      1.008   ;
    57      HGR62      1    LIG    HC4     57      0.186      1.008   ;
    58      HGR62      1    LIG    HC5     58      0.174      1.008   ;
    59       HGA1      1    LIG    HC6     59      0.090      1.008   ;
    60       HGA1      1    LIG    HC7     60      0.090      1.008   ;
    61       HGA2      1    LIG    HC8     61      0.260      1.008   ;
    62       HGA2      1    LIG    HC9     62      0.260      1.008   ;
    63       HGA1      1    LIG   HC10     63      0.090      1.008   ;
    64       HGA2      1    LIG   HC11     64      0.090      1.008   ;
    65       HGA2      1    LIG   HC12     65      0.090      1.008   ;
    66       HGA2      1    LIG   HC13     66      0.090      1.008   ;
    67       HGA2      1    LIG   HC14     67      0.090      1.008   ;
    68       HGA2      1    LIG   HC15     68      0.090      1.008   ;
    69       HGA2      1    LIG   HC16     69      0.090      1.008   ;
    70       HGA3      1    LIG   HC17     70      0.090      1.008   ;
    71       HGA3      1    LIG   HC18     71      0.090      1.008   ;
    72       HGA3      1    LIG   HC19     72      0.090      1.008   ;
    73       HGA1      1    LIG   HC20     73      0.090      1.008   ;
    74       HGA2      1    LIG   HC21     74      0.090      1.008   ;
    75       HGA2      1    LIG   HC22     75      0.090      1.008   ;
    76       HGA2      1    LIG   HC23     76      0.090      1.008   ;
    77       HGA2      1    LIG   HC24     77      0.090      1.008   ;
    78       HGA3      1    LIG   HC25     78      0.090      1.008   ;
    79       HGA3      1    LIG   HC26     79      0.090      1.008   ;
    80       HGA3      1    LIG   HC27     80      0.090      1.008   ;
    81       HGA2      1    LIG   HC28     81      0.090      1.008   ;
    82       HGA2      1    LIG   HC29     82      0.090      1.008   ;
    83       HGA1      1    LIG   HC30     83      0.090      1.008   ;
    84       HGA3      1    LIG   HC31     84      0.090      1.008   ;
    85       HGA3      1    LIG   HC32     85      0.090      1.008   ;
    86       HGA3      1    LIG   HC33     86      0.090      1.008   ;
    87       HGA3      1    LIG   HC34     87      0.090      1.008   ;
    88       HGA3      1    LIG   HC35     88      0.090      1.008   ;
    89       HGA3      1    LIG   HC36     89      0.090      1.008   ;
    90       HGA2      1    LIG   HC37     90      0.090      1.008   ;
    91       HGA2      1    LIG   HC38     91      0.090      1.008   ;
    92       HGA2      1    LIG   HC39     92      0.090      1.008   ;
    93       HGA2      1    LIG   HC40     93      0.090      1.008   ;
    94      HGR61      1    LIG   HC41     94      0.116      1.008   ;
    95      HGR61      1    LIG   HC42     95      0.116      1.008   ;
    96      HGR61      1    LIG   HC43     96      0.116      1.008   ;
    97      HGR61      1    LIG   HC44     97      0.116      1.008   ;
    98      HGR61      1    LIG   HC45     98      0.116      1.008   ;

[ bonds ]
;	ai	  aj funct			  c0			c1			  c2			c3
    1     2	 1 ;       NG2S1      CG2O1
    1     4	 1 ;       NG2S1       HGP1
    1     5	 1 ;       NG2S1      CG311
    2    29	 1 ;       CG2O1      CG311
    2     3	 1 ;       CG2O1      OG2D1
    5    15	 1 ;       CG311      CG311
    5     6	 1 ;       CG311      CG321
    5    53	 1 ;       CG311       HGA1
    6     7	 1 ;       CG321     CG2R61
    6    54	 1 ;       CG321       HGA2
    6    55	 1 ;       CG321       HGA2
    7    13	 1 ;      CG2R61     CG2R61
    7     8	 1 ;      CG2R61     CG2R61
    8     9	 1 ;      CG2R61     CG2R66
    8    56	 1 ;      CG2R61      HGR62
    9    11	 1 ;      CG2R66     CG2R61
    9    10	 1 ;      CG2R66       FGR1
   11    12	 1 ;      CG2R61     CG2R66
   11    57	 1 ;      CG2R61      HGR62
   12    13	 1 ;      CG2R66     CG2R61
   12    14	 1 ;      CG2R66       FGR1
   13    58	 1 ;      CG2R61      HGR62
   15    16	 1 ;       CG311      OG311
   15    18	 1 ;       CG311     CG3C53
   15    59	 1 ;       CG311       HGA1
   16    17	 1 ;       OG311       HGP1
   18    24	 1 ;      CG3C53     CG3C52
   18    19	 1 ;      CG3C53      NG3P2
   18    60	 1 ;      CG3C53       HGA1
   19    20	 1 ;       NG3P2     CG3C54
   19    21	 1 ;       NG3P2       HGP2
   19    22	 1 ;       NG3P2       HGP2
   20    23	 1 ;      CG3C54     CG3C51
   20    61	 1 ;      CG3C54       HGA2
   20    62	 1 ;      CG3C54       HGA2
   23    25	 1 ;      CG3C51      OG301
   23    24	 1 ;      CG3C51     CG3C52
   23    63	 1 ;      CG3C51       HGA1
   24    64	 1 ;      CG3C52       HGA2
   24    65	 1 ;      CG3C52       HGA2
   25    26	 1 ;       OG301      CG321
   26    27	 1 ;       CG321      CG321
   26    66	 1 ;       CG321       HGA2
   26    67	 1 ;       CG321       HGA2
   27    28	 1 ;       CG321      CG331
   27    68	 1 ;       CG321       HGA2
   27    69	 1 ;       CG321       HGA2
   28    70	 1 ;       CG331       HGA3
   28    71	 1 ;       CG331       HGA3
   28    72	 1 ;       CG331       HGA3
   29    30	 1 ;       CG311     NG2R53
   29    45	 1 ;       CG311      CG321
   29    73	 1 ;       CG311       HGA1
   30    34	 1 ;      NG2R53     CG2R53
   30    31	 1 ;      NG2R53     CG3C52
   31    32	 1 ;      CG3C52     CG3C52
   31    74	 1 ;      CG3C52       HGA2
   31    75	 1 ;      CG3C52       HGA2
   32    33	 1 ;      CG3C52     CG3C50
   32    76	 1 ;      CG3C52       HGA2
   32    77	 1 ;      CG3C52       HGA2
   33    36	 1 ;      CG3C50      NG2S1
   33    41	 1 ;      CG3C50      CG321
   33    34	 1 ;      CG3C50     CG2R53
   34    35	 1 ;      CG2R53      OG2D1
   36    37	 1 ;       NG2S1      CG2O1
   36    40	 1 ;       NG2S1       HGP1
   37    39	 1 ;       CG2O1      CG331
   37    38	 1 ;       CG2O1      OG2D1
   39    78	 1 ;       CG331       HGA3
   39    79	 1 ;       CG331       HGA3
   39    80	 1 ;       CG331       HGA3
   41    42	 1 ;       CG321      CG311
   41    81	 1 ;       CG321       HGA2
   41    82	 1 ;       CG321       HGA2
   42    43	 1 ;       CG311      CG331
   42    44	 1 ;       CG311      CG331
   42    83	 1 ;       CG311       HGA1
   43    84	 1 ;       CG331       HGA3
   43    85	 1 ;       CG331       HGA3
   43    86	 1 ;       CG331       HGA3
   44    87	 1 ;       CG331       HGA3
   44    88	 1 ;       CG331       HGA3
   44    89	 1 ;       CG331       HGA3
   45    46	 1 ;       CG321      CG321
   45    90	 1 ;       CG321       HGA2
   45    91	 1 ;       CG321       HGA2
   46    47	 1 ;       CG321     CG2R61
   46    92	 1 ;       CG321       HGA2
   46    93	 1 ;       CG321       HGA2
   47    52	 1 ;      CG2R61     CG2R61
   47    48	 1 ;      CG2R61     CG2R61
   48    49	 1 ;      CG2R61     CG2R61
   48    94	 1 ;      CG2R61      HGR61
   49    50	 1 ;      CG2R61     CG2R61
   49    95	 1 ;      CG2R61      HGR61
   50    51	 1 ;      CG2R61     CG2R61
   50    96	 1 ;      CG2R61      HGR61
   51    52	 1 ;      CG2R61     CG2R61
   51    97	 1 ;      CG2R61      HGR61
   52    98	 1 ;      CG2R61      HGR61

[ pairs ]
;	ai	  aj funct			  c0			c1			  c2			c3
    1    30	 1
    1    45	 1
    1    73	 1
    1    16	 1
    1    18	 1
    1    59	 1
    1     7	 1
    1    54	 1
    1    55	 1
    2    15	 1
    2     6	 1
    2    53	 1
    2    34	 1
    2    31	 1
    2    46	 1
    2    90	 1
    2    91	 1
    3     4	 1
    3     5	 1
    3    30	 1
    3    45	 1
    3    73	 1
    4    29	 1
    4    15	 1
    4     6	 1
    4    53	 1
    5    29	 1
    5    13	 1
    5     8	 1
    5    17	 1
    5    24	 1
    5    19	 1
    5    60	 1
    6    16	 1
    6    18	 1
    6    59	 1
    6    12	 1
    6    58	 1
    6     9	 1
    6    56	 1
    7    15	 1
    7    53	 1
    7    11	 1
    7    10	 1
    7    14	 1
    8    54	 1
    8    55	 1
    8    12	 1
    8    58	 1
    8    57	 1
    9    13	 1
    9    14	 1
   10    56	 1
   10    12	 1
   10    57	 1
   11    56	 1
   11    58	 1
   13    54	 1
   13    55	 1
   13    56	 1
   13    57	 1
   14    57	 1
   14    58	 1
   15    54	 1
   15    55	 1
   15    23	 1
   15    64	 1
   15    65	 1
   15    20	 1
   15    21	 1
   15    22	 1
   16    53	 1
   16    24	 1
   16    19	 1
   16    60	 1
   17    18	 1
   17    59	 1
   18    53	 1
   18    61	 1
   18    62	 1
   18    25	 1
   18    63	 1
   19    59	 1
   19    64	 1
   19    65	 1
   19    25	 1
   19    63	 1
   20    60	 1
   20    26	 1
   20    64	 1
   20    65	 1
   21    24	 1
   21    60	 1
   21    23	 1
   21    61	 1
   21    62	 1
   22    24	 1
   22    60	 1
   22    23	 1
   22    61	 1
   22    62	 1
   23    60	 1
   23    27	 1
   23    66	 1
   23    67	 1
   24    59	 1
   24    61	 1
   24    62	 1
   24    26	 1
   25    61	 1
   25    62	 1
   25    64	 1
   25    65	 1
   25    28	 1
   25    68	 1
   25    69	 1
   26    63	 1
   26    70	 1
   26    71	 1
   26    72	 1
   28    66	 1
   28    67	 1
   29    33	 1
   29    35	 1
   29    32	 1
   29    74	 1
   29    75	 1
   29    47	 1
   29    92	 1
   29    93	 1
   30    46	 1
   30    90	 1
   30    91	 1
   30    76	 1
   30    77	 1
   30    36	 1
   30    41	 1
   31    45	 1
   31    73	 1
   31    35	 1
   31    36	 1
   31    41	 1
   32    37	 1
   32    40	 1
   32    42	 1
   32    81	 1
   32    82	 1
   32    35	 1
   33    74	 1
   33    75	 1
   33    39	 1
   33    38	 1
   33    43	 1
   33    44	 1
   33    83	 1
   34    45	 1
   34    73	 1
   34    74	 1
   34    75	 1
   34    76	 1
   34    77	 1
   34    37	 1
   34    40	 1
   34    42	 1
   34    81	 1
   34    82	 1
   35    36	 1
   35    41	 1
   36    76	 1
   36    77	 1
   36    42	 1
   36    81	 1
   36    82	 1
   36    78	 1
   36    79	 1
   36    80	 1
   37    41	 1
   38    40	 1
   38    78	 1
   38    79	 1
   38    80	 1
   39    40	 1
   40    41	 1
   41    76	 1
   41    77	 1
   41    84	 1
   41    85	 1
   41    86	 1
   41    87	 1
   41    88	 1
   41    89	 1
   43    81	 1
   43    82	 1
   43    87	 1
   43    88	 1
   43    89	 1
   44    81	 1
   44    82	 1
   44    84	 1
   44    85	 1
   44    86	 1
   45    52	 1
   45    48	 1
   46    73	 1
   46    51	 1
   46    98	 1
   46    49	 1
   46    94	 1
   47    90	 1
   47    91	 1
   47    50	 1
   47    95	 1
   47    97	 1
   48    92	 1
   48    93	 1
   48    51	 1
   48    98	 1
   48    96	 1
   49    52	 1
   49    97	 1
   50    94	 1
   50    98	 1
   51    95	 1
   52    92	 1
   52    93	 1
   52    94	 1
   52    96	 1
   53    59	 1
   53    54	 1
   53    55	 1
   59    60	 1
   60    64	 1
   60    65	 1
   61    63	 1
   62    63	 1
   63    64	 1
   63    65	 1
   66    68	 1
   66    69	 1
   67    68	 1
   67    69	 1
   68    70	 1
   68    71	 1
   68    72	 1
   69    70	 1
   69    71	 1
   69    72	 1
   73    90	 1
   73    91	 1
   74    76	 1
   74    77	 1
   75    76	 1
   75    77	 1
   81    83	 1
   82    83	 1
   83    84	 1
   83    85	 1
   83    86	 1
   83    87	 1
   83    88	 1
   83    89	 1
   90    92	 1
   90    93	 1
   91    92	 1
   91    93	 1
   94    95	 1
   95    96	 1
   96    97	 1
   97    98	 1

[ angles ]
;	ai	  aj	ak funct			c0			  c1			c2			  c3
    2     1     4	5 ;      CG2O1      NG2S1       HGP1
    2     1     5	5 ;      CG2O1      NG2S1      CG311
    4     1     5	5 ;       HGP1      NG2S1      CG311
   29     2     3	5 ;      CG311      CG2O1      OG2D1
   29     2     1	5 ;      CG311      CG2O1      NG2S1
    3     2     1	5 ;      OG2D1      CG2O1      NG2S1
    1     5    15	5 ;      NG2S1      CG311      CG311
    1     5     6	5 ;      NG2S1      CG311      CG321
    1     5    53	5 ;      NG2S1      CG311       HGA1
   15     5     6	5 ;      CG311      CG311      CG321
   15     5    53	5 ;      CG311      CG311       HGA1
    6     5    53	5 ;      CG321      CG311       HGA1
    5     6     7	5 ;      CG311      CG321     CG2R61
    5     6    54	5 ;      CG311      CG321       HGA2
    5     6    55	5 ;      CG311      CG321       HGA2
    7     6    54	5 ;     CG2R61      CG321       HGA2
    7     6    55	5 ;     CG2R61      CG321       HGA2
   54     6    55	5 ;       HGA2      CG321       HGA2
    6     7    13	5 ;      CG321     CG2R61     CG2R61
    6     7     8	5 ;      CG321     CG2R61     CG2R61
   13     7     8	5 ;     CG2R61     CG2R61     CG2R61
    7     8     9	5 ;     CG2R61     CG2R61     CG2R66
    7     8    56	5 ;     CG2R61     CG2R61      HGR62
    9     8    56	5 ;     CG2R66     CG2R61      HGR62
    8     9    11	5 ;     CG2R61     CG2R66     CG2R61
    8     9    10	5 ;     CG2R61     CG2R66       FGR1
   11     9    10	5 ;     CG2R61     CG2R66       FGR1
   12    11     9	5 ;     CG2R66     CG2R61     CG2R66
   12    11    57	5 ;     CG2R66     CG2R61      HGR62
    9    11    57	5 ;     CG2R66     CG2R61      HGR62
   13    12    14	5 ;     CG2R61     CG2R66       FGR1
   13    12    11	5 ;     CG2R61     CG2R66     CG2R61
   14    12    11	5 ;       FGR1     CG2R66     CG2R61
    7    13    12	5 ;     CG2R61     CG2R61     CG2R66
    7    13    58	5 ;     CG2R61     CG2R61      HGR62
   12    13    58	5 ;     CG2R66     CG2R61      HGR62
   16    15    18	5 ;      OG311      CG311     CG3C53
   16    15     5	5 ;      OG311      CG311      CG311
   16    15    59	5 ;      OG311      CG311       HGA1
   18    15     5	5 ;     CG3C53      CG311      CG311
   18    15    59	5 ;     CG3C53      CG311       HGA1
    5    15    59	5 ;      CG311      CG311       HGA1
   17    16    15	5 ;       HGP1      OG311      CG311
   24    18    15	5 ;     CG3C52     CG3C53      CG311
   24    18    19	5 ;     CG3C52     CG3C53      NG3P2
   24    18    60	5 ;     CG3C52     CG3C53       HGA1
   15    18    19	5 ;      CG311     CG3C53      NG3P2
   15    18    60	5 ;      CG311     CG3C53       HGA1
   19    18    60	5 ;      NG3P2     CG3C53       HGA1
   20    19    21	5 ;     CG3C54      NG3P2       HGP2
   20    19    18	5 ;     CG3C54      NG3P2     CG3C53
   20    19    22	5 ;     CG3C54      NG3P2       HGP2
   21    19    18	5 ;       HGP2      NG3P2     CG3C53
   21    19    22	5 ;       HGP2      NG3P2       HGP2
   18    19    22	5 ;     CG3C53      NG3P2       HGP2
   23    20    19	5 ;     CG3C51     CG3C54      NG3P2
   23    20    61	5 ;     CG3C51     CG3C54       HGA2
   23    20    62	5 ;     CG3C51     CG3C54       HGA2
   19    20    61	5 ;      NG3P2     CG3C54       HGA2
   19    20    62	5 ;      NG3P2     CG3C54       HGA2
   61    20    62	5 ;       HGA2     CG3C54       HGA2
   25    23    24	5 ;      OG301     CG3C51     CG3C52
   25    23    20	5 ;      OG301     CG3C51     CG3C54
   25    23    63	5 ;      OG301     CG3C51       HGA1
   24    23    20	5 ;     CG3C52     CG3C51     CG3C54
   24    23    63	5 ;     CG3C52     CG3C51       HGA1
   20    23    63	5 ;     CG3C54     CG3C51       HGA1
   23    24    18	5 ;     CG3C51     CG3C52     CG3C53
   23    24    64	5 ;     CG3C51     CG3C52       HGA2
   23    24    65	5 ;     CG3C51     CG3C52       HGA2
   18    24    64	5 ;     CG3C53     CG3C52       HGA2
   18    24    65	5 ;     CG3C53     CG3C52       HGA2
   64    24    65	5 ;       HGA2     CG3C52       HGA2
   26    25    23	5 ;      CG321      OG301     CG3C51
   27    26    25	5 ;      CG321      CG321      OG301
   27    26    66	5 ;      CG321      CG321       HGA2
   27    26    67	5 ;      CG321      CG321       HGA2
   25    26    66	5 ;      OG301      CG321       HGA2
   25    26    67	5 ;      OG301      CG321       HGA2
   66    26    67	5 ;       HGA2      CG321       HGA2
   28    27    26	5 ;      CG331      CG321      CG321
   28    27    68	5 ;      CG331      CG321       HGA2
   28    27    69	5 ;      CG331      CG321       HGA2
   26    27    68	5 ;      CG321      CG321       HGA2
   26    27    69	5 ;      CG321      CG321       HGA2
   68    27    69	5 ;       HGA2      CG321       HGA2
   27    28    70	5 ;      CG321      CG331       HGA3
   27    28    71	5 ;      CG321      CG331       HGA3
   27    28    72	5 ;      CG321      CG331       HGA3
   70    28    71	5 ;       HGA3      CG331       HGA3
   70    28    72	5 ;       HGA3      CG331       HGA3
   71    28    72	5 ;       HGA3      CG331       HGA3
   30    29    45	5 ;     NG2R53      CG311      CG321
   30    29     2	5 ;     NG2R53      CG311      CG2O1
   30    29    73	5 ;     NG2R53      CG311       HGA1
   45    29     2	5 ;      CG321      CG311      CG2O1
   45    29    73	5 ;      CG321      CG311       HGA1
    2    29    73	5 ;      CG2O1      CG311       HGA1
   34    30    31	5 ;     CG2R53     NG2R53     CG3C52
   34    30    29	5 ;     CG2R53     NG2R53      CG311
   31    30    29	5 ;     CG3C52     NG2R53      CG311
   32    31    30	5 ;     CG3C52     CG3C52     NG2R53
   32    31    74	5 ;     CG3C52     CG3C52       HGA2
   32    31    75	5 ;     CG3C52     CG3C52       HGA2
   30    31    74	5 ;     NG2R53     CG3C52       HGA2
   30    31    75	5 ;     NG2R53     CG3C52       HGA2
   74    31    75	5 ;       HGA2     CG3C52       HGA2
   33    32    31	5 ;     CG3C50     CG3C52     CG3C52
   33    32    76	5 ;     CG3C50     CG3C52       HGA2
   33    32    77	5 ;     CG3C50     CG3C52       HGA2
   31    32    76	5 ;     CG3C52     CG3C52       HGA2
   31    32    77	5 ;     CG3C52     CG3C52       HGA2
   76    32    77	5 ;       HGA2     CG3C52       HGA2
   36    33    41	5 ;      NG2S1     CG3C50      CG321
   36    33    34	5 ;      NG2S1     CG3C50     CG2R53
   36    33    32	5 ;      NG2S1     CG3C50     CG3C52
   41    33    34	5 ;      CG321     CG3C50     CG2R53
   41    33    32	5 ;      CG321     CG3C50     CG3C52
   34    33    32	5 ;     CG2R53     CG3C50     CG3C52
   33    34    35	5 ;     CG3C50     CG2R53      OG2D1
   33    34    30	5 ;     CG3C50     CG2R53     NG2R53
   35    34    30	5 ;      OG2D1     CG2R53     NG2R53
   37    36    40	5 ;      CG2O1      NG2S1       HGP1
   37    36    33	5 ;      CG2O1      NG2S1     CG3C50
   40    36    33	5 ;       HGP1      NG2S1     CG3C50
   39    37    38	5 ;      CG331      CG2O1      OG2D1
   39    37    36	5 ;      CG331      CG2O1      NG2S1
   38    37    36	5 ;      OG2D1      CG2O1      NG2S1
   37    39    78	5 ;      CG2O1      CG331       HGA3
   37    39    79	5 ;      CG2O1      CG331       HGA3
   37    39    80	5 ;      CG2O1      CG331       HGA3
   78    39    79	5 ;       HGA3      CG331       HGA3
   78    39    80	5 ;       HGA3      CG331       HGA3
   79    39    80	5 ;       HGA3      CG331       HGA3
   33    41    42	5 ;     CG3C50      CG321      CG311
   33    41    81	5 ;     CG3C50      CG321       HGA2
   33    41    82	5 ;     CG3C50      CG321       HGA2
   42    41    81	5 ;      CG311      CG321       HGA2
   42    41    82	5 ;      CG311      CG321       HGA2
   81    41    82	5 ;       HGA2      CG321       HGA2
   43    42    41	5 ;      CG331      CG311      CG321
   43    42    44	5 ;      CG331      CG311      CG331
   43    42    83	5 ;      CG331      CG311       HGA1
   41    42    44	5 ;      CG321      CG311      CG331
   41    42    83	5 ;      CG321      CG311       HGA1
   44    42    83	5 ;      CG331      CG311       HGA1
   42    43    84	5 ;      CG311      CG331       HGA3
   42    43    85	5 ;      CG311      CG331       HGA3
   42    43    86	5 ;      CG311      CG331       HGA3
   84    43    85	5 ;       HGA3      CG331       HGA3
   84    43    86	5 ;       HGA3      CG331       HGA3
   85    43    86	5 ;       HGA3      CG331       HGA3
   42    44    87	5 ;      CG311      CG331       HGA3
   42    44    88	5 ;      CG311      CG331       HGA3
   42    44    89	5 ;      CG311      CG331       HGA3
   87    44    88	5 ;       HGA3      CG331       HGA3
   87    44    89	5 ;       HGA3      CG331       HGA3
   88    44    89	5 ;       HGA3      CG331       HGA3
   46    45    29	5 ;      CG321      CG321      CG311
   46    45    90	5 ;      CG321      CG321       HGA2
   46    45    91	5 ;      CG321      CG321       HGA2
   29    45    90	5 ;      CG311      CG321       HGA2
   29    45    91	5 ;      CG311      CG321       HGA2
   90    45    91	5 ;       HGA2      CG321       HGA2
   47    46    45	5 ;     CG2R61      CG321      CG321
   47    46    92	5 ;     CG2R61      CG321       HGA2
   47    46    93	5 ;     CG2R61      CG321       HGA2
   45    46    92	5 ;      CG321      CG321       HGA2
   45    46    93	5 ;      CG321      CG321       HGA2
   92    46    93	5 ;       HGA2      CG321       HGA2
   52    47    46	5 ;     CG2R61     CG2R61      CG321
   52    47    48	5 ;     CG2R61     CG2R61     CG2R61
   46    47    48	5 ;      CG321     CG2R61     CG2R61
   47    48    49	5 ;     CG2R61     CG2R61     CG2R61
   47    48    94	5 ;     CG2R61     CG2R61      HGR61
   49    48    94	5 ;     CG2R61     CG2R61      HGR61
   50    49    48	5 ;     CG2R61     CG2R61     CG2R61
   50    49    95	5 ;     CG2R61     CG2R61      HGR61
   48    49    95	5 ;     CG2R61     CG2R61      HGR61
   51    50    49	5 ;     CG2R61     CG2R61     CG2R61
   51    50    96	5 ;     CG2R61     CG2R61      HGR61
   49    50    96	5 ;     CG2R61     CG2R61      HGR61
   52    51    50	5 ;     CG2R61     CG2R61     CG2R61
   52    51    97	5 ;     CG2R61     CG2R61      HGR61
   50    51    97	5 ;     CG2R61     CG2R61      HGR61
   51    52    47	5 ;     CG2R61     CG2R61     CG2R61
   51    52    98	5 ;     CG2R61     CG2R61      HGR61
   47    52    98	5 ;     CG2R61     CG2R61      HGR61

[ dihedrals ]
;	ai	  aj	ak	  al funct			  c0			c1			  c2			c3			  c4			c5
    4     1     2    29	 9 ;       HGP1      NG2S1      CG2O1      CG311
    4     1     2     3	 9 ;       HGP1      NG2S1      CG2O1      OG2D1
    5     1     2    29	 9 ;      CG311      NG2S1      CG2O1      CG311
    5     1     2     3	 9 ;      CG311      NG2S1      CG2O1      OG2D1
    2     1     5    15	 9 ;      CG2O1      NG2S1      CG311      CG311
    2     1     5     6	 9 ;      CG2O1      NG2S1      CG311      CG321
    2     1     5    53	 9 ;      CG2O1      NG2S1      CG311       HGA1
    4     1     5    15	 9 ;       HGP1      NG2S1      CG311      CG311
    4     1     5     6	 9 ;       HGP1      NG2S1      CG311      CG321
    4     1     5    53	 9 ;       HGP1      NG2S1      CG311       HGA1
    3     2    29    30	 9 ;      OG2D1      CG2O1      CG311     NG2R53
    3     2    29    45	 9 ;      OG2D1      CG2O1      CG311      CG321
    3     2    29    73	 9 ;      OG2D1      CG2O1      CG311       HGA1
    1     2    29    30	 9 ;      NG2S1      CG2O1      CG311     NG2R53
    1     2    29    45	 9 ;      NG2S1      CG2O1      CG311      CG321
    1     2    29    73	 9 ;      NG2S1      CG2O1      CG311       HGA1
    1     5    15    16	 9 ;      NG2S1      CG311      CG311      OG311
    1     5    15    18	 9 ;      NG2S1      CG311      CG311     CG3C53
    1     5    15    59	 9 ;      NG2S1      CG311      CG311       HGA1
    6     5    15    16	 9 ;      CG321      CG311      CG311      OG311
    6     5    15    18	 9 ;      CG321      CG311      CG311     CG3C53
    6     5    15    59	 9 ;      CG321      CG311      CG311       HGA1
   53     5    15    16	 9 ;       HGA1      CG311      CG311      OG311
   53     5    15    18	 9 ;       HGA1      CG311      CG311     CG3C53
   53     5    15    59	 9 ;       HGA1      CG311      CG311       HGA1
    1     5     6     7	 9 ;      NG2S1      CG311      CG321     CG2R61
    1     5     6    54	 9 ;      NG2S1      CG311      CG321       HGA2
    1     5     6    55	 9 ;      NG2S1      CG311      CG321       HGA2
   15     5     6     7	 9 ;      CG311      CG311      CG321     CG2R61
   15     5     6    54	 9 ;      CG311      CG311      CG321       HGA2
   15     5     6    55	 9 ;      CG311      CG311      CG321       HGA2
   53     5     6     7	 9 ;       HGA1      CG311      CG321     CG2R61
   53     5     6    54	 9 ;       HGA1      CG311      CG321       HGA2
   53     5     6    55	 9 ;       HGA1      CG311      CG321       HGA2
    5     6     7    13	 9 ;      CG311      CG321     CG2R61     CG2R61
    5     6     7     8	 9 ;      CG311      CG321     CG2R61     CG2R61
   54     6     7    13	 9 ;       HGA2      CG321     CG2R61     CG2R61
   54     6     7     8	 9 ;       HGA2      CG321     CG2R61     CG2R61
   55     6     7    13	 9 ;       HGA2      CG321     CG2R61     CG2R61
   55     6     7     8	 9 ;       HGA2      CG321     CG2R61     CG2R61
    6     7    13    12	 9 ;      CG321     CG2R61     CG2R61     CG2R66
    6     7    13    58	 9 ;      CG321     CG2R61     CG2R61      HGR62
    8     7    13    12	 9 ;     CG2R61     CG2R61     CG2R61     CG2R66
    8     7    13    58	 9 ;     CG2R61     CG2R61     CG2R61      HGR62
    6     7     8     9	 9 ;      CG321     CG2R61     CG2R61     CG2R66
    6     7     8    56	 9 ;      CG321     CG2R61     CG2R61      HGR62
   13     7     8     9	 9 ;     CG2R61     CG2R61     CG2R61     CG2R66
   13     7     8    56	 9 ;     CG2R61     CG2R61     CG2R61      HGR62
    7     8     9    11	 9 ;     CG2R61     CG2R61     CG2R66     CG2R61
    7     8     9    10	 9 ;     CG2R61     CG2R61     CG2R66       FGR1
   56     8     9    11	 9 ;      HGR62     CG2R61     CG2R66     CG2R61
   56     8     9    10	 9 ;      HGR62     CG2R61     CG2R66       FGR1
    8     9    11    12	 9 ;     CG2R61     CG2R66     CG2R61     CG2R66
    8     9    11    57	 9 ;     CG2R61     CG2R66     CG2R61      HGR62
   10     9    11    12	 9 ;       FGR1     CG2R66     CG2R61     CG2R66
   10     9    11    57	 9 ;       FGR1     CG2R66     CG2R61      HGR62
    9    11    12    13	 9 ;     CG2R66     CG2R61     CG2R66     CG2R61
    9    11    12    14	 9 ;     CG2R66     CG2R61     CG2R66       FGR1
   57    11    12    13	 9 ;      HGR62     CG2R61     CG2R66     CG2R61
   57    11    12    14	 9 ;      HGR62     CG2R61     CG2R66       FGR1
   14    12    13     7	 9 ;       FGR1     CG2R66     CG2R61     CG2R61
   14    12    13    58	 9 ;       FGR1     CG2R66     CG2R61      HGR62
   11    12    13     7	 9 ;     CG2R61     CG2R66     CG2R61     CG2R61
   11    12    13    58	 9 ;     CG2R61     CG2R66     CG2R61      HGR62
   18    15    16    17	 9 ;     CG3C53      CG311      OG311       HGP1
    5    15    16    17	 9 ;      CG311      CG311      OG311       HGP1
   59    15    16    17	 9 ;       HGA1      CG311      OG311       HGP1
   16    15    18    24	 9 ;      OG311      CG311     CG3C53     CG3C52
   16    15    18    19	 9 ;      OG311      CG311     CG3C53      NG3P2
   16    15    18    60	 9 ;      OG311      CG311     CG3C53       HGA1
    5    15    18    24	 9 ;      CG311      CG311     CG3C53     CG3C52
    5    15    18    19	 9 ;      CG311      CG311     CG3C53      NG3P2
    5    15    18    60	 9 ;      CG311      CG311     CG3C53       HGA1
   59    15    18    24	 9 ;       HGA1      CG311     CG3C53     CG3C52
   59    15    18    19	 9 ;       HGA1      CG311     CG3C53      NG3P2
   59    15    18    60	 9 ;       HGA1      CG311     CG3C53       HGA1
   15    18    24    23	 9 ;      CG311     CG3C53     CG3C52     CG3C51
   15    18    24    64	 9 ;      CG311     CG3C53     CG3C52       HGA2
   15    18    24    65	 9 ;      CG311     CG3C53     CG3C52       HGA2
   19    18    24    23	 9 ;      NG3P2     CG3C53     CG3C52     CG3C51
   19    18    24    64	 9 ;      NG3P2     CG3C53     CG3C52       HGA2
   19    18    24    65	 9 ;      NG3P2     CG3C53     CG3C52       HGA2
   60    18    24    23	 9 ;       HGA1     CG3C53     CG3C52     CG3C51
   60    18    24    64	 9 ;       HGA1     CG3C53     CG3C52       HGA2
   60    18    24    65	 9 ;       HGA1     CG3C53     CG3C52       HGA2
   24    18    19    20	 9 ;     CG3C52     CG3C53      NG3P2     CG3C54
   24    18    19    21	 9 ;     CG3C52     CG3C53      NG3P2       HGP2
   24    18    19    22	 9 ;     CG3C52     CG3C53      NG3P2       HGP2
   15    18    19    20	 9 ;      CG311     CG3C53      NG3P2     CG3C54
   15    18    19    21	 9 ;      CG311     CG3C53      NG3P2       HGP2
   15    18    19    22	 9 ;      CG311     CG3C53      NG3P2       HGP2
   60    18    19    20	 9 ;       HGA1     CG3C53      NG3P2     CG3C54
   60    18    19    21	 9 ;       HGA1     CG3C53      NG3P2       HGP2
   60    18    19    22	 9 ;       HGA1     CG3C53      NG3P2       HGP2
   21    19    20    23	 9 ;       HGP2      NG3P2     CG3C54     CG3C51
   21    19    20    61	 9 ;       HGP2      NG3P2     CG3C54       HGA2
   21    19    20    62	 9 ;       HGP2      NG3P2     CG3C54       HGA2
   18    19    20    23	 9 ;     CG3C53      NG3P2     CG3C54     CG3C51
   18    19    20    61	 9 ;     CG3C53      NG3P2     CG3C54       HGA2
   18    19    20    62	 9 ;     CG3C53      NG3P2     CG3C54       HGA2
   22    19    20    23	 9 ;       HGP2      NG3P2     CG3C54     CG3C51
   22    19    20    61	 9 ;       HGP2      NG3P2     CG3C54       HGA2
   22    19    20    62	 9 ;       HGP2      NG3P2     CG3C54       HGA2
   19    20    23    25	 9 ;      NG3P2     CG3C54     CG3C51      OG301
   19    20    23    24	 9 ;      NG3P2     CG3C54     CG3C51     CG3C52
   19    20    23    63	 9 ;      NG3P2     CG3C54     CG3C51       HGA1
   61    20    23    25	 9 ;       HGA2     CG3C54     CG3C51      OG301
   61    20    23    24	 9 ;       HGA2     CG3C54     CG3C51     CG3C52
   61    20    23    63	 9 ;       HGA2     CG3C54     CG3C51       HGA1
   62    20    23    25	 9 ;       HGA2     CG3C54     CG3C51      OG301
   62    20    23    24	 9 ;       HGA2     CG3C54     CG3C51     CG3C52
   62    20    23    63	 9 ;       HGA2     CG3C54     CG3C51       HGA1
   24    23    25    26	 9 ;     CG3C52     CG3C51      OG301      CG321
   20    23    25    26	 9 ;     CG3C54     CG3C51      OG301      CG321
   63    23    25    26	 9 ;       HGA1     CG3C51      OG301      CG321
   25    23    24    18	 9 ;      OG301     CG3C51     CG3C52     CG3C53
   25    23    24    64	 9 ;      OG301     CG3C51     CG3C52       HGA2
   25    23    24    65	 9 ;      OG301     CG3C51     CG3C52       HGA2
   20    23    24    18	 9 ;     CG3C54     CG3C51     CG3C52     CG3C53
   20    23    24    64	 9 ;     CG3C54     CG3C51     CG3C52       HGA2
   20    23    24    65	 9 ;     CG3C54     CG3C51     CG3C52       HGA2
   63    23    24    18	 9 ;       HGA1     CG3C51     CG3C52     CG3C53
   63    23    24    64	 9 ;       HGA1     CG3C51     CG3C52       HGA2
   63    23    24    65	 9 ;       HGA1     CG3C51     CG3C52       HGA2
   23    25    26    27	 9 ;     CG3C51      OG301      CG321      CG321
   23    25    26    66	 9 ;     CG3C51      OG301      CG321       HGA2
   23    25    26    67	 9 ;     CG3C51      OG301      CG321       HGA2
   25    26    27    28	 9 ;      OG301      CG321      CG321      CG331
   25    26    27    68	 9 ;      OG301      CG321      CG321       HGA2
   25    26    27    69	 9 ;      OG301      CG321      CG321       HGA2
   66    26    27    28	 9 ;       HGA2      CG321      CG321      CG331
   66    26    27    68	 9 ;       HGA2      CG321      CG321       HGA2
   66    26    27    69	 9 ;       HGA2      CG321      CG321       HGA2
   67    26    27    28	 9 ;       HGA2      CG321      CG321      CG331
   67    26    27    68	 9 ;       HGA2      CG321      CG321       HGA2
   67    26    27    69	 9 ;       HGA2      CG321      CG321       HGA2
   26    27    28    70	 9 ;      CG321      CG321      CG331       HGA3
   26    27    28    71	 9 ;      CG321      CG321      CG331       HGA3
   26    27    28    72	 9 ;      CG321      CG321      CG331       HGA3
   68    27    28    70	 9 ;       HGA2      CG321      CG331       HGA3
   68    27    28    71	 9 ;       HGA2      CG321      CG331       HGA3
   68    27    28    72	 9 ;       HGA2      CG321      CG331       HGA3
   69    27    28    70	 9 ;       HGA2      CG321      CG331       HGA3
   69    27    28    71	 9 ;       HGA2      CG321      CG331       HGA3
   69    27    28    72	 9 ;       HGA2      CG321      CG331       HGA3
   45    29    30    34	 9 ;      CG321      CG311     NG2R53     CG2R53
   45    29    30    31	 9 ;      CG321      CG311     NG2R53     CG3C52
    2    29    30    34	 9 ;      CG2O1      CG311     NG2R53     CG2R53
    2    29    30    31	 9 ;      CG2O1      CG311     NG2R53     CG3C52
   73    29    30    34	 9 ;       HGA1      CG311     NG2R53     CG2R53
   73    29    30    31	 9 ;       HGA1      CG311     NG2R53     CG3C52
   30    29    45    46	 9 ;     NG2R53      CG311      CG321      CG321
   30    29    45    90	 9 ;     NG2R53      CG311      CG321       HGA2
   30    29    45    91	 9 ;     NG2R53      CG311      CG321       HGA2
    2    29    45    46	 9 ;      CG2O1      CG311      CG321      CG321
    2    29    45    90	 9 ;      CG2O1      CG311      CG321       HGA2
    2    29    45    91	 9 ;      CG2O1      CG311      CG321       HGA2
   73    29    45    46	 9 ;       HGA1      CG311      CG321      CG321
   73    29    45    90	 9 ;       HGA1      CG311      CG321       HGA2
   73    29    45    91	 9 ;       HGA1      CG311      CG321       HGA2
   31    30    34    33	 9 ;     CG3C52     NG2R53     CG2R53     CG3C50
   31    30    34    35	 9 ;     CG3C52     NG2R53     CG2R53      OG2D1
   29    30    34    33	 9 ;      CG311     NG2R53     CG2R53     CG3C50
   29    30    34    35	 9 ;      CG311     NG2R53     CG2R53      OG2D1
   34    30    31    32	 9 ;     CG2R53     NG2R53     CG3C52     CG3C52
   34    30    31    74	 9 ;     CG2R53     NG2R53     CG3C52       HGA2
   34    30    31    75	 9 ;     CG2R53     NG2R53     CG3C52       HGA2
   29    30    31    32	 9 ;      CG311     NG2R53     CG3C52     CG3C52
   29    30    31    74	 9 ;      CG311     NG2R53     CG3C52       HGA2
   29    30    31    75	 9 ;      CG311     NG2R53     CG3C52       HGA2
   30    31    32    33	 9 ;     NG2R53     CG3C52     CG3C52     CG3C50
   30    31    32    76	 9 ;     NG2R53     CG3C52     CG3C52       HGA2
   30    31    32    77	 9 ;     NG2R53     CG3C52     CG3C52       HGA2
   74    31    32    33	 9 ;       HGA2     CG3C52     CG3C52     CG3C50
   74    31    32    76	 9 ;       HGA2     CG3C52     CG3C52       HGA2
   74    31    32    77	 9 ;       HGA2     CG3C52     CG3C52       HGA2
   75    31    32    33	 9 ;       HGA2     CG3C52     CG3C52     CG3C50
   75    31    32    76	 9 ;       HGA2     CG3C52     CG3C52       HGA2
   75    31    32    77	 9 ;       HGA2     CG3C52     CG3C52       HGA2
   31    32    33    36	 9 ;     CG3C52     CG3C52     CG3C50      NG2S1
   31    32    33    41	 9 ;     CG3C52     CG3C52     CG3C50      CG321
   31    32    33    34	 9 ;     CG3C52     CG3C52     CG3C50     CG2R53
   76    32    33    36	 9 ;       HGA2     CG3C52     CG3C50      NG2S1
   76    32    33    41	 9 ;       HGA2     CG3C52     CG3C50      CG321
   76    32    33    34	 9 ;       HGA2     CG3C52     CG3C50     CG2R53
   77    32    33    36	 9 ;       HGA2     CG3C52     CG3C50      NG2S1
   77    32    33    41	 9 ;       HGA2     CG3C52     CG3C50      CG321
   77    32    33    34	 9 ;       HGA2     CG3C52     CG3C50     CG2R53
   41    33    36    37	 9 ;      CG321     CG3C50      NG2S1      CG2O1
   41    33    36    40	 9 ;      CG321     CG3C50      NG2S1       HGP1
   34    33    36    37	 9 ;     CG2R53     CG3C50      NG2S1      CG2O1
   34    33    36    40	 9 ;     CG2R53     CG3C50      NG2S1       HGP1
   32    33    36    37	 9 ;     CG3C52     CG3C50      NG2S1      CG2O1
   32    33    36    40	 9 ;     CG3C52     CG3C50      NG2S1       HGP1
   36    33    41    42	 9 ;      NG2S1     CG3C50      CG321      CG311
   36    33    41    81	 9 ;      NG2S1     CG3C50      CG321       HGA2
   36    33    41    82	 9 ;      NG2S1     CG3C50      CG321       HGA2
   34    33    41    42	 9 ;     CG2R53     CG3C50      CG321      CG311
   34    33    41    81	 9 ;     CG2R53     CG3C50      CG321       HGA2
   34    33    41    82	 9 ;     CG2R53     CG3C50      CG321       HGA2
   32    33    41    42	 9 ;     CG3C52     CG3C50      CG321      CG311
   32    33    41    81	 9 ;     CG3C52     CG3C50      CG321       HGA2
   32    33    41    82	 9 ;     CG3C52     CG3C50      CG321       HGA2
   36    33    34    35	 9 ;      NG2S1     CG3C50     CG2R53      OG2D1
   36    33    34    30	 9 ;      NG2S1     CG3C50     CG2R53     NG2R53
   41    33    34    35	 9 ;      CG321     CG3C50     CG2R53      OG2D1
   41    33    34    30	 9 ;      CG321     CG3C50     CG2R53     NG2R53
   32    33    34    35	 9 ;     CG3C52     CG3C50     CG2R53      OG2D1
   32    33    34    30	 9 ;     CG3C52     CG3C50     CG2R53     NG2R53
   40    36    37    39	 9 ;       HGP1      NG2S1      CG2O1      CG331
   40    36    37    38	 9 ;       HGP1      NG2S1      CG2O1      OG2D1
   33    36    37    39	 9 ;     CG3C50      NG2S1      CG2O1      CG331
   33    36    37    38	 9 ;     CG3C50      NG2S1      CG2O1      OG2D1
   38    37    39    78	 9 ;      OG2D1      CG2O1      CG331       HGA3
   38    37    39    79	 9 ;      OG2D1      CG2O1      CG331       HGA3
   38    37    39    80	 9 ;      OG2D1      CG2O1      CG331       HGA3
   36    37    39    78	 9 ;      NG2S1      CG2O1      CG331       HGA3
   36    37    39    79	 9 ;      NG2S1      CG2O1      CG331       HGA3
   36    37    39    80	 9 ;      NG2S1      CG2O1      CG331       HGA3
   33    41    42    43	 9 ;     CG3C50      CG321      CG311      CG331
   33    41    42    44	 9 ;     CG3C50      CG321      CG311      CG331
   33    41    42    83	 9 ;     CG3C50      CG321      CG311       HGA1
   81    41    42    43	 9 ;       HGA2      CG321      CG311      CG331
   81    41    42    44	 9 ;       HGA2      CG321      CG311      CG331
   81    41    42    83	 9 ;       HGA2      CG321      CG311       HGA1
   82    41    42    43	 9 ;       HGA2      CG321      CG311      CG331
   82    41    42    44	 9 ;       HGA2      CG321      CG311      CG331
   82    41    42    83	 9 ;       HGA2      CG321      CG311       HGA1
   41    42    43    84	 9 ;      CG321      CG311      CG331       HGA3
   41    42    43    85	 9 ;      CG321      CG311      CG331       HGA3
   41    42    43    86	 9 ;      CG321      CG311      CG331       HGA3
   44    42    43    84	 9 ;      CG331      CG311      CG331       HGA3
   44    42    43    85	 9 ;      CG331      CG311      CG331       HGA3
   44    42    43    86	 9 ;      CG331      CG311      CG331       HGA3
   83    42    43    84	 9 ;       HGA1      CG311      CG331       HGA3
   83    42    43    85	 9 ;       HGA1      CG311      CG331       HGA3
   83    42    43    86	 9 ;       HGA1      CG311      CG331       HGA3
   43    42    44    87	 9 ;      CG331      CG311      CG331       HGA3
   43    42    44    88	 9 ;      CG331      CG311      CG331       HGA3
   43    42    44    89	 9 ;      CG331      CG311      CG331       HGA3
   41    42    44    87	 9 ;      CG321      CG311      CG331       HGA3
   41    42    44    88	 9 ;      CG321      CG311      CG331       HGA3
   41    42    44    89	 9 ;      CG321      CG311      CG331       HGA3
   83    42    44    87	 9 ;       HGA1      CG311      CG331       HGA3
   83    42    44    88	 9 ;       HGA1      CG311      CG331       HGA3
   83    42    44    89	 9 ;       HGA1      CG311      CG331       HGA3
   29    45    46    47	 9 ;      CG311      CG321      CG321     CG2R61
   29    45    46    92	 9 ;      CG311      CG321      CG321       HGA2
   29    45    46    93	 9 ;      CG311      CG321      CG321       HGA2
   90    45    46    47	 9 ;       HGA2      CG321      CG321     CG2R61
   90    45    46    92	 9 ;       HGA2      CG321      CG321       HGA2
   90    45    46    93	 9 ;       HGA2      CG321      CG321       HGA2
   91    45    46    47	 9 ;       HGA2      CG321      CG321     CG2R61
   91    45    46    92	 9 ;       HGA2      CG321      CG321       HGA2
   91    45    46    93	 9 ;       HGA2      CG321      CG321       HGA2
   45    46    47    52	 9 ;      CG321      CG321     CG2R61     CG2R61
   45    46    47    48	 9 ;      CG321      CG321     CG2R61     CG2R61
   92    46    47    52	 9 ;       HGA2      CG321     CG2R61     CG2R61
   92    46    47    48	 9 ;       HGA2      CG321     CG2R61     CG2R61
   93    46    47    52	 9 ;       HGA2      CG321     CG2R61     CG2R61
   93    46    47    48	 9 ;       HGA2      CG321     CG2R61     CG2R61
   46    47    52    51	 9 ;      CG321     CG2R61     CG2R61     CG2R61
   46    47    52    98	 9 ;      CG321     CG2R61     CG2R61      HGR61
   48    47    52    51	 9 ;     CG2R61     CG2R61     CG2R61     CG2R61
   48    47    52    98	 9 ;     CG2R61     CG2R61     CG2R61      HGR61
   52    47    48    49	 9 ;     CG2R61     CG2R61     CG2R61     CG2R61
   52    47    48    94	 9 ;     CG2R61     CG2R61     CG2R61      HGR61
   46    47    48    49	 9 ;      CG321     CG2R61     CG2R61     CG2R61
   46    47    48    94	 9 ;      CG321     CG2R61     CG2R61      HGR61
   47    48    49    50	 9 ;     CG2R61     CG2R61     CG2R61     CG2R61
   47    48    49    95	 9 ;     CG2R61     CG2R61     CG2R61      HGR61
   94    48    49    50	 9 ;      HGR61     CG2R61     CG2R61     CG2R61
   94    48    49    95	 9 ;      HGR61     CG2R61     CG2R61      HGR61
   48    49    50    51	 9 ;     CG2R61     CG2R61     CG2R61     CG2R61
   48    49    50    96	 9 ;     CG2R61     CG2R61     CG2R61      HGR61
   95    49    50    51	 9 ;      HGR61     CG2R61     CG2R61     CG2R61
   95    49    50    96	 9 ;      HGR61     CG2R61     CG2R61      HGR61
   49    50    51    52	 9 ;     CG2R61     CG2R61     CG2R61     CG2R61
   49    50    51    97	 9 ;     CG2R61     CG2R61     CG2R61      HGR61
   96    50    51    52	 9 ;      HGR61     CG2R61     CG2R61     CG2R61
   96    50    51    97	 9 ;      HGR61     CG2R61     CG2R61      HGR61
   50    51    52    47	 9 ;     CG2R61     CG2R61     CG2R61     CG2R61
   50    51    52    98	 9 ;     CG2R61     CG2R61     CG2R61      HGR61
   97    51    52    47	 9 ;      HGR61     CG2R61     CG2R61     CG2R61
   97    51    52    98	 9 ;      HGR61     CG2R61     CG2R61      HGR61

[ dihedrals ]
;	ai	  aj	ak	  al funct			  c0			c1			  c2			c3
    2    29     1     3	 2
   34    33    30    35	 2
   37    39    36    38	 2

