Gravel Rubs Often Many Awfully Cauterized Sores
   45
    1LIG     C2    1   8.490   1.357   9.125
    1LIG     O5    2   8.582   1.429   9.374
    1LIG     C4    3   8.469   1.638   9.370
    1LIG     C5    4   8.384   1.724   9.300
    1LIG     C6    5   8.510   1.670   9.500
    1LIG     C7    6   8.339   1.841   9.362
    1LIG     C8    7   8.467   1.788   9.561
    1LIG     C9    8   8.380   1.873   9.491
    1LIG    C10    9   8.480   1.485   9.166
    1LIG    C11   10   8.440   1.606   9.087
    1LIG    C12   11   8.516   1.510   9.309
    1LIG    C13   12   8.336   1.688   9.161
    1LIG     N1   13   8.324   1.272   8.979
    1LIG     O4   14   8.537   1.306   8.898
    1LIG     C3   15   8.456   1.310   8.989
    1LIG     H5   16   8.281   1.247   9.068
    1LIG    C14   17   8.277   1.201   8.858
    1LIG    C16   18   8.215   1.297   8.752
    1LIG    C17   19   8.236   1.445   8.784
    1LIG    C18   20   8.274   1.269   8.612
    1LIG     O2   21   8.099   1.035   8.829
    1LIG    C15   22   8.169   1.101   8.904
    1LIG     O3   23   8.152   1.100   9.038
    1LIG     H4   24   8.058   1.092   9.064
    1LIG     C1   25   8.432   1.763   9.795
    1LIG     O1   26   8.514   1.808   9.688
    1LIG     H1   27   8.523   1.287   9.193
    1LIG     H2   28   8.574   1.607   9.551
    1LIG     H3   29   8.274   1.904   9.312
    1LIG     H6   30   8.347   1.960   9.536
    1LIG     H7   31   8.527   1.666   9.069
    1LIG     H8   32   8.398   1.573   8.994
    1LIG     H9   33   8.245   1.632   9.169
    1LIG    H10   34   8.318   1.779   9.107
    1LIG     HA   35   8.360   1.154   8.811
    1LIG     HB   36   8.110   1.277   8.753
    1LIG   HG21   37   8.340   1.468   8.783
    1LIG   HG22   38   8.195   1.466   8.880
    1LIG   HG23   39   8.186   1.504   8.710
    1LIG   HG11   40   8.379   1.289   8.613
    1LIG   HG12   41   8.226   1.331   8.540
    1LIG   HG13   42   8.258   1.166   8.587
    1LIG    H11   43   8.481   1.785   9.888
    1LIG    H12   44   8.417   1.658   9.787
    1LIG    H13   45   8.338   1.814   9.792
   0.00000   0.00000   0.00000
