GROwing Monsters And Cloning Shrimps
   74
    1LIG     N1    1  -1.231   0.430  -1.502
    1LIG     H1    2  -1.300   0.472  -1.566
    1LIG     H2    3  -1.161   0.390  -1.566
    1LIG     C1    4  -1.168   0.548  -1.429
    1LIG     C2    5  -1.175   0.667  -1.526
    1LIG     O1    6  -1.049   0.735  -1.508
    1LIG     H3    7  -1.028   0.737  -1.411
    1LIG     C3    8  -1.205   0.637  -1.677
    1LIG     C4    9  -1.306   0.735  -1.741
    1LIG     C5   10  -1.436   0.669  -1.784
    1LIG     C6   11  -1.446   0.530  -1.794
    1LIG     C7   12  -1.566   0.471  -1.834
    1LIG     F1   13  -1.573   0.337  -1.844
    1LIG     C8   14  -1.677   0.547  -1.865
    1LIG     C9   15  -1.667   0.685  -1.854
    1LIG    C10   16  -1.549   0.746  -1.814
    1LIG     F2   17  -1.774   0.762  -1.883
    1LIG     N2   18  -1.078   0.643  -1.752
    1LIG    C11   19  -1.005   0.530  -1.783
    1LIG     O2   20  -1.040   0.419  -1.746
    1LIG    C12   21  -0.878   0.559  -1.858
    1LIG     H4   22  -1.037   0.733  -1.776
    1LIG    C13   23  -1.296   0.311  -1.431
    1LIG    C14   24  -1.281   0.329  -1.278
    1LIG    C15   25  -1.328   0.205  -1.201
    1LIG    C16   26  -1.249   0.081  -1.242
    1LIG    C17   27  -1.252   0.058  -1.392
    1LIG    C18   28  -1.216   0.184  -1.472
    1LIG    C19   29  -1.446   0.310  -1.473
    1LIG    C20   30  -1.531   0.421  -1.445
    1LIG    C21   31  -1.669   0.423  -1.480
    1LIG    C22   32  -1.721   0.309  -1.541
    1LIG    C23   33  -1.640   0.200  -1.572
    1LIG    C24   34  -1.504   0.202  -1.541
    1LIG    C25   35  -1.757   0.549  -1.457
    1LIG    C26   36  -1.881   0.541  -1.549
    1LIG    C27   37  -1.810   0.561  -1.312
    1LIG    C28   38  -1.679   0.680  -1.485
    1LIG     O3   39  -1.765   0.788  -1.523
    1LIG     H5   40  -1.727   0.826  -1.604
    1LIG    HC2   41  -1.225   0.570  -1.338
    1LIG    HC3   42  -1.065   0.525  -1.403
    1LIG     HC   43  -1.253   0.734  -1.491
    1LIG    HC1   44  -1.245   0.536  -1.684
    1LIG    HC4   45  -1.329   0.813  -1.668
    1LIG    HC5   46  -1.259   0.781  -1.828
    1LIG    HC6   47  -1.361   0.468  -1.770
    1LIG    HC7   48  -1.770   0.501  -1.897
    1LIG    HC8   49  -1.544   0.854  -1.805
    1LIG    HC9   50  -1.341   0.415  -1.247
    1LIG   HC10   51  -1.177   0.349  -1.254
    1LIG   HC11   52  -1.314   0.222  -1.094
    1LIG   HC12   53  -1.434   0.188  -1.221
    1LIG   HC13   54  -1.291  -0.006  -1.192
    1LIG   HC14   55  -1.145   0.093  -1.210
    1LIG   HC15   56  -1.181  -0.021  -1.417
    1LIG   HC16   57  -1.352   0.025  -1.421
    1LIG   HC17   58  -1.236   0.164  -1.578
    1LIG   HC18   59  -1.110   0.203  -1.460
    1LIG   HC19   60  -1.489   0.507  -1.395
    1LIG   HC20   61  -1.827   0.305  -1.565
    1LIG   HC21   62  -1.683   0.113  -1.620
    1LIG   HC22   63  -1.442   0.119  -1.570
    1LIG   HC23   64  -1.608   0.662  -1.566
    1LIG   HC24   65  -1.624   0.709  -1.396
    1LIG   HC25   66  -0.826   0.465  -1.879
    1LIG   HC26   67  -0.902   0.608  -1.952
    1LIG   HC27   68  -0.814   0.623  -1.798
    1LIG   HC28   69  -1.936   0.636  -1.545
    1LIG   HC29   70  -1.946   0.460  -1.515
    1LIG   HC30   71  -1.850   0.522  -1.651
    1LIG   HC31   72  -1.866   0.471  -1.286
    1LIG   HC32   73  -1.726   0.572  -1.243
    1LIG   HC33   74  -1.875   0.648  -1.304
   0.00000   0.00000   0.00000
