; Created by cgenff_charmm2gmx.py

[ moleculetype ]
; Name			   nrexcl
LIG				 3

[ atoms ]
;	 nr		  type	resnr residue  atom   cgnr	   charge		mass  typeB    chargeB		massB
; residue	 1 LIG rtp LIG q	qsum
     1     CG3C50      1    LIG     C1      1      1.422     12.011   ;
     2      NG3P2      1    LIG     N1      2     -0.588     14.007   ;
     3       HGP2      1    LIG     HN      3      0.336      1.008   ;
     4     CG3C53      1    LIG     C2      4      0.785     12.011   ;
     5     NG2R53      1    LIG     N2      5     -0.178     14.007   ;
     6      CG331      1    LIG     C3      6     -0.169     12.011   ;
     7     CG2R53      1    LIG     C4      7     -0.410     12.011   ;
     8      OG2D1      1    LIG     O1      8     -0.325     15.999   ;
     9     CG2R61      1    LIG     C5      9     -0.215     12.011   ;
    10     CG2R61      1    LIG     C6     10     -0.128     12.011   ;
    11     CG2R61      1    LIG     C7     11     -0.108     12.011   ;
    12     CG2R61      1    LIG     C8     12      0.221     12.011   ;
    13     CG2R61      1    LIG     C9     13     -0.108     12.011   ;
    14     CG2R61      1    LIG    C10     14     -0.128     12.011   ;
    15      OG301      1    LIG     O2     15     -0.393     15.999   ;
    16      CG321      1    LIG    C11     16     -0.008     12.011   ;
    17      CG331      1    LIG    C12     17     -0.270     12.011   ;
    18      CG301      1    LIG    C13     18      0.062     12.011   ;
    19      CG321      1    LIG    C14     19     -0.175     12.011   ;
    20      CG311      1    LIG    C15     20     -0.106     12.011   ;
    21      CG321      1    LIG    C16     21     -0.178     12.011   ;
    22      CG321      1    LIG    C17     22     -0.178     12.011   ;
    23      CG311      1    LIG    C18     23     -0.106     12.011   ;
    24      CG321      1    LIG    C19     24     -0.175     12.011   ;
    25      CG321      1    LIG    C20     25     -0.178     12.011   ;
    26      CG311      1    LIG    C21     26     -0.106     12.011   ;
    27      CG321      1    LIG    C22     27     -0.175     12.011   ;
    28      NG3P3      1    LIG     N3     28     -0.267     14.007   ;
    29       HGP2      1    LIG     H1     29      0.301      1.008   ;
    30       HGP2      1    LIG     H2     30      0.301      1.008   ;
    31       HGP2      1    LIG    HN2     31      0.336      1.008   ;
    32       HGA1      1    LIG     HC     32      0.073      1.008   ;
    33      HGR61      1    LIG    HC1     33      0.116      1.008   ;
    34      HGR61      1    LIG    HC2     34      0.116      1.008   ;
    35      HGR61      1    LIG    HC3     35      0.116      1.008   ;
    36      HGR61      1    LIG    HC4     36      0.116      1.008   ;
    37       HGA2      1    LIG    HC5     37      0.090      1.008   ;
    38       HGA2      1    LIG    HC6     38      0.090      1.008   ;
    39       HGA2      1    LIG    HC7     39      0.090      1.008   ;
    40       HGA2      1    LIG    HC8     40      0.090      1.008   ;
    41       HGA1      1    LIG    HC9     41      0.090      1.008   ;
    42       HGA2      1    LIG   HC10     42      0.090      1.008   ;
    43       HGA2      1    LIG   HC11     43      0.090      1.008   ;
    44       HGA2      1    LIG   HC12     44      0.090      1.008   ;
    45       HGA2      1    LIG   HC13     45      0.090      1.008   ;
    46       HGA1      1    LIG   HC14     46      0.090      1.008   ;
    47       HGA2      1    LIG   HC15     47      0.090      1.008   ;
    48       HGA2      1    LIG   HC16     48      0.090      1.008   ;
    49       HGA2      1    LIG   HC17     49      0.090      1.008   ;
    50       HGA2      1    LIG   HC18     50      0.090      1.008   ;
    51       HGA1      1    LIG   HC19     51      0.090      1.008   ;
    52       HGA2      1    LIG   HC20     52      0.090      1.008   ;
    53       HGA2      1    LIG   HC21     53      0.090      1.008   ;
    54       HGP2      1    LIG    HN1     54      0.301      1.008   ;
    55       HGA3      1    LIG   HC22     55      0.090      1.008   ;
    56       HGA3      1    LIG   HC23     56      0.090      1.008   ;
    57       HGA3      1    LIG   HC24     57      0.090      1.008   ;
    58       HGA3      1    LIG   HC25     58      0.090      1.008   ;
    59       HGA3      1    LIG   HC26     59      0.090      1.008   ;
    60       HGA3      1    LIG   HC27     60      0.090      1.008   ;

[ bonds ]
;	ai	  aj funct			  c0			c1			  c2			c3
    1     7	 1 ;      CG3C50     CG2R53
    1     2	 1 ;      CG3C50      NG3P2
    1     9	 1 ;      CG3C50     CG2R61
    1    18	 1 ;      CG3C50      CG301
    2     4	 1 ;       NG3P2     CG3C53
    2     3	 1 ;       NG3P2       HGP2
    2    31	 1 ;       NG3P2       HGP2
    4     5	 1 ;      CG3C53     NG2R53
    4    28	 1 ;      CG3C53      NG3P3
    4    32	 1 ;      CG3C53       HGA1
    5     6	 1 ;      NG2R53      CG331
    5     7	 1 ;      NG2R53     CG2R53
    6    55	 1 ;       CG331       HGA3
    6    56	 1 ;       CG331       HGA3
    6    57	 1 ;       CG331       HGA3
    7     8	 1 ;      CG2R53      OG2D1
    9    10	 1 ;      CG2R61     CG2R61
    9    14	 1 ;      CG2R61     CG2R61
   10    11	 1 ;      CG2R61     CG2R61
   10    33	 1 ;      CG2R61      HGR61
   11    12	 1 ;      CG2R61     CG2R61
   11    34	 1 ;      CG2R61      HGR61
   12    13	 1 ;      CG2R61     CG2R61
   12    15	 1 ;      CG2R61      OG301
   13    14	 1 ;      CG2R61     CG2R61
   13    35	 1 ;      CG2R61      HGR61
   14    36	 1 ;      CG2R61      HGR61
   15    16	 1 ;       OG301      CG321
   16    17	 1 ;       CG321      CG331
   16    37	 1 ;       CG321       HGA2
   16    38	 1 ;       CG321       HGA2
   17    58	 1 ;       CG331       HGA3
   17    59	 1 ;       CG331       HGA3
   17    60	 1 ;       CG331       HGA3
   18    27	 1 ;       CG301      CG321
   18    24	 1 ;       CG301      CG321
   18    19	 1 ;       CG301      CG321
   19    20	 1 ;       CG321      CG311
   19    39	 1 ;       CG321       HGA2
   19    40	 1 ;       CG321       HGA2
   20    22	 1 ;       CG311      CG321
   20    21	 1 ;       CG311      CG321
   20    41	 1 ;       CG311       HGA1
   21    23	 1 ;       CG321      CG311
   21    42	 1 ;       CG321       HGA2
   21    43	 1 ;       CG321       HGA2
   22    26	 1 ;       CG321      CG311
   22    44	 1 ;       CG321       HGA2
   22    45	 1 ;       CG321       HGA2
   23    24	 1 ;       CG311      CG321
   23    25	 1 ;       CG311      CG321
   23    46	 1 ;       CG311       HGA1
   24    47	 1 ;       CG321       HGA2
   24    48	 1 ;       CG321       HGA2
   25    26	 1 ;       CG321      CG311
   25    49	 1 ;       CG321       HGA2
   25    50	 1 ;       CG321       HGA2
   26    27	 1 ;       CG311      CG321
   26    51	 1 ;       CG311       HGA1
   27    52	 1 ;       CG321       HGA2
   27    53	 1 ;       CG321       HGA2
   28    29	 1 ;       NG3P3       HGP2
   28    30	 1 ;       NG3P3       HGP2
   28    54	 1 ;       NG3P3       HGP2

[ pairs ]
;	ai	  aj funct			  c0			c1			  c2			c3
    1    28	 1
    1    32	 1
    1     6	 1
    1    11	 1
    1    33	 1
    1    13	 1
    1    36	 1
    1    26	 1
    1    52	 1
    1    53	 1
    1    23	 1
    1    47	 1
    1    48	 1
    1    20	 1
    1    39	 1
    1    40	 1
    2     8	 1
    2    10	 1
    2    14	 1
    2    27	 1
    2    24	 1
    2    19	 1
    2     6	 1
    2    29	 1
    2    30	 1
    2    54	 1
    3     7	 1
    3     9	 1
    3    18	 1
    3     5	 1
    3    28	 1
    3    32	 1
    4     9	 1
    4    18	 1
    4    55	 1
    4    56	 1
    4    57	 1
    4     8	 1
    5     9	 1
    5    18	 1
    5    31	 1
    5    29	 1
    5    30	 1
    5    54	 1
    6    28	 1
    6    32	 1
    6     8	 1
    7    31	 1
    7    10	 1
    7    14	 1
    7    27	 1
    7    24	 1
    7    19	 1
    7    28	 1
    7    32	 1
    7    55	 1
    7    56	 1
    7    57	 1
    8     9	 1
    8    18	 1
    9    31	 1
    9    27	 1
    9    24	 1
    9    19	 1
    9    12	 1
    9    34	 1
    9    35	 1
   10    18	 1
   10    13	 1
   10    36	 1
   10    15	 1
   11    14	 1
   11    35	 1
   11    16	 1
   12    33	 1
   12    36	 1
   12    17	 1
   12    37	 1
   12    38	 1
   13    34	 1
   13    16	 1
   14    18	 1
   14    33	 1
   14    15	 1
   15    34	 1
   15    35	 1
   15    58	 1
   15    59	 1
   15    60	 1
   18    31	 1
   18    22	 1
   18    21	 1
   18    41	 1
   18    25	 1
   18    46	 1
   18    51	 1
   19    26	 1
   19    52	 1
   19    53	 1
   19    23	 1
   19    47	 1
   19    48	 1
   19    44	 1
   19    45	 1
   19    42	 1
   19    43	 1
   20    27	 1
   20    24	 1
   20    25	 1
   20    46	 1
   20    51	 1
   21    39	 1
   21    40	 1
   21    26	 1
   21    44	 1
   21    45	 1
   21    47	 1
   21    48	 1
   21    49	 1
   21    50	 1
   22    39	 1
   22    40	 1
   22    23	 1
   22    42	 1
   22    43	 1
   22    49	 1
   22    50	 1
   22    52	 1
   22    53	 1
   23    27	 1
   23    41	 1
   23    51	 1
   24    26	 1
   24    52	 1
   24    53	 1
   24    39	 1
   24    40	 1
   24    42	 1
   24    43	 1
   24    49	 1
   24    50	 1
   25    42	 1
   25    43	 1
   25    44	 1
   25    45	 1
   25    47	 1
   25    48	 1
   25    52	 1
   25    53	 1
   26    41	 1
   26    46	 1
   27    47	 1
   27    48	 1
   27    39	 1
   27    40	 1
   27    44	 1
   27    45	 1
   27    49	 1
   27    50	 1
   28    31	 1
   29    32	 1
   30    32	 1
   31    32	 1
   32    54	 1
   33    34	 1
   35    36	 1
   37    58	 1
   37    59	 1
   37    60	 1
   38    58	 1
   38    59	 1
   38    60	 1
   39    41	 1
   40    41	 1
   41    44	 1
   41    45	 1
   41    42	 1
   41    43	 1
   42    46	 1
   43    46	 1
   44    51	 1
   45    51	 1
   46    47	 1
   46    48	 1
   46    49	 1
   46    50	 1
   49    51	 1
   50    51	 1
   51    52	 1
   51    53	 1

[ angles ]
;	ai	  aj	ak funct			c0			  c1			c2			  c3
    7     1     2	5 ;     CG2R53     CG3C50      NG3P2
    7     1     9	5 ;     CG2R53     CG3C50     CG2R61
    7     1    18	5 ;     CG2R53     CG3C50      CG301
    2     1     9	5 ;      NG3P2     CG3C50     CG2R61
    2     1    18	5 ;      NG3P2     CG3C50      CG301
    9     1    18	5 ;     CG2R61     CG3C50      CG301
    4     2     1	5 ;     CG3C53      NG3P2     CG3C50
    4     2     3	5 ;     CG3C53      NG3P2       HGP2
    4     2    31	5 ;     CG3C53      NG3P2       HGP2
    1     2     3	5 ;     CG3C50      NG3P2       HGP2
    1     2    31	5 ;     CG3C50      NG3P2       HGP2
    3     2    31	5 ;       HGP2      NG3P2       HGP2
    5     4    28	5 ;     NG2R53     CG3C53      NG3P3
    5     4     2	5 ;     NG2R53     CG3C53      NG3P2
    5     4    32	5 ;     NG2R53     CG3C53       HGA1
   28     4     2	5 ;      NG3P3     CG3C53      NG3P2
   28     4    32	5 ;      NG3P3     CG3C53       HGA1
    2     4    32	5 ;      NG3P2     CG3C53       HGA1
    6     5     7	5 ;      CG331     NG2R53     CG2R53
    6     5     4	5 ;      CG331     NG2R53     CG3C53
    7     5     4	5 ;     CG2R53     NG2R53     CG3C53
    5     6    55	5 ;     NG2R53      CG331       HGA3
    5     6    56	5 ;     NG2R53      CG331       HGA3
    5     6    57	5 ;     NG2R53      CG331       HGA3
   55     6    56	5 ;       HGA3      CG331       HGA3
   55     6    57	5 ;       HGA3      CG331       HGA3
   56     6    57	5 ;       HGA3      CG331       HGA3
    8     7     5	5 ;      OG2D1     CG2R53     NG2R53
    8     7     1	5 ;      OG2D1     CG2R53     CG3C50
    5     7     1	5 ;     NG2R53     CG2R53     CG3C50
   10     9     1	5 ;     CG2R61     CG2R61     CG3C50
   10     9    14	5 ;     CG2R61     CG2R61     CG2R61
    1     9    14	5 ;     CG3C50     CG2R61     CG2R61
   11    10     9	5 ;     CG2R61     CG2R61     CG2R61
   11    10    33	5 ;     CG2R61     CG2R61      HGR61
    9    10    33	5 ;     CG2R61     CG2R61      HGR61
   10    11    12	5 ;     CG2R61     CG2R61     CG2R61
   10    11    34	5 ;     CG2R61     CG2R61      HGR61
   12    11    34	5 ;     CG2R61     CG2R61      HGR61
   11    12    13	5 ;     CG2R61     CG2R61     CG2R61
   11    12    15	5 ;     CG2R61     CG2R61      OG301
   13    12    15	5 ;     CG2R61     CG2R61      OG301
   12    13    14	5 ;     CG2R61     CG2R61     CG2R61
   12    13    35	5 ;     CG2R61     CG2R61      HGR61
   14    13    35	5 ;     CG2R61     CG2R61      HGR61
    9    14    13	5 ;     CG2R61     CG2R61     CG2R61
    9    14    36	5 ;     CG2R61     CG2R61      HGR61
   13    14    36	5 ;     CG2R61     CG2R61      HGR61
   16    15    12	5 ;      CG321      OG301     CG2R61
   17    16    15	5 ;      CG331      CG321      OG301
   17    16    37	5 ;      CG331      CG321       HGA2
   17    16    38	5 ;      CG331      CG321       HGA2
   15    16    37	5 ;      OG301      CG321       HGA2
   15    16    38	5 ;      OG301      CG321       HGA2
   37    16    38	5 ;       HGA2      CG321       HGA2
   16    17    58	5 ;      CG321      CG331       HGA3
   16    17    59	5 ;      CG321      CG331       HGA3
   16    17    60	5 ;      CG321      CG331       HGA3
   58    17    59	5 ;       HGA3      CG331       HGA3
   58    17    60	5 ;       HGA3      CG331       HGA3
   59    17    60	5 ;       HGA3      CG331       HGA3
    1    18    27	5 ;     CG3C50      CG301      CG321
    1    18    24	5 ;     CG3C50      CG301      CG321
    1    18    19	5 ;     CG3C50      CG301      CG321
   27    18    24	5 ;      CG321      CG301      CG321
   27    18    19	5 ;      CG321      CG301      CG321
   24    18    19	5 ;      CG321      CG301      CG321
   18    19    20	5 ;      CG301      CG321      CG311
   18    19    39	5 ;      CG301      CG321       HGA2
   18    19    40	5 ;      CG301      CG321       HGA2
   20    19    39	5 ;      CG311      CG321       HGA2
   20    19    40	5 ;      CG311      CG321       HGA2
   39    19    40	5 ;       HGA2      CG321       HGA2
   19    20    22	5 ;      CG321      CG311      CG321
   19    20    21	5 ;      CG321      CG311      CG321
   19    20    41	5 ;      CG321      CG311       HGA1
   22    20    21	5 ;      CG321      CG311      CG321
   22    20    41	5 ;      CG321      CG311       HGA1
   21    20    41	5 ;      CG321      CG311       HGA1
   23    21    20	5 ;      CG311      CG321      CG311
   23    21    42	5 ;      CG311      CG321       HGA2
   23    21    43	5 ;      CG311      CG321       HGA2
   20    21    42	5 ;      CG311      CG321       HGA2
   20    21    43	5 ;      CG311      CG321       HGA2
   42    21    43	5 ;       HGA2      CG321       HGA2
   26    22    20	5 ;      CG311      CG321      CG311
   26    22    44	5 ;      CG311      CG321       HGA2
   26    22    45	5 ;      CG311      CG321       HGA2
   20    22    44	5 ;      CG311      CG321       HGA2
   20    22    45	5 ;      CG311      CG321       HGA2
   44    22    45	5 ;       HGA2      CG321       HGA2
   24    23    25	5 ;      CG321      CG311      CG321
   24    23    21	5 ;      CG321      CG311      CG321
   24    23    46	5 ;      CG321      CG311       HGA1
   25    23    21	5 ;      CG321      CG311      CG321
   25    23    46	5 ;      CG321      CG311       HGA1
   21    23    46	5 ;      CG321      CG311       HGA1
   18    24    23	5 ;      CG301      CG321      CG311
   18    24    47	5 ;      CG301      CG321       HGA2
   18    24    48	5 ;      CG301      CG321       HGA2
   23    24    47	5 ;      CG311      CG321       HGA2
   23    24    48	5 ;      CG311      CG321       HGA2
   47    24    48	5 ;       HGA2      CG321       HGA2
   26    25    23	5 ;      CG311      CG321      CG311
   26    25    49	5 ;      CG311      CG321       HGA2
   26    25    50	5 ;      CG311      CG321       HGA2
   23    25    49	5 ;      CG311      CG321       HGA2
   23    25    50	5 ;      CG311      CG321       HGA2
   49    25    50	5 ;       HGA2      CG321       HGA2
   27    26    25	5 ;      CG321      CG311      CG321
   27    26    22	5 ;      CG321      CG311      CG321
   27    26    51	5 ;      CG321      CG311       HGA1
   25    26    22	5 ;      CG321      CG311      CG321
   25    26    51	5 ;      CG321      CG311       HGA1
   22    26    51	5 ;      CG321      CG311       HGA1
   18    27    26	5 ;      CG301      CG321      CG311
   18    27    52	5 ;      CG301      CG321       HGA2
   18    27    53	5 ;      CG301      CG321       HGA2
   26    27    52	5 ;      CG311      CG321       HGA2
   26    27    53	5 ;      CG311      CG321       HGA2
   52    27    53	5 ;       HGA2      CG321       HGA2
   29    28    30	5 ;       HGP2      NG3P3       HGP2
   29    28     4	5 ;       HGP2      NG3P3     CG3C53
   29    28    54	5 ;       HGP2      NG3P3       HGP2
   30    28     4	5 ;       HGP2      NG3P3     CG3C53
   30    28    54	5 ;       HGP2      NG3P3       HGP2
    4    28    54	5 ;     CG3C53      NG3P3       HGP2

[ dihedrals ]
;	ai	  aj	ak	  al funct			  c0			c1			  c2			c3			  c4			c5
    2     1     7     8	 9 ;      NG3P2     CG3C50     CG2R53      OG2D1
    2     1     7     5	 9 ;      NG3P2     CG3C50     CG2R53     NG2R53
    9     1     7     8	 9 ;     CG2R61     CG3C50     CG2R53      OG2D1
    9     1     7     5	 9 ;     CG2R61     CG3C50     CG2R53     NG2R53
   18     1     7     8	 9 ;      CG301     CG3C50     CG2R53      OG2D1
   18     1     7     5	 9 ;      CG301     CG3C50     CG2R53     NG2R53
    7     1     2     4	 9 ;     CG2R53     CG3C50      NG3P2     CG3C53
    7     1     2     3	 9 ;     CG2R53     CG3C50      NG3P2       HGP2
    7     1     2    31	 9 ;     CG2R53     CG3C50      NG3P2       HGP2
    9     1     2     4	 9 ;     CG2R61     CG3C50      NG3P2     CG3C53
    9     1     2     3	 9 ;     CG2R61     CG3C50      NG3P2       HGP2
    9     1     2    31	 9 ;     CG2R61     CG3C50      NG3P2       HGP2
   18     1     2     4	 9 ;      CG301     CG3C50      NG3P2     CG3C53
   18     1     2     3	 9 ;      CG301     CG3C50      NG3P2       HGP2
   18     1     2    31	 9 ;      CG301     CG3C50      NG3P2       HGP2
    7     1     9    10	 9 ;     CG2R53     CG3C50     CG2R61     CG2R61
    7     1     9    14	 9 ;     CG2R53     CG3C50     CG2R61     CG2R61
    2     1     9    10	 9 ;      NG3P2     CG3C50     CG2R61     CG2R61
    2     1     9    14	 9 ;      NG3P2     CG3C50     CG2R61     CG2R61
   18     1     9    10	 9 ;      CG301     CG3C50     CG2R61     CG2R61
   18     1     9    14	 9 ;      CG301     CG3C50     CG2R61     CG2R61
    7     1    18    27	 9 ;     CG2R53     CG3C50      CG301      CG321
    7     1    18    24	 9 ;     CG2R53     CG3C50      CG301      CG321
    7     1    18    19	 9 ;     CG2R53     CG3C50      CG301      CG321
    2     1    18    27	 9 ;      NG3P2     CG3C50      CG301      CG321
    2     1    18    24	 9 ;      NG3P2     CG3C50      CG301      CG321
    2     1    18    19	 9 ;      NG3P2     CG3C50      CG301      CG321
    9     1    18    27	 9 ;     CG2R61     CG3C50      CG301      CG321
    9     1    18    24	 9 ;     CG2R61     CG3C50      CG301      CG321
    9     1    18    19	 9 ;     CG2R61     CG3C50      CG301      CG321
    1     2     4     5	 9 ;     CG3C50      NG3P2     CG3C53     NG2R53
    1     2     4    28	 9 ;     CG3C50      NG3P2     CG3C53      NG3P3
    1     2     4    32	 9 ;     CG3C50      NG3P2     CG3C53       HGA1
    3     2     4     5	 9 ;       HGP2      NG3P2     CG3C53     NG2R53
    3     2     4    28	 9 ;       HGP2      NG3P2     CG3C53      NG3P3
    3     2     4    32	 9 ;       HGP2      NG3P2     CG3C53       HGA1
   31     2     4     5	 9 ;       HGP2      NG3P2     CG3C53     NG2R53
   31     2     4    28	 9 ;       HGP2      NG3P2     CG3C53      NG3P3
   31     2     4    32	 9 ;       HGP2      NG3P2     CG3C53       HGA1
   28     4     5     6	 9 ;      NG3P3     CG3C53     NG2R53      CG331
   28     4     5     7	 9 ;      NG3P3     CG3C53     NG2R53     CG2R53
    2     4     5     6	 9 ;      NG3P2     CG3C53     NG2R53      CG331
    2     4     5     7	 9 ;      NG3P2     CG3C53     NG2R53     CG2R53
   32     4     5     6	 9 ;       HGA1     CG3C53     NG2R53      CG331
   32     4     5     7	 9 ;       HGA1     CG3C53     NG2R53     CG2R53
    5     4    28    29	 9 ;     NG2R53     CG3C53      NG3P3       HGP2
    5     4    28    30	 9 ;     NG2R53     CG3C53      NG3P3       HGP2
    5     4    28    54	 9 ;     NG2R53     CG3C53      NG3P3       HGP2
    2     4    28    29	 9 ;      NG3P2     CG3C53      NG3P3       HGP2
    2     4    28    30	 9 ;      NG3P2     CG3C53      NG3P3       HGP2
    2     4    28    54	 9 ;      NG3P2     CG3C53      NG3P3       HGP2
   32     4    28    29	 9 ;       HGA1     CG3C53      NG3P3       HGP2
   32     4    28    30	 9 ;       HGA1     CG3C53      NG3P3       HGP2
   32     4    28    54	 9 ;       HGA1     CG3C53      NG3P3       HGP2
    7     5     6    55	 9 ;     CG2R53     NG2R53      CG331       HGA3
    7     5     6    56	 9 ;     CG2R53     NG2R53      CG331       HGA3
    7     5     6    57	 9 ;     CG2R53     NG2R53      CG331       HGA3
    4     5     6    55	 9 ;     CG3C53     NG2R53      CG331       HGA3
    4     5     6    56	 9 ;     CG3C53     NG2R53      CG331       HGA3
    4     5     6    57	 9 ;     CG3C53     NG2R53      CG331       HGA3
    6     5     7     8	 9 ;      CG331     NG2R53     CG2R53      OG2D1
    6     5     7     1	 9 ;      CG331     NG2R53     CG2R53     CG3C50
    4     5     7     8	 9 ;     CG3C53     NG2R53     CG2R53      OG2D1
    4     5     7     1	 9 ;     CG3C53     NG2R53     CG2R53     CG3C50
    1     9    10    11	 9 ;     CG3C50     CG2R61     CG2R61     CG2R61
    1     9    10    33	 9 ;     CG3C50     CG2R61     CG2R61      HGR61
   14     9    10    11	 9 ;     CG2R61     CG2R61     CG2R61     CG2R61
   14     9    10    33	 9 ;     CG2R61     CG2R61     CG2R61      HGR61
   10     9    14    13	 9 ;     CG2R61     CG2R61     CG2R61     CG2R61
   10     9    14    36	 9 ;     CG2R61     CG2R61     CG2R61      HGR61
    1     9    14    13	 9 ;     CG3C50     CG2R61     CG2R61     CG2R61
    1     9    14    36	 9 ;     CG3C50     CG2R61     CG2R61      HGR61
    9    10    11    12	 9 ;     CG2R61     CG2R61     CG2R61     CG2R61
    9    10    11    34	 9 ;     CG2R61     CG2R61     CG2R61      HGR61
   33    10    11    12	 9 ;      HGR61     CG2R61     CG2R61     CG2R61
   33    10    11    34	 9 ;      HGR61     CG2R61     CG2R61      HGR61
   10    11    12    13	 9 ;     CG2R61     CG2R61     CG2R61     CG2R61
   10    11    12    15	 9 ;     CG2R61     CG2R61     CG2R61      OG301
   34    11    12    13	 9 ;      HGR61     CG2R61     CG2R61     CG2R61
   34    11    12    15	 9 ;      HGR61     CG2R61     CG2R61      OG301
   11    12    13    14	 9 ;     CG2R61     CG2R61     CG2R61     CG2R61
   11    12    13    35	 9 ;     CG2R61     CG2R61     CG2R61      HGR61
   15    12    13    14	 9 ;      OG301     CG2R61     CG2R61     CG2R61
   15    12    13    35	 9 ;      OG301     CG2R61     CG2R61      HGR61
   11    12    15    16	 9 ;     CG2R61     CG2R61      OG301      CG321
   13    12    15    16	 9 ;     CG2R61     CG2R61      OG301      CG321
   12    13    14     9	 9 ;     CG2R61     CG2R61     CG2R61     CG2R61
   12    13    14    36	 9 ;     CG2R61     CG2R61     CG2R61      HGR61
   35    13    14     9	 9 ;      HGR61     CG2R61     CG2R61     CG2R61
   35    13    14    36	 9 ;      HGR61     CG2R61     CG2R61      HGR61
   12    15    16    17	 9 ;     CG2R61      OG301      CG321      CG331
   12    15    16    37	 9 ;     CG2R61      OG301      CG321       HGA2
   12    15    16    38	 9 ;     CG2R61      OG301      CG321       HGA2
   15    16    17    58	 9 ;      OG301      CG321      CG331       HGA3
   15    16    17    59	 9 ;      OG301      CG321      CG331       HGA3
   15    16    17    60	 9 ;      OG301      CG321      CG331       HGA3
   37    16    17    58	 9 ;       HGA2      CG321      CG331       HGA3
   37    16    17    59	 9 ;       HGA2      CG321      CG331       HGA3
   37    16    17    60	 9 ;       HGA2      CG321      CG331       HGA3
   38    16    17    58	 9 ;       HGA2      CG321      CG331       HGA3
   38    16    17    59	 9 ;       HGA2      CG321      CG331       HGA3
   38    16    17    60	 9 ;       HGA2      CG321      CG331       HGA3
    1    18    27    26	 9 ;     CG3C50      CG301      CG321      CG311
    1    18    27    52	 9 ;     CG3C50      CG301      CG321       HGA2
    1    18    27    53	 9 ;     CG3C50      CG301      CG321       HGA2
   24    18    27    26	 9 ;      CG321      CG301      CG321      CG311
   24    18    27    52	 9 ;      CG321      CG301      CG321       HGA2
   24    18    27    53	 9 ;      CG321      CG301      CG321       HGA2
   19    18    27    26	 9 ;      CG321      CG301      CG321      CG311
   19    18    27    52	 9 ;      CG321      CG301      CG321       HGA2
   19    18    27    53	 9 ;      CG321      CG301      CG321       HGA2
    1    18    24    23	 9 ;     CG3C50      CG301      CG321      CG311
    1    18    24    47	 9 ;     CG3C50      CG301      CG321       HGA2
    1    18    24    48	 9 ;     CG3C50      CG301      CG321       HGA2
   27    18    24    23	 9 ;      CG321      CG301      CG321      CG311
   27    18    24    47	 9 ;      CG321      CG301      CG321       HGA2
   27    18    24    48	 9 ;      CG321      CG301      CG321       HGA2
   19    18    24    23	 9 ;      CG321      CG301      CG321      CG311
   19    18    24    47	 9 ;      CG321      CG301      CG321       HGA2
   19    18    24    48	 9 ;      CG321      CG301      CG321       HGA2
    1    18    19    20	 9 ;     CG3C50      CG301      CG321      CG311
    1    18    19    39	 9 ;     CG3C50      CG301      CG321       HGA2
    1    18    19    40	 9 ;     CG3C50      CG301      CG321       HGA2
   27    18    19    20	 9 ;      CG321      CG301      CG321      CG311
   27    18    19    39	 9 ;      CG321      CG301      CG321       HGA2
   27    18    19    40	 9 ;      CG321      CG301      CG321       HGA2
   24    18    19    20	 9 ;      CG321      CG301      CG321      CG311
   24    18    19    39	 9 ;      CG321      CG301      CG321       HGA2
   24    18    19    40	 9 ;      CG321      CG301      CG321       HGA2
   18    19    20    22	 9 ;      CG301      CG321      CG311      CG321
   18    19    20    21	 9 ;      CG301      CG321      CG311      CG321
   18    19    20    41	 9 ;      CG301      CG321      CG311       HGA1
   39    19    20    22	 9 ;       HGA2      CG321      CG311      CG321
   39    19    20    21	 9 ;       HGA2      CG321      CG311      CG321
   39    19    20    41	 9 ;       HGA2      CG321      CG311       HGA1
   40    19    20    22	 9 ;       HGA2      CG321      CG311      CG321
   40    19    20    21	 9 ;       HGA2      CG321      CG311      CG321
   40    19    20    41	 9 ;       HGA2      CG321      CG311       HGA1
   19    20    22    26	 9 ;      CG321      CG311      CG321      CG311
   19    20    22    44	 9 ;      CG321      CG311      CG321       HGA2
   19    20    22    45	 9 ;      CG321      CG311      CG321       HGA2
   21    20    22    26	 9 ;      CG321      CG311      CG321      CG311
   21    20    22    44	 9 ;      CG321      CG311      CG321       HGA2
   21    20    22    45	 9 ;      CG321      CG311      CG321       HGA2
   41    20    22    26	 9 ;       HGA1      CG311      CG321      CG311
   41    20    22    44	 9 ;       HGA1      CG311      CG321       HGA2
   41    20    22    45	 9 ;       HGA1      CG311      CG321       HGA2
   19    20    21    23	 9 ;      CG321      CG311      CG321      CG311
   19    20    21    42	 9 ;      CG321      CG311      CG321       HGA2
   19    20    21    43	 9 ;      CG321      CG311      CG321       HGA2
   22    20    21    23	 9 ;      CG321      CG311      CG321      CG311
   22    20    21    42	 9 ;      CG321      CG311      CG321       HGA2
   22    20    21    43	 9 ;      CG321      CG311      CG321       HGA2
   41    20    21    23	 9 ;       HGA1      CG311      CG321      CG311
   41    20    21    42	 9 ;       HGA1      CG311      CG321       HGA2
   41    20    21    43	 9 ;       HGA1      CG311      CG321       HGA2
   20    21    23    24	 9 ;      CG311      CG321      CG311      CG321
   20    21    23    25	 9 ;      CG311      CG321      CG311      CG321
   20    21    23    46	 9 ;      CG311      CG321      CG311       HGA1
   42    21    23    24	 9 ;       HGA2      CG321      CG311      CG321
   42    21    23    25	 9 ;       HGA2      CG321      CG311      CG321
   42    21    23    46	 9 ;       HGA2      CG321      CG311       HGA1
   43    21    23    24	 9 ;       HGA2      CG321      CG311      CG321
   43    21    23    25	 9 ;       HGA2      CG321      CG311      CG321
   43    21    23    46	 9 ;       HGA2      CG321      CG311       HGA1
   20    22    26    27	 9 ;      CG311      CG321      CG311      CG321
   20    22    26    25	 9 ;      CG311      CG321      CG311      CG321
   20    22    26    51	 9 ;      CG311      CG321      CG311       HGA1
   44    22    26    27	 9 ;       HGA2      CG321      CG311      CG321
   44    22    26    25	 9 ;       HGA2      CG321      CG311      CG321
   44    22    26    51	 9 ;       HGA2      CG321      CG311       HGA1
   45    22    26    27	 9 ;       HGA2      CG321      CG311      CG321
   45    22    26    25	 9 ;       HGA2      CG321      CG311      CG321
   45    22    26    51	 9 ;       HGA2      CG321      CG311       HGA1
   25    23    24    18	 9 ;      CG321      CG311      CG321      CG301
   25    23    24    47	 9 ;      CG321      CG311      CG321       HGA2
   25    23    24    48	 9 ;      CG321      CG311      CG321       HGA2
   21    23    24    18	 9 ;      CG321      CG311      CG321      CG301
   21    23    24    47	 9 ;      CG321      CG311      CG321       HGA2
   21    23    24    48	 9 ;      CG321      CG311      CG321       HGA2
   46    23    24    18	 9 ;       HGA1      CG311      CG321      CG301
   46    23    24    47	 9 ;       HGA1      CG311      CG321       HGA2
   46    23    24    48	 9 ;       HGA1      CG311      CG321       HGA2
   24    23    25    26	 9 ;      CG321      CG311      CG321      CG311
   24    23    25    49	 9 ;      CG321      CG311      CG321       HGA2
   24    23    25    50	 9 ;      CG321      CG311      CG321       HGA2
   21    23    25    26	 9 ;      CG321      CG311      CG321      CG311
   21    23    25    49	 9 ;      CG321      CG311      CG321       HGA2
   21    23    25    50	 9 ;      CG321      CG311      CG321       HGA2
   46    23    25    26	 9 ;       HGA1      CG311      CG321      CG311
   46    23    25    49	 9 ;       HGA1      CG311      CG321       HGA2
   46    23    25    50	 9 ;       HGA1      CG311      CG321       HGA2
   23    25    26    27	 9 ;      CG311      CG321      CG311      CG321
   23    25    26    22	 9 ;      CG311      CG321      CG311      CG321
   23    25    26    51	 9 ;      CG311      CG321      CG311       HGA1
   49    25    26    27	 9 ;       HGA2      CG321      CG311      CG321
   49    25    26    22	 9 ;       HGA2      CG321      CG311      CG321
   49    25    26    51	 9 ;       HGA2      CG321      CG311       HGA1
   50    25    26    27	 9 ;       HGA2      CG321      CG311      CG321
   50    25    26    22	 9 ;       HGA2      CG321      CG311      CG321
   50    25    26    51	 9 ;       HGA2      CG321      CG311       HGA1
   25    26    27    18	 9 ;      CG321      CG311      CG321      CG301
   25    26    27    52	 9 ;      CG321      CG311      CG321       HGA2
   25    26    27    53	 9 ;      CG321      CG311      CG321       HGA2
   22    26    27    18	 9 ;      CG321      CG311      CG321      CG301
   22    26    27    52	 9 ;      CG321      CG311      CG321       HGA2
   22    26    27    53	 9 ;      CG321      CG311      CG321       HGA2
   51    26    27    18	 9 ;       HGA1      CG311      CG321      CG301
   51    26    27    52	 9 ;       HGA1      CG311      CG321       HGA2
   51    26    27    53	 9 ;       HGA1      CG311      CG321       HGA2

[ dihedrals ]
;	ai	  aj	ak	  al funct			  c0			c1			  c2			c3
    7     1     5     8	 2

