GROningen MAchine for Chemical Simulation
   60
    1LIG     C1    1  -1.412   0.422  -1.550
    1LIG     N1    2  -1.367   0.563  -1.520
    1LIG     HN    3  -1.380   0.615  -1.433
    1LIG     C2    4  -1.308   0.605  -1.627
    1LIG     N2    5  -1.297   0.517  -1.728
    1LIG     C3    6  -1.270   0.547  -1.867
    1LIG     C4    7  -1.343   0.396  -1.685
    1LIG     O1    8  -1.339   0.292  -1.749
    1LIG     C5    9  -1.366   0.327  -1.437
    1LIG     C6   10  -1.372   0.187  -1.454
    1LIG     C7   11  -1.331   0.098  -1.354
    1LIG     C8   12  -1.284   0.146  -1.232
    1LIG     C9   13  -1.276   0.284  -1.214
    1LIG    C10   14  -1.316   0.373  -1.315
    1LIG     O2   15  -1.244   0.070  -1.125
    1LIG    C11   16  -1.229  -0.070  -1.146
    1LIG    C12   17  -1.095  -0.097  -1.213
    1LIG    C13   18  -1.571   0.427  -1.575
    1LIG    C14   19  -1.648   0.463  -1.445
    1LIG    C15   20  -1.800   0.465  -1.469
    1LIG    C16   21  -1.846   0.327  -1.519
    1LIG    C17   22  -1.834   0.571  -1.575
    1LIG    C18   23  -1.776   0.293  -1.651
    1LIG    C19   24  -1.624   0.290  -1.628
    1LIG    C20   25  -1.809   0.400  -1.756
    1LIG    C21   26  -1.763   0.538  -1.707
    1LIG    C22   27  -1.611   0.534  -1.683
    1LIG     N3   28  -1.259   0.731  -1.638
    1LIG     H1   29  -1.160   0.735  -1.621
    1LIG     H2   30  -1.287   0.783  -1.721
    1LIG    HN2   31  -1.279   0.528  -1.486
    1LIG     HC   32  -1.404   0.639  -1.667
    1LIG    HC1   33  -1.408   0.147  -1.548
    1LIG    HC2   34  -1.337  -0.009  -1.371
    1LIG    HC3   35  -1.237   0.323  -1.121
    1LIG    HC4   36  -1.308   0.479  -1.297
    1LIG    HC5   37  -1.310  -0.105  -1.211
    1LIG    HC6   38  -1.234  -0.122  -1.051
    1LIG    HC7   39  -1.626   0.389  -1.369
    1LIG    HC8   40  -1.616   0.561  -1.411
    1LIG    HC9   41  -1.852   0.489  -1.376
    1LIG   HC10   42  -1.954   0.328  -1.534
    1LIG   HC11   43  -1.820   0.252  -1.444
    1LIG   HC12   44  -1.942   0.573  -1.592
    1LIG   HC13   45  -1.801   0.669  -1.541
    1LIG   HC14   46  -1.810   0.196  -1.686
    1LIG   HC15   47  -1.601   0.213  -1.555
    1LIG   HC16   48  -1.574   0.266  -1.722
    1LIG   HC17   49  -1.759   0.376  -1.850
    1LIG   HC18   50  -1.917   0.402  -1.773
    1LIG   HC19   51  -1.787   0.613  -1.782
    1LIG   HC20   52  -1.561   0.510  -1.777
    1LIG   HC21   53  -1.579   0.632  -1.649
    1LIG    HN1   54  -1.301   0.781  -1.561
    1LIG   HC22   55  -1.267   0.454  -1.924
    1LIG   HC23   56  -1.349   0.611  -1.906
    1LIG   HC24   57  -1.174   0.598  -1.875
    1LIG   HC25   58  -1.083  -0.204  -1.229
    1LIG   HC26   59  -1.015  -0.061  -1.148
    1LIG   HC27   60  -1.090  -0.044  -1.308
   0.00000   0.00000   0.00000
