S  C  A  M  O  R  G
   49
    1LIG     C1    1  -1.845   0.476  -1.265
    1LIG     N1    2  -1.828   0.556  -1.156
    1LIG    HN1    3  -1.745   0.614  -1.144
    1LIG     C2    4  -1.929   0.555  -1.064
    1LIG     C3    5  -2.045   0.479  -1.075
    1LIG     C4    6  -2.058   0.396  -1.186
    1LIG     C5    7  -1.957   0.395  -1.282
    1LIG     C6    8  -2.149   0.488  -0.976
    1LIG     N2    9  -2.234   0.496  -0.897
    1LIG     C7   10  -1.741   0.481  -1.374
    1LIG     N3   11  -1.753   0.385  -1.473
    1LIG     H1   12  -1.834   0.324  -1.464
    1LIG     O1   13  -1.652   0.565  -1.365
    1LIG     C8   14  -1.661   0.357  -1.577
    1LIG     C9   15  -1.661   0.421  -1.701
    1LIG    C10   16  -1.562   0.394  -1.795
    1LIG    C11   17  -1.459   0.303  -1.766
    1LIG     F1   18  -1.365   0.286  -1.859
    1LIG    C12   19  -1.455   0.235  -1.645
    1LIG    C13   20  -1.560   0.262  -1.552
    1LIG    C14   21  -1.339   0.142  -1.602
    1LIG     N4   22  -1.239   0.224  -1.530
    1LIG    C15   23  -1.180   0.186  -1.424
    1LIG    HN2   24  -1.216   0.316  -1.568
    1LIG     O2   25  -1.199   0.071  -1.359
    1LIG     N5   26  -1.090   0.264  -1.360
    1LIG    C16   27  -1.270  -0.035  -1.427
    1LIG    C17   28  -1.380   0.018  -1.517
    1LIG     F2   29  -1.426  -0.082  -1.596
    1LIG     H2   30  -1.075   0.243  -1.263
    1LIG     H3   31  -1.097   0.362  -1.384
    1LIG    C18   32  -1.270   0.100  -1.733
    1LIG    C19   33  -1.175  -0.138  -1.488
    1LIG     F3   34  -1.056  -0.083  -1.522
    1LIG     F4   35  -1.147  -0.235  -1.398
    1LIG     F5   36  -1.222  -0.200  -1.598
    1LIG     HC   37  -1.918   0.618  -0.977
    1LIG    HC1   38  -2.146   0.334  -1.198
    1LIG    HC2   39  -1.965   0.331  -1.369
    1LIG    HC3   40  -1.739   0.493  -1.724
    1LIG    HC4   41  -1.564   0.444  -1.891
    1LIG    HC5   42  -1.562   0.208  -1.459
    1LIG    HC6   43  -1.322  -0.089  -1.348
    1LIG    HC7   44  -1.462   0.049  -1.453
    1LIG    HC8   45  -1.211   0.010  -1.716
    1LIG    HC9   46  -1.204   0.180  -1.767
    1LIG   HC10   47  -1.345   0.080  -1.809
    1LIG    H17   48  -1.792   0.395  -1.215
    1LIG    H18   49  -1.100   0.141  -1.484
   0.00000   0.00000   0.00000
