; Created by cgenff_charmm2gmx.py

[ moleculetype ]
; Name			   nrexcl
LIG				 3

[ atoms ]
;	 nr		  type	resnr residue  atom   cgnr	   charge		mass  typeB    chargeB		massB
; residue	 1 LIG rtp LIG q	qsum
     1      CG311      1    LIG     C1      1      0.436     12.011   ;
     2      NG311      1    LIG     N1      2     -0.568     14.007   ;
     3     HGPAM1      1    LIG    HN1      3      0.375      1.008   ;
     4     CG2D1O      1    LIG     C2      4     -0.116     12.011   ;
     5     CG2DC1      1    LIG     C3      5      0.124     12.011   ;
     6     CG2DC2      1    LIG     C4      6     -0.239     12.011   ;
     7     CG2DC2      1    LIG     C5      7     -0.304     12.011   ;
     8      CG1N1      1    LIG     C6      8      0.301     12.011   ;
     9      NG1T1      1    LIG     N2      9     -0.413     14.007   ;
    10      CG2O1      1    LIG     C7     10      0.362     12.011   ;
    11      NG2S1      1    LIG     N3     11     -0.504     14.007   ;
    12       HGP1      1    LIG     H1     12      0.329      1.008   ;
    13      OG2D1      1    LIG     O1     13     -0.480     15.999   ;
    14     CG2R61      1    LIG     C8     14      0.167     12.011   ;
    15     CG2R61      1    LIG     C9     15     -0.154     12.011   ;
    16     CG2R61      1    LIG    C10     16     -0.093     12.011   ;
    17     CG2R66      1    LIG    C11     17      0.015     12.011   ;
    18       FGR1      1    LIG     F1     18     -0.137     18.998   ;
    19     CG2R61      1    LIG    C12     19      0.121     12.011   ;
    20     CG2R61      1    LIG    C13     20     -0.160     12.011   ;
    21      CG301      1    LIG    C14     21      0.365     12.011   ;
    22      NG311      1    LIG     N4     22     -0.898     14.007   ;
    23      CG311      1    LIG    C15     23      0.513     12.011   ;
    24     HGPAM1      1    LIG    HN2     24      0.355      1.008   ;
    25     OG3C61      1    LIG     O2     25     -0.363     15.999   ;
    26      NG321      1    LIG     N5     26     -1.036     14.007   ;
    27      CG311      1    LIG    C16     27      0.259     12.011   ;
    28      CG322      1    LIG    C17     28     -0.021     12.011   ;
    29       FGA1      1    LIG     F2     29     -0.187     18.998   ;
    30     HGPAM2      1    LIG     H2     30      0.417      1.008   ;
    31     HGPAM2      1    LIG     H3     31      0.417      1.008   ;
    32      CG331      1    LIG    C18     32     -0.303     12.011   ;
    33      CG302      1    LIG    C19     33      0.169     12.011   ;
    34       FGA3      1    LIG     F3     34     -0.115     18.998   ;
    35       FGA3      1    LIG     F4     35     -0.115     18.998   ;
    36       FGA3      1    LIG     F5     36     -0.115     18.998   ;
    37       HGA4      1    LIG     HC     37      0.162      1.008   ;
    38       HGA4      1    LIG    HC1     38      0.153      1.008   ;
    39       HGA4      1    LIG    HC2     39      0.154      1.008   ;
    40      HGR61      1    LIG    HC3     40      0.116      1.008   ;
    41      HGR62      1    LIG    HC4     41      0.179      1.008   ;
    42      HGR61      1    LIG    HC5     42      0.116      1.008   ;
    43       HGA1      1    LIG    HC6     43      0.090      1.008   ;
    44       HGA6      1    LIG    HC7     44      0.176      1.008   ;
    45       HGA3      1    LIG    HC8     45      0.090      1.008   ;
    46       HGA3      1    LIG    HC9     46      0.090      1.008   ;
    47       HGA3      1    LIG   HC10     47      0.090      1.008   ;
    48       HGA1      1    LIG    H17     48      0.090      1.008   ;
    49       HGA1      1    LIG    H18     49      0.090      1.008   ;

[ bonds ]
;	ai	  aj funct			  c0			c1			  c2			c3
    1    10	 1 ;       CG311      CG2O1
    1     7	 1 ;       CG311     CG2DC2
    1     2	 1 ;       CG311      NG311
    1    48	 1 ;       CG311       HGA1
    2     3	 1 ;       NG311     HGPAM1
    2     4	 1 ;       NG311     CG2D1O
    4     5	 1 ;      CG2D1O     CG2DC1
    4    37	 1 ;      CG2D1O       HGA4
    5     6	 1 ;      CG2DC1     CG2DC2
    5     8	 1 ;      CG2DC1      CG1N1
    6     7	 1 ;      CG2DC2     CG2DC2
    6    38	 1 ;      CG2DC2       HGA4
    7    39	 1 ;      CG2DC2       HGA4
    8     9	 1 ;       CG1N1      NG1T1
   10    11	 1 ;       CG2O1      NG2S1
   10    13	 1 ;       CG2O1      OG2D1
   11    14	 1 ;       NG2S1     CG2R61
   11    12	 1 ;       NG2S1       HGP1
   14    15	 1 ;      CG2R61     CG2R61
   14    20	 1 ;      CG2R61     CG2R61
   15    16	 1 ;      CG2R61     CG2R61
   15    40	 1 ;      CG2R61      HGR61
   16    17	 1 ;      CG2R61     CG2R66
   16    41	 1 ;      CG2R61      HGR62
   17    18	 1 ;      CG2R66       FGR1
   17    19	 1 ;      CG2R66     CG2R61
   19    21	 1 ;      CG2R61      CG301
   19    20	 1 ;      CG2R61     CG2R61
   20    42	 1 ;      CG2R61      HGR61
   21    32	 1 ;       CG301      CG331
   21    22	 1 ;       CG301      NG311
   21    28	 1 ;       CG301      CG322
   22    24	 1 ;       NG311     HGPAM1
   22    23	 1 ;       NG311      CG311
   23    26	 1 ;       CG311      NG321
   23    25	 1 ;       CG311     OG3C61
   23    49	 1 ;       CG311       HGA1
   25    27	 1 ;      OG3C61      CG311
   26    31	 1 ;       NG321     HGPAM2
   26    30	 1 ;       NG321     HGPAM2
   27    33	 1 ;       CG311      CG302
   27    28	 1 ;       CG311      CG322
   27    43	 1 ;       CG311       HGA1
   28    29	 1 ;       CG322       FGA1
   28    44	 1 ;       CG322       HGA6
   32    45	 1 ;       CG331       HGA3
   32    46	 1 ;       CG331       HGA3
   32    47	 1 ;       CG331       HGA3
   33    34	 1 ;       CG302       FGA3
   33    36	 1 ;       CG302       FGA3
   33    35	 1 ;       CG302       FGA3

[ pairs ]
;	ai	  aj funct			  c0			c1			  c2			c3
    1     5	 1
    1    37	 1
    1    38	 1
    1    14	 1
    1    12	 1
    2    11	 1
    2    13	 1
    2     6	 1
    2    39	 1
    2     8	 1
    3    10	 1
    3     7	 1
    3    48	 1
    3     5	 1
    3    37	 1
    4    10	 1
    4     7	 1
    4    48	 1
    4    38	 1
    4     9	 1
    5    39	 1
    6    10	 1
    6    48	 1
    6    37	 1
    6     9	 1
    7    11	 1
    7    13	 1
    7     8	 1
    8    37	 1
    8    38	 1
   10    39	 1
   10    15	 1
   10    20	 1
   11    48	 1
   11    16	 1
   11    40	 1
   11    19	 1
   11    42	 1
   12    13	 1
   12    15	 1
   12    20	 1
   13    48	 1
   13    14	 1
   14    17	 1
   14    41	 1
   14    21	 1
   15    19	 1
   15    42	 1
   15    18	 1
   16    20	 1
   16    21	 1
   17    40	 1
   17    32	 1
   17    22	 1
   17    28	 1
   17    42	 1
   18    41	 1
   18    21	 1
   18    20	 1
   19    41	 1
   19    45	 1
   19    46	 1
   19    47	 1
   19    24	 1
   19    23	 1
   19    29	 1
   19    27	 1
   19    44	 1
   20    40	 1
   20    32	 1
   20    22	 1
   20    28	 1
   21    42	 1
   21    26	 1
   21    25	 1
   21    49	 1
   21    33	 1
   21    43	 1
   22    45	 1
   22    46	 1
   22    47	 1
   22    29	 1
   22    27	 1
   22    44	 1
   22    31	 1
   22    30	 1
   23    32	 1
   23    28	 1
   23    33	 1
   23    43	 1
   24    32	 1
   24    28	 1
   24    26	 1
   24    25	 1
   24    49	 1
   25    31	 1
   25    30	 1
   25    34	 1
   25    36	 1
   25    35	 1
   25    29	 1
   25    44	 1
   26    27	 1
   27    32	 1
   27    49	 1
   28    45	 1
   28    46	 1
   28    47	 1
   28    34	 1
   28    36	 1
   28    35	 1
   29    32	 1
   29    33	 1
   29    43	 1
   30    49	 1
   31    49	 1
   32    44	 1
   33    44	 1
   34    43	 1
   35    43	 1
   36    43	 1
   38    39	 1
   39    48	 1
   40    41	 1
   43    44	 1

[ angles ]
;	ai	  aj	ak funct			c0			  c1			c2			  c3
   10     1     7	5 ;      CG2O1      CG311     CG2DC2
   10     1     2	5 ;      CG2O1      CG311      NG311
   10     1    48	5 ;      CG2O1      CG311       HGA1
    7     1     2	5 ;     CG2DC2      CG311      NG311
    7     1    48	5 ;     CG2DC2      CG311       HGA1
    2     1    48	5 ;      NG311      CG311       HGA1
    1     2     3	5 ;      CG311      NG311     HGPAM1
    1     2     4	5 ;      CG311      NG311     CG2D1O
    3     2     4	5 ;     HGPAM1      NG311     CG2D1O
    2     4     5	5 ;      NG311     CG2D1O     CG2DC1
    2     4    37	5 ;      NG311     CG2D1O       HGA4
    5     4    37	5 ;     CG2DC1     CG2D1O       HGA4
    6     5     4	5 ;     CG2DC2     CG2DC1     CG2D1O
    6     5     8	5 ;     CG2DC2     CG2DC1      CG1N1
    4     5     8	5 ;     CG2D1O     CG2DC1      CG1N1
    7     6     5	5 ;     CG2DC2     CG2DC2     CG2DC1
    7     6    38	5 ;     CG2DC2     CG2DC2       HGA4
    5     6    38	5 ;     CG2DC1     CG2DC2       HGA4
    1     7     6	5 ;      CG311     CG2DC2     CG2DC2
    1     7    39	5 ;      CG311     CG2DC2       HGA4
    6     7    39	5 ;     CG2DC2     CG2DC2       HGA4
    5     8     9	5 ;     CG2DC1      CG1N1      NG1T1
   11    10    13	5 ;      NG2S1      CG2O1      OG2D1
   11    10     1	5 ;      NG2S1      CG2O1      CG311
   13    10     1	5 ;      OG2D1      CG2O1      CG311
   14    11    12	5 ;     CG2R61      NG2S1       HGP1
   14    11    10	5 ;     CG2R61      NG2S1      CG2O1
   12    11    10	5 ;       HGP1      NG2S1      CG2O1
   15    14    20	5 ;     CG2R61     CG2R61     CG2R61
   15    14    11	5 ;     CG2R61     CG2R61      NG2S1
   20    14    11	5 ;     CG2R61     CG2R61      NG2S1
   16    15    14	5 ;     CG2R61     CG2R61     CG2R61
   16    15    40	5 ;     CG2R61     CG2R61      HGR61
   14    15    40	5 ;     CG2R61     CG2R61      HGR61
   17    16    15	5 ;     CG2R66     CG2R61     CG2R61
   17    16    41	5 ;     CG2R66     CG2R61      HGR62
   15    16    41	5 ;     CG2R61     CG2R61      HGR62
   18    17    16	5 ;       FGR1     CG2R66     CG2R61
   18    17    19	5 ;       FGR1     CG2R66     CG2R61
   16    17    19	5 ;     CG2R61     CG2R66     CG2R61
   17    19    21	5 ;     CG2R66     CG2R61      CG301
   17    19    20	5 ;     CG2R66     CG2R61     CG2R61
   21    19    20	5 ;      CG301     CG2R61     CG2R61
   19    20    14	5 ;     CG2R61     CG2R61     CG2R61
   19    20    42	5 ;     CG2R61     CG2R61      HGR61
   14    20    42	5 ;     CG2R61     CG2R61      HGR61
   32    21    22	5 ;      CG331      CG301      NG311
   32    21    19	5 ;      CG331      CG301     CG2R61
   32    21    28	5 ;      CG331      CG301      CG322
   22    21    19	5 ;      NG311      CG301     CG2R61
   22    21    28	5 ;      NG311      CG301      CG322
   19    21    28	5 ;     CG2R61      CG301      CG322
   24    22    21	5 ;     HGPAM1      NG311      CG301
   24    22    23	5 ;     HGPAM1      NG311      CG311
   21    22    23	5 ;      CG301      NG311      CG311
   22    23    26	5 ;      NG311      CG311      NG321
   22    23    25	5 ;      NG311      CG311     OG3C61
   22    23    49	5 ;      NG311      CG311       HGA1
   26    23    25	5 ;      NG321      CG311     OG3C61
   26    23    49	5 ;      NG321      CG311       HGA1
   25    23    49	5 ;     OG3C61      CG311       HGA1
   23    25    27	5 ;      CG311     OG3C61      CG311
   23    26    31	5 ;      CG311      NG321     HGPAM2
   23    26    30	5 ;      CG311      NG321     HGPAM2
   31    26    30	5 ;     HGPAM2      NG321     HGPAM2
   33    27    28	5 ;      CG302      CG311      CG322
   33    27    25	5 ;      CG302      CG311     OG3C61
   33    27    43	5 ;      CG302      CG311       HGA1
   28    27    25	5 ;      CG322      CG311     OG3C61
   28    27    43	5 ;      CG322      CG311       HGA1
   25    27    43	5 ;     OG3C61      CG311       HGA1
   21    28    29	5 ;      CG301      CG322       FGA1
   21    28    27	5 ;      CG301      CG322      CG311
   21    28    44	5 ;      CG301      CG322       HGA6
   29    28    27	5 ;       FGA1      CG322      CG311
   29    28    44	5 ;       FGA1      CG322       HGA6
   27    28    44	5 ;      CG311      CG322       HGA6
   21    32    45	5 ;      CG301      CG331       HGA3
   21    32    46	5 ;      CG301      CG331       HGA3
   21    32    47	5 ;      CG301      CG331       HGA3
   45    32    46	5 ;       HGA3      CG331       HGA3
   45    32    47	5 ;       HGA3      CG331       HGA3
   46    32    47	5 ;       HGA3      CG331       HGA3
   34    33    36	5 ;       FGA3      CG302       FGA3
   34    33    35	5 ;       FGA3      CG302       FGA3
   34    33    27	5 ;       FGA3      CG302      CG311
   36    33    35	5 ;       FGA3      CG302       FGA3
   36    33    27	5 ;       FGA3      CG302      CG311
   35    33    27	5 ;       FGA3      CG302      CG311

[ dihedrals ]
;	ai	  aj	ak	  al funct			  c0			c1			  c2			c3			  c4			c5
    7     1    10    11	 9 ;     CG2DC2      CG311      CG2O1      NG2S1
    7     1    10    13	 9 ;     CG2DC2      CG311      CG2O1      OG2D1
    2     1    10    11	 9 ;      NG311      CG311      CG2O1      NG2S1
    2     1    10    13	 9 ;      NG311      CG311      CG2O1      OG2D1
   48     1    10    11	 9 ;       HGA1      CG311      CG2O1      NG2S1
   48     1    10    13	 9 ;       HGA1      CG311      CG2O1      OG2D1
   10     1     7     6	 9 ;      CG2O1      CG311     CG2DC2     CG2DC2
   10     1     7    39	 9 ;      CG2O1      CG311     CG2DC2       HGA4
    2     1     7     6	 9 ;      NG311      CG311     CG2DC2     CG2DC2
    2     1     7    39	 9 ;      NG311      CG311     CG2DC2       HGA4
   48     1     7     6	 9 ;       HGA1      CG311     CG2DC2     CG2DC2
   48     1     7    39	 9 ;       HGA1      CG311     CG2DC2       HGA4
   10     1     2     3	 9 ;      CG2O1      CG311      NG311     HGPAM1
   10     1     2     4	 9 ;      CG2O1      CG311      NG311     CG2D1O
    7     1     2     3	 9 ;     CG2DC2      CG311      NG311     HGPAM1
    7     1     2     4	 9 ;     CG2DC2      CG311      NG311     CG2D1O
   48     1     2     3	 9 ;       HGA1      CG311      NG311     HGPAM1
   48     1     2     4	 9 ;       HGA1      CG311      NG311     CG2D1O
    1     2     4     5	 9 ;      CG311      NG311     CG2D1O     CG2DC1
    1     2     4    37	 9 ;      CG311      NG311     CG2D1O       HGA4
    3     2     4     5	 9 ;     HGPAM1      NG311     CG2D1O     CG2DC1
    3     2     4    37	 9 ;     HGPAM1      NG311     CG2D1O       HGA4
    2     4     5     6	 9 ;      NG311     CG2D1O     CG2DC1     CG2DC2
    2     4     5     8	 9 ;      NG311     CG2D1O     CG2DC1      CG1N1
   37     4     5     6	 9 ;       HGA4     CG2D1O     CG2DC1     CG2DC2
   37     4     5     8	 9 ;       HGA4     CG2D1O     CG2DC1      CG1N1
    4     5     6     7	 9 ;     CG2D1O     CG2DC1     CG2DC2     CG2DC2
    4     5     6    38	 9 ;     CG2D1O     CG2DC1     CG2DC2       HGA4
    8     5     6     7	 9 ;      CG1N1     CG2DC1     CG2DC2     CG2DC2
    8     5     6    38	 9 ;      CG1N1     CG2DC1     CG2DC2       HGA4
    5     6     7     1	 9 ;     CG2DC1     CG2DC2     CG2DC2      CG311
    5     6     7    39	 9 ;     CG2DC1     CG2DC2     CG2DC2       HGA4
   38     6     7     1	 9 ;       HGA4     CG2DC2     CG2DC2      CG311
   38     6     7    39	 9 ;       HGA4     CG2DC2     CG2DC2       HGA4
   13    10    11    14	 9 ;      OG2D1      CG2O1      NG2S1     CG2R61
   13    10    11    12	 9 ;      OG2D1      CG2O1      NG2S1       HGP1
    1    10    11    14	 9 ;      CG311      CG2O1      NG2S1     CG2R61
    1    10    11    12	 9 ;      CG311      CG2O1      NG2S1       HGP1
   12    11    14    15	 9 ;       HGP1      NG2S1     CG2R61     CG2R61
   12    11    14    20	 9 ;       HGP1      NG2S1     CG2R61     CG2R61
   10    11    14    15	 9 ;      CG2O1      NG2S1     CG2R61     CG2R61
   10    11    14    20	 9 ;      CG2O1      NG2S1     CG2R61     CG2R61
   20    14    15    16	 9 ;     CG2R61     CG2R61     CG2R61     CG2R61
   20    14    15    40	 9 ;     CG2R61     CG2R61     CG2R61      HGR61
   11    14    15    16	 9 ;      NG2S1     CG2R61     CG2R61     CG2R61
   11    14    15    40	 9 ;      NG2S1     CG2R61     CG2R61      HGR61
   15    14    20    19	 9 ;     CG2R61     CG2R61     CG2R61     CG2R61
   15    14    20    42	 9 ;     CG2R61     CG2R61     CG2R61      HGR61
   11    14    20    19	 9 ;      NG2S1     CG2R61     CG2R61     CG2R61
   11    14    20    42	 9 ;      NG2S1     CG2R61     CG2R61      HGR61
   14    15    16    17	 9 ;     CG2R61     CG2R61     CG2R61     CG2R66
   14    15    16    41	 9 ;     CG2R61     CG2R61     CG2R61      HGR62
   40    15    16    17	 9 ;      HGR61     CG2R61     CG2R61     CG2R66
   40    15    16    41	 9 ;      HGR61     CG2R61     CG2R61      HGR62
   15    16    17    18	 9 ;     CG2R61     CG2R61     CG2R66       FGR1
   15    16    17    19	 9 ;     CG2R61     CG2R61     CG2R66     CG2R61
   41    16    17    18	 9 ;      HGR62     CG2R61     CG2R66       FGR1
   41    16    17    19	 9 ;      HGR62     CG2R61     CG2R66     CG2R61
   18    17    19    21	 9 ;       FGR1     CG2R66     CG2R61      CG301
   18    17    19    20	 9 ;       FGR1     CG2R66     CG2R61     CG2R61
   16    17    19    21	 9 ;     CG2R61     CG2R66     CG2R61      CG301
   16    17    19    20	 9 ;     CG2R61     CG2R66     CG2R61     CG2R61
   17    19    21    32	 9 ;     CG2R66     CG2R61      CG301      CG331
   17    19    21    22	 9 ;     CG2R66     CG2R61      CG301      NG311
   17    19    21    28	 9 ;     CG2R66     CG2R61      CG301      CG322
   20    19    21    32	 9 ;     CG2R61     CG2R61      CG301      CG331
   20    19    21    22	 9 ;     CG2R61     CG2R61      CG301      NG311
   20    19    21    28	 9 ;     CG2R61     CG2R61      CG301      CG322
   17    19    20    14	 9 ;     CG2R66     CG2R61     CG2R61     CG2R61
   17    19    20    42	 9 ;     CG2R66     CG2R61     CG2R61      HGR61
   21    19    20    14	 9 ;      CG301     CG2R61     CG2R61     CG2R61
   21    19    20    42	 9 ;      CG301     CG2R61     CG2R61      HGR61
   22    21    32    45	 9 ;      NG311      CG301      CG331       HGA3
   22    21    32    46	 9 ;      NG311      CG301      CG331       HGA3
   22    21    32    47	 9 ;      NG311      CG301      CG331       HGA3
   19    21    32    45	 9 ;     CG2R61      CG301      CG331       HGA3
   19    21    32    46	 9 ;     CG2R61      CG301      CG331       HGA3
   19    21    32    47	 9 ;     CG2R61      CG301      CG331       HGA3
   28    21    32    45	 9 ;      CG322      CG301      CG331       HGA3
   28    21    32    46	 9 ;      CG322      CG301      CG331       HGA3
   28    21    32    47	 9 ;      CG322      CG301      CG331       HGA3
   32    21    22    24	 9 ;      CG331      CG301      NG311     HGPAM1
   32    21    22    23	 9 ;      CG331      CG301      NG311      CG311
   19    21    22    24	 9 ;     CG2R61      CG301      NG311     HGPAM1
   19    21    22    23	 9 ;     CG2R61      CG301      NG311      CG311
   28    21    22    24	 9 ;      CG322      CG301      NG311     HGPAM1
   28    21    22    23	 9 ;      CG322      CG301      NG311      CG311
   32    21    28    29	 9 ;      CG331      CG301      CG322       FGA1
   32    21    28    27	 9 ;      CG331      CG301      CG322      CG311
   32    21    28    44	 9 ;      CG331      CG301      CG322       HGA6
   22    21    28    29	 9 ;      NG311      CG301      CG322       FGA1
   22    21    28    27	 9 ;      NG311      CG301      CG322      CG311
   22    21    28    44	 9 ;      NG311      CG301      CG322       HGA6
   19    21    28    29	 9 ;     CG2R61      CG301      CG322       FGA1
   19    21    28    27	 9 ;     CG2R61      CG301      CG322      CG311
   19    21    28    44	 9 ;     CG2R61      CG301      CG322       HGA6
   24    22    23    26	 9 ;     HGPAM1      NG311      CG311      NG321
   24    22    23    25	 9 ;     HGPAM1      NG311      CG311     OG3C61
   24    22    23    49	 9 ;     HGPAM1      NG311      CG311       HGA1
   21    22    23    26	 9 ;      CG301      NG311      CG311      NG321
   21    22    23    25	 9 ;      CG301      NG311      CG311     OG3C61
   21    22    23    49	 9 ;      CG301      NG311      CG311       HGA1
   22    23    26    31	 9 ;      NG311      CG311      NG321     HGPAM2
   22    23    26    30	 9 ;      NG311      CG311      NG321     HGPAM2
   25    23    26    31	 9 ;     OG3C61      CG311      NG321     HGPAM2
   25    23    26    30	 9 ;     OG3C61      CG311      NG321     HGPAM2
   49    23    26    31	 9 ;       HGA1      CG311      NG321     HGPAM2
   49    23    26    30	 9 ;       HGA1      CG311      NG321     HGPAM2
   22    23    25    27	 9 ;      NG311      CG311     OG3C61      CG311
   26    23    25    27	 9 ;      NG321      CG311     OG3C61      CG311
   49    23    25    27	 9 ;       HGA1      CG311     OG3C61      CG311
   23    25    27    33	 9 ;      CG311     OG3C61      CG311      CG302
   23    25    27    28	 9 ;      CG311     OG3C61      CG311      CG322
   23    25    27    43	 9 ;      CG311     OG3C61      CG311       HGA1
   28    27    33    34	 9 ;      CG322      CG311      CG302       FGA3
   28    27    33    36	 9 ;      CG322      CG311      CG302       FGA3
   28    27    33    35	 9 ;      CG322      CG311      CG302       FGA3
   25    27    33    34	 9 ;     OG3C61      CG311      CG302       FGA3
   25    27    33    36	 9 ;     OG3C61      CG311      CG302       FGA3
   25    27    33    35	 9 ;     OG3C61      CG311      CG302       FGA3
   43    27    33    34	 9 ;       HGA1      CG311      CG302       FGA3
   43    27    33    36	 9 ;       HGA1      CG311      CG302       FGA3
   43    27    33    35	 9 ;       HGA1      CG311      CG302       FGA3
   33    27    28    21	 9 ;      CG302      CG311      CG322      CG301
   33    27    28    29	 9 ;      CG302      CG311      CG322       FGA1
   33    27    28    44	 9 ;      CG302      CG311      CG322       HGA6
   25    27    28    21	 9 ;     OG3C61      CG311      CG322      CG301
   25    27    28    29	 9 ;     OG3C61      CG311      CG322       FGA1
   25    27    28    44	 9 ;     OG3C61      CG311      CG322       HGA6
   43    27    28    21	 9 ;       HGA1      CG311      CG322      CG301
   43    27    28    29	 9 ;       HGA1      CG311      CG322       FGA1
   43    27    28    44	 9 ;       HGA1      CG311      CG322       HGA6

[ dihedrals ]
;	ai	  aj	ak	  al funct			  c0			c1			  c2			c3
    4     5     2    37	 2
   10     1    11    13	 2

