; Created by cgenff_charmm2gmx.py

[ moleculetype ]
; Name			   nrexcl
LIG				 3

[ atoms ]
;	 nr		  type	resnr residue  atom   cgnr	   charge		mass  typeB    chargeB		massB
; residue	 1 LIG rtp LIG q	qsum
     1      OG2D1      1    LIG      O      1     -0.551     15.999   ;
     2      CG2O1      1    LIG     C1      2      0.604     12.011   ;
     3      NG2S0      1    LIG     N1      3     -0.363     14.007   ;
     4      CG321      1    LIG     C2      4      0.047     12.011   ;
     5      CG321      1    LIG     C3      5     -0.173     12.011   ;
     6      CG311      1    LIG     C4      6     -0.136     12.011   ;
     7      CG321      1    LIG     C5      7     -0.164     12.011   ;
     8      CG311      1    LIG     C6      8      0.058     12.011   ;
     9     CG3C51      1    LIG     C7      9      0.658     12.011   ;
    10     CG3C54      1    LIG     C8     10     -0.560     12.011   ;
    11      NG3P2      1    LIG     N2     11     -0.146     14.007   ;
    12     CG3C54      1    LIG     C9     12     -0.450     12.011   ;
    13       HGP2      1    LIG     H1     13      0.341      1.008   ;
    14       HGP2      1    LIG     H2     14      0.341      1.008   ;
    15     CG3C50      1    LIG    C10     15     -0.426     12.011   ;
    16      CG321      1    LIG    C11     16     -0.114     12.011   ;
    17     CG2R61      1    LIG    C12     17     -0.137     12.011   ;
    18      CG321      1    LIG    C13     18     -0.165     12.011   ;
    19      CG321      1    LIG    C14     19     -0.273     12.011   ;
    20     CG2R61      1    LIG    C15     20      0.085     12.011   ;
    21     CG2R61      1    LIG    C16     21     -0.112     12.011   ;
    22     CG2R61      1    LIG    C17     22     -0.112     12.011   ;
    23     CG2R61      1    LIG    C18     23     -0.105     12.011   ;
    24     CG2R61      1    LIG    C19     24     -0.126     12.011   ;
    25     CG2R61      1    LIG    C20     25     -0.079     12.011   ;
    26     CG2R61      1    LIG    C21     26     -0.085     12.011   ;
    27     CG2R61      1    LIG    C22     27     -0.114     12.011   ;
    28     CG2R61      1    LIG    C23     28     -0.116     12.011   ;
    29     CG2R61      1    LIG    C24     29     -0.114     12.011   ;
    30     CG2R61      1    LIG    C25     30     -0.085     12.011   ;
    31     CG2R61      1    LIG    C26     31      0.034     12.011   ;
    32     CG2R61      1    LIG    C27     32     -0.112     12.011   ;
    33     CG2R61      1    LIG    C28     33     -0.114     12.011   ;
    34     CG2R61      1    LIG    C29     34     -0.116     12.011   ;
    35     CG2R61      1    LIG    C30     35     -0.114     12.011   ;
    36     CG2R61      1    LIG    C31     36     -0.112     12.011   ;
    37       HGA2      1    LIG    HC2     37      0.090      1.008   ;
    38       HGA2      1    LIG    HC3     38      0.090      1.008   ;
    39       HGA2      1    LIG    HC4     39      0.090      1.008   ;
    40       HGA2      1    LIG    HC5     40      0.090      1.008   ;
    41       HGA1      1    LIG     HC     41      0.090      1.008   ;
    42       HGA2      1    LIG    HC6     42      0.090      1.008   ;
    43       HGA2      1    LIG    HC7     43      0.090      1.008   ;
    44       HGA1      1    LIG    HC1     44      0.090      1.008   ;
    45       HGA1      1    LIG    HC8     45      0.090      1.008   ;
    46       HGA2      1    LIG    HC9     46      0.280      1.008   ;
    47       HGA2      1    LIG   HC10     47      0.280      1.008   ;
    48       HGA2      1    LIG   HC11     48      0.286      1.008   ;
    49       HGA2      1    LIG   HC12     49      0.286      1.008   ;
    50       HGA2      1    LIG   HC13     50      0.090      1.008   ;
    51       HGA2      1    LIG   HC14     51      0.090      1.008   ;
    52       HGA2      1    LIG   HC15     52      0.090      1.008   ;
    53       HGA2      1    LIG   HC16     53      0.090      1.008   ;
    54       HGA2      1    LIG   HC17     54      0.090      1.008   ;
    55       HGA2      1    LIG   HC18     55      0.090      1.008   ;
    56      HGR61      1    LIG   HC19     56      0.116      1.008   ;
    57      HGR61      1    LIG   HC20     57      0.116      1.008   ;
    58      HGR61      1    LIG   HC21     58      0.116      1.008   ;
    59      HGR61      1    LIG   HC22     59      0.116      1.008   ;
    60      HGR61      1    LIG   HC23     60      0.116      1.008   ;
    61      HGR61      1    LIG   HC24     61      0.116      1.008   ;
    62      HGR61      1    LIG   HC25     62      0.116      1.008   ;
    63      HGR61      1    LIG   HC26     63      0.116      1.008   ;
    64      HGR61      1    LIG   HC27     64      0.116      1.008   ;
    65      HGR61      1    LIG   HC28     65      0.116      1.008   ;
    66      HGR61      1    LIG   HC29     66      0.116      1.008   ;
    67      HGR61      1    LIG   HC30     67      0.116      1.008   ;
    68      HGR61      1    LIG   HC31     68      0.116      1.008   ;
    69      HGR61      1    LIG   HC32     69      0.116      1.008   ;

[ bonds ]
;	ai	  aj funct			  c0			c1			  c2			c3
    1     2	 1 ;       OG2D1      CG2O1
    2     9	 1 ;       CG2O1     CG3C51
    2     3	 1 ;       CG2O1      NG2S0
    3     8	 1 ;       NG2S0      CG311
    3     4	 1 ;       NG2S0      CG321
    4     5	 1 ;       CG321      CG321
    4    37	 1 ;       CG321       HGA2
    4    38	 1 ;       CG321       HGA2
    5     6	 1 ;       CG321      CG311
    5    39	 1 ;       CG321       HGA2
    5    40	 1 ;       CG321       HGA2
    6     7	 1 ;       CG311      CG321
    6    31	 1 ;       CG311     CG2R61
    6    41	 1 ;       CG311       HGA1
    7     8	 1 ;       CG321      CG311
    7    42	 1 ;       CG321       HGA2
    7    43	 1 ;       CG321       HGA2
    8    25	 1 ;       CG311     CG2R61
    8    44	 1 ;       CG311       HGA1
    9    10	 1 ;      CG3C51     CG3C54
    9    15	 1 ;      CG3C51     CG3C50
    9    45	 1 ;      CG3C51       HGA1
   10    11	 1 ;      CG3C54      NG3P2
   10    46	 1 ;      CG3C54       HGA2
   10    47	 1 ;      CG3C54       HGA2
   11    13	 1 ;       NG3P2       HGP2
   11    14	 1 ;       NG3P2       HGP2
   11    12	 1 ;       NG3P2     CG3C54
   12    15	 1 ;      CG3C54     CG3C50
   12    48	 1 ;      CG3C54       HGA2
   12    49	 1 ;      CG3C54       HGA2
   15    16	 1 ;      CG3C50      CG321
   15    17	 1 ;      CG3C50     CG2R61
   16    18	 1 ;       CG321      CG321
   16    50	 1 ;       CG321       HGA2
   16    51	 1 ;       CG321       HGA2
   17    20	 1 ;      CG2R61     CG2R61
   17    24	 1 ;      CG2R61     CG2R61
   18    19	 1 ;       CG321      CG321
   18    52	 1 ;       CG321       HGA2
   18    53	 1 ;       CG321       HGA2
   19    20	 1 ;       CG321     CG2R61
   19    54	 1 ;       CG321       HGA2
   19    55	 1 ;       CG321       HGA2
   20    21	 1 ;      CG2R61     CG2R61
   21    22	 1 ;      CG2R61     CG2R61
   21    56	 1 ;      CG2R61      HGR61
   22    23	 1 ;      CG2R61     CG2R61
   22    57	 1 ;      CG2R61      HGR61
   23    24	 1 ;      CG2R61     CG2R61
   23    58	 1 ;      CG2R61      HGR61
   24    59	 1 ;      CG2R61      HGR61
   25    30	 1 ;      CG2R61     CG2R61
   25    26	 1 ;      CG2R61     CG2R61
   26    27	 1 ;      CG2R61     CG2R61
   26    60	 1 ;      CG2R61      HGR61
   27    28	 1 ;      CG2R61     CG2R61
   27    61	 1 ;      CG2R61      HGR61
   28    29	 1 ;      CG2R61     CG2R61
   28    62	 1 ;      CG2R61      HGR61
   29    30	 1 ;      CG2R61     CG2R61
   29    63	 1 ;      CG2R61      HGR61
   30    64	 1 ;      CG2R61      HGR61
   31    32	 1 ;      CG2R61     CG2R61
   31    36	 1 ;      CG2R61     CG2R61
   32    33	 1 ;      CG2R61     CG2R61
   32    65	 1 ;      CG2R61      HGR61
   33    34	 1 ;      CG2R61     CG2R61
   33    66	 1 ;      CG2R61      HGR61
   34    35	 1 ;      CG2R61     CG2R61
   34    67	 1 ;      CG2R61      HGR61
   35    36	 1 ;      CG2R61     CG2R61
   35    68	 1 ;      CG2R61      HGR61
   36    69	 1 ;      CG2R61      HGR61

[ pairs ]
;	ai	  aj funct			  c0			c1			  c2			c3
    1    10	 1
    1    15	 1
    1    45	 1
    1     8	 1
    1     4	 1
    2    25	 1
    2     7	 1
    2    44	 1
    2     5	 1
    2    37	 1
    2    38	 1
    2    11	 1
    2    46	 1
    2    47	 1
    2    16	 1
    2    12	 1
    2    17	 1
    3    10	 1
    3    15	 1
    3    45	 1
    3     6	 1
    3    39	 1
    3    40	 1
    3    42	 1
    3    43	 1
    3    30	 1
    3    26	 1
    4     9	 1
    4    25	 1
    4     7	 1
    4    44	 1
    4    31	 1
    4    41	 1
    5     8	 1
    5    42	 1
    5    43	 1
    5    32	 1
    5    36	 1
    6    37	 1
    6    38	 1
    6    25	 1
    6    44	 1
    6    33	 1
    6    65	 1
    6    35	 1
    6    69	 1
    7    39	 1
    7    40	 1
    7    32	 1
    7    36	 1
    7    30	 1
    7    26	 1
    8     9	 1
    8    37	 1
    8    38	 1
    8    31	 1
    8    41	 1
    8    29	 1
    8    64	 1
    8    27	 1
    8    60	 1
    9    13	 1
    9    14	 1
    9    48	 1
    9    49	 1
    9    18	 1
    9    50	 1
    9    51	 1
    9    20	 1
    9    24	 1
   10    16	 1
   10    17	 1
   10    48	 1
   10    49	 1
   11    45	 1
   11    16	 1
   11    17	 1
   12    45	 1
   12    46	 1
   12    47	 1
   12    18	 1
   12    50	 1
   12    51	 1
   12    20	 1
   12    24	 1
   13    46	 1
   13    47	 1
   13    15	 1
   13    48	 1
   13    49	 1
   14    46	 1
   14    47	 1
   14    15	 1
   14    48	 1
   14    49	 1
   15    46	 1
   15    47	 1
   15    19	 1
   15    52	 1
   15    53	 1
   15    21	 1
   15    23	 1
   15    59	 1
   16    45	 1
   16    48	 1
   16    49	 1
   16    20	 1
   16    24	 1
   16    54	 1
   16    55	 1
   17    45	 1
   17    48	 1
   17    49	 1
   17    18	 1
   17    50	 1
   17    51	 1
   17    54	 1
   17    55	 1
   17    22	 1
   17    56	 1
   17    58	 1
   18    21	 1
   19    50	 1
   19    51	 1
   19    24	 1
   19    22	 1
   19    56	 1
   20    23	 1
   20    59	 1
   20    52	 1
   20    53	 1
   20    57	 1
   21    24	 1
   21    54	 1
   21    55	 1
   21    58	 1
   22    59	 1
   23    56	 1
   24    57	 1
   25    42	 1
   25    43	 1
   25    28	 1
   25    61	 1
   25    63	 1
   26    44	 1
   26    29	 1
   26    64	 1
   26    62	 1
   27    30	 1
   27    63	 1
   28    60	 1
   28    64	 1
   29    61	 1
   30    44	 1
   30    60	 1
   30    62	 1
   31    39	 1
   31    40	 1
   31    42	 1
   31    43	 1
   31    34	 1
   31    66	 1
   31    68	 1
   32    41	 1
   32    35	 1
   32    69	 1
   32    67	 1
   33    36	 1
   33    68	 1
   34    65	 1
   34    69	 1
   35    66	 1
   36    41	 1
   36    65	 1
   36    67	 1
   37    39	 1
   37    40	 1
   38    39	 1
   38    40	 1
   39    41	 1
   40    41	 1
   41    42	 1
   41    43	 1
   42    44	 1
   43    44	 1
   45    46	 1
   45    47	 1
   50    52	 1
   50    53	 1
   51    52	 1
   51    53	 1
   52    54	 1
   52    55	 1
   53    54	 1
   53    55	 1
   56    57	 1
   57    58	 1
   58    59	 1
   60    61	 1
   61    62	 1
   62    63	 1
   63    64	 1
   65    66	 1
   66    67	 1
   67    68	 1
   68    69	 1

[ angles ]
;	ai	  aj	ak funct			c0			  c1			c2			  c3
    1     2     9	5 ;      OG2D1      CG2O1     CG3C51
    1     2     3	5 ;      OG2D1      CG2O1      NG2S0
    9     2     3	5 ;     CG3C51      CG2O1      NG2S0
    8     3     2	5 ;      CG311      NG2S0      CG2O1
    8     3     4	5 ;      CG311      NG2S0      CG321
    2     3     4	5 ;      CG2O1      NG2S0      CG321
    3     4     5	5 ;      NG2S0      CG321      CG321
    3     4    37	5 ;      NG2S0      CG321       HGA2
    3     4    38	5 ;      NG2S0      CG321       HGA2
    5     4    37	5 ;      CG321      CG321       HGA2
    5     4    38	5 ;      CG321      CG321       HGA2
   37     4    38	5 ;       HGA2      CG321       HGA2
    4     5     6	5 ;      CG321      CG321      CG311
    4     5    39	5 ;      CG321      CG321       HGA2
    4     5    40	5 ;      CG321      CG321       HGA2
    6     5    39	5 ;      CG311      CG321       HGA2
    6     5    40	5 ;      CG311      CG321       HGA2
   39     5    40	5 ;       HGA2      CG321       HGA2
    7     6    31	5 ;      CG321      CG311     CG2R61
    7     6     5	5 ;      CG321      CG311      CG321
    7     6    41	5 ;      CG321      CG311       HGA1
   31     6     5	5 ;     CG2R61      CG311      CG321
   31     6    41	5 ;     CG2R61      CG311       HGA1
    5     6    41	5 ;      CG321      CG311       HGA1
    8     7     6	5 ;      CG311      CG321      CG311
    8     7    42	5 ;      CG311      CG321       HGA2
    8     7    43	5 ;      CG311      CG321       HGA2
    6     7    42	5 ;      CG311      CG321       HGA2
    6     7    43	5 ;      CG311      CG321       HGA2
   42     7    43	5 ;       HGA2      CG321       HGA2
   25     8     3	5 ;     CG2R61      CG311      NG2S0
   25     8     7	5 ;     CG2R61      CG311      CG321
   25     8    44	5 ;     CG2R61      CG311       HGA1
    3     8     7	5 ;      NG2S0      CG311      CG321
    3     8    44	5 ;      NG2S0      CG311       HGA1
    7     8    44	5 ;      CG321      CG311       HGA1
   10     9     2	5 ;     CG3C54     CG3C51      CG2O1
   10     9    15	5 ;     CG3C54     CG3C51     CG3C50
   10     9    45	5 ;     CG3C54     CG3C51       HGA1
    2     9    15	5 ;      CG2O1     CG3C51     CG3C50
    2     9    45	5 ;      CG2O1     CG3C51       HGA1
   15     9    45	5 ;     CG3C50     CG3C51       HGA1
   11    10     9	5 ;      NG3P2     CG3C54     CG3C51
   11    10    46	5 ;      NG3P2     CG3C54       HGA2
   11    10    47	5 ;      NG3P2     CG3C54       HGA2
    9    10    46	5 ;     CG3C51     CG3C54       HGA2
    9    10    47	5 ;     CG3C51     CG3C54       HGA2
   46    10    47	5 ;       HGA2     CG3C54       HGA2
   10    11    13	5 ;     CG3C54      NG3P2       HGP2
   10    11    14	5 ;     CG3C54      NG3P2       HGP2
   10    11    12	5 ;     CG3C54      NG3P2     CG3C54
   13    11    14	5 ;       HGP2      NG3P2       HGP2
   13    11    12	5 ;       HGP2      NG3P2     CG3C54
   14    11    12	5 ;       HGP2      NG3P2     CG3C54
   11    12    15	5 ;      NG3P2     CG3C54     CG3C50
   11    12    48	5 ;      NG3P2     CG3C54       HGA2
   11    12    49	5 ;      NG3P2     CG3C54       HGA2
   15    12    48	5 ;     CG3C50     CG3C54       HGA2
   15    12    49	5 ;     CG3C50     CG3C54       HGA2
   48    12    49	5 ;       HGA2     CG3C54       HGA2
    9    15    16	5 ;     CG3C51     CG3C50      CG321
    9    15    12	5 ;     CG3C51     CG3C50     CG3C54
    9    15    17	5 ;     CG3C51     CG3C50     CG2R61
   16    15    12	5 ;      CG321     CG3C50     CG3C54
   16    15    17	5 ;      CG321     CG3C50     CG2R61
   12    15    17	5 ;     CG3C54     CG3C50     CG2R61
   18    16    15	5 ;      CG321      CG321     CG3C50
   18    16    50	5 ;      CG321      CG321       HGA2
   18    16    51	5 ;      CG321      CG321       HGA2
   15    16    50	5 ;     CG3C50      CG321       HGA2
   15    16    51	5 ;     CG3C50      CG321       HGA2
   50    16    51	5 ;       HGA2      CG321       HGA2
   15    17    20	5 ;     CG3C50     CG2R61     CG2R61
   15    17    24	5 ;     CG3C50     CG2R61     CG2R61
   20    17    24	5 ;     CG2R61     CG2R61     CG2R61
   19    18    16	5 ;      CG321      CG321      CG321
   19    18    52	5 ;      CG321      CG321       HGA2
   19    18    53	5 ;      CG321      CG321       HGA2
   16    18    52	5 ;      CG321      CG321       HGA2
   16    18    53	5 ;      CG321      CG321       HGA2
   52    18    53	5 ;       HGA2      CG321       HGA2
   18    19    20	5 ;      CG321      CG321     CG2R61
   18    19    54	5 ;      CG321      CG321       HGA2
   18    19    55	5 ;      CG321      CG321       HGA2
   20    19    54	5 ;     CG2R61      CG321       HGA2
   20    19    55	5 ;     CG2R61      CG321       HGA2
   54    19    55	5 ;       HGA2      CG321       HGA2
   19    20    17	5 ;      CG321     CG2R61     CG2R61
   19    20    21	5 ;      CG321     CG2R61     CG2R61
   17    20    21	5 ;     CG2R61     CG2R61     CG2R61
   20    21    22	5 ;     CG2R61     CG2R61     CG2R61
   20    21    56	5 ;     CG2R61     CG2R61      HGR61
   22    21    56	5 ;     CG2R61     CG2R61      HGR61
   21    22    23	5 ;     CG2R61     CG2R61     CG2R61
   21    22    57	5 ;     CG2R61     CG2R61      HGR61
   23    22    57	5 ;     CG2R61     CG2R61      HGR61
   24    23    22	5 ;     CG2R61     CG2R61     CG2R61
   24    23    58	5 ;     CG2R61     CG2R61      HGR61
   22    23    58	5 ;     CG2R61     CG2R61      HGR61
   17    24    23	5 ;     CG2R61     CG2R61     CG2R61
   17    24    59	5 ;     CG2R61     CG2R61      HGR61
   23    24    59	5 ;     CG2R61     CG2R61      HGR61
   30    25    26	5 ;     CG2R61     CG2R61     CG2R61
   30    25     8	5 ;     CG2R61     CG2R61      CG311
   26    25     8	5 ;     CG2R61     CG2R61      CG311
   27    26    25	5 ;     CG2R61     CG2R61     CG2R61
   27    26    60	5 ;     CG2R61     CG2R61      HGR61
   25    26    60	5 ;     CG2R61     CG2R61      HGR61
   28    27    26	5 ;     CG2R61     CG2R61     CG2R61
   28    27    61	5 ;     CG2R61     CG2R61      HGR61
   26    27    61	5 ;     CG2R61     CG2R61      HGR61
   29    28    27	5 ;     CG2R61     CG2R61     CG2R61
   29    28    62	5 ;     CG2R61     CG2R61      HGR61
   27    28    62	5 ;     CG2R61     CG2R61      HGR61
   28    29    30	5 ;     CG2R61     CG2R61     CG2R61
   28    29    63	5 ;     CG2R61     CG2R61      HGR61
   30    29    63	5 ;     CG2R61     CG2R61      HGR61
   29    30    25	5 ;     CG2R61     CG2R61     CG2R61
   29    30    64	5 ;     CG2R61     CG2R61      HGR61
   25    30    64	5 ;     CG2R61     CG2R61      HGR61
   32    31    36	5 ;     CG2R61     CG2R61     CG2R61
   32    31     6	5 ;     CG2R61     CG2R61      CG311
   36    31     6	5 ;     CG2R61     CG2R61      CG311
   33    32    31	5 ;     CG2R61     CG2R61     CG2R61
   33    32    65	5 ;     CG2R61     CG2R61      HGR61
   31    32    65	5 ;     CG2R61     CG2R61      HGR61
   34    33    32	5 ;     CG2R61     CG2R61     CG2R61
   34    33    66	5 ;     CG2R61     CG2R61      HGR61
   32    33    66	5 ;     CG2R61     CG2R61      HGR61
   33    34    35	5 ;     CG2R61     CG2R61     CG2R61
   33    34    67	5 ;     CG2R61     CG2R61      HGR61
   35    34    67	5 ;     CG2R61     CG2R61      HGR61
   34    35    36	5 ;     CG2R61     CG2R61     CG2R61
   34    35    68	5 ;     CG2R61     CG2R61      HGR61
   36    35    68	5 ;     CG2R61     CG2R61      HGR61
   35    36    31	5 ;     CG2R61     CG2R61     CG2R61
   35    36    69	5 ;     CG2R61     CG2R61      HGR61
   31    36    69	5 ;     CG2R61     CG2R61      HGR61

[ dihedrals ]
;	ai	  aj	ak	  al funct			  c0			c1			  c2			c3			  c4			c5
    1     2     9    10	 9 ;      OG2D1      CG2O1     CG3C51     CG3C54
    1     2     9    15	 9 ;      OG2D1      CG2O1     CG3C51     CG3C50
    1     2     9    45	 9 ;      OG2D1      CG2O1     CG3C51       HGA1
    3     2     9    10	 9 ;      NG2S0      CG2O1     CG3C51     CG3C54
    3     2     9    15	 9 ;      NG2S0      CG2O1     CG3C51     CG3C50
    3     2     9    45	 9 ;      NG2S0      CG2O1     CG3C51       HGA1
    1     2     3     8	 9 ;      OG2D1      CG2O1      NG2S0      CG311
    1     2     3     4	 9 ;      OG2D1      CG2O1      NG2S0      CG321
    9     2     3     8	 9 ;     CG3C51      CG2O1      NG2S0      CG311
    9     2     3     4	 9 ;     CG3C51      CG2O1      NG2S0      CG321
    2     3     8    25	 9 ;      CG2O1      NG2S0      CG311     CG2R61
    2     3     8     7	 9 ;      CG2O1      NG2S0      CG311      CG321
    2     3     8    44	 9 ;      CG2O1      NG2S0      CG311       HGA1
    4     3     8    25	 9 ;      CG321      NG2S0      CG311     CG2R61
    4     3     8     7	 9 ;      CG321      NG2S0      CG311      CG321
    4     3     8    44	 9 ;      CG321      NG2S0      CG311       HGA1
    8     3     4     5	 9 ;      CG311      NG2S0      CG321      CG321
    8     3     4    37	 9 ;      CG311      NG2S0      CG321       HGA2
    8     3     4    38	 9 ;      CG311      NG2S0      CG321       HGA2
    2     3     4     5	 9 ;      CG2O1      NG2S0      CG321      CG321
    2     3     4    37	 9 ;      CG2O1      NG2S0      CG321       HGA2
    2     3     4    38	 9 ;      CG2O1      NG2S0      CG321       HGA2
    3     4     5     6	 9 ;      NG2S0      CG321      CG321      CG311
    3     4     5    39	 9 ;      NG2S0      CG321      CG321       HGA2
    3     4     5    40	 9 ;      NG2S0      CG321      CG321       HGA2
   37     4     5     6	 9 ;       HGA2      CG321      CG321      CG311
   37     4     5    39	 9 ;       HGA2      CG321      CG321       HGA2
   37     4     5    40	 9 ;       HGA2      CG321      CG321       HGA2
   38     4     5     6	 9 ;       HGA2      CG321      CG321      CG311
   38     4     5    39	 9 ;       HGA2      CG321      CG321       HGA2
   38     4     5    40	 9 ;       HGA2      CG321      CG321       HGA2
    4     5     6     7	 9 ;      CG321      CG321      CG311      CG321
    4     5     6    31	 9 ;      CG321      CG321      CG311     CG2R61
    4     5     6    41	 9 ;      CG321      CG321      CG311       HGA1
   39     5     6     7	 9 ;       HGA2      CG321      CG311      CG321
   39     5     6    31	 9 ;       HGA2      CG321      CG311     CG2R61
   39     5     6    41	 9 ;       HGA2      CG321      CG311       HGA1
   40     5     6     7	 9 ;       HGA2      CG321      CG311      CG321
   40     5     6    31	 9 ;       HGA2      CG321      CG311     CG2R61
   40     5     6    41	 9 ;       HGA2      CG321      CG311       HGA1
   31     6     7     8	 9 ;     CG2R61      CG311      CG321      CG311
   31     6     7    42	 9 ;     CG2R61      CG311      CG321       HGA2
   31     6     7    43	 9 ;     CG2R61      CG311      CG321       HGA2
    5     6     7     8	 9 ;      CG321      CG311      CG321      CG311
    5     6     7    42	 9 ;      CG321      CG311      CG321       HGA2
    5     6     7    43	 9 ;      CG321      CG311      CG321       HGA2
   41     6     7     8	 9 ;       HGA1      CG311      CG321      CG311
   41     6     7    42	 9 ;       HGA1      CG311      CG321       HGA2
   41     6     7    43	 9 ;       HGA1      CG311      CG321       HGA2
    7     6    31    32	 9 ;      CG321      CG311     CG2R61     CG2R61
    7     6    31    36	 9 ;      CG321      CG311     CG2R61     CG2R61
    5     6    31    32	 9 ;      CG321      CG311     CG2R61     CG2R61
    5     6    31    36	 9 ;      CG321      CG311     CG2R61     CG2R61
   41     6    31    32	 9 ;       HGA1      CG311     CG2R61     CG2R61
   41     6    31    36	 9 ;       HGA1      CG311     CG2R61     CG2R61
    6     7     8    25	 9 ;      CG311      CG321      CG311     CG2R61
    6     7     8     3	 9 ;      CG311      CG321      CG311      NG2S0
    6     7     8    44	 9 ;      CG311      CG321      CG311       HGA1
   42     7     8    25	 9 ;       HGA2      CG321      CG311     CG2R61
   42     7     8     3	 9 ;       HGA2      CG321      CG311      NG2S0
   42     7     8    44	 9 ;       HGA2      CG321      CG311       HGA1
   43     7     8    25	 9 ;       HGA2      CG321      CG311     CG2R61
   43     7     8     3	 9 ;       HGA2      CG321      CG311      NG2S0
   43     7     8    44	 9 ;       HGA2      CG321      CG311       HGA1
    3     8    25    30	 9 ;      NG2S0      CG311     CG2R61     CG2R61
    3     8    25    26	 9 ;      NG2S0      CG311     CG2R61     CG2R61
    7     8    25    30	 9 ;      CG321      CG311     CG2R61     CG2R61
    7     8    25    26	 9 ;      CG321      CG311     CG2R61     CG2R61
   44     8    25    30	 9 ;       HGA1      CG311     CG2R61     CG2R61
   44     8    25    26	 9 ;       HGA1      CG311     CG2R61     CG2R61
    2     9    10    11	 9 ;      CG2O1     CG3C51     CG3C54      NG3P2
    2     9    10    46	 9 ;      CG2O1     CG3C51     CG3C54       HGA2
    2     9    10    47	 9 ;      CG2O1     CG3C51     CG3C54       HGA2
   15     9    10    11	 9 ;     CG3C50     CG3C51     CG3C54      NG3P2
   15     9    10    46	 9 ;     CG3C50     CG3C51     CG3C54       HGA2
   15     9    10    47	 9 ;     CG3C50     CG3C51     CG3C54       HGA2
   45     9    10    11	 9 ;       HGA1     CG3C51     CG3C54      NG3P2
   45     9    10    46	 9 ;       HGA1     CG3C51     CG3C54       HGA2
   45     9    10    47	 9 ;       HGA1     CG3C51     CG3C54       HGA2
   10     9    15    16	 9 ;     CG3C54     CG3C51     CG3C50      CG321
   10     9    15    12	 9 ;     CG3C54     CG3C51     CG3C50     CG3C54
   10     9    15    17	 9 ;     CG3C54     CG3C51     CG3C50     CG2R61
    2     9    15    16	 9 ;      CG2O1     CG3C51     CG3C50      CG321
    2     9    15    12	 9 ;      CG2O1     CG3C51     CG3C50     CG3C54
    2     9    15    17	 9 ;      CG2O1     CG3C51     CG3C50     CG2R61
   45     9    15    16	 9 ;       HGA1     CG3C51     CG3C50      CG321
   45     9    15    12	 9 ;       HGA1     CG3C51     CG3C50     CG3C54
   45     9    15    17	 9 ;       HGA1     CG3C51     CG3C50     CG2R61
    9    10    11    13	 9 ;     CG3C51     CG3C54      NG3P2       HGP2
    9    10    11    14	 9 ;     CG3C51     CG3C54      NG3P2       HGP2
    9    10    11    12	 9 ;     CG3C51     CG3C54      NG3P2     CG3C54
   46    10    11    13	 9 ;       HGA2     CG3C54      NG3P2       HGP2
   46    10    11    14	 9 ;       HGA2     CG3C54      NG3P2       HGP2
   46    10    11    12	 9 ;       HGA2     CG3C54      NG3P2     CG3C54
   47    10    11    13	 9 ;       HGA2     CG3C54      NG3P2       HGP2
   47    10    11    14	 9 ;       HGA2     CG3C54      NG3P2       HGP2
   47    10    11    12	 9 ;       HGA2     CG3C54      NG3P2     CG3C54
   10    11    12    15	 9 ;     CG3C54      NG3P2     CG3C54     CG3C50
   10    11    12    48	 9 ;     CG3C54      NG3P2     CG3C54       HGA2
   10    11    12    49	 9 ;     CG3C54      NG3P2     CG3C54       HGA2
   13    11    12    15	 9 ;       HGP2      NG3P2     CG3C54     CG3C50
   13    11    12    48	 9 ;       HGP2      NG3P2     CG3C54       HGA2
   13    11    12    49	 9 ;       HGP2      NG3P2     CG3C54       HGA2
   14    11    12    15	 9 ;       HGP2      NG3P2     CG3C54     CG3C50
   14    11    12    48	 9 ;       HGP2      NG3P2     CG3C54       HGA2
   14    11    12    49	 9 ;       HGP2      NG3P2     CG3C54       HGA2
   11    12    15     9	 9 ;      NG3P2     CG3C54     CG3C50     CG3C51
   11    12    15    16	 9 ;      NG3P2     CG3C54     CG3C50      CG321
   11    12    15    17	 9 ;      NG3P2     CG3C54     CG3C50     CG2R61
   48    12    15     9	 9 ;       HGA2     CG3C54     CG3C50     CG3C51
   48    12    15    16	 9 ;       HGA2     CG3C54     CG3C50      CG321
   48    12    15    17	 9 ;       HGA2     CG3C54     CG3C50     CG2R61
   49    12    15     9	 9 ;       HGA2     CG3C54     CG3C50     CG3C51
   49    12    15    16	 9 ;       HGA2     CG3C54     CG3C50      CG321
   49    12    15    17	 9 ;       HGA2     CG3C54     CG3C50     CG2R61
    9    15    16    18	 9 ;     CG3C51     CG3C50      CG321      CG321
    9    15    16    50	 9 ;     CG3C51     CG3C50      CG321       HGA2
    9    15    16    51	 9 ;     CG3C51     CG3C50      CG321       HGA2
   12    15    16    18	 9 ;     CG3C54     CG3C50      CG321      CG321
   12    15    16    50	 9 ;     CG3C54     CG3C50      CG321       HGA2
   12    15    16    51	 9 ;     CG3C54     CG3C50      CG321       HGA2
   17    15    16    18	 9 ;     CG2R61     CG3C50      CG321      CG321
   17    15    16    50	 9 ;     CG2R61     CG3C50      CG321       HGA2
   17    15    16    51	 9 ;     CG2R61     CG3C50      CG321       HGA2
    9    15    17    20	 9 ;     CG3C51     CG3C50     CG2R61     CG2R61
    9    15    17    24	 9 ;     CG3C51     CG3C50     CG2R61     CG2R61
   16    15    17    20	 9 ;      CG321     CG3C50     CG2R61     CG2R61
   16    15    17    24	 9 ;      CG321     CG3C50     CG2R61     CG2R61
   12    15    17    20	 9 ;     CG3C54     CG3C50     CG2R61     CG2R61
   12    15    17    24	 9 ;     CG3C54     CG3C50     CG2R61     CG2R61
   15    16    18    19	 9 ;     CG3C50      CG321      CG321      CG321
   15    16    18    52	 9 ;     CG3C50      CG321      CG321       HGA2
   15    16    18    53	 9 ;     CG3C50      CG321      CG321       HGA2
   50    16    18    19	 9 ;       HGA2      CG321      CG321      CG321
   50    16    18    52	 9 ;       HGA2      CG321      CG321       HGA2
   50    16    18    53	 9 ;       HGA2      CG321      CG321       HGA2
   51    16    18    19	 9 ;       HGA2      CG321      CG321      CG321
   51    16    18    52	 9 ;       HGA2      CG321      CG321       HGA2
   51    16    18    53	 9 ;       HGA2      CG321      CG321       HGA2
   15    17    20    19	 9 ;     CG3C50     CG2R61     CG2R61      CG321
   15    17    20    21	 9 ;     CG3C50     CG2R61     CG2R61     CG2R61
   24    17    20    19	 9 ;     CG2R61     CG2R61     CG2R61      CG321
   24    17    20    21	 9 ;     CG2R61     CG2R61     CG2R61     CG2R61
   15    17    24    23	 9 ;     CG3C50     CG2R61     CG2R61     CG2R61
   15    17    24    59	 9 ;     CG3C50     CG2R61     CG2R61      HGR61
   20    17    24    23	 9 ;     CG2R61     CG2R61     CG2R61     CG2R61
   20    17    24    59	 9 ;     CG2R61     CG2R61     CG2R61      HGR61
   16    18    19    20	 9 ;      CG321      CG321      CG321     CG2R61
   16    18    19    54	 9 ;      CG321      CG321      CG321       HGA2
   16    18    19    55	 9 ;      CG321      CG321      CG321       HGA2
   52    18    19    20	 9 ;       HGA2      CG321      CG321     CG2R61
   52    18    19    54	 9 ;       HGA2      CG321      CG321       HGA2
   52    18    19    55	 9 ;       HGA2      CG321      CG321       HGA2
   53    18    19    20	 9 ;       HGA2      CG321      CG321     CG2R61
   53    18    19    54	 9 ;       HGA2      CG321      CG321       HGA2
   53    18    19    55	 9 ;       HGA2      CG321      CG321       HGA2
   18    19    20    17	 9 ;      CG321      CG321     CG2R61     CG2R61
   18    19    20    21	 9 ;      CG321      CG321     CG2R61     CG2R61
   54    19    20    17	 9 ;       HGA2      CG321     CG2R61     CG2R61
   54    19    20    21	 9 ;       HGA2      CG321     CG2R61     CG2R61
   55    19    20    17	 9 ;       HGA2      CG321     CG2R61     CG2R61
   55    19    20    21	 9 ;       HGA2      CG321     CG2R61     CG2R61
   19    20    21    22	 9 ;      CG321     CG2R61     CG2R61     CG2R61
   19    20    21    56	 9 ;      CG321     CG2R61     CG2R61      HGR61
   17    20    21    22	 9 ;     CG2R61     CG2R61     CG2R61     CG2R61
   17    20    21    56	 9 ;     CG2R61     CG2R61     CG2R61      HGR61
   20    21    22    23	 9 ;     CG2R61     CG2R61     CG2R61     CG2R61
   20    21    22    57	 9 ;     CG2R61     CG2R61     CG2R61      HGR61
   56    21    22    23	 9 ;      HGR61     CG2R61     CG2R61     CG2R61
   56    21    22    57	 9 ;      HGR61     CG2R61     CG2R61      HGR61
   21    22    23    24	 9 ;     CG2R61     CG2R61     CG2R61     CG2R61
   21    22    23    58	 9 ;     CG2R61     CG2R61     CG2R61      HGR61
   57    22    23    24	 9 ;      HGR61     CG2R61     CG2R61     CG2R61
   57    22    23    58	 9 ;      HGR61     CG2R61     CG2R61      HGR61
   22    23    24    17	 9 ;     CG2R61     CG2R61     CG2R61     CG2R61
   22    23    24    59	 9 ;     CG2R61     CG2R61     CG2R61      HGR61
   58    23    24    17	 9 ;      HGR61     CG2R61     CG2R61     CG2R61
   58    23    24    59	 9 ;      HGR61     CG2R61     CG2R61      HGR61
   26    25    30    29	 9 ;     CG2R61     CG2R61     CG2R61     CG2R61
   26    25    30    64	 9 ;     CG2R61     CG2R61     CG2R61      HGR61
    8    25    30    29	 9 ;      CG311     CG2R61     CG2R61     CG2R61
    8    25    30    64	 9 ;      CG311     CG2R61     CG2R61      HGR61
   30    25    26    27	 9 ;     CG2R61     CG2R61     CG2R61     CG2R61
   30    25    26    60	 9 ;     CG2R61     CG2R61     CG2R61      HGR61
    8    25    26    27	 9 ;      CG311     CG2R61     CG2R61     CG2R61
    8    25    26    60	 9 ;      CG311     CG2R61     CG2R61      HGR61
   25    26    27    28	 9 ;     CG2R61     CG2R61     CG2R61     CG2R61
   25    26    27    61	 9 ;     CG2R61     CG2R61     CG2R61      HGR61
   60    26    27    28	 9 ;      HGR61     CG2R61     CG2R61     CG2R61
   60    26    27    61	 9 ;      HGR61     CG2R61     CG2R61      HGR61
   26    27    28    29	 9 ;     CG2R61     CG2R61     CG2R61     CG2R61
   26    27    28    62	 9 ;     CG2R61     CG2R61     CG2R61      HGR61
   61    27    28    29	 9 ;      HGR61     CG2R61     CG2R61     CG2R61
   61    27    28    62	 9 ;      HGR61     CG2R61     CG2R61      HGR61
   27    28    29    30	 9 ;     CG2R61     CG2R61     CG2R61     CG2R61
   27    28    29    63	 9 ;     CG2R61     CG2R61     CG2R61      HGR61
   62    28    29    30	 9 ;      HGR61     CG2R61     CG2R61     CG2R61
   62    28    29    63	 9 ;      HGR61     CG2R61     CG2R61      HGR61
   28    29    30    25	 9 ;     CG2R61     CG2R61     CG2R61     CG2R61
   28    29    30    64	 9 ;     CG2R61     CG2R61     CG2R61      HGR61
   63    29    30    25	 9 ;      HGR61     CG2R61     CG2R61     CG2R61
   63    29    30    64	 9 ;      HGR61     CG2R61     CG2R61      HGR61
   36    31    32    33	 9 ;     CG2R61     CG2R61     CG2R61     CG2R61
   36    31    32    65	 9 ;     CG2R61     CG2R61     CG2R61      HGR61
    6    31    32    33	 9 ;      CG311     CG2R61     CG2R61     CG2R61
    6    31    32    65	 9 ;      CG311     CG2R61     CG2R61      HGR61
   32    31    36    35	 9 ;     CG2R61     CG2R61     CG2R61     CG2R61
   32    31    36    69	 9 ;     CG2R61     CG2R61     CG2R61      HGR61
    6    31    36    35	 9 ;      CG311     CG2R61     CG2R61     CG2R61
    6    31    36    69	 9 ;      CG311     CG2R61     CG2R61      HGR61
   31    32    33    34	 9 ;     CG2R61     CG2R61     CG2R61     CG2R61
   31    32    33    66	 9 ;     CG2R61     CG2R61     CG2R61      HGR61
   65    32    33    34	 9 ;      HGR61     CG2R61     CG2R61     CG2R61
   65    32    33    66	 9 ;      HGR61     CG2R61     CG2R61      HGR61
   32    33    34    35	 9 ;     CG2R61     CG2R61     CG2R61     CG2R61
   32    33    34    67	 9 ;     CG2R61     CG2R61     CG2R61      HGR61
   66    33    34    35	 9 ;      HGR61     CG2R61     CG2R61     CG2R61
   66    33    34    67	 9 ;      HGR61     CG2R61     CG2R61      HGR61
   33    34    35    36	 9 ;     CG2R61     CG2R61     CG2R61     CG2R61
   33    34    35    68	 9 ;     CG2R61     CG2R61     CG2R61      HGR61
   67    34    35    36	 9 ;      HGR61     CG2R61     CG2R61     CG2R61
   67    34    35    68	 9 ;      HGR61     CG2R61     CG2R61      HGR61
   34    35    36    31	 9 ;     CG2R61     CG2R61     CG2R61     CG2R61
   34    35    36    69	 9 ;     CG2R61     CG2R61     CG2R61      HGR61
   68    35    36    31	 9 ;      HGR61     CG2R61     CG2R61     CG2R61
   68    35    36    69	 9 ;      HGR61     CG2R61     CG2R61      HGR61

[ dihedrals ]
;	ai	  aj	ak	  al funct			  c0			c1			  c2			c3
    2     9     3     1	 2

