Great Red Oystrich Makes All Chemists Sane
   69
    1LIG      O    1  -1.319   0.671  -1.856
    1LIG     C1    2  -1.398   0.585  -1.819
    1LIG     N1    3  -1.376   0.504  -1.704
    1LIG     C2    4  -1.454   0.384  -1.667
    1LIG     C3    5  -1.453   0.344  -1.519
    1LIG     C4    6  -1.316   0.346  -1.449
    1LIG     C5    7  -1.243   0.477  -1.490
    1LIG     C6    8  -1.243   0.515  -1.640
    1LIG     C7    9  -1.521   0.558  -1.906
    1LIG     C8   10  -1.491   0.564  -2.053
    1LIG     N2   11  -1.625   0.522  -2.111
    1LIG     C9   12  -1.728   0.521  -1.991
    1LIG     H1   13  -1.653   0.592  -2.182
    1LIG     H2   14  -1.620   0.432  -2.159
    1LIG    C10   15  -1.662   0.626  -1.898
    1LIG    C11   16  -1.712   0.756  -1.972
    1LIG    C12   17  -1.692   0.662  -1.755
    1LIG    C13   18  -1.630   0.881  -1.949
    1LIG    C14   19  -1.577   0.886  -1.807
    1LIG    C15   20  -1.651   0.793  -1.712
    1LIG    C16   21  -1.679   0.839  -1.584
    1LIG    C17   22  -1.749   0.757  -1.496
    1LIG    C18   23  -1.788   0.629  -1.535
    1LIG    C19   24  -1.760   0.581  -1.664
    1LIG    C20   25  -1.132   0.450  -1.722
    1LIG    C21   26  -1.130   0.314  -1.755
    1LIG    C22   27  -1.020   0.255  -1.817
    1LIG    C23   28  -0.912   0.333  -1.854
    1LIG    C24   29  -0.915   0.470  -1.831
    1LIG    C25   30  -1.024   0.528  -1.764
    1LIG    C26   31  -1.229   0.220  -1.453
    1LIG    C27   32  -1.104   0.210  -1.388
    1LIG    C28   33  -1.032   0.089  -1.387
    1LIG    C29   34  -1.082  -0.023  -1.454
    1LIG    C30   35  -1.201  -0.012  -1.525
    1LIG    C31   36  -1.272   0.108  -1.526
    1LIG    HC2   37  -1.558   0.403  -1.695
    1LIG    HC3   38  -1.418   0.300  -1.725
    1LIG    HC4   39  -1.492   0.243  -1.511
    1LIG    HC5   40  -1.519   0.411  -1.464
    1LIG     HC   41  -1.339   0.360  -1.344
    1LIG    HC6   42  -1.139   0.468  -1.458
    1LIG    HC7   43  -1.288   0.559  -1.434
    1LIG    HC1   44  -1.220   0.621  -1.642
    1LIG    HC8   45  -1.542   0.452  -1.888
    1LIG    HC9   46  -1.411   0.495  -2.081
    1LIG   HC10   47  -1.465   0.666  -2.083
    1LIG   HC11   48  -1.828   0.552  -2.023
    1LIG   HC12   49  -1.731   0.423  -1.944
    1LIG   HC13   50  -1.814   0.776  -1.939
    1LIG   HC14   51  -1.714   0.736  -2.079
    1LIG   HC15   52  -1.546   0.882  -2.018
    1LIG   HC16   53  -1.692   0.968  -1.967
    1LIG   HC17   54  -1.587   0.988  -1.770
    1LIG   HC18   55  -1.471   0.859  -1.808
    1LIG   HC19   56  -1.647   0.937  -1.553
    1LIG   HC20   57  -1.773   0.793  -1.397
    1LIG   HC21   58  -1.840   0.565  -1.465
    1LIG   HC22   59  -1.791   0.482  -1.693
    1LIG   HC23   60  -1.216   0.253  -1.732
    1LIG   HC24   61  -1.018   0.148  -1.835
    1LIG   HC25   62  -0.826   0.288  -1.902
    1LIG   HC26   63  -0.833   0.533  -1.864
    1LIG   HC27   64  -1.025   0.634  -1.746
    1LIG   HC28   65  -1.062   0.296  -1.339
    1LIG   HC29   66  -0.938   0.082  -1.334
    1LIG   HC30   67  -1.030  -0.117  -1.450
    1LIG   HC31   68  -1.238  -0.097  -1.580
    1LIG   HC32   69  -1.363   0.115  -1.584
   0.00000   0.00000   0.00000
