Good ROcking Metal Altar for Chronical Sinners
  107
    1LIG     C1    1  -1.307   0.488  -1.876
    1LIG     C2    2  -1.284   0.343  -1.831
    1LIG     O1    3  -1.176   0.323  -1.737
    1LIG     C3    4  -1.140   0.189  -1.731
    1LIG     C4    5  -1.228   0.088  -1.691
    1LIG     C5    6  -1.181  -0.039  -1.662
    1LIG     F1    7  -1.265  -0.130  -1.612
    1LIG     C6    8  -1.047  -0.071  -1.680
    1LIG     C7    9  -0.963   0.025  -1.733
    1LIG     F2   10  -0.835  -0.007  -1.757
    1LIG     C8   11  -1.007   0.155  -1.760
    1LIG     C9   12  -1.275   0.527  -2.022
    1LIG     O2   13  -1.373   0.461  -2.106
    1LIG     H1   14  -1.348   0.481  -2.199
    1LIG    C10   15  -1.284   0.678  -2.053
    1LIG    C11   16  -1.395   0.714  -2.151
    1LIG     O3   17  -1.376   0.720  -2.271
    1LIG     N1   18  -1.517   0.737  -2.093
    1LIG     H2   19  -1.527   0.726  -1.992
    1LIG    C12   20  -1.636   0.798  -2.158
    1LIG    C13   21  -1.731   0.701  -2.234
    1LIG    C14   22  -1.711   0.695  -2.386
    1LIG    C15   23  -1.727   0.557  -2.180
    1LIG    C16   24  -1.705   0.880  -2.047
    1LIG     O4   25  -1.803   0.950  -2.075
    1LIG     N2   26  -1.650   0.867  -1.920
    1LIG     H3   27  -1.551   0.850  -1.912
    1LIG    C17   28  -1.710   0.924  -1.805
    1LIG    C18   29  -1.640   1.012  -1.723
    1LIG    C19   30  -1.692   1.053  -1.599
    1LIG    C20   31  -1.821   1.009  -1.563
    1LIG    C21   32  -1.898   0.928  -1.649
    1LIG    C22   33  -1.841   0.888  -1.772
    1LIG    C23   34  -1.606   1.138  -1.508
    1LIG     O5   35  -1.563   1.249  -1.552
    1LIG     O6   36  -1.585   1.094  -1.390
    1LIG    C24   37  -2.037   0.879  -1.610
    1LIG     O7   38  -2.047   0.818  -1.498
    1LIG     O8   39  -2.133   0.902  -1.690
    1LIG     N3   40  -1.445   0.528  -1.842
    1LIG    C25   41  -1.468   0.623  -1.745
    1LIG     O9   42  -1.385   0.706  -1.711
    1LIG     H4   43  -1.519   0.463  -1.869
    1LIG    C26   44  -1.598   0.616  -1.676
    1LIG    C27   45  -1.608   0.676  -1.550
    1LIG    C28   46  -1.717   0.646  -1.468
    1LIG    C29   47  -1.818   0.560  -1.515
    1LIG    C30   48  -1.808   0.505  -1.644
    1LIG    C31   49  -1.698   0.532  -1.724
    1LIG    C32   50  -1.708   0.691  -1.327
    1LIG    O10   51  -1.757   0.798  -1.292
    1LIG     N4   52  -1.638   0.620  -1.233
    1LIG     H5   53  -1.632   0.675  -1.149
    1LIG    C33   54  -1.656   0.478  -1.207
    1LIG    C34   55  -1.589   0.439  -1.075
    1LIG    C35   56  -1.601   0.396  -1.322
    1LIG    C36   57  -1.474   0.425  -1.374
    1LIG    C37   58  -1.423   0.356  -1.483
    1LIG    C38   59  -1.496   0.252  -1.541
    1LIG    C39   60  -1.622   0.221  -1.491
    1LIG    C40   61  -1.675   0.293  -1.384
    1LIG     N5   62  -1.906   0.413  -1.695
    1LIG    C41   63  -2.005   0.363  -1.597
    1LIG      S   64  -1.960   0.446  -1.852
    1LIG    O11   65  -1.891   0.359  -1.945
    1LIG    O12   66  -1.960   0.590  -1.870
    1LIG    C42   67  -2.130   0.390  -1.845
    1LIG     H6   68  -1.233   0.542  -1.820
    1LIG     H7   69  -1.263   0.285  -1.918
    1LIG     H8   70  -1.373   0.313  -1.780
    1LIG     H9   71  -1.329   0.108  -1.683
    1LIG    H10   72  -1.011  -0.165  -1.655
    1LIG    H11   73  -0.943   0.226  -1.799
    1LIG    H12   74  -1.174   0.498  -2.039
    1LIG    H13   75  -1.302   0.730  -1.961
    1LIG    H14   76  -1.192   0.705  -2.099
    1LIG    H15   77  -1.605   0.860  -2.240
    1LIG    H16   78  -1.827   0.745  -2.216
    1LIG    H17   79  -1.616   0.651  -2.408
    1LIG    H18   80  -1.715   0.794  -2.427
    1LIG    H19   81  -1.789   0.635  -2.430
    1LIG    H20   82  -1.631   0.514  -2.199
    1LIG    H21   83  -1.803   0.499  -2.228
    1LIG    H22   84  -1.746   0.559  -2.074
    1LIG    H23   85  -1.548   1.047  -1.753
    1LIG    H24   86  -1.859   1.036  -1.471
    1LIG    H25   87  -1.897   0.831  -1.838
    1LIG    H26   88  -1.621   1.011  -1.364
    1LIG    H27   89  -1.971   0.805  -1.445
    1LIG    H28   90  -1.536   0.742  -1.518
    1LIG    H29   91  -1.899   0.537  -1.455
    1LIG    H30   92  -1.691   0.491  -1.818
    1LIG    H31   93  -1.760   0.457  -1.198
    1LIG    H32   94  -1.484   0.458  -1.081
    1LIG    H33   95  -1.605   0.335  -1.057
    1LIG    H34   96  -1.632   0.496  -0.996
    1LIG    H35   97  -1.418   0.500  -1.330
    1LIG    H36   98  -1.330   0.380  -1.520
    1LIG    H37   99  -1.457   0.200  -1.621
    1LIG    H38  100  -1.676   0.144  -1.533
    1LIG    H39  101  -1.769   0.270  -1.349
    1LIG    H40  102  -2.073   0.296  -1.645
    1LIG    H41  103  -2.060   0.446  -1.557
    1LIG    H42  104  -1.954   0.312  -1.518
    1LIG    H43  105  -2.177   0.406  -1.940
    1LIG    H44  106  -2.182   0.446  -1.770
    1LIG    H45  107  -2.132   0.286  -1.821
   0.00000   0.00000   0.00000
