; Created by cgenff_charmm2gmx.py

[ moleculetype ]
; Name			   nrexcl
LIG				 3

[ atoms ]
;	 nr		  type	resnr residue  atom   cgnr	   charge		mass  typeB    chargeB		massB
; residue	 1 LIG rtp LIG q	qsum
     1      CG311      1    LIG     C1      1      0.004     12.011   ;
     2      CG321      1    LIG     C2      2      0.009     12.011   ;
     3      OG301      1    LIG     O1      3     -0.177     15.999   ;
     4     CG2R61      1    LIG     C3      4      0.384     12.011   ;
     5     CG2R61      1    LIG     C4      5     -0.410     12.011   ;
     6     CG2R66      1    LIG     C5      6      0.283     12.011   ;
     7       FGR1      1    LIG     F1      7     -0.210     18.998   ;
     8     CG2R61      1    LIG     C6      8     -0.240     12.011   ;
     9     CG2R66      1    LIG     C7      9      0.283     12.011   ;
    10       FGR1      1    LIG     F2     10     -0.210     18.998   ;
    11     CG2R61      1    LIG     C8     11     -0.410     12.011   ;
    12      CG311      1    LIG     C9     12      0.127     12.011   ;
    13      OG311      1    LIG     O2     13     -0.642     15.999   ;
    14       HGP1      1    LIG     H1     14      0.421      1.008   ;
    15      CG321      1    LIG    C10     15     -0.097     12.011   ;
    16      CG2O1      1    LIG    C11     16      0.459     12.011   ;
    17      OG2D1      1    LIG     O3     17     -0.525     15.999   ;
    18      NG2S1      1    LIG     N1     18     -0.448     14.007   ;
    19       HGP1      1    LIG     H2     19      0.281      1.008   ;
    20      CG311      1    LIG    C12     20      0.055     12.011   ;
    21      CG311      1    LIG    C13     21     -0.078     12.011   ;
    22      CG331      1    LIG    C14     22     -0.269     12.011   ;
    23      CG331      1    LIG    C15     23     -0.269     12.011   ;
    24      CG2O1      1    LIG    C16     24      0.569     12.011   ;
    25      OG2D1      1    LIG     O4     25     -0.517     15.999   ;
    26      NG2S1      1    LIG     N2     26     -0.516     14.007   ;
    27       HGP1      1    LIG     H3     27      0.329      1.008   ;
    28     CG2R61      1    LIG    C17     28      0.144     12.011   ;
    29     CG2R61      1    LIG    C18     29     -0.119     12.011   ;
    30     CG2R61      1    LIG    C19     30      0.080     12.011   ;
    31     CG2R61      1    LIG    C20     31     -0.116     12.011   ;
    32     CG2R61      1    LIG    C21     32      0.080     12.011   ;
    33     CG2R61      1    LIG    C22     33     -0.119     12.011   ;
    34      CG2O2      1    LIG    C23     34      0.452     12.011   ;
    35      OG2D1      1    LIG     O5     35     -0.431     15.999   ;
    36      OG311      1    LIG     O6     36     -0.527     15.999   ;
    37      CG2O2      1    LIG    C24     37      0.452     12.011   ;
    38      OG311      1    LIG     O7     38     -0.527     15.999   ;
    39      OG2D1      1    LIG     O8     39     -0.431     15.999   ;
    40      NG2S1      1    LIG     N3     40     -0.238     14.007   ;
    41      CG2O1      1    LIG    C25     41      0.302     12.011   ;
    42      OG2D1      1    LIG     O9     42     -0.463     15.999   ;
    43       HGP1      1    LIG     H4     43      0.262      1.008   ;
    44     CG2R61      1    LIG    C26     44     -0.101     12.011   ;
    45     CG2R61      1    LIG    C27     45     -0.004     12.011   ;
    46     CG2R61      1    LIG    C28     46     -0.101     12.011   ;
    47     CG2R61      1    LIG    C29     47     -0.064     12.011   ;
    48     CG2R61      1    LIG    C30     48      0.138     12.011   ;
    49     CG2R61      1    LIG    C31     49     -0.064     12.011   ;
    50      CG2O1      1    LIG    C32     50      0.320     12.011   ;
    51      OG2D1      1    LIG    O10     51     -0.463     15.999   ;
    52      NG2S1      1    LIG     N4     52     -0.366     14.007   ;
    53       HGP1      1    LIG     H5     53      0.314      1.008   ;
    54      CG311      1    LIG    C33     54      0.138     12.011   ;
    55      CG331      1    LIG    C34     55     -0.265     12.011   ;
    56     CG2R61      1    LIG    C35     56     -0.111     12.011   ;
    57     CG2R61      1    LIG    C36     57     -0.086     12.011   ;
    58     CG2R61      1    LIG    C37     58     -0.114     12.011   ;
    59     CG2R61      1    LIG    C38     59     -0.116     12.011   ;
    60     CG2R61      1    LIG    C39     60     -0.114     12.011   ;
    61     CG2R61      1    LIG    C40     61     -0.086     12.011   ;
    62      NG301      1    LIG     N5     62     -0.228     14.007   ;
    63      CG331      1    LIG    C41     63     -0.103     12.011   ;
    64      SG3O2      1    LIG      S     64      0.397     32.060   ;
    65      OG2P1      1    LIG    O11     65     -0.388     15.999   ;
    66      OG2P1      1    LIG    O12     66     -0.388     15.999   ;
    67      CG331      1    LIG    C42     67      0.036     12.011   ;
    68       HGA1      1    LIG     H6     68      0.090      1.008   ;
    69       HGA2      1    LIG     H7     69      0.090      1.008   ;
    70       HGA2      1    LIG     H8     70      0.090      1.008   ;
    71      HGR62      1    LIG     H9     71      0.179      1.008   ;
    72      HGR62      1    LIG    H10     72      0.186      1.008   ;
    73      HGR62      1    LIG    H11     73      0.179      1.008   ;
    74       HGA1      1    LIG    H12     74      0.090      1.008   ;
    75       HGA2      1    LIG    H13     75      0.090      1.008   ;
    76       HGA2      1    LIG    H14     76      0.090      1.008   ;
    77       HGA1      1    LIG    H15     77      0.090      1.008   ;
    78       HGA1      1    LIG    H16     78      0.090      1.008   ;
    79       HGA3      1    LIG    H17     79      0.090      1.008   ;
    80       HGA3      1    LIG    H18     80      0.090      1.008   ;
    81       HGA3      1    LIG    H19     81      0.090      1.008   ;
    82       HGA3      1    LIG    H20     82      0.090      1.008   ;
    83       HGA3      1    LIG    H21     83      0.090      1.008   ;
    84       HGA3      1    LIG    H22     84      0.090      1.008   ;
    85      HGR61      1    LIG    H23     85      0.116      1.008   ;
    86      HGR61      1    LIG    H24     86      0.116      1.008   ;
    87      HGR61      1    LIG    H25     87      0.116      1.008   ;
    88       HGP1      1    LIG    H26     88      0.426      1.008   ;
    89       HGP1      1    LIG    H27     89      0.426      1.008   ;
    90      HGR61      1    LIG    H28     90      0.116      1.008   ;
    91      HGR61      1    LIG    H29     91      0.116      1.008   ;
    92      HGR61      1    LIG    H30     92      0.116      1.008   ;
    93       HGA1      1    LIG    H31     93      0.090      1.008   ;
    94       HGA3      1    LIG    H32     94      0.090      1.008   ;
    95       HGA3      1    LIG    H33     95      0.090      1.008   ;
    96       HGA3      1    LIG    H34     96      0.090      1.008   ;
    97      HGR61      1    LIG    H35     97      0.116      1.008   ;
    98      HGR61      1    LIG    H36     98      0.116      1.008   ;
    99      HGR61      1    LIG    H37     99      0.116      1.008   ;
   100      HGR61      1    LIG    H38    100      0.116      1.008   ;
   101      HGR61      1    LIG    H39    101      0.116      1.008   ;
   102       HGA3      1    LIG    H40    102      0.090      1.008   ;
   103       HGA3      1    LIG    H41    103      0.090      1.008   ;
   104       HGA3      1    LIG    H42    104      0.090      1.008   ;
   105       HGA3      1    LIG    H43    105      0.090      1.008   ;
   106       HGA3      1    LIG    H44    106      0.090      1.008   ;
   107       HGA3      1    LIG    H45    107      0.090      1.008   ;

[ bonds ]
;	ai	  aj funct			  c0			c1			  c2			c3
    1    12	 1 ;       CG311      CG311
    1    40	 1 ;       CG311      NG2S1
    1     2	 1 ;       CG311      CG321
    1    68	 1 ;       CG311       HGA1
    2     3	 1 ;       CG321      OG301
    2    69	 1 ;       CG321       HGA2
    2    70	 1 ;       CG321       HGA2
    3     4	 1 ;       OG301     CG2R61
    4    11	 1 ;      CG2R61     CG2R61
    4     5	 1 ;      CG2R61     CG2R61
    5     6	 1 ;      CG2R61     CG2R66
    5    71	 1 ;      CG2R61      HGR62
    6     8	 1 ;      CG2R66     CG2R61
    6     7	 1 ;      CG2R66       FGR1
    8     9	 1 ;      CG2R61     CG2R66
    8    72	 1 ;      CG2R61      HGR62
    9    11	 1 ;      CG2R66     CG2R61
    9    10	 1 ;      CG2R66       FGR1
   11    73	 1 ;      CG2R61      HGR62
   12    13	 1 ;       CG311      OG311
   12    15	 1 ;       CG311      CG321
   12    74	 1 ;       CG311       HGA1
   13    14	 1 ;       OG311       HGP1
   15    16	 1 ;       CG321      CG2O1
   15    75	 1 ;       CG321       HGA2
   15    76	 1 ;       CG321       HGA2
   16    17	 1 ;       CG2O1      OG2D1
   16    18	 1 ;       CG2O1      NG2S1
   18    20	 1 ;       NG2S1      CG311
   18    19	 1 ;       NG2S1       HGP1
   20    21	 1 ;       CG311      CG311
   20    24	 1 ;       CG311      CG2O1
   20    77	 1 ;       CG311       HGA1
   21    22	 1 ;       CG311      CG331
   21    23	 1 ;       CG311      CG331
   21    78	 1 ;       CG311       HGA1
   22    79	 1 ;       CG331       HGA3
   22    80	 1 ;       CG331       HGA3
   22    81	 1 ;       CG331       HGA3
   23    82	 1 ;       CG331       HGA3
   23    83	 1 ;       CG331       HGA3
   23    84	 1 ;       CG331       HGA3
   24    25	 1 ;       CG2O1      OG2D1
   24    26	 1 ;       CG2O1      NG2S1
   26    27	 1 ;       NG2S1       HGP1
   26    28	 1 ;       NG2S1     CG2R61
   28    33	 1 ;      CG2R61     CG2R61
   28    29	 1 ;      CG2R61     CG2R61
   29    30	 1 ;      CG2R61     CG2R61
   29    85	 1 ;      CG2R61      HGR61
   30    31	 1 ;      CG2R61     CG2R61
   30    34	 1 ;      CG2R61      CG2O2
   31    32	 1 ;      CG2R61     CG2R61
   31    86	 1 ;      CG2R61      HGR61
   32    33	 1 ;      CG2R61     CG2R61
   32    37	 1 ;      CG2R61      CG2O2
   33    87	 1 ;      CG2R61      HGR61
   34    35	 1 ;       CG2O2      OG2D1
   34    36	 1 ;       CG2O2      OG311
   36    88	 1 ;       OG311       HGP1
   37    39	 1 ;       CG2O2      OG2D1
   37    38	 1 ;       CG2O2      OG311
   38    89	 1 ;       OG311       HGP1
   40    43	 1 ;       NG2S1       HGP1
   40    41	 1 ;       NG2S1      CG2O1
   41    42	 1 ;       CG2O1      OG2D1
   41    44	 1 ;       CG2O1     CG2R61
   44    49	 1 ;      CG2R61     CG2R61
   44    45	 1 ;      CG2R61     CG2R61
   45    46	 1 ;      CG2R61     CG2R61
   45    90	 1 ;      CG2R61      HGR61
   46    47	 1 ;      CG2R61     CG2R61
   46    50	 1 ;      CG2R61      CG2O1
   47    48	 1 ;      CG2R61     CG2R61
   47    91	 1 ;      CG2R61      HGR61
   48    49	 1 ;      CG2R61     CG2R61
   48    62	 1 ;      CG2R61      NG301
   49    92	 1 ;      CG2R61      HGR61
   50    51	 1 ;       CG2O1      OG2D1
   50    52	 1 ;       CG2O1      NG2S1
   52    54	 1 ;       NG2S1      CG311
   52    53	 1 ;       NG2S1       HGP1
   54    56	 1 ;       CG311     CG2R61
   54    55	 1 ;       CG311      CG331
   54    93	 1 ;       CG311       HGA1
   55    94	 1 ;       CG331       HGA3
   55    95	 1 ;       CG331       HGA3
   55    96	 1 ;       CG331       HGA3
   56    61	 1 ;      CG2R61     CG2R61
   56    57	 1 ;      CG2R61     CG2R61
   57    58	 1 ;      CG2R61     CG2R61
   57    97	 1 ;      CG2R61      HGR61
   58    59	 1 ;      CG2R61     CG2R61
   58    98	 1 ;      CG2R61      HGR61
   59    60	 1 ;      CG2R61     CG2R61
   59    99	 1 ;      CG2R61      HGR61
   60    61	 1 ;      CG2R61     CG2R61
   60   100	 1 ;      CG2R61      HGR61
   61   101	 1 ;      CG2R61      HGR61
   62    64	 1 ;       NG301      SG3O2
   62    63	 1 ;       NG301      CG331
   63   102	 1 ;       CG331       HGA3
   63   103	 1 ;       CG331       HGA3
   63   104	 1 ;       CG331       HGA3
   64    65	 1 ;       SG3O2      OG2P1
   64    66	 1 ;       SG3O2      OG2P1
   64    67	 1 ;       SG3O2      CG331
   67   105	 1 ;       CG331       HGA3
   67   106	 1 ;       CG331       HGA3
   67   107	 1 ;       CG331       HGA3

[ pairs ]
;	ai	  aj funct			  c0			c1			  c2			c3
    1     4	 1
    1    14	 1
    1    16	 1
    1    75	 1
    1    76	 1
    1    42	 1
    1    44	 1
    2    13	 1
    2    15	 1
    2    74	 1
    2    43	 1
    2    41	 1
    2    11	 1
    2     5	 1
    3    12	 1
    3    40	 1
    3    68	 1
    3     9	 1
    3    73	 1
    3     6	 1
    3    71	 1
    4    69	 1
    4    70	 1
    4     8	 1
    4     7	 1
    4    10	 1
    5     9	 1
    5    73	 1
    5    72	 1
    6    11	 1
    6    10	 1
    7    71	 1
    7     9	 1
    7    72	 1
    8    71	 1
    8    73	 1
   10    72	 1
   10    73	 1
   11    71	 1
   11    72	 1
   12    43	 1
   12    41	 1
   12    69	 1
   12    70	 1
   12    17	 1
   12    18	 1
   13    40	 1
   13    68	 1
   13    16	 1
   13    75	 1
   13    76	 1
   14    15	 1
   14    74	 1
   15    40	 1
   15    68	 1
   15    20	 1
   15    19	 1
   16    74	 1
   16    21	 1
   16    24	 1
   16    77	 1
   17    75	 1
   17    76	 1
   17    20	 1
   17    19	 1
   18    75	 1
   18    76	 1
   18    22	 1
   18    23	 1
   18    78	 1
   18    25	 1
   18    26	 1
   19    21	 1
   19    24	 1
   19    77	 1
   20    79	 1
   20    80	 1
   20    81	 1
   20    82	 1
   20    83	 1
   20    84	 1
   20    27	 1
   20    28	 1
   21    25	 1
   21    26	 1
   22    24	 1
   22    77	 1
   22    82	 1
   22    83	 1
   22    84	 1
   23    24	 1
   23    77	 1
   23    79	 1
   23    80	 1
   23    81	 1
   24    78	 1
   24    33	 1
   24    29	 1
   25    77	 1
   25    27	 1
   25    28	 1
   26    77	 1
   26    32	 1
   26    87	 1
   26    30	 1
   26    85	 1
   27    33	 1
   27    29	 1
   28    31	 1
   28    34	 1
   28    37	 1
   29    32	 1
   29    87	 1
   29    86	 1
   29    35	 1
   29    36	 1
   30    33	 1
   30    37	 1
   30    88	 1
   31    85	 1
   31    35	 1
   31    36	 1
   31    87	 1
   31    39	 1
   31    38	 1
   32    34	 1
   32    89	 1
   33    85	 1
   33    86	 1
   33    39	 1
   33    38	 1
   34    85	 1
   34    86	 1
   35    88	 1
   37    86	 1
   37    87	 1
   39    89	 1
   40    74	 1
   40    69	 1
   40    70	 1
   40    49	 1
   40    45	 1
   41    68	 1
   41    48	 1
   41    92	 1
   41    46	 1
   41    90	 1
   42    43	 1
   42    49	 1
   42    45	 1
   43    68	 1
   43    44	 1
   44    47	 1
   44    50	 1
   44    62	 1
   45    48	 1
   45    92	 1
   45    91	 1
   45    51	 1
   45    52	 1
   46    49	 1
   46    62	 1
   46    54	 1
   46    53	 1
   47    90	 1
   47    51	 1
   47    52	 1
   47    92	 1
   47    64	 1
   47    63	 1
   48    50	 1
   48    65	 1
   48    66	 1
   48    67	 1
   48   102	 1
   48   103	 1
   48   104	 1
   49    90	 1
   49    91	 1
   49    64	 1
   49    63	 1
   50    90	 1
   50    91	 1
   50    56	 1
   50    55	 1
   50    93	 1
   51    54	 1
   51    53	 1
   52    61	 1
   52    57	 1
   52    94	 1
   52    95	 1
   52    96	 1
   53    56	 1
   53    55	 1
   53    93	 1
   54    60	 1
   54   101	 1
   54    58	 1
   54    97	 1
   55    61	 1
   55    57	 1
   56    94	 1
   56    95	 1
   56    96	 1
   56    59	 1
   56    98	 1
   56   100	 1
   57    93	 1
   57    60	 1
   57   101	 1
   57    99	 1
   58    61	 1
   58   100	 1
   59    97	 1
   59   101	 1
   60    98	 1
   61    93	 1
   61    97	 1
   61    99	 1
   62    91	 1
   62    92	 1
   62   105	 1
   62   106	 1
   62   107	 1
   63    65	 1
   63    66	 1
   63    67	 1
   64   102	 1
   64   103	 1
   64   104	 1
   65   105	 1
   65   106	 1
   65   107	 1
   66   105	 1
   66   106	 1
   66   107	 1
   68    74	 1
   68    69	 1
   68    70	 1
   74    75	 1
   74    76	 1
   77    78	 1
   78    79	 1
   78    80	 1
   78    81	 1
   78    82	 1
   78    83	 1
   78    84	 1
   93    94	 1
   93    95	 1
   93    96	 1
   97    98	 1
   98    99	 1
   99   100	 1
  100   101	 1

[ angles ]
;	ai	  aj	ak funct			c0			  c1			c2			  c3
   12     1    40	5 ;      CG311      CG311      NG2S1
   12     1     2	5 ;      CG311      CG311      CG321
   12     1    68	5 ;      CG311      CG311       HGA1
   40     1     2	5 ;      NG2S1      CG311      CG321
   40     1    68	5 ;      NG2S1      CG311       HGA1
    2     1    68	5 ;      CG321      CG311       HGA1
    1     2     3	5 ;      CG311      CG321      OG301
    1     2    69	5 ;      CG311      CG321       HGA2
    1     2    70	5 ;      CG311      CG321       HGA2
    3     2    69	5 ;      OG301      CG321       HGA2
    3     2    70	5 ;      OG301      CG321       HGA2
   69     2    70	5 ;       HGA2      CG321       HGA2
    2     3     4	5 ;      CG321      OG301     CG2R61
   11     4     3	5 ;     CG2R61     CG2R61      OG301
   11     4     5	5 ;     CG2R61     CG2R61     CG2R61
    3     4     5	5 ;      OG301     CG2R61     CG2R61
    4     5     6	5 ;     CG2R61     CG2R61     CG2R66
    4     5    71	5 ;     CG2R61     CG2R61      HGR62
    6     5    71	5 ;     CG2R66     CG2R61      HGR62
    5     6     8	5 ;     CG2R61     CG2R66     CG2R61
    5     6     7	5 ;     CG2R61     CG2R66       FGR1
    8     6     7	5 ;     CG2R61     CG2R66       FGR1
    9     8     6	5 ;     CG2R66     CG2R61     CG2R66
    9     8    72	5 ;     CG2R66     CG2R61      HGR62
    6     8    72	5 ;     CG2R66     CG2R61      HGR62
   11     9    10	5 ;     CG2R61     CG2R66       FGR1
   11     9     8	5 ;     CG2R61     CG2R66     CG2R61
   10     9     8	5 ;       FGR1     CG2R66     CG2R61
    9    11     4	5 ;     CG2R66     CG2R61     CG2R61
    9    11    73	5 ;     CG2R66     CG2R61      HGR62
    4    11    73	5 ;     CG2R61     CG2R61      HGR62
   13    12    15	5 ;      OG311      CG311      CG321
   13    12     1	5 ;      OG311      CG311      CG311
   13    12    74	5 ;      OG311      CG311       HGA1
   15    12     1	5 ;      CG321      CG311      CG311
   15    12    74	5 ;      CG321      CG311       HGA1
    1    12    74	5 ;      CG311      CG311       HGA1
   14    13    12	5 ;       HGP1      OG311      CG311
   16    15    12	5 ;      CG2O1      CG321      CG311
   16    15    75	5 ;      CG2O1      CG321       HGA2
   16    15    76	5 ;      CG2O1      CG321       HGA2
   12    15    75	5 ;      CG311      CG321       HGA2
   12    15    76	5 ;      CG311      CG321       HGA2
   75    15    76	5 ;       HGA2      CG321       HGA2
   17    16    18	5 ;      OG2D1      CG2O1      NG2S1
   17    16    15	5 ;      OG2D1      CG2O1      CG321
   18    16    15	5 ;      NG2S1      CG2O1      CG321
   20    18    16	5 ;      CG311      NG2S1      CG2O1
   20    18    19	5 ;      CG311      NG2S1       HGP1
   16    18    19	5 ;      CG2O1      NG2S1       HGP1
   21    20    18	5 ;      CG311      CG311      NG2S1
   21    20    24	5 ;      CG311      CG311      CG2O1
   21    20    77	5 ;      CG311      CG311       HGA1
   18    20    24	5 ;      NG2S1      CG311      CG2O1
   18    20    77	5 ;      NG2S1      CG311       HGA1
   24    20    77	5 ;      CG2O1      CG311       HGA1
   22    21    23	5 ;      CG331      CG311      CG331
   22    21    20	5 ;      CG331      CG311      CG311
   22    21    78	5 ;      CG331      CG311       HGA1
   23    21    20	5 ;      CG331      CG311      CG311
   23    21    78	5 ;      CG331      CG311       HGA1
   20    21    78	5 ;      CG311      CG311       HGA1
   21    22    79	5 ;      CG311      CG331       HGA3
   21    22    80	5 ;      CG311      CG331       HGA3
   21    22    81	5 ;      CG311      CG331       HGA3
   79    22    80	5 ;       HGA3      CG331       HGA3
   79    22    81	5 ;       HGA3      CG331       HGA3
   80    22    81	5 ;       HGA3      CG331       HGA3
   21    23    82	5 ;      CG311      CG331       HGA3
   21    23    83	5 ;      CG311      CG331       HGA3
   21    23    84	5 ;      CG311      CG331       HGA3
   82    23    83	5 ;       HGA3      CG331       HGA3
   82    23    84	5 ;       HGA3      CG331       HGA3
   83    23    84	5 ;       HGA3      CG331       HGA3
   20    24    25	5 ;      CG311      CG2O1      OG2D1
   20    24    26	5 ;      CG311      CG2O1      NG2S1
   25    24    26	5 ;      OG2D1      CG2O1      NG2S1
   24    26    27	5 ;      CG2O1      NG2S1       HGP1
   24    26    28	5 ;      CG2O1      NG2S1     CG2R61
   27    26    28	5 ;       HGP1      NG2S1     CG2R61
   26    28    33	5 ;      NG2S1     CG2R61     CG2R61
   26    28    29	5 ;      NG2S1     CG2R61     CG2R61
   33    28    29	5 ;     CG2R61     CG2R61     CG2R61
   28    29    30	5 ;     CG2R61     CG2R61     CG2R61
   28    29    85	5 ;     CG2R61     CG2R61      HGR61
   30    29    85	5 ;     CG2R61     CG2R61      HGR61
   29    30    31	5 ;     CG2R61     CG2R61     CG2R61
   29    30    34	5 ;     CG2R61     CG2R61      CG2O2
   31    30    34	5 ;     CG2R61     CG2R61      CG2O2
   32    31    30	5 ;     CG2R61     CG2R61     CG2R61
   32    31    86	5 ;     CG2R61     CG2R61      HGR61
   30    31    86	5 ;     CG2R61     CG2R61      HGR61
   33    32    37	5 ;     CG2R61     CG2R61      CG2O2
   33    32    31	5 ;     CG2R61     CG2R61     CG2R61
   37    32    31	5 ;      CG2O2     CG2R61     CG2R61
   28    33    32	5 ;     CG2R61     CG2R61     CG2R61
   28    33    87	5 ;     CG2R61     CG2R61      HGR61
   32    33    87	5 ;     CG2R61     CG2R61      HGR61
   30    34    35	5 ;     CG2R61      CG2O2      OG2D1
   30    34    36	5 ;     CG2R61      CG2O2      OG311
   35    34    36	5 ;      OG2D1      CG2O2      OG311
   34    36    88	5 ;      CG2O2      OG311       HGP1
   39    37    32	5 ;      OG2D1      CG2O2     CG2R61
   39    37    38	5 ;      OG2D1      CG2O2      OG311
   32    37    38	5 ;     CG2R61      CG2O2      OG311
   37    38    89	5 ;      CG2O2      OG311       HGP1
    1    40    43	5 ;      CG311      NG2S1       HGP1
    1    40    41	5 ;      CG311      NG2S1      CG2O1
   43    40    41	5 ;       HGP1      NG2S1      CG2O1
   40    41    42	5 ;      NG2S1      CG2O1      OG2D1
   40    41    44	5 ;      NG2S1      CG2O1     CG2R61
   42    41    44	5 ;      OG2D1      CG2O1     CG2R61
   41    44    49	5 ;      CG2O1     CG2R61     CG2R61
   41    44    45	5 ;      CG2O1     CG2R61     CG2R61
   49    44    45	5 ;     CG2R61     CG2R61     CG2R61
   44    45    46	5 ;     CG2R61     CG2R61     CG2R61
   44    45    90	5 ;     CG2R61     CG2R61      HGR61
   46    45    90	5 ;     CG2R61     CG2R61      HGR61
   45    46    47	5 ;     CG2R61     CG2R61     CG2R61
   45    46    50	5 ;     CG2R61     CG2R61      CG2O1
   47    46    50	5 ;     CG2R61     CG2R61      CG2O1
   48    47    46	5 ;     CG2R61     CG2R61     CG2R61
   48    47    91	5 ;     CG2R61     CG2R61      HGR61
   46    47    91	5 ;     CG2R61     CG2R61      HGR61
   49    48    62	5 ;     CG2R61     CG2R61      NG301
   49    48    47	5 ;     CG2R61     CG2R61     CG2R61
   62    48    47	5 ;      NG301     CG2R61     CG2R61
   44    49    48	5 ;     CG2R61     CG2R61     CG2R61
   44    49    92	5 ;     CG2R61     CG2R61      HGR61
   48    49    92	5 ;     CG2R61     CG2R61      HGR61
   46    50    51	5 ;     CG2R61      CG2O1      OG2D1
   46    50    52	5 ;     CG2R61      CG2O1      NG2S1
   51    50    52	5 ;      OG2D1      CG2O1      NG2S1
   50    52    54	5 ;      CG2O1      NG2S1      CG311
   50    52    53	5 ;      CG2O1      NG2S1       HGP1
   54    52    53	5 ;      CG311      NG2S1       HGP1
   56    54    52	5 ;     CG2R61      CG311      NG2S1
   56    54    55	5 ;     CG2R61      CG311      CG331
   56    54    93	5 ;     CG2R61      CG311       HGA1
   52    54    55	5 ;      NG2S1      CG311      CG331
   52    54    93	5 ;      NG2S1      CG311       HGA1
   55    54    93	5 ;      CG331      CG311       HGA1
   54    55    94	5 ;      CG311      CG331       HGA3
   54    55    95	5 ;      CG311      CG331       HGA3
   54    55    96	5 ;      CG311      CG331       HGA3
   94    55    95	5 ;       HGA3      CG331       HGA3
   94    55    96	5 ;       HGA3      CG331       HGA3
   95    55    96	5 ;       HGA3      CG331       HGA3
   61    56    57	5 ;     CG2R61     CG2R61     CG2R61
   61    56    54	5 ;     CG2R61     CG2R61      CG311
   57    56    54	5 ;     CG2R61     CG2R61      CG311
   58    57    56	5 ;     CG2R61     CG2R61     CG2R61
   58    57    97	5 ;     CG2R61     CG2R61      HGR61
   56    57    97	5 ;     CG2R61     CG2R61      HGR61
   59    58    57	5 ;     CG2R61     CG2R61     CG2R61
   59    58    98	5 ;     CG2R61     CG2R61      HGR61
   57    58    98	5 ;     CG2R61     CG2R61      HGR61
   60    59    58	5 ;     CG2R61     CG2R61     CG2R61
   60    59    99	5 ;     CG2R61     CG2R61      HGR61
   58    59    99	5 ;     CG2R61     CG2R61      HGR61
   59    60    61	5 ;     CG2R61     CG2R61     CG2R61
   59    60   100	5 ;     CG2R61     CG2R61      HGR61
   61    60   100	5 ;     CG2R61     CG2R61      HGR61
   60    61    56	5 ;     CG2R61     CG2R61     CG2R61
   60    61   101	5 ;     CG2R61     CG2R61      HGR61
   56    61   101	5 ;     CG2R61     CG2R61      HGR61
   64    62    48	5 ;      SG3O2      NG301     CG2R61
   64    62    63	5 ;      SG3O2      NG301      CG331
   48    62    63	5 ;     CG2R61      NG301      CG331
   62    63   102	5 ;      NG301      CG331       HGA3
   62    63   103	5 ;      NG301      CG331       HGA3
   62    63   104	5 ;      NG301      CG331       HGA3
  102    63   103	5 ;       HGA3      CG331       HGA3
  102    63   104	5 ;       HGA3      CG331       HGA3
  103    63   104	5 ;       HGA3      CG331       HGA3
   65    64    66	5 ;      OG2P1      SG3O2      OG2P1
   65    64    67	5 ;      OG2P1      SG3O2      CG331
   65    64    62	5 ;      OG2P1      SG3O2      NG301
   66    64    67	5 ;      OG2P1      SG3O2      CG331
   66    64    62	5 ;      OG2P1      SG3O2      NG301
   67    64    62	5 ;      CG331      SG3O2      NG301
   64    67   105	5 ;      SG3O2      CG331       HGA3
   64    67   106	5 ;      SG3O2      CG331       HGA3
   64    67   107	5 ;      SG3O2      CG331       HGA3
  105    67   106	5 ;       HGA3      CG331       HGA3
  105    67   107	5 ;       HGA3      CG331       HGA3
  106    67   107	5 ;       HGA3      CG331       HGA3

[ dihedrals ]
;	ai	  aj	ak	  al funct			  c0			c1			  c2			c3			  c4			c5
   40     1    12    13	 9 ;      NG2S1      CG311      CG311      OG311
   40     1    12    15	 9 ;      NG2S1      CG311      CG311      CG321
   40     1    12    74	 9 ;      NG2S1      CG311      CG311       HGA1
    2     1    12    13	 9 ;      CG321      CG311      CG311      OG311
    2     1    12    15	 9 ;      CG321      CG311      CG311      CG321
    2     1    12    74	 9 ;      CG321      CG311      CG311       HGA1
   68     1    12    13	 9 ;       HGA1      CG311      CG311      OG311
   68     1    12    15	 9 ;       HGA1      CG311      CG311      CG321
   68     1    12    74	 9 ;       HGA1      CG311      CG311       HGA1
   12     1    40    43	 9 ;      CG311      CG311      NG2S1       HGP1
   12     1    40    41	 9 ;      CG311      CG311      NG2S1      CG2O1
    2     1    40    43	 9 ;      CG321      CG311      NG2S1       HGP1
    2     1    40    41	 9 ;      CG321      CG311      NG2S1      CG2O1
   68     1    40    43	 9 ;       HGA1      CG311      NG2S1       HGP1
   68     1    40    41	 9 ;       HGA1      CG311      NG2S1      CG2O1
   12     1     2     3	 9 ;      CG311      CG311      CG321      OG301
   12     1     2    69	 9 ;      CG311      CG311      CG321       HGA2
   12     1     2    70	 9 ;      CG311      CG311      CG321       HGA2
   40     1     2     3	 9 ;      NG2S1      CG311      CG321      OG301
   40     1     2    69	 9 ;      NG2S1      CG311      CG321       HGA2
   40     1     2    70	 9 ;      NG2S1      CG311      CG321       HGA2
   68     1     2     3	 9 ;       HGA1      CG311      CG321      OG301
   68     1     2    69	 9 ;       HGA1      CG311      CG321       HGA2
   68     1     2    70	 9 ;       HGA1      CG311      CG321       HGA2
    1     2     3     4	 9 ;      CG311      CG321      OG301     CG2R61
   69     2     3     4	 9 ;       HGA2      CG321      OG301     CG2R61
   70     2     3     4	 9 ;       HGA2      CG321      OG301     CG2R61
    2     3     4    11	 9 ;      CG321      OG301     CG2R61     CG2R61
    2     3     4     5	 9 ;      CG321      OG301     CG2R61     CG2R61
    3     4    11     9	 9 ;      OG301     CG2R61     CG2R61     CG2R66
    3     4    11    73	 9 ;      OG301     CG2R61     CG2R61      HGR62
    5     4    11     9	 9 ;     CG2R61     CG2R61     CG2R61     CG2R66
    5     4    11    73	 9 ;     CG2R61     CG2R61     CG2R61      HGR62
   11     4     5     6	 9 ;     CG2R61     CG2R61     CG2R61     CG2R66
   11     4     5    71	 9 ;     CG2R61     CG2R61     CG2R61      HGR62
    3     4     5     6	 9 ;      OG301     CG2R61     CG2R61     CG2R66
    3     4     5    71	 9 ;      OG301     CG2R61     CG2R61      HGR62
    4     5     6     8	 9 ;     CG2R61     CG2R61     CG2R66     CG2R61
    4     5     6     7	 9 ;     CG2R61     CG2R61     CG2R66       FGR1
   71     5     6     8	 9 ;      HGR62     CG2R61     CG2R66     CG2R61
   71     5     6     7	 9 ;      HGR62     CG2R61     CG2R66       FGR1
    5     6     8     9	 9 ;     CG2R61     CG2R66     CG2R61     CG2R66
    5     6     8    72	 9 ;     CG2R61     CG2R66     CG2R61      HGR62
    7     6     8     9	 9 ;       FGR1     CG2R66     CG2R61     CG2R66
    7     6     8    72	 9 ;       FGR1     CG2R66     CG2R61      HGR62
    6     8     9    11	 9 ;     CG2R66     CG2R61     CG2R66     CG2R61
    6     8     9    10	 9 ;     CG2R66     CG2R61     CG2R66       FGR1
   72     8     9    11	 9 ;      HGR62     CG2R61     CG2R66     CG2R61
   72     8     9    10	 9 ;      HGR62     CG2R61     CG2R66       FGR1
   10     9    11     4	 9 ;       FGR1     CG2R66     CG2R61     CG2R61
   10     9    11    73	 9 ;       FGR1     CG2R66     CG2R61      HGR62
    8     9    11     4	 9 ;     CG2R61     CG2R66     CG2R61     CG2R61
    8     9    11    73	 9 ;     CG2R61     CG2R66     CG2R61      HGR62
   15    12    13    14	 9 ;      CG321      CG311      OG311       HGP1
    1    12    13    14	 9 ;      CG311      CG311      OG311       HGP1
   74    12    13    14	 9 ;       HGA1      CG311      OG311       HGP1
   13    12    15    16	 9 ;      OG311      CG311      CG321      CG2O1
   13    12    15    75	 9 ;      OG311      CG311      CG321       HGA2
   13    12    15    76	 9 ;      OG311      CG311      CG321       HGA2
    1    12    15    16	 9 ;      CG311      CG311      CG321      CG2O1
    1    12    15    75	 9 ;      CG311      CG311      CG321       HGA2
    1    12    15    76	 9 ;      CG311      CG311      CG321       HGA2
   74    12    15    16	 9 ;       HGA1      CG311      CG321      CG2O1
   74    12    15    75	 9 ;       HGA1      CG311      CG321       HGA2
   74    12    15    76	 9 ;       HGA1      CG311      CG321       HGA2
   12    15    16    17	 9 ;      CG311      CG321      CG2O1      OG2D1
   12    15    16    18	 9 ;      CG311      CG321      CG2O1      NG2S1
   75    15    16    17	 9 ;       HGA2      CG321      CG2O1      OG2D1
   75    15    16    18	 9 ;       HGA2      CG321      CG2O1      NG2S1
   76    15    16    17	 9 ;       HGA2      CG321      CG2O1      OG2D1
   76    15    16    18	 9 ;       HGA2      CG321      CG2O1      NG2S1
   17    16    18    20	 9 ;      OG2D1      CG2O1      NG2S1      CG311
   17    16    18    19	 9 ;      OG2D1      CG2O1      NG2S1       HGP1
   15    16    18    20	 9 ;      CG321      CG2O1      NG2S1      CG311
   15    16    18    19	 9 ;      CG321      CG2O1      NG2S1       HGP1
   16    18    20    21	 9 ;      CG2O1      NG2S1      CG311      CG311
   16    18    20    24	 9 ;      CG2O1      NG2S1      CG311      CG2O1
   16    18    20    77	 9 ;      CG2O1      NG2S1      CG311       HGA1
   19    18    20    21	 9 ;       HGP1      NG2S1      CG311      CG311
   19    18    20    24	 9 ;       HGP1      NG2S1      CG311      CG2O1
   19    18    20    77	 9 ;       HGP1      NG2S1      CG311       HGA1
   18    20    21    22	 9 ;      NG2S1      CG311      CG311      CG331
   18    20    21    23	 9 ;      NG2S1      CG311      CG311      CG331
   18    20    21    78	 9 ;      NG2S1      CG311      CG311       HGA1
   24    20    21    22	 9 ;      CG2O1      CG311      CG311      CG331
   24    20    21    23	 9 ;      CG2O1      CG311      CG311      CG331
   24    20    21    78	 9 ;      CG2O1      CG311      CG311       HGA1
   77    20    21    22	 9 ;       HGA1      CG311      CG311      CG331
   77    20    21    23	 9 ;       HGA1      CG311      CG311      CG331
   77    20    21    78	 9 ;       HGA1      CG311      CG311       HGA1
   21    20    24    25	 9 ;      CG311      CG311      CG2O1      OG2D1
   21    20    24    26	 9 ;      CG311      CG311      CG2O1      NG2S1
   18    20    24    25	 9 ;      NG2S1      CG311      CG2O1      OG2D1
   18    20    24    26	 9 ;      NG2S1      CG311      CG2O1      NG2S1
   77    20    24    25	 9 ;       HGA1      CG311      CG2O1      OG2D1
   77    20    24    26	 9 ;       HGA1      CG311      CG2O1      NG2S1
   23    21    22    79	 9 ;      CG331      CG311      CG331       HGA3
   23    21    22    80	 9 ;      CG331      CG311      CG331       HGA3
   23    21    22    81	 9 ;      CG331      CG311      CG331       HGA3
   20    21    22    79	 9 ;      CG311      CG311      CG331       HGA3
   20    21    22    80	 9 ;      CG311      CG311      CG331       HGA3
   20    21    22    81	 9 ;      CG311      CG311      CG331       HGA3
   78    21    22    79	 9 ;       HGA1      CG311      CG331       HGA3
   78    21    22    80	 9 ;       HGA1      CG311      CG331       HGA3
   78    21    22    81	 9 ;       HGA1      CG311      CG331       HGA3
   22    21    23    82	 9 ;      CG331      CG311      CG331       HGA3
   22    21    23    83	 9 ;      CG331      CG311      CG331       HGA3
   22    21    23    84	 9 ;      CG331      CG311      CG331       HGA3
   20    21    23    82	 9 ;      CG311      CG311      CG331       HGA3
   20    21    23    83	 9 ;      CG311      CG311      CG331       HGA3
   20    21    23    84	 9 ;      CG311      CG311      CG331       HGA3
   78    21    23    82	 9 ;       HGA1      CG311      CG331       HGA3
   78    21    23    83	 9 ;       HGA1      CG311      CG331       HGA3
   78    21    23    84	 9 ;       HGA1      CG311      CG331       HGA3
   20    24    26    27	 9 ;      CG311      CG2O1      NG2S1       HGP1
   20    24    26    28	 9 ;      CG311      CG2O1      NG2S1     CG2R61
   25    24    26    27	 9 ;      OG2D1      CG2O1      NG2S1       HGP1
   25    24    26    28	 9 ;      OG2D1      CG2O1      NG2S1     CG2R61
   24    26    28    33	 9 ;      CG2O1      NG2S1     CG2R61     CG2R61
   24    26    28    29	 9 ;      CG2O1      NG2S1     CG2R61     CG2R61
   27    26    28    33	 9 ;       HGP1      NG2S1     CG2R61     CG2R61
   27    26    28    29	 9 ;       HGP1      NG2S1     CG2R61     CG2R61
   26    28    33    32	 9 ;      NG2S1     CG2R61     CG2R61     CG2R61
   26    28    33    87	 9 ;      NG2S1     CG2R61     CG2R61      HGR61
   29    28    33    32	 9 ;     CG2R61     CG2R61     CG2R61     CG2R61
   29    28    33    87	 9 ;     CG2R61     CG2R61     CG2R61      HGR61
   26    28    29    30	 9 ;      NG2S1     CG2R61     CG2R61     CG2R61
   26    28    29    85	 9 ;      NG2S1     CG2R61     CG2R61      HGR61
   33    28    29    30	 9 ;     CG2R61     CG2R61     CG2R61     CG2R61
   33    28    29    85	 9 ;     CG2R61     CG2R61     CG2R61      HGR61
   28    29    30    31	 9 ;     CG2R61     CG2R61     CG2R61     CG2R61
   28    29    30    34	 9 ;     CG2R61     CG2R61     CG2R61      CG2O2
   85    29    30    31	 9 ;      HGR61     CG2R61     CG2R61     CG2R61
   85    29    30    34	 9 ;      HGR61     CG2R61     CG2R61      CG2O2
   29    30    31    32	 9 ;     CG2R61     CG2R61     CG2R61     CG2R61
   29    30    31    86	 9 ;     CG2R61     CG2R61     CG2R61      HGR61
   34    30    31    32	 9 ;      CG2O2     CG2R61     CG2R61     CG2R61
   34    30    31    86	 9 ;      CG2O2     CG2R61     CG2R61      HGR61
   29    30    34    35	 9 ;     CG2R61     CG2R61      CG2O2      OG2D1
   29    30    34    36	 9 ;     CG2R61     CG2R61      CG2O2      OG311
   31    30    34    35	 9 ;     CG2R61     CG2R61      CG2O2      OG2D1
   31    30    34    36	 9 ;     CG2R61     CG2R61      CG2O2      OG311
   30    31    32    33	 9 ;     CG2R61     CG2R61     CG2R61     CG2R61
   30    31    32    37	 9 ;     CG2R61     CG2R61     CG2R61      CG2O2
   86    31    32    33	 9 ;      HGR61     CG2R61     CG2R61     CG2R61
   86    31    32    37	 9 ;      HGR61     CG2R61     CG2R61      CG2O2
   37    32    33    28	 9 ;      CG2O2     CG2R61     CG2R61     CG2R61
   37    32    33    87	 9 ;      CG2O2     CG2R61     CG2R61      HGR61
   31    32    33    28	 9 ;     CG2R61     CG2R61     CG2R61     CG2R61
   31    32    33    87	 9 ;     CG2R61     CG2R61     CG2R61      HGR61
   33    32    37    39	 9 ;     CG2R61     CG2R61      CG2O2      OG2D1
   33    32    37    38	 9 ;     CG2R61     CG2R61      CG2O2      OG311
   31    32    37    39	 9 ;     CG2R61     CG2R61      CG2O2      OG2D1
   31    32    37    38	 9 ;     CG2R61     CG2R61      CG2O2      OG311
   30    34    36    88	 9 ;     CG2R61      CG2O2      OG311       HGP1
   35    34    36    88	 9 ;      OG2D1      CG2O2      OG311       HGP1
   39    37    38    89	 9 ;      OG2D1      CG2O2      OG311       HGP1
   32    37    38    89	 9 ;     CG2R61      CG2O2      OG311       HGP1
    1    40    41    42	 9 ;      CG311      NG2S1      CG2O1      OG2D1
    1    40    41    44	 9 ;      CG311      NG2S1      CG2O1     CG2R61
   43    40    41    42	 9 ;       HGP1      NG2S1      CG2O1      OG2D1
   43    40    41    44	 9 ;       HGP1      NG2S1      CG2O1     CG2R61
   40    41    44    49	 9 ;      NG2S1      CG2O1     CG2R61     CG2R61
   40    41    44    45	 9 ;      NG2S1      CG2O1     CG2R61     CG2R61
   42    41    44    49	 9 ;      OG2D1      CG2O1     CG2R61     CG2R61
   42    41    44    45	 9 ;      OG2D1      CG2O1     CG2R61     CG2R61
   41    44    49    48	 9 ;      CG2O1     CG2R61     CG2R61     CG2R61
   41    44    49    92	 9 ;      CG2O1     CG2R61     CG2R61      HGR61
   45    44    49    48	 9 ;     CG2R61     CG2R61     CG2R61     CG2R61
   45    44    49    92	 9 ;     CG2R61     CG2R61     CG2R61      HGR61
   41    44    45    46	 9 ;      CG2O1     CG2R61     CG2R61     CG2R61
   41    44    45    90	 9 ;      CG2O1     CG2R61     CG2R61      HGR61
   49    44    45    46	 9 ;     CG2R61     CG2R61     CG2R61     CG2R61
   49    44    45    90	 9 ;     CG2R61     CG2R61     CG2R61      HGR61
   44    45    46    47	 9 ;     CG2R61     CG2R61     CG2R61     CG2R61
   44    45    46    50	 9 ;     CG2R61     CG2R61     CG2R61      CG2O1
   90    45    46    47	 9 ;      HGR61     CG2R61     CG2R61     CG2R61
   90    45    46    50	 9 ;      HGR61     CG2R61     CG2R61      CG2O1
   45    46    47    48	 9 ;     CG2R61     CG2R61     CG2R61     CG2R61
   45    46    47    91	 9 ;     CG2R61     CG2R61     CG2R61      HGR61
   50    46    47    48	 9 ;      CG2O1     CG2R61     CG2R61     CG2R61
   50    46    47    91	 9 ;      CG2O1     CG2R61     CG2R61      HGR61
   45    46    50    51	 9 ;     CG2R61     CG2R61      CG2O1      OG2D1
   45    46    50    52	 9 ;     CG2R61     CG2R61      CG2O1      NG2S1
   47    46    50    51	 9 ;     CG2R61     CG2R61      CG2O1      OG2D1
   47    46    50    52	 9 ;     CG2R61     CG2R61      CG2O1      NG2S1
   46    47    48    49	 9 ;     CG2R61     CG2R61     CG2R61     CG2R61
   46    47    48    62	 9 ;     CG2R61     CG2R61     CG2R61      NG301
   91    47    48    49	 9 ;      HGR61     CG2R61     CG2R61     CG2R61
   91    47    48    62	 9 ;      HGR61     CG2R61     CG2R61      NG301
   62    48    49    44	 9 ;      NG301     CG2R61     CG2R61     CG2R61
   62    48    49    92	 9 ;      NG301     CG2R61     CG2R61      HGR61
   47    48    49    44	 9 ;     CG2R61     CG2R61     CG2R61     CG2R61
   47    48    49    92	 9 ;     CG2R61     CG2R61     CG2R61      HGR61
   49    48    62    64	 9 ;     CG2R61     CG2R61      NG301      SG3O2
   49    48    62    63	 9 ;     CG2R61     CG2R61      NG301      CG331
   47    48    62    64	 9 ;     CG2R61     CG2R61      NG301      SG3O2
   47    48    62    63	 9 ;     CG2R61     CG2R61      NG301      CG331
   46    50    52    54	 9 ;     CG2R61      CG2O1      NG2S1      CG311
   46    50    52    53	 9 ;     CG2R61      CG2O1      NG2S1       HGP1
   51    50    52    54	 9 ;      OG2D1      CG2O1      NG2S1      CG311
   51    50    52    53	 9 ;      OG2D1      CG2O1      NG2S1       HGP1
   50    52    54    56	 9 ;      CG2O1      NG2S1      CG311     CG2R61
   50    52    54    55	 9 ;      CG2O1      NG2S1      CG311      CG331
   50    52    54    93	 9 ;      CG2O1      NG2S1      CG311       HGA1
   53    52    54    56	 9 ;       HGP1      NG2S1      CG311     CG2R61
   53    52    54    55	 9 ;       HGP1      NG2S1      CG311      CG331
   53    52    54    93	 9 ;       HGP1      NG2S1      CG311       HGA1
   52    54    56    61	 9 ;      NG2S1      CG311     CG2R61     CG2R61
   52    54    56    57	 9 ;      NG2S1      CG311     CG2R61     CG2R61
   55    54    56    61	 9 ;      CG331      CG311     CG2R61     CG2R61
   55    54    56    57	 9 ;      CG331      CG311     CG2R61     CG2R61
   93    54    56    61	 9 ;       HGA1      CG311     CG2R61     CG2R61
   93    54    56    57	 9 ;       HGA1      CG311     CG2R61     CG2R61
   56    54    55    94	 9 ;     CG2R61      CG311      CG331       HGA3
   56    54    55    95	 9 ;     CG2R61      CG311      CG331       HGA3
   56    54    55    96	 9 ;     CG2R61      CG311      CG331       HGA3
   52    54    55    94	 9 ;      NG2S1      CG311      CG331       HGA3
   52    54    55    95	 9 ;      NG2S1      CG311      CG331       HGA3
   52    54    55    96	 9 ;      NG2S1      CG311      CG331       HGA3
   93    54    55    94	 9 ;       HGA1      CG311      CG331       HGA3
   93    54    55    95	 9 ;       HGA1      CG311      CG331       HGA3
   93    54    55    96	 9 ;       HGA1      CG311      CG331       HGA3
   57    56    61    60	 9 ;     CG2R61     CG2R61     CG2R61     CG2R61
   57    56    61   101	 9 ;     CG2R61     CG2R61     CG2R61      HGR61
   54    56    61    60	 9 ;      CG311     CG2R61     CG2R61     CG2R61
   54    56    61   101	 9 ;      CG311     CG2R61     CG2R61      HGR61
   61    56    57    58	 9 ;     CG2R61     CG2R61     CG2R61     CG2R61
   61    56    57    97	 9 ;     CG2R61     CG2R61     CG2R61      HGR61
   54    56    57    58	 9 ;      CG311     CG2R61     CG2R61     CG2R61
   54    56    57    97	 9 ;      CG311     CG2R61     CG2R61      HGR61
   56    57    58    59	 9 ;     CG2R61     CG2R61     CG2R61     CG2R61
   56    57    58    98	 9 ;     CG2R61     CG2R61     CG2R61      HGR61
   97    57    58    59	 9 ;      HGR61     CG2R61     CG2R61     CG2R61
   97    57    58    98	 9 ;      HGR61     CG2R61     CG2R61      HGR61
   57    58    59    60	 9 ;     CG2R61     CG2R61     CG2R61     CG2R61
   57    58    59    99	 9 ;     CG2R61     CG2R61     CG2R61      HGR61
   98    58    59    60	 9 ;      HGR61     CG2R61     CG2R61     CG2R61
   98    58    59    99	 9 ;      HGR61     CG2R61     CG2R61      HGR61
   58    59    60    61	 9 ;     CG2R61     CG2R61     CG2R61     CG2R61
   58    59    60   100	 9 ;     CG2R61     CG2R61     CG2R61      HGR61
   99    59    60    61	 9 ;      HGR61     CG2R61     CG2R61     CG2R61
   99    59    60   100	 9 ;      HGR61     CG2R61     CG2R61      HGR61
   59    60    61    56	 9 ;     CG2R61     CG2R61     CG2R61     CG2R61
   59    60    61   101	 9 ;     CG2R61     CG2R61     CG2R61      HGR61
  100    60    61    56	 9 ;      HGR61     CG2R61     CG2R61     CG2R61
  100    60    61   101	 9 ;      HGR61     CG2R61     CG2R61      HGR61
   48    62    64    65	 9 ;     CG2R61      NG301      SG3O2      OG2P1
   48    62    64    66	 9 ;     CG2R61      NG301      SG3O2      OG2P1
   48    62    64    67	 9 ;     CG2R61      NG301      SG3O2      CG331
   63    62    64    65	 9 ;      CG331      NG301      SG3O2      OG2P1
   63    62    64    66	 9 ;      CG331      NG301      SG3O2      OG2P1
   63    62    64    67	 9 ;      CG331      NG301      SG3O2      CG331
   64    62    63   102	 9 ;      SG3O2      NG301      CG331       HGA3
   64    62    63   103	 9 ;      SG3O2      NG301      CG331       HGA3
   64    62    63   104	 9 ;      SG3O2      NG301      CG331       HGA3
   48    62    63   102	 9 ;     CG2R61      NG301      CG331       HGA3
   48    62    63   103	 9 ;     CG2R61      NG301      CG331       HGA3
   48    62    63   104	 9 ;     CG2R61      NG301      CG331       HGA3
   65    64    67   105	 9 ;      OG2P1      SG3O2      CG331       HGA3
   65    64    67   106	 9 ;      OG2P1      SG3O2      CG331       HGA3
   65    64    67   107	 9 ;      OG2P1      SG3O2      CG331       HGA3
   66    64    67   105	 9 ;      OG2P1      SG3O2      CG331       HGA3
   66    64    67   106	 9 ;      OG2P1      SG3O2      CG331       HGA3
   66    64    67   107	 9 ;      OG2P1      SG3O2      CG331       HGA3
   62    64    67   105	 9 ;      NG301      SG3O2      CG331       HGA3
   62    64    67   106	 9 ;      NG301      SG3O2      CG331       HGA3
   62    64    67   107	 9 ;      NG301      SG3O2      CG331       HGA3

[ dihedrals ]
;	ai	  aj	ak	  al funct			  c0			c1			  c2			c3
   16    15    18    17	 2
   24    20    26    25	 2
   34    30    35    36	 2
   37    32    39    38	 2
   41    44    40    42	 2
   50    46    52    51	 2

