GRoups of Organic Molecules in ACtion for Science
   62
    1LIG      S    1  -2.071   0.455  -1.641
    1LIG     O1    2  -1.979   0.349  -1.609
    1LIG     O2    3  -2.125   0.473  -1.775
    1LIG     C1    4  -2.204   0.446  -1.526
    1LIG     C2    5  -2.151   0.449  -1.381
    1LIG     C3    6  -2.071   0.579  -1.354
    1LIG     C4    7  -1.949   0.600  -1.450
    1LIG     C5    8  -1.992   0.606  -1.595
    1LIG     N1    9  -1.847   0.492  -1.421
    1LIG     H1   10  -1.880   0.436  -1.341
    1LIG     H2   11  -1.840   0.426  -1.501
    1LIG     C6   12  -1.705   0.531  -1.396
    1LIG     C7   13  -1.616   0.421  -1.445
    1LIG     C8   14  -1.491   0.402  -1.384
    1LIG     C9   15  -1.412   0.290  -1.411
    1LIG    C10   16  -1.463   0.196  -1.503
    1LIG    C11   17  -1.586   0.216  -1.567
    1LIG    C12   18  -1.662   0.327  -1.538
    1LIG    C13   19  -1.280   0.265  -1.336
    1LIG    C14   20  -1.188   0.181  -1.426
    1LIG    C15   21  -1.209   0.398  -1.300
    1LIG    C16   22  -1.299   0.188  -1.203
    1LIG     O3   23  -2.017   0.585  -1.222
    1LIG     H3   24  -2.014   0.676  -1.187
    1LIG    C17   25  -2.267   0.432  -1.281
    1LIG    C18   26  -2.256   0.308  -1.197
    1LIG    C19   27  -2.196   0.312  -1.071
    1LIG    C20   28  -2.203   0.200  -0.987
    1LIG      F   29  -2.152   0.210  -0.863
    1LIG    C21   30  -2.263   0.081  -1.028
    1LIG    C22   31  -2.317   0.075  -1.157
    1LIG    C23   32  -2.312   0.187  -1.242
    1LIG     N2   33  -2.292  -0.020  -0.936
    1LIG     H4   34  -2.375  -0.075  -0.960
    1LIG     H5   35  -2.287   0.006  -0.838
    1LIG    HC2   36  -2.259   0.353  -1.541
    1LIG    HC3   37  -2.272   0.530  -1.541
    1LIG     HC   38  -2.083   0.365  -1.368
    1LIG    HC1   39  -2.139   0.664  -1.367
    1LIG    HC4   40  -1.904   0.696  -1.425
    1LIG    HC5   41  -1.904   0.621  -1.658
    1LIG    HC6   42  -2.061   0.689  -1.609
    1LIG    HC7   43  -1.682   0.624  -1.449
    1LIG    HC8   44  -1.690   0.546  -1.289
    1LIG    HC9   45  -1.454   0.477  -1.315
    1LIG   HC10   46  -1.406   0.107  -1.525
    1LIG   HC11   47  -1.620   0.144  -1.640
    1LIG   HC12   48  -1.758   0.342  -1.587
    1LIG   HC13   49  -2.269   0.519  -1.215
    1LIG   HC14   50  -2.361   0.429  -1.337
    1LIG   HC15   51  -2.145   0.401  -1.039
    1LIG   HC16   52  -2.363  -0.016  -1.192
    1LIG   HC17   53  -2.352   0.180  -1.342
    1LIG   HC18   54  -1.349   0.093  -1.223
    1LIG   HC19   55  -1.202   0.169  -1.158
    1LIG   HC20   56  -1.360   0.248  -1.135
    1LIG   HC21   57  -1.193   0.456  -1.391
    1LIG   HC22   58  -1.271   0.454  -1.231
    1LIG   HC23   59  -1.113   0.376  -1.254
    1LIG   HC24   60  -1.086   0.183  -1.386
    1LIG   HC25   61  -1.188   0.222  -1.527
    1LIG   HC26   62  -1.224   0.078  -1.429
   0.00000   0.00000   0.00000
