; Created by cgenff_charmm2gmx.py

[ moleculetype ]
; Name			   nrexcl
LIG				 3

[ atoms ]
;	 nr		  type	resnr residue  atom   cgnr	   charge		mass  typeB    chargeB		massB
; residue	 1 LIG rtp LIG q	qsum
     1     CG3C50      1    LIG     C1      1      0.849     12.011   ;
     2     NG3C51      1    LIG     N1      2     -0.964     14.007   ;
     3     CG3C51      1    LIG     C2      3      0.202     12.011   ;
     4     NG3C51      1    LIG     N2      4     -0.342     14.007   ;
     5     CG3RC1      1    LIG     C3      5      0.308     12.011   ;
     6     NG3C51      1    LIG     N3      6     -0.581     14.007   ;
     7       HGP1      1    LIG    HN1      7      0.298      1.008   ;
     8     CG2R51      1    LIG     C4      8     -0.198     12.011   ;
     9     CG2R51      1    LIG     C5      9     -0.244     12.011   ;
    10      NG321      1    LIG     N4     10     -0.869     14.007   ;
    11       HGP1      1    LIG     H1     11      0.206      1.008   ;
    12     HGPAM2      1    LIG     H2     12      0.349      1.008   ;
    13     HGPAM2      1    LIG     H3     13      0.349      1.008   ;
    14     CG2R61      1    LIG     C6     14      0.041     12.011   ;
    15     CG2R61      1    LIG     C7     15     -0.178     12.011   ;
    16     CG2R61      1    LIG     C8     16     -0.108     12.011   ;
    17     CG2R61      1    LIG     C9     17      0.217     12.011   ;
    18     CG2R61      1    LIG    C10     18     -0.108     12.011   ;
    19     CG2R61      1    LIG    C11     19     -0.178     12.011   ;
    20      OG301      1    LIG      O     20     -0.303     15.999   ;
    21      CG302      1    LIG    C12     21      0.464     12.011   ;
    22       FGA3      1    LIG     F1     22     -0.126     18.998   ;
    23       FGA3      1    LIG     F2     23     -0.126     18.998   ;
    24       FGA3      1    LIG     F3     24     -0.126     18.998   ;
    25     CG2R61      1    LIG    C13     25      0.044     12.011   ;
    26     CG2R61      1    LIG    C14     26     -0.182     12.011   ;
    27     CG2R61      1    LIG    C15     27     -0.137     12.011   ;
    28     CG2R61      1    LIG    C16     28     -0.117     12.011   ;
    29     CG2R61      1    LIG    C17     29     -0.102     12.011   ;
    30     CG2R61      1    LIG    C18     30     -0.181     12.011   ;
    31     CG2DC1      1    LIG    C19     31      0.053     12.011   ;
    32     CG2DC2      1    LIG    C20     32     -0.246     12.011   ;
    33     CG2DC2      1    LIG    C21     33     -0.181     12.011   ;
    34      CG321      1    LIG    C22     34     -0.037     12.011   ;
    35      NG311      1    LIG     N5     35     -0.466     14.007   ;
    36     CG2D1O      1    LIG    C23     36      0.321     12.011   ;
    37     HGPAM1      1    LIG    HN2     37      0.324      1.008   ;
    38       FGA1      1    LIG     F4     38     -0.107     18.998   ;
    39       HGA1      1    LIG     H4     39      0.134      1.008   ;
    40       HGA1      1    LIG     H5     40      0.090      1.008   ;
    41      HGR52      1    LIG     H6     41      0.275      1.008   ;
    42      HGR52      1    LIG     H7     42      0.272      1.008   ;
    43      HGR61      1    LIG     H8     43      0.116      1.008   ;
    44      HGR61      1    LIG     H9     44      0.116      1.008   ;
    45      HGR61      1    LIG    H10     45      0.116      1.008   ;
    46      HGR61      1    LIG    H11     46      0.116      1.008   ;
    47      HGR61      1    LIG    H12     47      0.116      1.008   ;
    48      HGR61      1    LIG    H13     48      0.116      1.008   ;
    49      HGR61      1    LIG    H14     49      0.116      1.008   ;
    50      HGR61      1    LIG    H15     50      0.116      1.008   ;
    51       HGA4      1    LIG    H16     51      0.153      1.008   ;
    52       HGA4      1    LIG    H17     52      0.150      1.008   ;
    53       HGA2      1    LIG    H18     53      0.090      1.008   ;
    54       HGA2      1    LIG    H19     54      0.090      1.008   ;

[ bonds ]
;	ai	  aj funct			  c0			c1			  c2			c3
    1     5	 1 ;      CG3C50     CG3RC1
    1     2	 1 ;      CG3C50     NG3C51
    1    14	 1 ;      CG3C50     CG2R61
    1    25	 1 ;      CG3C50     CG2R61
    2     3	 1 ;      NG3C51     CG3C51
    2    11	 1 ;      NG3C51       HGP1
    3     4	 1 ;      CG3C51     NG3C51
    3    10	 1 ;      CG3C51      NG321
    3    39	 1 ;      CG3C51       HGA1
    4     9	 1 ;      NG3C51     CG2R51
    4     5	 1 ;      NG3C51     CG3RC1
    5     6	 1 ;      CG3RC1     NG3C51
    5    40	 1 ;      CG3RC1       HGA1
    6     8	 1 ;      NG3C51     CG2R51
    6     7	 1 ;      NG3C51       HGP1
    8     9	 1 ;      CG2R51     CG2R51
    8    41	 1 ;      CG2R51      HGR52
    9    42	 1 ;      CG2R51      HGR52
   10    13	 1 ;       NG321     HGPAM2
   10    12	 1 ;       NG321     HGPAM2
   14    15	 1 ;      CG2R61     CG2R61
   14    19	 1 ;      CG2R61     CG2R61
   15    16	 1 ;      CG2R61     CG2R61
   15    43	 1 ;      CG2R61      HGR61
   16    17	 1 ;      CG2R61     CG2R61
   16    44	 1 ;      CG2R61      HGR61
   17    20	 1 ;      CG2R61      OG301
   17    18	 1 ;      CG2R61     CG2R61
   18    19	 1 ;      CG2R61     CG2R61
   18    45	 1 ;      CG2R61      HGR61
   19    46	 1 ;      CG2R61      HGR61
   20    21	 1 ;       OG301      CG302
   21    23	 1 ;       CG302       FGA3
   21    22	 1 ;       CG302       FGA3
   21    24	 1 ;       CG302       FGA3
   25    30	 1 ;      CG2R61     CG2R61
   25    26	 1 ;      CG2R61     CG2R61
   26    27	 1 ;      CG2R61     CG2R61
   26    47	 1 ;      CG2R61      HGR61
   27    28	 1 ;      CG2R61     CG2R61
   27    31	 1 ;      CG2R61     CG2DC1
   28    29	 1 ;      CG2R61     CG2R61
   28    48	 1 ;      CG2R61      HGR61
   29    30	 1 ;      CG2R61     CG2R61
   29    49	 1 ;      CG2R61      HGR61
   30    50	 1 ;      CG2R61      HGR61
   31    32	 1 ;      CG2DC1     CG2DC2
   31    36	 1 ;      CG2DC1     CG2D1O
   32    33	 1 ;      CG2DC2     CG2DC2
   32    51	 1 ;      CG2DC2       HGA4
   33    34	 1 ;      CG2DC2      CG321
   33    52	 1 ;      CG2DC2       HGA4
   34    35	 1 ;       CG321      NG311
   34    53	 1 ;       CG321       HGA2
   34    54	 1 ;       CG321       HGA2
   35    36	 1 ;       NG311     CG2D1O
   35    37	 1 ;       NG311     HGPAM1
   36    38	 1 ;      CG2D1O       FGA1

[ pairs ]
;	ai	  aj funct			  c0			c1			  c2			c3
    1    10	 1
    1    39	 1
    1     9	 1
    1     8	 1
    1     7	 1
    1    16	 1
    1    43	 1
    1    18	 1
    1    46	 1
    1    29	 1
    1    50	 1
    1    27	 1
    1    47	 1
    2     6	 1
    2    40	 1
    2    15	 1
    2    19	 1
    2    30	 1
    2    26	 1
    2     9	 1
    2    13	 1
    2    12	 1
    3    14	 1
    3    25	 1
    3     8	 1
    3    42	 1
    3     6	 1
    3    40	 1
    4    14	 1
    4    25	 1
    4    11	 1
    4    13	 1
    4    12	 1
    4     7	 1
    4    41	 1
    5    11	 1
    5    15	 1
    5    19	 1
    5    30	 1
    5    26	 1
    5    10	 1
    5    39	 1
    5    42	 1
    5    41	 1
    6    14	 1
    6    25	 1
    6    42	 1
    7    40	 1
    7     9	 1
    7    41	 1
    8    40	 1
    9    10	 1
    9    39	 1
    9    40	 1
   10    11	 1
   11    14	 1
   11    25	 1
   11    39	 1
   12    39	 1
   13    39	 1
   14    40	 1
   14    30	 1
   14    26	 1
   14    17	 1
   14    44	 1
   14    45	 1
   15    25	 1
   15    18	 1
   15    46	 1
   15    20	 1
   16    19	 1
   16    21	 1
   16    45	 1
   17    43	 1
   17    46	 1
   17    23	 1
   17    22	 1
   17    24	 1
   18    44	 1
   18    21	 1
   19    25	 1
   19    43	 1
   19    20	 1
   20    44	 1
   20    45	 1
   25    40	 1
   25    28	 1
   25    31	 1
   25    49	 1
   26    29	 1
   26    50	 1
   26    48	 1
   26    32	 1
   26    36	 1
   27    30	 1
   27    49	 1
   27    33	 1
   27    51	 1
   27    38	 1
   27    35	 1
   28    47	 1
   28    32	 1
   28    36	 1
   28    50	 1
   29    31	 1
   30    47	 1
   30    48	 1
   31    47	 1
   31    48	 1
   31    34	 1
   31    52	 1
   31    37	 1
   32    38	 1
   32    35	 1
   32    53	 1
   32    54	 1
   33    36	 1
   33    37	 1
   34    51	 1
   34    38	 1
   35    52	 1
   36    51	 1
   36    53	 1
   36    54	 1
   37    53	 1
   37    54	 1
   37    38	 1
   41    42	 1
   43    44	 1
   45    46	 1
   48    49	 1
   49    50	 1
   51    52	 1
   52    53	 1
   52    54	 1

[ angles ]
;	ai	  aj	ak funct			c0			  c1			c2			  c3
    5     1     2	5 ;     CG3RC1     CG3C50     NG3C51
    5     1    14	5 ;     CG3RC1     CG3C50     CG2R61
    5     1    25	5 ;     CG3RC1     CG3C50     CG2R61
    2     1    14	5 ;     NG3C51     CG3C50     CG2R61
    2     1    25	5 ;     NG3C51     CG3C50     CG2R61
   14     1    25	5 ;     CG2R61     CG3C50     CG2R61
    3     2     1	5 ;     CG3C51     NG3C51     CG3C50
    3     2    11	5 ;     CG3C51     NG3C51       HGP1
    1     2    11	5 ;     CG3C50     NG3C51       HGP1
    4     3    10	5 ;     NG3C51     CG3C51      NG321
    4     3     2	5 ;     NG3C51     CG3C51     NG3C51
    4     3    39	5 ;     NG3C51     CG3C51       HGA1
   10     3     2	5 ;      NG321     CG3C51     NG3C51
   10     3    39	5 ;      NG321     CG3C51       HGA1
    2     3    39	5 ;     NG3C51     CG3C51       HGA1
    9     4     5	5 ;     CG2R51     NG3C51     CG3RC1
    9     4     3	5 ;     CG2R51     NG3C51     CG3C51
    5     4     3	5 ;     CG3RC1     NG3C51     CG3C51
    6     5     4	5 ;     NG3C51     CG3RC1     NG3C51
    6     5     1	5 ;     NG3C51     CG3RC1     CG3C50
    6     5    40	5 ;     NG3C51     CG3RC1       HGA1
    4     5     1	5 ;     NG3C51     CG3RC1     CG3C50
    4     5    40	5 ;     NG3C51     CG3RC1       HGA1
    1     5    40	5 ;     CG3C50     CG3RC1       HGA1
    8     6     7	5 ;     CG2R51     NG3C51       HGP1
    8     6     5	5 ;     CG2R51     NG3C51     CG3RC1
    7     6     5	5 ;       HGP1     NG3C51     CG3RC1
    9     8     6	5 ;     CG2R51     CG2R51     NG3C51
    9     8    41	5 ;     CG2R51     CG2R51      HGR52
    6     8    41	5 ;     NG3C51     CG2R51      HGR52
    8     9     4	5 ;     CG2R51     CG2R51     NG3C51
    8     9    42	5 ;     CG2R51     CG2R51      HGR52
    4     9    42	5 ;     NG3C51     CG2R51      HGR52
   13    10     3	5 ;     HGPAM2      NG321     CG3C51
   13    10    12	5 ;     HGPAM2      NG321     HGPAM2
    3    10    12	5 ;     CG3C51      NG321     HGPAM2
    1    14    15	5 ;     CG3C50     CG2R61     CG2R61
    1    14    19	5 ;     CG3C50     CG2R61     CG2R61
   15    14    19	5 ;     CG2R61     CG2R61     CG2R61
   14    15    16	5 ;     CG2R61     CG2R61     CG2R61
   14    15    43	5 ;     CG2R61     CG2R61      HGR61
   16    15    43	5 ;     CG2R61     CG2R61      HGR61
   15    16    17	5 ;     CG2R61     CG2R61     CG2R61
   15    16    44	5 ;     CG2R61     CG2R61      HGR61
   17    16    44	5 ;     CG2R61     CG2R61      HGR61
   16    17    20	5 ;     CG2R61     CG2R61      OG301
   16    17    18	5 ;     CG2R61     CG2R61     CG2R61
   20    17    18	5 ;      OG301     CG2R61     CG2R61
   19    18    17	5 ;     CG2R61     CG2R61     CG2R61
   19    18    45	5 ;     CG2R61     CG2R61      HGR61
   17    18    45	5 ;     CG2R61     CG2R61      HGR61
   14    19    18	5 ;     CG2R61     CG2R61     CG2R61
   14    19    46	5 ;     CG2R61     CG2R61      HGR61
   18    19    46	5 ;     CG2R61     CG2R61      HGR61
   21    20    17	5 ;      CG302      OG301     CG2R61
   23    21    22	5 ;       FGA3      CG302       FGA3
   23    21    24	5 ;       FGA3      CG302       FGA3
   23    21    20	5 ;       FGA3      CG302      OG301
   22    21    24	5 ;       FGA3      CG302       FGA3
   22    21    20	5 ;       FGA3      CG302      OG301
   24    21    20	5 ;       FGA3      CG302      OG301
    1    25    30	5 ;     CG3C50     CG2R61     CG2R61
    1    25    26	5 ;     CG3C50     CG2R61     CG2R61
   30    25    26	5 ;     CG2R61     CG2R61     CG2R61
   25    26    27	5 ;     CG2R61     CG2R61     CG2R61
   25    26    47	5 ;     CG2R61     CG2R61      HGR61
   27    26    47	5 ;     CG2R61     CG2R61      HGR61
   26    27    28	5 ;     CG2R61     CG2R61     CG2R61
   26    27    31	5 ;     CG2R61     CG2R61     CG2DC1
   28    27    31	5 ;     CG2R61     CG2R61     CG2DC1
   29    28    27	5 ;     CG2R61     CG2R61     CG2R61
   29    28    48	5 ;     CG2R61     CG2R61      HGR61
   27    28    48	5 ;     CG2R61     CG2R61      HGR61
   30    29    28	5 ;     CG2R61     CG2R61     CG2R61
   30    29    49	5 ;     CG2R61     CG2R61      HGR61
   28    29    49	5 ;     CG2R61     CG2R61      HGR61
   25    30    29	5 ;     CG2R61     CG2R61     CG2R61
   25    30    50	5 ;     CG2R61     CG2R61      HGR61
   29    30    50	5 ;     CG2R61     CG2R61      HGR61
   27    31    32	5 ;     CG2R61     CG2DC1     CG2DC2
   27    31    36	5 ;     CG2R61     CG2DC1     CG2D1O
   32    31    36	5 ;     CG2DC2     CG2DC1     CG2D1O
   31    32    33	5 ;     CG2DC1     CG2DC2     CG2DC2
   31    32    51	5 ;     CG2DC1     CG2DC2       HGA4
   33    32    51	5 ;     CG2DC2     CG2DC2       HGA4
   32    33    34	5 ;     CG2DC2     CG2DC2      CG321
   32    33    52	5 ;     CG2DC2     CG2DC2       HGA4
   34    33    52	5 ;      CG321     CG2DC2       HGA4
   33    34    35	5 ;     CG2DC2      CG321      NG311
   33    34    53	5 ;     CG2DC2      CG321       HGA2
   33    34    54	5 ;     CG2DC2      CG321       HGA2
   35    34    53	5 ;      NG311      CG321       HGA2
   35    34    54	5 ;      NG311      CG321       HGA2
   53    34    54	5 ;       HGA2      CG321       HGA2
   36    35    34	5 ;     CG2D1O      NG311      CG321
   36    35    37	5 ;     CG2D1O      NG311     HGPAM1
   34    35    37	5 ;      CG321      NG311     HGPAM1
   31    36    38	5 ;     CG2DC1     CG2D1O       FGA1
   31    36    35	5 ;     CG2DC1     CG2D1O      NG311
   38    36    35	5 ;       FGA1     CG2D1O      NG311

[ dihedrals ]
;	ai	  aj	ak	  al funct			  c0			c1			  c2			c3			  c4			c5
    2     1     5     6	 9 ;     NG3C51     CG3C50     CG3RC1     NG3C51
    2     1     5     4	 9 ;     NG3C51     CG3C50     CG3RC1     NG3C51
    2     1     5    40	 9 ;     NG3C51     CG3C50     CG3RC1       HGA1
   14     1     5     6	 9 ;     CG2R61     CG3C50     CG3RC1     NG3C51
   14     1     5     4	 9 ;     CG2R61     CG3C50     CG3RC1     NG3C51
   14     1     5    40	 9 ;     CG2R61     CG3C50     CG3RC1       HGA1
   25     1     5     6	 9 ;     CG2R61     CG3C50     CG3RC1     NG3C51
   25     1     5     4	 9 ;     CG2R61     CG3C50     CG3RC1     NG3C51
   25     1     5    40	 9 ;     CG2R61     CG3C50     CG3RC1       HGA1
    5     1     2     3	 9 ;     CG3RC1     CG3C50     NG3C51     CG3C51
    5     1     2    11	 9 ;     CG3RC1     CG3C50     NG3C51       HGP1
   14     1     2     3	 9 ;     CG2R61     CG3C50     NG3C51     CG3C51
   14     1     2    11	 9 ;     CG2R61     CG3C50     NG3C51       HGP1
   25     1     2     3	 9 ;     CG2R61     CG3C50     NG3C51     CG3C51
   25     1     2    11	 9 ;     CG2R61     CG3C50     NG3C51       HGP1
    5     1    14    15	 9 ;     CG3RC1     CG3C50     CG2R61     CG2R61
    5     1    14    19	 9 ;     CG3RC1     CG3C50     CG2R61     CG2R61
    2     1    14    15	 9 ;     NG3C51     CG3C50     CG2R61     CG2R61
    2     1    14    19	 9 ;     NG3C51     CG3C50     CG2R61     CG2R61
   25     1    14    15	 9 ;     CG2R61     CG3C50     CG2R61     CG2R61
   25     1    14    19	 9 ;     CG2R61     CG3C50     CG2R61     CG2R61
    5     1    25    30	 9 ;     CG3RC1     CG3C50     CG2R61     CG2R61
    5     1    25    26	 9 ;     CG3RC1     CG3C50     CG2R61     CG2R61
    2     1    25    30	 9 ;     NG3C51     CG3C50     CG2R61     CG2R61
    2     1    25    26	 9 ;     NG3C51     CG3C50     CG2R61     CG2R61
   14     1    25    30	 9 ;     CG2R61     CG3C50     CG2R61     CG2R61
   14     1    25    26	 9 ;     CG2R61     CG3C50     CG2R61     CG2R61
    1     2     3     4	 9 ;     CG3C50     NG3C51     CG3C51     NG3C51
    1     2     3    10	 9 ;     CG3C50     NG3C51     CG3C51      NG321
    1     2     3    39	 9 ;     CG3C50     NG3C51     CG3C51       HGA1
   11     2     3     4	 9 ;       HGP1     NG3C51     CG3C51     NG3C51
   11     2     3    10	 9 ;       HGP1     NG3C51     CG3C51      NG321
   11     2     3    39	 9 ;       HGP1     NG3C51     CG3C51       HGA1
   10     3     4     9	 9 ;      NG321     CG3C51     NG3C51     CG2R51
   10     3     4     5	 9 ;      NG321     CG3C51     NG3C51     CG3RC1
    2     3     4     9	 9 ;     NG3C51     CG3C51     NG3C51     CG2R51
    2     3     4     5	 9 ;     NG3C51     CG3C51     NG3C51     CG3RC1
   39     3     4     9	 9 ;       HGA1     CG3C51     NG3C51     CG2R51
   39     3     4     5	 9 ;       HGA1     CG3C51     NG3C51     CG3RC1
    4     3    10    13	 9 ;     NG3C51     CG3C51      NG321     HGPAM2
    4     3    10    12	 9 ;     NG3C51     CG3C51      NG321     HGPAM2
    2     3    10    13	 9 ;     NG3C51     CG3C51      NG321     HGPAM2
    2     3    10    12	 9 ;     NG3C51     CG3C51      NG321     HGPAM2
   39     3    10    13	 9 ;       HGA1     CG3C51      NG321     HGPAM2
   39     3    10    12	 9 ;       HGA1     CG3C51      NG321     HGPAM2
    5     4     9     8	 9 ;     CG3RC1     NG3C51     CG2R51     CG2R51
    5     4     9    42	 9 ;     CG3RC1     NG3C51     CG2R51      HGR52
    3     4     9     8	 9 ;     CG3C51     NG3C51     CG2R51     CG2R51
    3     4     9    42	 9 ;     CG3C51     NG3C51     CG2R51      HGR52
    9     4     5     6	 9 ;     CG2R51     NG3C51     CG3RC1     NG3C51
    9     4     5     1	 9 ;     CG2R51     NG3C51     CG3RC1     CG3C50
    9     4     5    40	 9 ;     CG2R51     NG3C51     CG3RC1       HGA1
    3     4     5     6	 9 ;     CG3C51     NG3C51     CG3RC1     NG3C51
    3     4     5     1	 9 ;     CG3C51     NG3C51     CG3RC1     CG3C50
    3     4     5    40	 9 ;     CG3C51     NG3C51     CG3RC1       HGA1
    4     5     6     8	 9 ;     NG3C51     CG3RC1     NG3C51     CG2R51
    4     5     6     7	 9 ;     NG3C51     CG3RC1     NG3C51       HGP1
    1     5     6     8	 9 ;     CG3C50     CG3RC1     NG3C51     CG2R51
    1     5     6     7	 9 ;     CG3C50     CG3RC1     NG3C51       HGP1
   40     5     6     8	 9 ;       HGA1     CG3RC1     NG3C51     CG2R51
   40     5     6     7	 9 ;       HGA1     CG3RC1     NG3C51       HGP1
    7     6     8     9	 9 ;       HGP1     NG3C51     CG2R51     CG2R51
    7     6     8    41	 9 ;       HGP1     NG3C51     CG2R51      HGR52
    5     6     8     9	 9 ;     CG3RC1     NG3C51     CG2R51     CG2R51
    5     6     8    41	 9 ;     CG3RC1     NG3C51     CG2R51      HGR52
    6     8     9     4	 9 ;     NG3C51     CG2R51     CG2R51     NG3C51
    6     8     9    42	 9 ;     NG3C51     CG2R51     CG2R51      HGR52
   41     8     9     4	 9 ;      HGR52     CG2R51     CG2R51     NG3C51
   41     8     9    42	 9 ;      HGR52     CG2R51     CG2R51      HGR52
    1    14    15    16	 9 ;     CG3C50     CG2R61     CG2R61     CG2R61
    1    14    15    43	 9 ;     CG3C50     CG2R61     CG2R61      HGR61
   19    14    15    16	 9 ;     CG2R61     CG2R61     CG2R61     CG2R61
   19    14    15    43	 9 ;     CG2R61     CG2R61     CG2R61      HGR61
    1    14    19    18	 9 ;     CG3C50     CG2R61     CG2R61     CG2R61
    1    14    19    46	 9 ;     CG3C50     CG2R61     CG2R61      HGR61
   15    14    19    18	 9 ;     CG2R61     CG2R61     CG2R61     CG2R61
   15    14    19    46	 9 ;     CG2R61     CG2R61     CG2R61      HGR61
   14    15    16    17	 9 ;     CG2R61     CG2R61     CG2R61     CG2R61
   14    15    16    44	 9 ;     CG2R61     CG2R61     CG2R61      HGR61
   43    15    16    17	 9 ;      HGR61     CG2R61     CG2R61     CG2R61
   43    15    16    44	 9 ;      HGR61     CG2R61     CG2R61      HGR61
   15    16    17    20	 9 ;     CG2R61     CG2R61     CG2R61      OG301
   15    16    17    18	 9 ;     CG2R61     CG2R61     CG2R61     CG2R61
   44    16    17    20	 9 ;      HGR61     CG2R61     CG2R61      OG301
   44    16    17    18	 9 ;      HGR61     CG2R61     CG2R61     CG2R61
   16    17    20    21	 9 ;     CG2R61     CG2R61      OG301      CG302
   18    17    20    21	 9 ;     CG2R61     CG2R61      OG301      CG302
   16    17    18    19	 9 ;     CG2R61     CG2R61     CG2R61     CG2R61
   16    17    18    45	 9 ;     CG2R61     CG2R61     CG2R61      HGR61
   20    17    18    19	 9 ;      OG301     CG2R61     CG2R61     CG2R61
   20    17    18    45	 9 ;      OG301     CG2R61     CG2R61      HGR61
   17    18    19    14	 9 ;     CG2R61     CG2R61     CG2R61     CG2R61
   17    18    19    46	 9 ;     CG2R61     CG2R61     CG2R61      HGR61
   45    18    19    14	 9 ;      HGR61     CG2R61     CG2R61     CG2R61
   45    18    19    46	 9 ;      HGR61     CG2R61     CG2R61      HGR61
   17    20    21    23	 9 ;     CG2R61      OG301      CG302       FGA3
   17    20    21    22	 9 ;     CG2R61      OG301      CG302       FGA3
   17    20    21    24	 9 ;     CG2R61      OG301      CG302       FGA3
    1    25    30    29	 9 ;     CG3C50     CG2R61     CG2R61     CG2R61
    1    25    30    50	 9 ;     CG3C50     CG2R61     CG2R61      HGR61
   26    25    30    29	 9 ;     CG2R61     CG2R61     CG2R61     CG2R61
   26    25    30    50	 9 ;     CG2R61     CG2R61     CG2R61      HGR61
    1    25    26    27	 9 ;     CG3C50     CG2R61     CG2R61     CG2R61
    1    25    26    47	 9 ;     CG3C50     CG2R61     CG2R61      HGR61
   30    25    26    27	 9 ;     CG2R61     CG2R61     CG2R61     CG2R61
   30    25    26    47	 9 ;     CG2R61     CG2R61     CG2R61      HGR61
   25    26    27    28	 9 ;     CG2R61     CG2R61     CG2R61     CG2R61
   25    26    27    31	 9 ;     CG2R61     CG2R61     CG2R61     CG2DC1
   47    26    27    28	 9 ;      HGR61     CG2R61     CG2R61     CG2R61
   47    26    27    31	 9 ;      HGR61     CG2R61     CG2R61     CG2DC1
   26    27    28    29	 9 ;     CG2R61     CG2R61     CG2R61     CG2R61
   26    27    28    48	 9 ;     CG2R61     CG2R61     CG2R61      HGR61
   31    27    28    29	 9 ;     CG2DC1     CG2R61     CG2R61     CG2R61
   31    27    28    48	 9 ;     CG2DC1     CG2R61     CG2R61      HGR61
   26    27    31    32	 9 ;     CG2R61     CG2R61     CG2DC1     CG2DC2
   26    27    31    36	 9 ;     CG2R61     CG2R61     CG2DC1     CG2D1O
   28    27    31    32	 9 ;     CG2R61     CG2R61     CG2DC1     CG2DC2
   28    27    31    36	 9 ;     CG2R61     CG2R61     CG2DC1     CG2D1O
   27    28    29    30	 9 ;     CG2R61     CG2R61     CG2R61     CG2R61
   27    28    29    49	 9 ;     CG2R61     CG2R61     CG2R61      HGR61
   48    28    29    30	 9 ;      HGR61     CG2R61     CG2R61     CG2R61
   48    28    29    49	 9 ;      HGR61     CG2R61     CG2R61      HGR61
   28    29    30    25	 9 ;     CG2R61     CG2R61     CG2R61     CG2R61
   28    29    30    50	 9 ;     CG2R61     CG2R61     CG2R61      HGR61
   49    29    30    25	 9 ;      HGR61     CG2R61     CG2R61     CG2R61
   49    29    30    50	 9 ;      HGR61     CG2R61     CG2R61      HGR61
   27    31    32    33	 9 ;     CG2R61     CG2DC1     CG2DC2     CG2DC2
   27    31    32    51	 9 ;     CG2R61     CG2DC1     CG2DC2       HGA4
   36    31    32    33	 9 ;     CG2D1O     CG2DC1     CG2DC2     CG2DC2
   36    31    32    51	 9 ;     CG2D1O     CG2DC1     CG2DC2       HGA4
   27    31    36    38	 9 ;     CG2R61     CG2DC1     CG2D1O       FGA1
   27    31    36    35	 9 ;     CG2R61     CG2DC1     CG2D1O      NG311
   32    31    36    38	 9 ;     CG2DC2     CG2DC1     CG2D1O       FGA1
   32    31    36    35	 9 ;     CG2DC2     CG2DC1     CG2D1O      NG311
   31    32    33    34	 9 ;     CG2DC1     CG2DC2     CG2DC2      CG321
   31    32    33    52	 9 ;     CG2DC1     CG2DC2     CG2DC2       HGA4
   51    32    33    34	 9 ;       HGA4     CG2DC2     CG2DC2      CG321
   51    32    33    52	 9 ;       HGA4     CG2DC2     CG2DC2       HGA4
   32    33    34    35	 9 ;     CG2DC2     CG2DC2      CG321      NG311
   32    33    34    53	 9 ;     CG2DC2     CG2DC2      CG321       HGA2
   32    33    34    54	 9 ;     CG2DC2     CG2DC2      CG321       HGA2
   52    33    34    35	 9 ;       HGA4     CG2DC2      CG321      NG311
   52    33    34    53	 9 ;       HGA4     CG2DC2      CG321       HGA2
   52    33    34    54	 9 ;       HGA4     CG2DC2      CG321       HGA2
   33    34    35    36	 9 ;     CG2DC2      CG321      NG311     CG2D1O
   33    34    35    37	 9 ;     CG2DC2      CG321      NG311     HGPAM1
   53    34    35    36	 9 ;       HGA2      CG321      NG311     CG2D1O
   53    34    35    37	 9 ;       HGA2      CG321      NG311     HGPAM1
   54    34    35    36	 9 ;       HGA2      CG321      NG311     CG2D1O
   54    34    35    37	 9 ;       HGA2      CG321      NG311     HGPAM1
   34    35    36    31	 9 ;      CG321      NG311     CG2D1O     CG2DC1
   34    35    36    38	 9 ;      CG321      NG311     CG2D1O       FGA1
   37    35    36    31	 9 ;     HGPAM1      NG311     CG2D1O     CG2DC1
   37    35    36    38	 9 ;     HGPAM1      NG311     CG2D1O       FGA1

[ dihedrals ]
;	ai	  aj	ak	  al funct			  c0			c1			  c2			c3
   36    31    35    38	 2

