Getting the Right Output Means no Artefacts in Calculating Stuff
   54
    1LIG     C1    1  -1.392   0.478  -1.713
    1LIG     N1    2  -1.309   0.604  -1.708
    1LIG     C2    3  -1.258   0.632  -1.832
    1LIG     N2    4  -1.304   0.549  -1.923
    1LIG     C3    5  -1.398   0.463  -1.866
    1LIG     N3    6  -1.459   0.380  -1.945
    1LIG    HN1    7  -1.539   0.321  -1.925
    1LIG     C4    8  -1.384   0.392  -2.075
    1LIG     C5    9  -1.284   0.510  -2.061
    1LIG     N4   10  -1.173   0.731  -1.854
    1LIG     H1   11  -1.283   0.654  -1.624
    1LIG     H2   12  -1.140   0.791  -1.779
    1LIG     H3   13  -1.140   0.751  -1.948
    1LIG     C6   14  -1.305   0.366  -1.654
    1LIG     C7   15  -1.339   0.231  -1.673
    1LIG     C8   16  -1.249   0.130  -1.640
    1LIG     C9   17  -1.122   0.161  -1.591
    1LIG    C10   18  -1.092   0.292  -1.559
    1LIG    C11   19  -1.181   0.394  -1.592
    1LIG      O   20  -1.024   0.070  -1.568
    1LIG    C12   21  -0.974  -0.002  -1.681
    1LIG     F1   22  -1.068  -0.072  -1.748
    1LIG     F2   23  -0.918   0.085  -1.767
    1LIG     F3   24  -0.879  -0.087  -1.638
    1LIG    C13   25  -1.524   0.488  -1.641
    1LIG    C14   26  -1.530   0.436  -1.510
    1LIG    C15   27  -1.630   0.471  -1.418
    1LIG    C16   28  -1.733   0.553  -1.466
    1LIG    C17   29  -1.736   0.597  -1.599
    1LIG    C18   30  -1.632   0.564  -1.687
    1LIG    C19   31  -1.622   0.428  -1.276
    1LIG    C20   32  -1.715   0.338  -1.221
    1LIG    C21   33  -1.706   0.299  -1.087
    1LIG    C22   34  -1.604   0.350  -1.010
    1LIG     N5   35  -1.512   0.436  -1.057
    1LIG    C23   36  -1.523   0.474  -1.186
    1LIG    HN2   37  -1.437   0.472  -0.997
    1LIG     F4   38  -1.432   0.563  -1.227
    1LIG     H4   39  -1.192   0.706  -1.871
    1LIG     H5   40  -1.499   0.429  -1.855
    1LIG     H6   41  -1.396   0.333  -2.158
    1LIG     H7   42  -1.220   0.549  -2.131
    1LIG     H8   43  -1.431   0.207  -1.713
    1LIG     H9   44  -1.277   0.031  -1.651
    1LIG    H10   45  -1.003   0.315  -1.512
    1LIG    H11   46  -1.157   0.491  -1.569
    1LIG    H12   47  -1.457   0.369  -1.481
    1LIG    H13   48  -1.808   0.583  -1.401
    1LIG    H14   49  -1.816   0.653  -1.633
    1LIG    H15   50  -1.635   0.597  -1.784
    1LIG    H16   51  -1.790   0.301  -1.281
    1LIG    H17   52  -1.775   0.234  -1.047
    1LIG    H18   53  -1.549   0.265  -0.975
    1LIG    H19   54  -1.658   0.412  -0.942
   0.00000   0.00000   0.00000
