Good ROcking Metal Altar for Chronical Sinners
   45
    1LIG     CL    1  -1.006  -0.052  -1.327
    1LIG     C1    2  -1.113   0.061  -1.400
    1LIG     C2    3  -1.113   0.194  -1.358
    1LIG     C3    4  -1.198   0.286  -1.420
    1LIG     C4    5  -1.197   0.433  -1.387
    1LIG     C5    6  -1.223   0.515  -1.515
    1LIG     N1    7  -1.347   0.471  -1.582
    1LIG     HN    8  -1.409   0.539  -1.627
    1LIG     C6    9  -1.377   0.345  -1.582
    1LIG     C7   10  -1.287   0.243  -1.519
    1LIG     C8   11  -1.286   0.110  -1.562
    1LIG     C9   12  -1.197   0.019  -1.504
    1LIG    C10   13  -1.243   0.662  -1.477
    1LIG    C11   14  -1.108   0.506  -1.616
    1LIG     N2   15  -1.491   0.299  -1.641
    1LIG      H   16  -1.508   0.198  -1.648
    1LIG     CA   17  -1.620   0.370  -1.646
    1LIG    C12   18  -1.679   0.384  -1.506
    1LIG    C13   19  -1.825   0.347  -1.493
    1LIG    C14   20  -1.902   0.283  -1.596
    1LIG    C15   21  -2.034   0.264  -1.560
    1LIG      S   22  -2.065   0.319  -1.401
    1LIG    C16   23  -1.903   0.371  -1.382
    1LIG    C17   24  -1.601   0.509  -1.714
    1LIG      O   25  -1.631   0.609  -1.640
    1LIG    OXT   26  -1.559   0.509  -1.833
    1LIG     HC   27  -1.049   0.226  -1.277
    1LIG    HC2   28  -1.100   0.460  -1.346
    1LIG    HC3   29  -1.275   0.454  -1.314
    1LIG    HC1   30  -1.352   0.078  -1.641
    1LIG    HC4   31  -1.194  -0.083  -1.538
    1LIG    HC5   32  -1.325   0.670  -1.405
    1LIG    HC6   33  -1.267   0.720  -1.566
    1LIG    HC7   34  -1.151   0.701  -1.432
    1LIG    HC8   35  -1.092   0.402  -1.645
    1LIG    HC9   36  -1.017   0.545  -1.571
    1LIG   HC10   37  -1.132   0.564  -1.705
    1LIG   HC11   38  -1.689   0.311  -1.707
    1LIG   HC12   39  -1.622   0.320  -1.439
    1LIG   HC13   40  -1.666   0.488  -1.473
    1LIG   HC14   41  -1.862   0.254  -1.691
    1LIG   HC15   42  -2.108   0.219  -1.624
    1LIG   HC16   43  -1.866   0.417  -1.291
    1LIG    H20   44  -1.430   0.357  -1.488
    1LIG    LP1   45  -0.904  -0.159  -1.256
   0.00000   0.00000   0.00000
