; Created by cgenff_charmm2gmx.py

[ moleculetype ]
; Name			   nrexcl
LIG				 3

[ atoms ]
;	 nr		  type	resnr residue  atom   cgnr	   charge		mass  typeB    chargeB		massB
; residue	 1 LIG rtp LIG q	qsum
     1      CLGR1      1    LIG     CL      1     -0.200     35.453   ;
     2     CG2R61      1    LIG     C1      2      0.048     12.011   ;
     3     CG2R61      1    LIG     C2      3     -0.121     12.011   ;
     4     CG2R61      1    LIG     C3      4      0.075     12.011   ;
     5      CG321      1    LIG     C4      5     -0.230     12.011   ;
     6      CG301      1    LIG     C5      6      0.375     12.011   ;
     7      NG311      1    LIG     N1      7     -0.864     14.007   ;
     8     HGPAM1      1    LIG     HN      8      0.350      1.008   ;
     9      CG311      1    LIG     C6      9      0.346     12.011   ;
    10     CG2R61      1    LIG     C7     10     -0.052     12.011   ;
    11     CG2R61      1    LIG     C8     11     -0.108     12.011   ;
    12     CG2R61      1    LIG     C9     12     -0.099     12.011   ;
    13      CG331      1    LIG    C10     13     -0.295     12.011   ;
    14      CG331      1    LIG    C11     14     -0.295     12.011   ;
    15      NG311      1    LIG     N2     15     -0.806     14.007   ;
    16     HGPAM1      1    LIG      H     16      0.362      1.008   ;
    17      CG311      1    LIG     CA     17     -0.001     12.011   ;
    18      CG321      1    LIG    C12     18     -0.192     12.011   ;
    19     CG2R51      1    LIG    C13     19      0.020     12.011   ;
    20     CG2R51      1    LIG    C14     20     -0.231     12.011   ;
    21     CG2R51      1    LIG    C15     21     -0.137     12.011   ;
    22     SG2R50      1    LIG      S     22     -0.125     32.060   ;
    23     CG2R51      1    LIG    C16     23     -0.155     12.011   ;
    24      CG2O3      1    LIG    C17     24      0.898     12.011   ;
    25      OG2D2      1    LIG      O     25     -0.832     15.999   ;
    26      OG2D2      1    LIG    OXT     26     -0.832     15.999   ;
    27      HGR62      1    LIG     HC     27      0.145      1.008   ;
    28       HGA2      1    LIG    HC2     28      0.090      1.008   ;
    29       HGA2      1    LIG    HC3     29      0.090      1.008   ;
    30      HGR61      1    LIG    HC1     30      0.116      1.008   ;
    31      HGR62      1    LIG    HC4     31      0.150      1.008   ;
    32       HGA3      1    LIG    HC5     32      0.090      1.008   ;
    33       HGA3      1    LIG    HC6     33      0.090      1.008   ;
    34       HGA3      1    LIG    HC7     34      0.090      1.008   ;
    35       HGA3      1    LIG    HC8     35      0.090      1.008   ;
    36       HGA3      1    LIG    HC9     36      0.090      1.008   ;
    37       HGA3      1    LIG   HC10     37      0.090      1.008   ;
    38       HGA1      1    LIG   HC11     38      0.090      1.008   ;
    39       HGA2      1    LIG   HC12     39      0.090      1.008   ;
    40       HGA2      1    LIG   HC13     40      0.090      1.008   ;
    41      HGR51      1    LIG   HC14     41      0.176      1.008   ;
    42      HGR52      1    LIG   HC15     42      0.189      1.008   ;
    43      HGR52      1    LIG   HC16     43      0.195      1.008   ;
    44       HGA1      1    LIG    H20     44      0.090      1.008   ;
    45        LPH      1    LIG    LP1     45      0.050      0.000   ;

[ bonds ]
;	ai	  aj funct			  c0			c1			  c2			c3
    1     2	 1 ;       CLGR1     CG2R61
    2     3	 1 ;      CG2R61     CG2R61
    2    12	 1 ;      CG2R61     CG2R61
    3     4	 1 ;      CG2R61     CG2R61
    3    27	 1 ;      CG2R61      HGR62
    4     5	 1 ;      CG2R61      CG321
    4    10	 1 ;      CG2R61     CG2R61
    5     6	 1 ;       CG321      CG301
    5    28	 1 ;       CG321       HGA2
    5    29	 1 ;       CG321       HGA2
    6    14	 1 ;       CG301      CG331
    6    13	 1 ;       CG301      CG331
    6     7	 1 ;       CG301      NG311
    7     8	 1 ;       NG311     HGPAM1
    7     9	 1 ;       NG311      CG311
    9    10	 1 ;       CG311     CG2R61
    9    15	 1 ;       CG311      NG311
    9    44	 1 ;       CG311       HGA1
   10    11	 1 ;      CG2R61     CG2R61
   11    12	 1 ;      CG2R61     CG2R61
   11    30	 1 ;      CG2R61      HGR61
   12    31	 1 ;      CG2R61      HGR62
   13    32	 1 ;       CG331       HGA3
   13    33	 1 ;       CG331       HGA3
   13    34	 1 ;       CG331       HGA3
   14    35	 1 ;       CG331       HGA3
   14    36	 1 ;       CG331       HGA3
   14    37	 1 ;       CG331       HGA3
   15    16	 1 ;       NG311     HGPAM1
   15    17	 1 ;       NG311      CG311
   17    24	 1 ;       CG311      CG2O3
   17    18	 1 ;       CG311      CG321
   17    38	 1 ;       CG311       HGA1
   18    19	 1 ;       CG321     CG2R51
   18    39	 1 ;       CG321       HGA2
   18    40	 1 ;       CG321       HGA2
   19    20	 1 ;      CG2R51     CG2R51
   19    23	 1 ;      CG2R51     CG2R51
   20    21	 1 ;      CG2R51     CG2R51
   20    41	 1 ;      CG2R51      HGR51
   21    22	 1 ;      CG2R51     SG2R50
   21    42	 1 ;      CG2R51      HGR52
   22    23	 1 ;      SG2R50     CG2R51
   23    43	 1 ;      CG2R51      HGR52
   24    26	 1 ;       CG2O3      OG2D2
   24    25	 1 ;       CG2O3      OG2D2

[ pairs ]
;	ai	  aj funct			  c0			c1			  c2			c3
    1     4	 1
   45     4	 1
    1    27	 1
   45    27	 1
    1    11	 1
   45    11	 1
    1    31	 1
   45    31	 1
    2     5	 1
    2    10	 1
    2    30	 1
    3    11	 1
    3    31	 1
    3     6	 1
    3    28	 1
    3    29	 1
    3     9	 1
    4    12	 1
    4    14	 1
    4    13	 1
    4     7	 1
    4    15	 1
    4    44	 1
    4    30	 1
    5    27	 1
    5    11	 1
    5     9	 1
    5    35	 1
    5    36	 1
    5    37	 1
    5    32	 1
    5    33	 1
    5    34	 1
    5     8	 1
    6    10	 1
    6    15	 1
    6    44	 1
    7    28	 1
    7    29	 1
    7    35	 1
    7    36	 1
    7    37	 1
    7    32	 1
    7    33	 1
    7    34	 1
    7    11	 1
    7    16	 1
    7    17	 1
    8    14	 1
    8    13	 1
    8    10	 1
    8    15	 1
    8    44	 1
    9    14	 1
    9    13	 1
    9    12	 1
    9    30	 1
    9    24	 1
    9    18	 1
    9    38	 1
   10    27	 1
   10    28	 1
   10    29	 1
   10    16	 1
   10    17	 1
   10    31	 1
   11    15	 1
   11    44	 1
   12    27	 1
   13    28	 1
   13    29	 1
   13    35	 1
   13    36	 1
   13    37	 1
   14    28	 1
   14    29	 1
   14    32	 1
   14    33	 1
   14    34	 1
   15    26	 1
   15    25	 1
   15    19	 1
   15    39	 1
   15    40	 1
   16    44	 1
   16    24	 1
   16    18	 1
   16    38	 1
   17    44	 1
   17    20	 1
   17    23	 1
   18    26	 1
   18    25	 1
   18    21	 1
   18    41	 1
   18    22	 1
   18    43	 1
   19    24	 1
   19    38	 1
   19    42	 1
   20    39	 1
   20    40	 1
   20    43	 1
   21    43	 1
   22    41	 1
   23    39	 1
   23    40	 1
   23    41	 1
   23    42	 1
   24    39	 1
   24    40	 1
   25    38	 1
   26    38	 1
   30    31	 1
   38    39	 1
   38    40	 1
   41    42	 1

[ angles ]
;	ai	  aj	ak funct			c0			  c1			c2			  c3
    1     2     3	5 ;      CLGR1     CG2R61     CG2R61
    1     2    12	5 ;      CLGR1     CG2R61     CG2R61
    3     2    12	5 ;     CG2R61     CG2R61     CG2R61
    2     3     4	5 ;     CG2R61     CG2R61     CG2R61
    2     3    27	5 ;     CG2R61     CG2R61      HGR62
    4     3    27	5 ;     CG2R61     CG2R61      HGR62
    3     4     5	5 ;     CG2R61     CG2R61      CG321
    3     4    10	5 ;     CG2R61     CG2R61     CG2R61
    5     4    10	5 ;      CG321     CG2R61     CG2R61
    6     5     4	5 ;      CG301      CG321     CG2R61
    6     5    28	5 ;      CG301      CG321       HGA2
    6     5    29	5 ;      CG301      CG321       HGA2
    4     5    28	5 ;     CG2R61      CG321       HGA2
    4     5    29	5 ;     CG2R61      CG321       HGA2
   28     5    29	5 ;       HGA2      CG321       HGA2
   14     6    13	5 ;      CG331      CG301      CG331
   14     6     5	5 ;      CG331      CG301      CG321
   14     6     7	5 ;      CG331      CG301      NG311
   13     6     5	5 ;      CG331      CG301      CG321
   13     6     7	5 ;      CG331      CG301      NG311
    5     6     7	5 ;      CG321      CG301      NG311
    6     7     8	5 ;      CG301      NG311     HGPAM1
    6     7     9	5 ;      CG301      NG311      CG311
    8     7     9	5 ;     HGPAM1      NG311      CG311
    7     9    10	5 ;      NG311      CG311     CG2R61
    7     9    15	5 ;      NG311      CG311      NG311
    7     9    44	5 ;      NG311      CG311       HGA1
   10     9    15	5 ;     CG2R61      CG311      NG311
   10     9    44	5 ;     CG2R61      CG311       HGA1
   15     9    44	5 ;      NG311      CG311       HGA1
    4    10    11	5 ;     CG2R61     CG2R61     CG2R61
    4    10     9	5 ;     CG2R61     CG2R61      CG311
   11    10     9	5 ;     CG2R61     CG2R61      CG311
   12    11    10	5 ;     CG2R61     CG2R61     CG2R61
   12    11    30	5 ;     CG2R61     CG2R61      HGR61
   10    11    30	5 ;     CG2R61     CG2R61      HGR61
    2    12    11	5 ;     CG2R61     CG2R61     CG2R61
    2    12    31	5 ;     CG2R61     CG2R61      HGR62
   11    12    31	5 ;     CG2R61     CG2R61      HGR62
    6    13    32	5 ;      CG301      CG331       HGA3
    6    13    33	5 ;      CG301      CG331       HGA3
    6    13    34	5 ;      CG301      CG331       HGA3
   32    13    33	5 ;       HGA3      CG331       HGA3
   32    13    34	5 ;       HGA3      CG331       HGA3
   33    13    34	5 ;       HGA3      CG331       HGA3
    6    14    35	5 ;      CG301      CG331       HGA3
    6    14    36	5 ;      CG301      CG331       HGA3
    6    14    37	5 ;      CG301      CG331       HGA3
   35    14    36	5 ;       HGA3      CG331       HGA3
   35    14    37	5 ;       HGA3      CG331       HGA3
   36    14    37	5 ;       HGA3      CG331       HGA3
    9    15    16	5 ;      CG311      NG311     HGPAM1
    9    15    17	5 ;      CG311      NG311      CG311
   16    15    17	5 ;     HGPAM1      NG311      CG311
   15    17    24	5 ;      NG311      CG311      CG2O3
   15    17    18	5 ;      NG311      CG311      CG321
   15    17    38	5 ;      NG311      CG311       HGA1
   24    17    18	5 ;      CG2O3      CG311      CG321
   24    17    38	5 ;      CG2O3      CG311       HGA1
   18    17    38	5 ;      CG321      CG311       HGA1
   17    18    19	5 ;      CG311      CG321     CG2R51
   17    18    39	5 ;      CG311      CG321       HGA2
   17    18    40	5 ;      CG311      CG321       HGA2
   19    18    39	5 ;     CG2R51      CG321       HGA2
   19    18    40	5 ;     CG2R51      CG321       HGA2
   39    18    40	5 ;       HGA2      CG321       HGA2
   18    19    20	5 ;      CG321     CG2R51     CG2R51
   18    19    23	5 ;      CG321     CG2R51     CG2R51
   20    19    23	5 ;     CG2R51     CG2R51     CG2R51
   19    20    21	5 ;     CG2R51     CG2R51     CG2R51
   19    20    41	5 ;     CG2R51     CG2R51      HGR51
   21    20    41	5 ;     CG2R51     CG2R51      HGR51
   20    21    22	5 ;     CG2R51     CG2R51     SG2R50
   20    21    42	5 ;     CG2R51     CG2R51      HGR52
   22    21    42	5 ;     SG2R50     CG2R51      HGR52
   23    22    21	5 ;     CG2R51     SG2R50     CG2R51
   19    23    22	5 ;     CG2R51     CG2R51     SG2R50
   19    23    43	5 ;     CG2R51     CG2R51      HGR52
   22    23    43	5 ;     SG2R50     CG2R51      HGR52
   26    24    25	5 ;      OG2D2      CG2O3      OG2D2
   26    24    17	5 ;      OG2D2      CG2O3      CG311
   25    24    17	5 ;      OG2D2      CG2O3      CG311

[ dihedrals ]
;	ai	  aj	ak	  al funct			  c0			c1			  c2			c3			  c4			c5
    1     2     3     4	 9 ;      CLGR1     CG2R61     CG2R61     CG2R61
    1     2     3    27	 9 ;      CLGR1     CG2R61     CG2R61      HGR62
   12     2     3     4	 9 ;     CG2R61     CG2R61     CG2R61     CG2R61
   12     2     3    27	 9 ;     CG2R61     CG2R61     CG2R61      HGR62
    1     2    12    11	 9 ;      CLGR1     CG2R61     CG2R61     CG2R61
    1     2    12    31	 9 ;      CLGR1     CG2R61     CG2R61      HGR62
    3     2    12    11	 9 ;     CG2R61     CG2R61     CG2R61     CG2R61
    3     2    12    31	 9 ;     CG2R61     CG2R61     CG2R61      HGR62
    2     3     4     5	 9 ;     CG2R61     CG2R61     CG2R61      CG321
    2     3     4    10	 9 ;     CG2R61     CG2R61     CG2R61     CG2R61
   27     3     4     5	 9 ;      HGR62     CG2R61     CG2R61      CG321
   27     3     4    10	 9 ;      HGR62     CG2R61     CG2R61     CG2R61
    3     4     5     6	 9 ;     CG2R61     CG2R61      CG321      CG301
    3     4     5    28	 9 ;     CG2R61     CG2R61      CG321       HGA2
    3     4     5    29	 9 ;     CG2R61     CG2R61      CG321       HGA2
   10     4     5     6	 9 ;     CG2R61     CG2R61      CG321      CG301
   10     4     5    28	 9 ;     CG2R61     CG2R61      CG321       HGA2
   10     4     5    29	 9 ;     CG2R61     CG2R61      CG321       HGA2
    3     4    10    11	 9 ;     CG2R61     CG2R61     CG2R61     CG2R61
    3     4    10     9	 9 ;     CG2R61     CG2R61     CG2R61      CG311
    5     4    10    11	 9 ;      CG321     CG2R61     CG2R61     CG2R61
    5     4    10     9	 9 ;      CG321     CG2R61     CG2R61      CG311
    4     5     6    14	 9 ;     CG2R61      CG321      CG301      CG331
    4     5     6    13	 9 ;     CG2R61      CG321      CG301      CG331
    4     5     6     7	 9 ;     CG2R61      CG321      CG301      NG311
   28     5     6    14	 9 ;       HGA2      CG321      CG301      CG331
   28     5     6    13	 9 ;       HGA2      CG321      CG301      CG331
   28     5     6     7	 9 ;       HGA2      CG321      CG301      NG311
   29     5     6    14	 9 ;       HGA2      CG321      CG301      CG331
   29     5     6    13	 9 ;       HGA2      CG321      CG301      CG331
   29     5     6     7	 9 ;       HGA2      CG321      CG301      NG311
   13     6    14    35	 9 ;      CG331      CG301      CG331       HGA3
   13     6    14    36	 9 ;      CG331      CG301      CG331       HGA3
   13     6    14    37	 9 ;      CG331      CG301      CG331       HGA3
    5     6    14    35	 9 ;      CG321      CG301      CG331       HGA3
    5     6    14    36	 9 ;      CG321      CG301      CG331       HGA3
    5     6    14    37	 9 ;      CG321      CG301      CG331       HGA3
    7     6    14    35	 9 ;      NG311      CG301      CG331       HGA3
    7     6    14    36	 9 ;      NG311      CG301      CG331       HGA3
    7     6    14    37	 9 ;      NG311      CG301      CG331       HGA3
   14     6    13    32	 9 ;      CG331      CG301      CG331       HGA3
   14     6    13    33	 9 ;      CG331      CG301      CG331       HGA3
   14     6    13    34	 9 ;      CG331      CG301      CG331       HGA3
    5     6    13    32	 9 ;      CG321      CG301      CG331       HGA3
    5     6    13    33	 9 ;      CG321      CG301      CG331       HGA3
    5     6    13    34	 9 ;      CG321      CG301      CG331       HGA3
    7     6    13    32	 9 ;      NG311      CG301      CG331       HGA3
    7     6    13    33	 9 ;      NG311      CG301      CG331       HGA3
    7     6    13    34	 9 ;      NG311      CG301      CG331       HGA3
   14     6     7     8	 9 ;      CG331      CG301      NG311     HGPAM1
   14     6     7     9	 9 ;      CG331      CG301      NG311      CG311
   13     6     7     8	 9 ;      CG331      CG301      NG311     HGPAM1
   13     6     7     9	 9 ;      CG331      CG301      NG311      CG311
    5     6     7     8	 9 ;      CG321      CG301      NG311     HGPAM1
    5     6     7     9	 9 ;      CG321      CG301      NG311      CG311
    6     7     9    10	 9 ;      CG301      NG311      CG311     CG2R61
    6     7     9    15	 9 ;      CG301      NG311      CG311      NG311
    6     7     9    44	 9 ;      CG301      NG311      CG311       HGA1
    8     7     9    10	 9 ;     HGPAM1      NG311      CG311     CG2R61
    8     7     9    15	 9 ;     HGPAM1      NG311      CG311      NG311
    8     7     9    44	 9 ;     HGPAM1      NG311      CG311       HGA1
    7     9    10     4	 9 ;      NG311      CG311     CG2R61     CG2R61
    7     9    10    11	 9 ;      NG311      CG311     CG2R61     CG2R61
   15     9    10     4	 9 ;      NG311      CG311     CG2R61     CG2R61
   15     9    10    11	 9 ;      NG311      CG311     CG2R61     CG2R61
   44     9    10     4	 9 ;       HGA1      CG311     CG2R61     CG2R61
   44     9    10    11	 9 ;       HGA1      CG311     CG2R61     CG2R61
    7     9    15    16	 9 ;      NG311      CG311      NG311     HGPAM1
    7     9    15    17	 9 ;      NG311      CG311      NG311      CG311
   10     9    15    16	 9 ;     CG2R61      CG311      NG311     HGPAM1
   10     9    15    17	 9 ;     CG2R61      CG311      NG311      CG311
   44     9    15    16	 9 ;       HGA1      CG311      NG311     HGPAM1
   44     9    15    17	 9 ;       HGA1      CG311      NG311      CG311
    4    10    11    12	 9 ;     CG2R61     CG2R61     CG2R61     CG2R61
    4    10    11    30	 9 ;     CG2R61     CG2R61     CG2R61      HGR61
    9    10    11    12	 9 ;      CG311     CG2R61     CG2R61     CG2R61
    9    10    11    30	 9 ;      CG311     CG2R61     CG2R61      HGR61
   10    11    12     2	 9 ;     CG2R61     CG2R61     CG2R61     CG2R61
   10    11    12    31	 9 ;     CG2R61     CG2R61     CG2R61      HGR62
   30    11    12     2	 9 ;      HGR61     CG2R61     CG2R61     CG2R61
   30    11    12    31	 9 ;      HGR61     CG2R61     CG2R61      HGR62
    9    15    17    24	 9 ;      CG311      NG311      CG311      CG2O3
    9    15    17    18	 9 ;      CG311      NG311      CG311      CG321
    9    15    17    38	 9 ;      CG311      NG311      CG311       HGA1
   16    15    17    24	 9 ;     HGPAM1      NG311      CG311      CG2O3
   16    15    17    18	 9 ;     HGPAM1      NG311      CG311      CG321
   16    15    17    38	 9 ;     HGPAM1      NG311      CG311       HGA1
   15    17    24    26	 9 ;      NG311      CG311      CG2O3      OG2D2
   15    17    24    25	 9 ;      NG311      CG311      CG2O3      OG2D2
   18    17    24    26	 9 ;      CG321      CG311      CG2O3      OG2D2
   18    17    24    25	 9 ;      CG321      CG311      CG2O3      OG2D2
   38    17    24    26	 9 ;       HGA1      CG311      CG2O3      OG2D2
   38    17    24    25	 9 ;       HGA1      CG311      CG2O3      OG2D2
   15    17    18    19	 9 ;      NG311      CG311      CG321     CG2R51
   15    17    18    39	 9 ;      NG311      CG311      CG321       HGA2
   15    17    18    40	 9 ;      NG311      CG311      CG321       HGA2
   24    17    18    19	 9 ;      CG2O3      CG311      CG321     CG2R51
   24    17    18    39	 9 ;      CG2O3      CG311      CG321       HGA2
   24    17    18    40	 9 ;      CG2O3      CG311      CG321       HGA2
   38    17    18    19	 9 ;       HGA1      CG311      CG321     CG2R51
   38    17    18    39	 9 ;       HGA1      CG311      CG321       HGA2
   38    17    18    40	 9 ;       HGA1      CG311      CG321       HGA2
   17    18    19    20	 9 ;      CG311      CG321     CG2R51     CG2R51
   17    18    19    23	 9 ;      CG311      CG321     CG2R51     CG2R51
   39    18    19    20	 9 ;       HGA2      CG321     CG2R51     CG2R51
   39    18    19    23	 9 ;       HGA2      CG321     CG2R51     CG2R51
   40    18    19    20	 9 ;       HGA2      CG321     CG2R51     CG2R51
   40    18    19    23	 9 ;       HGA2      CG321     CG2R51     CG2R51
   18    19    20    21	 9 ;      CG321     CG2R51     CG2R51     CG2R51
   18    19    20    41	 9 ;      CG321     CG2R51     CG2R51      HGR51
   23    19    20    21	 9 ;     CG2R51     CG2R51     CG2R51     CG2R51
   23    19    20    41	 9 ;     CG2R51     CG2R51     CG2R51      HGR51
   18    19    23    22	 9 ;      CG321     CG2R51     CG2R51     SG2R50
   18    19    23    43	 9 ;      CG321     CG2R51     CG2R51      HGR52
   20    19    23    22	 9 ;     CG2R51     CG2R51     CG2R51     SG2R50
   20    19    23    43	 9 ;     CG2R51     CG2R51     CG2R51      HGR52
   19    20    21    22	 9 ;     CG2R51     CG2R51     CG2R51     SG2R50
   19    20    21    42	 9 ;     CG2R51     CG2R51     CG2R51      HGR52
   41    20    21    22	 9 ;      HGR51     CG2R51     CG2R51     SG2R50
   41    20    21    42	 9 ;      HGR51     CG2R51     CG2R51      HGR52
   20    21    22    23	 9 ;     CG2R51     CG2R51     SG2R50     CG2R51
   42    21    22    23	 9 ;      HGR52     CG2R51     SG2R50     CG2R51
   21    22    23    19	 9 ;     CG2R51     SG2R50     CG2R51     CG2R51
   21    22    23    43	 9 ;     CG2R51     SG2R50     CG2R51      HGR52

[ dihedrals ]
;	ai	  aj	ak	  al funct			  c0			c1			  c2			c3
   24    26    25    17	 2

[ virtual_sites2 ]
; Site   from				funct a
   45     1     2     2   -0.164

[ exclusions ]
;	ai	  aj
    1    45
   45     2
   45     3
   45    12
   45     4
   45    27
   45    11
   45    31

