; Created by cgenff_charmm2gmx.py

[ moleculetype ]
; Name			   nrexcl
LIG				 3

[ atoms ]
;	 nr		  type	resnr residue  atom   cgnr	   charge		mass  typeB    chargeB		massB
; residue	 1 LIG rtp LIG q	qsum
     1      CG1T1      1    LIG     C1      1     -0.057     12.011   ;
     2      CG1T1      1    LIG     C2      2     -0.131     12.011   ;
     3      CG331      1    LIG     C3      3     -0.189     12.011   ;
     4     CG2DC1      1    LIG     C4      4      0.130     12.011   ;
     5     CG2DC2      1    LIG     C5      5     -0.177     12.011   ;
     6     CG2DC2      1    LIG     C6      6     -0.132     12.011   ;
     7      CG321      1    LIG     C7      7     -0.002     12.011   ;
     8      NG311      1    LIG     N1      8     -0.553     14.007   ;
     9     CG2D1O      1    LIG     C8      9     -0.031     12.011   ;
    10     HGPAM1      1    LIG    HN1     10      0.389      1.008   ;
    11     CG2R61      1    LIG     C9     11      0.029     12.011   ;
    12     CG2R61      1    LIG    C10     12     -0.185     12.011   ;
    13     CG2R61      1    LIG    C11     13     -0.048     12.011   ;
    14     CG2R61      1    LIG    C12     14     -0.181     12.011   ;
    15     CG2R61      1    LIG    C13     15     -0.102     12.011   ;
    16     CG2R61      1    LIG    C14     16     -0.120     12.011   ;
    17     CG3C50      1    LIG    C15     17      1.457     12.011   ;
    18     CG2RC0      1    LIG    C16     18     -0.703     12.011   ;
    19     CG2RC0      1    LIG    C17     19     -0.166     12.011   ;
    20     CG2R61      1    LIG    C18     20     -0.199     12.011   ;
    21     CG2R66      1    LIG    C19     21      0.188     12.011   ;
    22     CG3C51      1    LIG    C20     22      0.296     12.011   ;
    23       FGR1      1    LIG     F1     23     -0.165     18.998   ;
    24     CG2R61      1    LIG    C21     24     -0.088     12.011   ;
    25     CG2R61      1    LIG    C22     25     -0.288     12.011   ;
    26     NG3C51      1    LIG     N2     26     -0.814     14.007   ;
    27      NG321      1    LIG     N3     27     -0.998     14.007   ;
    28       HGP1      1    LIG    HN2     28      0.286      1.008   ;
    29     HGPAM2      1    LIG     H1     29      0.379      1.008   ;
    30     HGPAM2      1    LIG     H2     30      0.379      1.008   ;
    31     CG2DC1      1    LIG    C23     31      0.127     12.011   ;
    32     CG2DC1      1    LIG    C24     32     -0.325     12.011   ;
    33      CG311      1    LIG    C25     33      0.318     12.011   ;
    34      NG311      1    LIG     N4     34     -0.524     14.007   ;
    35     CG2D2O      1    LIG    C26     35     -0.054     12.011   ;
    36     HGPAM1      1    LIG    HN3     36      0.360      1.008   ;
    37     CG2DC2      1    LIG    C27     37     -0.372     12.011   ;
    38      CG312      1    LIG    C28     38      0.111     12.011   ;
    39       FGA2      1    LIG     F2     39     -0.174     18.998   ;
    40       FGA2      1    LIG     F3     40     -0.174     18.998   ;
    41       HGA3      1    LIG     H3     41      0.090      1.008   ;
    42       HGA3      1    LIG     H4     42      0.090      1.008   ;
    43       HGA3      1    LIG     H5     43      0.090      1.008   ;
    44       HGA4      1    LIG     H6     44      0.135      1.008   ;
    45       HGA2      1    LIG     H7     45      0.090      1.008   ;
    46       HGA2      1    LIG     H8     46      0.090      1.008   ;
    47       HGA4      1    LIG     H9     47      0.152      1.008   ;
    48      HGR61      1    LIG    H10     48      0.116      1.008   ;
    49      HGR61      1    LIG    H11     49      0.116      1.008   ;
    50      HGR61      1    LIG    H12     50      0.116      1.008   ;
    51      HGR61      1    LIG    H13     51      0.116      1.008   ;
    52      HGR61      1    LIG    H14     52      0.189      1.008   ;
    53       HGA1      1    LIG    H15     53      0.116      1.008   ;
    54      HGR62      1    LIG    H16     54      0.166      1.008   ;
    55      HGR61      1    LIG    H17     55      0.134      1.008   ;
    56       HGA4      1    LIG    H18     56      0.150      1.008   ;
    57       HGA1      1    LIG    H19     57      0.090      1.008   ;
    58       HGA4      1    LIG    H20     58      0.162      1.008   ;
    59       HGA4      1    LIG    H21     59      0.150      1.008   ;
    60       HGA7      1    LIG    H22     60      0.145      1.008   ;

[ bonds ]
;	ai	  aj funct			  c0			c1			  c2			c3
    1     4	 1 ;       CG1T1     CG2DC1
    1     2	 1 ;       CG1T1      CG1T1
    2     3	 1 ;       CG1T1      CG331
    3    41	 1 ;       CG331       HGA3
    3    42	 1 ;       CG331       HGA3
    3    43	 1 ;       CG331       HGA3
    4     5	 1 ;      CG2DC1     CG2DC2
    4     9	 1 ;      CG2DC1     CG2D1O
    5     6	 1 ;      CG2DC2     CG2DC2
    5    44	 1 ;      CG2DC2       HGA4
    6    11	 1 ;      CG2DC2     CG2R61
    6     7	 1 ;      CG2DC2      CG321
    7     8	 1 ;       CG321      NG311
    7    45	 1 ;       CG321       HGA2
    7    46	 1 ;       CG321       HGA2
    8    10	 1 ;       NG311     HGPAM1
    8     9	 1 ;       NG311     CG2D1O
    9    47	 1 ;      CG2D1O       HGA4
   11    12	 1 ;      CG2R61     CG2R61
   11    16	 1 ;      CG2R61     CG2R61
   12    13	 1 ;      CG2R61     CG2R61
   12    48	 1 ;      CG2R61      HGR61
   13    17	 1 ;      CG2R61     CG3C50
   13    14	 1 ;      CG2R61     CG2R61
   14    15	 1 ;      CG2R61     CG2R61
   14    49	 1 ;      CG2R61      HGR61
   15    16	 1 ;      CG2R61     CG2R61
   15    50	 1 ;      CG2R61      HGR61
   16    51	 1 ;      CG2R61      HGR61
   17    18	 1 ;      CG3C50     CG2RC0
   17    26	 1 ;      CG3C50     NG3C51
   17    31	 1 ;      CG3C50     CG2DC1
   18    20	 1 ;      CG2RC0     CG2R61
   18    19	 1 ;      CG2RC0     CG2RC0
   19    21	 1 ;      CG2RC0     CG2R66
   19    22	 1 ;      CG2RC0     CG3C51
   20    25	 1 ;      CG2R61     CG2R61
   20    52	 1 ;      CG2R61      HGR61
   21    24	 1 ;      CG2R66     CG2R61
   21    23	 1 ;      CG2R66       FGR1
   22    27	 1 ;      CG3C51      NG321
   22    26	 1 ;      CG3C51     NG3C51
   22    53	 1 ;      CG3C51       HGA1
   24    25	 1 ;      CG2R61     CG2R61
   24    54	 1 ;      CG2R61      HGR62
   25    55	 1 ;      CG2R61      HGR61
   26    28	 1 ;      NG3C51       HGP1
   27    29	 1 ;       NG321     HGPAM2
   27    30	 1 ;       NG321     HGPAM2
   31    32	 1 ;      CG2DC1     CG2DC1
   31    37	 1 ;      CG2DC1     CG2DC2
   32    33	 1 ;      CG2DC1      CG311
   32    56	 1 ;      CG2DC1       HGA4
   33    38	 1 ;       CG311      CG312
   33    34	 1 ;       CG311      NG311
   33    57	 1 ;       CG311       HGA1
   34    35	 1 ;       NG311     CG2D2O
   34    36	 1 ;       NG311     HGPAM1
   35    37	 1 ;      CG2D2O     CG2DC2
   35    58	 1 ;      CG2D2O       HGA4
   37    59	 1 ;      CG2DC2       HGA4
   38    40	 1 ;       CG312       FGA2
   38    39	 1 ;       CG312       FGA2
   38    60	 1 ;       CG312       HGA7

[ pairs ]
;	ai	  aj funct			  c0			c1			  c2			c3
    1    41	 1
    1    42	 1
    1    43	 1
    1     6	 1
    1    44	 1
    1     8	 1
    1    47	 1
    2     5	 1
    2     9	 1
    3     4	 1
    4    11	 1
    4     7	 1
    4    10	 1
    5     8	 1
    5    47	 1
    5    12	 1
    5    16	 1
    5    45	 1
    5    46	 1
    6     9	 1
    6    10	 1
    6    13	 1
    6    48	 1
    6    15	 1
    6    51	 1
    7    44	 1
    7    12	 1
    7    16	 1
    7    47	 1
    8    11	 1
    9    44	 1
    9    45	 1
    9    46	 1
   10    45	 1
   10    46	 1
   10    47	 1
   11    44	 1
   11    45	 1
   11    46	 1
   11    17	 1
   11    14	 1
   11    50	 1
   12    15	 1
   12    51	 1
   12    18	 1
   12    26	 1
   12    31	 1
   12    49	 1
   13    16	 1
   13    50	 1
   13    20	 1
   13    19	 1
   13    22	 1
   13    28	 1
   13    32	 1
   13    37	 1
   14    48	 1
   14    18	 1
   14    26	 1
   14    31	 1
   14    51	 1
   15    17	 1
   16    48	 1
   16    49	 1
   17    48	 1
   17    49	 1
   17    25	 1
   17    52	 1
   17    21	 1
   17    27	 1
   17    53	 1
   17    33	 1
   17    56	 1
   17    35	 1
   17    59	 1
   18    28	 1
   18    32	 1
   18    37	 1
   18    24	 1
   18    23	 1
   18    27	 1
   18    53	 1
   18    55	 1
   19    31	 1
   19    25	 1
   19    52	 1
   19    54	 1
   19    29	 1
   19    30	 1
   19    28	 1
   20    26	 1
   20    31	 1
   20    21	 1
   20    22	 1
   20    54	 1
   21    27	 1
   21    26	 1
   21    53	 1
   21    55	 1
   22    31	 1
   22    24	 1
   22    23	 1
   23    25	 1
   23    54	 1
   24    52	 1
   26    32	 1
   26    37	 1
   26    29	 1
   26    30	 1
   27    28	 1
   28    31	 1
   28    53	 1
   29    53	 1
   30    53	 1
   31    38	 1
   31    34	 1
   31    57	 1
   31    58	 1
   32    35	 1
   32    59	 1
   32    40	 1
   32    39	 1
   32    60	 1
   32    36	 1
   33    37	 1
   33    58	 1
   34    56	 1
   34    40	 1
   34    39	 1
   34    60	 1
   34    59	 1
   35    38	 1
   35    57	 1
   36    38	 1
   36    57	 1
   36    37	 1
   36    58	 1
   37    56	 1
   38    56	 1
   39    57	 1
   40    57	 1
   49    50	 1
   50    51	 1
   52    55	 1
   54    55	 1
   56    57	 1
   57    60	 1
   58    59	 1

[ angles ]
;	ai	  aj	ak funct			c0			  c1			c2			  c3
    4     1     2	5 ;     CG2DC1      CG1T1      CG1T1
    1     2     3	5 ;      CG1T1      CG1T1      CG331
    2     3    41	5 ;      CG1T1      CG331       HGA3
    2     3    42	5 ;      CG1T1      CG331       HGA3
    2     3    43	5 ;      CG1T1      CG331       HGA3
   41     3    42	5 ;       HGA3      CG331       HGA3
   41     3    43	5 ;       HGA3      CG331       HGA3
   42     3    43	5 ;       HGA3      CG331       HGA3
    5     4     9	5 ;     CG2DC2     CG2DC1     CG2D1O
    5     4     1	5 ;     CG2DC2     CG2DC1      CG1T1
    9     4     1	5 ;     CG2D1O     CG2DC1      CG1T1
    6     5     4	5 ;     CG2DC2     CG2DC2     CG2DC1
    6     5    44	5 ;     CG2DC2     CG2DC2       HGA4
    4     5    44	5 ;     CG2DC1     CG2DC2       HGA4
   11     6     7	5 ;     CG2R61     CG2DC2      CG321
   11     6     5	5 ;     CG2R61     CG2DC2     CG2DC2
    7     6     5	5 ;      CG321     CG2DC2     CG2DC2
    6     7     8	5 ;     CG2DC2      CG321      NG311
    6     7    45	5 ;     CG2DC2      CG321       HGA2
    6     7    46	5 ;     CG2DC2      CG321       HGA2
    8     7    45	5 ;      NG311      CG321       HGA2
    8     7    46	5 ;      NG311      CG321       HGA2
   45     7    46	5 ;       HGA2      CG321       HGA2
    7     8    10	5 ;      CG321      NG311     HGPAM1
    7     8     9	5 ;      CG321      NG311     CG2D1O
   10     8     9	5 ;     HGPAM1      NG311     CG2D1O
    8     9     4	5 ;      NG311     CG2D1O     CG2DC1
    8     9    47	5 ;      NG311     CG2D1O       HGA4
    4     9    47	5 ;     CG2DC1     CG2D1O       HGA4
   12    11    16	5 ;     CG2R61     CG2R61     CG2R61
   12    11     6	5 ;     CG2R61     CG2R61     CG2DC2
   16    11     6	5 ;     CG2R61     CG2R61     CG2DC2
   13    12    11	5 ;     CG2R61     CG2R61     CG2R61
   13    12    48	5 ;     CG2R61     CG2R61      HGR61
   11    12    48	5 ;     CG2R61     CG2R61      HGR61
   17    13    14	5 ;     CG3C50     CG2R61     CG2R61
   17    13    12	5 ;     CG3C50     CG2R61     CG2R61
   14    13    12	5 ;     CG2R61     CG2R61     CG2R61
   13    14    15	5 ;     CG2R61     CG2R61     CG2R61
   13    14    49	5 ;     CG2R61     CG2R61      HGR61
   15    14    49	5 ;     CG2R61     CG2R61      HGR61
   14    15    16	5 ;     CG2R61     CG2R61     CG2R61
   14    15    50	5 ;     CG2R61     CG2R61      HGR61
   16    15    50	5 ;     CG2R61     CG2R61      HGR61
   15    16    11	5 ;     CG2R61     CG2R61     CG2R61
   15    16    51	5 ;     CG2R61     CG2R61      HGR61
   11    16    51	5 ;     CG2R61     CG2R61      HGR61
   18    17    26	5 ;     CG2RC0     CG3C50     NG3C51
   18    17    31	5 ;     CG2RC0     CG3C50     CG2DC1
   18    17    13	5 ;     CG2RC0     CG3C50     CG2R61
   26    17    31	5 ;     NG3C51     CG3C50     CG2DC1
   26    17    13	5 ;     NG3C51     CG3C50     CG2R61
   31    17    13	5 ;     CG2DC1     CG3C50     CG2R61
   20    18    19	5 ;     CG2R61     CG2RC0     CG2RC0
   20    18    17	5 ;     CG2R61     CG2RC0     CG3C50
   19    18    17	5 ;     CG2RC0     CG2RC0     CG3C50
   21    19    18	5 ;     CG2R66     CG2RC0     CG2RC0
   21    19    22	5 ;     CG2R66     CG2RC0     CG3C51
   18    19    22	5 ;     CG2RC0     CG2RC0     CG3C51
   25    20    18	5 ;     CG2R61     CG2R61     CG2RC0
   25    20    52	5 ;     CG2R61     CG2R61      HGR61
   18    20    52	5 ;     CG2RC0     CG2R61      HGR61
   24    21    23	5 ;     CG2R61     CG2R66       FGR1
   24    21    19	5 ;     CG2R61     CG2R66     CG2RC0
   23    21    19	5 ;       FGR1     CG2R66     CG2RC0
   19    22    27	5 ;     CG2RC0     CG3C51      NG321
   19    22    26	5 ;     CG2RC0     CG3C51     NG3C51
   19    22    53	5 ;     CG2RC0     CG3C51       HGA1
   27    22    26	5 ;      NG321     CG3C51     NG3C51
   27    22    53	5 ;      NG321     CG3C51       HGA1
   26    22    53	5 ;     NG3C51     CG3C51       HGA1
   25    24    21	5 ;     CG2R61     CG2R61     CG2R66
   25    24    54	5 ;     CG2R61     CG2R61      HGR62
   21    24    54	5 ;     CG2R66     CG2R61      HGR62
   24    25    20	5 ;     CG2R61     CG2R61     CG2R61
   24    25    55	5 ;     CG2R61     CG2R61      HGR61
   20    25    55	5 ;     CG2R61     CG2R61      HGR61
   22    26    17	5 ;     CG3C51     NG3C51     CG3C50
   22    26    28	5 ;     CG3C51     NG3C51       HGP1
   17    26    28	5 ;     CG3C50     NG3C51       HGP1
   29    27    22	5 ;     HGPAM2      NG321     CG3C51
   29    27    30	5 ;     HGPAM2      NG321     HGPAM2
   22    27    30	5 ;     CG3C51      NG321     HGPAM2
   17    31    32	5 ;     CG3C50     CG2DC1     CG2DC1
   17    31    37	5 ;     CG3C50     CG2DC1     CG2DC2
   32    31    37	5 ;     CG2DC1     CG2DC1     CG2DC2
   31    32    33	5 ;     CG2DC1     CG2DC1      CG311
   31    32    56	5 ;     CG2DC1     CG2DC1       HGA4
   33    32    56	5 ;      CG311     CG2DC1       HGA4
   32    33    38	5 ;     CG2DC1      CG311      CG312
   32    33    34	5 ;     CG2DC1      CG311      NG311
   32    33    57	5 ;     CG2DC1      CG311       HGA1
   38    33    34	5 ;      CG312      CG311      NG311
   38    33    57	5 ;      CG312      CG311       HGA1
   34    33    57	5 ;      NG311      CG311       HGA1
   33    34    35	5 ;      CG311      NG311     CG2D2O
   33    34    36	5 ;      CG311      NG311     HGPAM1
   35    34    36	5 ;     CG2D2O      NG311     HGPAM1
   37    35    34	5 ;     CG2DC2     CG2D2O      NG311
   37    35    58	5 ;     CG2DC2     CG2D2O       HGA4
   34    35    58	5 ;      NG311     CG2D2O       HGA4
   31    37    35	5 ;     CG2DC1     CG2DC2     CG2D2O
   31    37    59	5 ;     CG2DC1     CG2DC2       HGA4
   35    37    59	5 ;     CG2D2O     CG2DC2       HGA4
   33    38    40	5 ;      CG311      CG312       FGA2
   33    38    39	5 ;      CG311      CG312       FGA2
   33    38    60	5 ;      CG311      CG312       HGA7
   40    38    39	5 ;       FGA2      CG312       FGA2
   40    38    60	5 ;       FGA2      CG312       HGA7
   39    38    60	5 ;       FGA2      CG312       HGA7

[ dihedrals ]
;	ai	  aj	ak	  al funct			  c0			c1			  c2			c3			  c4			c5
    9     4     5     6	 9 ;     CG2D1O     CG2DC1     CG2DC2     CG2DC2
    9     4     5    44	 9 ;     CG2D1O     CG2DC1     CG2DC2       HGA4
    1     4     5     6	 9 ;      CG1T1     CG2DC1     CG2DC2     CG2DC2
    1     4     5    44	 9 ;      CG1T1     CG2DC1     CG2DC2       HGA4
    5     4     9     8	 9 ;     CG2DC2     CG2DC1     CG2D1O      NG311
    5     4     9    47	 9 ;     CG2DC2     CG2DC1     CG2D1O       HGA4
    1     4     9     8	 9 ;      CG1T1     CG2DC1     CG2D1O      NG311
    1     4     9    47	 9 ;      CG1T1     CG2DC1     CG2D1O       HGA4
    4     5     6    11	 9 ;     CG2DC1     CG2DC2     CG2DC2     CG2R61
    4     5     6     7	 9 ;     CG2DC1     CG2DC2     CG2DC2      CG321
   44     5     6    11	 9 ;       HGA4     CG2DC2     CG2DC2     CG2R61
   44     5     6     7	 9 ;       HGA4     CG2DC2     CG2DC2      CG321
    7     6    11    12	 9 ;      CG321     CG2DC2     CG2R61     CG2R61
    7     6    11    16	 9 ;      CG321     CG2DC2     CG2R61     CG2R61
    5     6    11    12	 9 ;     CG2DC2     CG2DC2     CG2R61     CG2R61
    5     6    11    16	 9 ;     CG2DC2     CG2DC2     CG2R61     CG2R61
   11     6     7     8	 9 ;     CG2R61     CG2DC2      CG321      NG311
   11     6     7    45	 9 ;     CG2R61     CG2DC2      CG321       HGA2
   11     6     7    46	 9 ;     CG2R61     CG2DC2      CG321       HGA2
    5     6     7     8	 9 ;     CG2DC2     CG2DC2      CG321      NG311
    5     6     7    45	 9 ;     CG2DC2     CG2DC2      CG321       HGA2
    5     6     7    46	 9 ;     CG2DC2     CG2DC2      CG321       HGA2
    6     7     8    10	 9 ;     CG2DC2      CG321      NG311     HGPAM1
    6     7     8     9	 9 ;     CG2DC2      CG321      NG311     CG2D1O
   45     7     8    10	 9 ;       HGA2      CG321      NG311     HGPAM1
   45     7     8     9	 9 ;       HGA2      CG321      NG311     CG2D1O
   46     7     8    10	 9 ;       HGA2      CG321      NG311     HGPAM1
   46     7     8     9	 9 ;       HGA2      CG321      NG311     CG2D1O
    7     8     9     4	 9 ;      CG321      NG311     CG2D1O     CG2DC1
    7     8     9    47	 9 ;      CG321      NG311     CG2D1O       HGA4
   10     8     9     4	 9 ;     HGPAM1      NG311     CG2D1O     CG2DC1
   10     8     9    47	 9 ;     HGPAM1      NG311     CG2D1O       HGA4
   16    11    12    13	 9 ;     CG2R61     CG2R61     CG2R61     CG2R61
   16    11    12    48	 9 ;     CG2R61     CG2R61     CG2R61      HGR61
    6    11    12    13	 9 ;     CG2DC2     CG2R61     CG2R61     CG2R61
    6    11    12    48	 9 ;     CG2DC2     CG2R61     CG2R61      HGR61
   12    11    16    15	 9 ;     CG2R61     CG2R61     CG2R61     CG2R61
   12    11    16    51	 9 ;     CG2R61     CG2R61     CG2R61      HGR61
    6    11    16    15	 9 ;     CG2DC2     CG2R61     CG2R61     CG2R61
    6    11    16    51	 9 ;     CG2DC2     CG2R61     CG2R61      HGR61
   11    12    13    17	 9 ;     CG2R61     CG2R61     CG2R61     CG3C50
   11    12    13    14	 9 ;     CG2R61     CG2R61     CG2R61     CG2R61
   48    12    13    17	 9 ;      HGR61     CG2R61     CG2R61     CG3C50
   48    12    13    14	 9 ;      HGR61     CG2R61     CG2R61     CG2R61
   14    13    17    18	 9 ;     CG2R61     CG2R61     CG3C50     CG2RC0
   14    13    17    26	 9 ;     CG2R61     CG2R61     CG3C50     NG3C51
   14    13    17    31	 9 ;     CG2R61     CG2R61     CG3C50     CG2DC1
   12    13    17    18	 9 ;     CG2R61     CG2R61     CG3C50     CG2RC0
   12    13    17    26	 9 ;     CG2R61     CG2R61     CG3C50     NG3C51
   12    13    17    31	 9 ;     CG2R61     CG2R61     CG3C50     CG2DC1
   17    13    14    15	 9 ;     CG3C50     CG2R61     CG2R61     CG2R61
   17    13    14    49	 9 ;     CG3C50     CG2R61     CG2R61      HGR61
   12    13    14    15	 9 ;     CG2R61     CG2R61     CG2R61     CG2R61
   12    13    14    49	 9 ;     CG2R61     CG2R61     CG2R61      HGR61
   13    14    15    16	 9 ;     CG2R61     CG2R61     CG2R61     CG2R61
   13    14    15    50	 9 ;     CG2R61     CG2R61     CG2R61      HGR61
   49    14    15    16	 9 ;      HGR61     CG2R61     CG2R61     CG2R61
   49    14    15    50	 9 ;      HGR61     CG2R61     CG2R61      HGR61
   14    15    16    11	 9 ;     CG2R61     CG2R61     CG2R61     CG2R61
   14    15    16    51	 9 ;     CG2R61     CG2R61     CG2R61      HGR61
   50    15    16    11	 9 ;      HGR61     CG2R61     CG2R61     CG2R61
   50    15    16    51	 9 ;      HGR61     CG2R61     CG2R61      HGR61
   26    17    18    20	 9 ;     NG3C51     CG3C50     CG2RC0     CG2R61
   26    17    18    19	 9 ;     NG3C51     CG3C50     CG2RC0     CG2RC0
   31    17    18    20	 9 ;     CG2DC1     CG3C50     CG2RC0     CG2R61
   31    17    18    19	 9 ;     CG2DC1     CG3C50     CG2RC0     CG2RC0
   13    17    18    20	 9 ;     CG2R61     CG3C50     CG2RC0     CG2R61
   13    17    18    19	 9 ;     CG2R61     CG3C50     CG2RC0     CG2RC0
   18    17    26    22	 9 ;     CG2RC0     CG3C50     NG3C51     CG3C51
   18    17    26    28	 9 ;     CG2RC0     CG3C50     NG3C51       HGP1
   31    17    26    22	 9 ;     CG2DC1     CG3C50     NG3C51     CG3C51
   31    17    26    28	 9 ;     CG2DC1     CG3C50     NG3C51       HGP1
   13    17    26    22	 9 ;     CG2R61     CG3C50     NG3C51     CG3C51
   13    17    26    28	 9 ;     CG2R61     CG3C50     NG3C51       HGP1
   18    17    31    32	 9 ;     CG2RC0     CG3C50     CG2DC1     CG2DC1
   18    17    31    37	 9 ;     CG2RC0     CG3C50     CG2DC1     CG2DC2
   26    17    31    32	 9 ;     NG3C51     CG3C50     CG2DC1     CG2DC1
   26    17    31    37	 9 ;     NG3C51     CG3C50     CG2DC1     CG2DC2
   13    17    31    32	 9 ;     CG2R61     CG3C50     CG2DC1     CG2DC1
   13    17    31    37	 9 ;     CG2R61     CG3C50     CG2DC1     CG2DC2
   19    18    20    25	 9 ;     CG2RC0     CG2RC0     CG2R61     CG2R61
   19    18    20    52	 9 ;     CG2RC0     CG2RC0     CG2R61      HGR61
   17    18    20    25	 9 ;     CG3C50     CG2RC0     CG2R61     CG2R61
   17    18    20    52	 9 ;     CG3C50     CG2RC0     CG2R61      HGR61
   20    18    19    21	 9 ;     CG2R61     CG2RC0     CG2RC0     CG2R66
   20    18    19    22	 9 ;     CG2R61     CG2RC0     CG2RC0     CG3C51
   17    18    19    21	 9 ;     CG3C50     CG2RC0     CG2RC0     CG2R66
   17    18    19    22	 9 ;     CG3C50     CG2RC0     CG2RC0     CG3C51
   18    19    21    24	 9 ;     CG2RC0     CG2RC0     CG2R66     CG2R61
   18    19    21    23	 9 ;     CG2RC0     CG2RC0     CG2R66       FGR1
   22    19    21    24	 9 ;     CG3C51     CG2RC0     CG2R66     CG2R61
   22    19    21    23	 9 ;     CG3C51     CG2RC0     CG2R66       FGR1
   21    19    22    27	 9 ;     CG2R66     CG2RC0     CG3C51      NG321
   21    19    22    26	 9 ;     CG2R66     CG2RC0     CG3C51     NG3C51
   21    19    22    53	 9 ;     CG2R66     CG2RC0     CG3C51       HGA1
   18    19    22    27	 9 ;     CG2RC0     CG2RC0     CG3C51      NG321
   18    19    22    26	 9 ;     CG2RC0     CG2RC0     CG3C51     NG3C51
   18    19    22    53	 9 ;     CG2RC0     CG2RC0     CG3C51       HGA1
   18    20    25    24	 9 ;     CG2RC0     CG2R61     CG2R61     CG2R61
   18    20    25    55	 9 ;     CG2RC0     CG2R61     CG2R61      HGR61
   52    20    25    24	 9 ;      HGR61     CG2R61     CG2R61     CG2R61
   52    20    25    55	 9 ;      HGR61     CG2R61     CG2R61      HGR61
   23    21    24    25	 9 ;       FGR1     CG2R66     CG2R61     CG2R61
   23    21    24    54	 9 ;       FGR1     CG2R66     CG2R61      HGR62
   19    21    24    25	 9 ;     CG2RC0     CG2R66     CG2R61     CG2R61
   19    21    24    54	 9 ;     CG2RC0     CG2R66     CG2R61      HGR62
   19    22    27    29	 9 ;     CG2RC0     CG3C51      NG321     HGPAM2
   19    22    27    30	 9 ;     CG2RC0     CG3C51      NG321     HGPAM2
   26    22    27    29	 9 ;     NG3C51     CG3C51      NG321     HGPAM2
   26    22    27    30	 9 ;     NG3C51     CG3C51      NG321     HGPAM2
   53    22    27    29	 9 ;       HGA1     CG3C51      NG321     HGPAM2
   53    22    27    30	 9 ;       HGA1     CG3C51      NG321     HGPAM2
   19    22    26    17	 9 ;     CG2RC0     CG3C51     NG3C51     CG3C50
   19    22    26    28	 9 ;     CG2RC0     CG3C51     NG3C51       HGP1
   27    22    26    17	 9 ;      NG321     CG3C51     NG3C51     CG3C50
   27    22    26    28	 9 ;      NG321     CG3C51     NG3C51       HGP1
   53    22    26    17	 9 ;       HGA1     CG3C51     NG3C51     CG3C50
   53    22    26    28	 9 ;       HGA1     CG3C51     NG3C51       HGP1
   21    24    25    20	 9 ;     CG2R66     CG2R61     CG2R61     CG2R61
   21    24    25    55	 9 ;     CG2R66     CG2R61     CG2R61      HGR61
   54    24    25    20	 9 ;      HGR62     CG2R61     CG2R61     CG2R61
   54    24    25    55	 9 ;      HGR62     CG2R61     CG2R61      HGR61
   17    31    32    33	 9 ;     CG3C50     CG2DC1     CG2DC1      CG311
   17    31    32    56	 9 ;     CG3C50     CG2DC1     CG2DC1       HGA4
   37    31    32    33	 9 ;     CG2DC2     CG2DC1     CG2DC1      CG311
   37    31    32    56	 9 ;     CG2DC2     CG2DC1     CG2DC1       HGA4
   17    31    37    35	 9 ;     CG3C50     CG2DC1     CG2DC2     CG2D2O
   17    31    37    59	 9 ;     CG3C50     CG2DC1     CG2DC2       HGA4
   32    31    37    35	 9 ;     CG2DC1     CG2DC1     CG2DC2     CG2D2O
   32    31    37    59	 9 ;     CG2DC1     CG2DC1     CG2DC2       HGA4
   31    32    33    38	 9 ;     CG2DC1     CG2DC1      CG311      CG312
   31    32    33    34	 9 ;     CG2DC1     CG2DC1      CG311      NG311
   31    32    33    57	 9 ;     CG2DC1     CG2DC1      CG311       HGA1
   56    32    33    38	 9 ;       HGA4     CG2DC1      CG311      CG312
   56    32    33    34	 9 ;       HGA4     CG2DC1      CG311      NG311
   56    32    33    57	 9 ;       HGA4     CG2DC1      CG311       HGA1
   32    33    38    40	 9 ;     CG2DC1      CG311      CG312       FGA2
   32    33    38    39	 9 ;     CG2DC1      CG311      CG312       FGA2
   32    33    38    60	 9 ;     CG2DC1      CG311      CG312       HGA7
   34    33    38    40	 9 ;      NG311      CG311      CG312       FGA2
   34    33    38    39	 9 ;      NG311      CG311      CG312       FGA2
   34    33    38    60	 9 ;      NG311      CG311      CG312       HGA7
   57    33    38    40	 9 ;       HGA1      CG311      CG312       FGA2
   57    33    38    39	 9 ;       HGA1      CG311      CG312       FGA2
   57    33    38    60	 9 ;       HGA1      CG311      CG312       HGA7
   32    33    34    35	 9 ;     CG2DC1      CG311      NG311     CG2D2O
   32    33    34    36	 9 ;     CG2DC1      CG311      NG311     HGPAM1
   38    33    34    35	 9 ;      CG312      CG311      NG311     CG2D2O
   38    33    34    36	 9 ;      CG312      CG311      NG311     HGPAM1
   57    33    34    35	 9 ;       HGA1      CG311      NG311     CG2D2O
   57    33    34    36	 9 ;       HGA1      CG311      NG311     HGPAM1
   33    34    35    37	 9 ;      CG311      NG311     CG2D2O     CG2DC2
   33    34    35    58	 9 ;      CG311      NG311     CG2D2O       HGA4
   36    34    35    37	 9 ;     HGPAM1      NG311     CG2D2O     CG2DC2
   36    34    35    58	 9 ;     HGPAM1      NG311     CG2D2O       HGA4
   34    35    37    31	 9 ;      NG311     CG2D2O     CG2DC2     CG2DC1
   34    35    37    59	 9 ;      NG311     CG2D2O     CG2DC2       HGA4
   58    35    37    31	 9 ;       HGA4     CG2D2O     CG2DC2     CG2DC1
   58    35    37    59	 9 ;       HGA4     CG2D2O     CG2DC2       HGA4

[ dihedrals ]
;	ai	  aj	ak	  al funct			  c0			c1			  c2			c3
    9     4     8    47	 2
   35    37    34    58	 2

