Grunge ROck MAChoS
   60
    1LIG     C1    1  -1.772   0.276  -0.975
    1LIG     C2    2  -1.854   0.216  -0.893
    1LIG     C3    3  -1.949   0.146  -0.797
    1LIG     C4    4  -1.681   0.340  -1.065
    1LIG     C5    5  -1.684   0.317  -1.202
    1LIG     C6    6  -1.594   0.380  -1.289
    1LIG     C7    7  -1.502   0.467  -1.229
    1LIG     N1    8  -1.494   0.492  -1.097
    1LIG     C8    9  -1.584   0.428  -1.018
    1LIG    HN1   10  -1.425   0.556  -1.058
    1LIG     C9   11  -1.596   0.360  -1.435
    1LIG    C10   12  -1.476   0.364  -1.509
    1LIG    C11   13  -1.472   0.366  -1.650
    1LIG    C12   14  -1.595   0.358  -1.718
    1LIG    C13   15  -1.715   0.344  -1.646
    1LIG    C14   16  -1.716   0.345  -1.507
    1LIG    C15   17  -1.338   0.386  -1.725
    1LIG    C16   18  -1.362   0.367  -1.874
    1LIG    C17   19  -1.341   0.487  -1.939
    1LIG    C18   20  -1.396   0.253  -1.947
    1LIG    C19   21  -1.358   0.501  -2.075
    1LIG    C20   22  -1.297   0.581  -1.837
    1LIG     F1   23  -1.341   0.619  -2.135
    1LIG    C21   24  -1.395   0.389  -2.149
    1LIG    C22   25  -1.412   0.265  -2.085
    1LIG     N2   26  -1.295   0.532  -1.716
    1LIG     N3   27  -1.262   0.709  -1.866
    1LIG    HN2   28  -1.269   0.582  -1.631
    1LIG     H1   29  -1.291   0.750  -1.954
    1LIG     H2   30  -1.255   0.773  -1.787
    1LIG    C23   31  -1.222   0.298  -1.672
    1LIG    C24   32  -1.229   0.158  -1.681
    1LIG    C25   33  -1.128   0.080  -1.623
    1LIG     N4   34  -1.027   0.134  -1.549
    1LIG    C26   35  -1.020   0.268  -1.544
    1LIG    HN3   36  -0.960   0.075  -1.500
    1LIG    C27   37  -1.109   0.351  -1.609
    1LIG    C28   38  -1.124  -0.069  -1.648
    1LIG     F2   39  -1.023  -0.132  -1.582
    1LIG     F3   40  -1.238  -0.132  -1.608
    1LIG     H3   41  -1.995   0.218  -0.733
    1LIG     H4   42  -1.895   0.075  -0.738
    1LIG     H5   43  -2.025   0.094  -0.854
    1LIG     H6   44  -1.755   0.252  -1.241
    1LIG     H7   45  -1.518   0.562  -1.275
    1LIG     H8   46  -1.411   0.412  -1.243
    1LIG     H9   47  -1.580   0.445  -0.916
    1LIG    H10   48  -1.387   0.366  -1.458
    1LIG    H11   49  -1.597   0.364  -1.821
    1LIG    H12   50  -1.804   0.332  -1.698
    1LIG    H13   51  -1.805   0.336  -1.457
    1LIG    H14   52  -1.409   0.162  -1.900
    1LIG    H15   53  -1.262   0.682  -1.843
    1LIG    H16   54  -1.410   0.397  -2.251
    1LIG    H17   55  -1.437   0.182  -2.141
    1LIG    H18   56  -1.307   0.113  -1.731
    1LIG    H19   57  -1.200   0.137  -1.568
    1LIG    H20   58  -0.944   0.311  -1.489
    1LIG    H21   59  -1.093   0.453  -1.610
    1LIG    H22   60  -1.110  -0.076  -1.753
   0.00000   0.00000   0.00000
