Gravel Rubs Often Many Awfully Cauterized Sores
   51
    1LIG     O1    1  -1.340   0.792  -1.596
    1LIG     C1    2  -1.324   0.661  -1.557
    1LIG     C2    3  -1.393   0.555  -1.615
    1LIG     C3    4  -1.338   0.426  -1.594
    1LIG     C4    5  -1.245   0.396  -1.492
    1LIG     C5    6  -1.191   0.506  -1.424
    1LIG     C6    7  -1.226   0.637  -1.461
    1LIG     C7    8  -1.513   0.576  -1.707
    1LIG     N1    9  -1.651   0.608  -1.656
    1LIG    HN3   10  -1.679   0.694  -1.608
    1LIG     C8   11  -1.725   0.507  -1.683
    1LIG     N2   12  -1.659   0.393  -1.706
    1LIG     C9   13  -1.641   0.326  -1.577
    1LIG    C10   14  -1.549   0.443  -1.776
    1LIG     O2   15  -1.502   0.398  -1.879
    1LIG    C11   16  -1.481   0.707  -1.780
    1LIG    C12   17  -1.462   0.819  -1.670
    1LIG    C13   18  -1.450   0.956  -1.738
    1LIG    C14   19  -1.570   0.836  -1.559
    1LIG     N3   20  -1.860   0.504  -1.680
    1LIG     H1   21  -1.899   0.517  -1.587
    1LIG     H2   22  -1.898   0.422  -1.726
    1LIG    C15   23  -1.219   0.255  -1.457
    1LIG     N4   24  -1.193   0.173  -1.563
    1LIG    C16   25  -1.175   0.041  -1.540
    1LIG    HN4   26  -1.188   0.210  -1.658
    1LIG    C17   27  -1.182  -0.016  -1.414
    1LIG    C18   28  -1.208   0.067  -1.306
    1LIG    C19   29  -1.226   0.204  -1.327
    1LIG     HC   30  -1.368   0.346  -1.660
    1LIG    HC1   31  -1.123   0.490  -1.343
    1LIG    HC2   32  -1.175   0.720  -1.414
    1LIG    HN2   33  -1.627   0.567  -1.566
    1LIG    HC3   34  -1.725   0.532  -1.789
    1LIG    HC4   35  -1.587   0.233  -1.592
    1LIG    HC5   36  -1.738   0.306  -1.533
    1LIG    HC6   37  -1.583   0.391  -1.510
    1LIG    HC7   38  -1.390   0.696  -1.838
    1LIG    HC8   39  -1.564   0.734  -1.846
    1LIG    HC9   40  -1.376   0.951  -1.818
    1LIG   HC10   41  -1.419   1.031  -1.665
    1LIG   HC11   42  -1.546   0.984  -1.781
    1LIG   HC12   43  -1.543   0.920  -1.495
    1LIG   HC13   44  -1.667   0.854  -1.605
    1LIG   HC14   45  -1.574   0.745  -1.498
    1LIG    HN1   46  -1.891   0.583  -1.734
    1LIG   HC15   47  -1.153  -0.023  -1.624
    1LIG   HC16   48  -1.169  -0.123  -1.401
    1LIG   HC17   49  -1.214   0.026  -1.207
    1LIG   HC18   50  -1.245   0.270  -1.244
    1LIG    H26   51  -1.113   0.275  -1.445
   0.00000   0.00000   0.00000
