; Created by cgenff_charmm2gmx.py

[ moleculetype ]
; Name			   nrexcl
LIG				 3

[ atoms ]
;	 nr		  type	resnr residue  atom   cgnr	   charge		mass  typeB    chargeB		massB
; residue	 1 LIG rtp LIG q	qsum
     1      CG311      1    LIG     C1      1     -0.154     12.011   ;
     2      CG321      1    LIG     C2      2      0.180     12.011   ;
     3      SG3O2      1    LIG      S      3      0.113     32.060   ;
     4      OG2P1      1    LIG     O1      4     -0.300     15.999   ;
     5      OG2P1      1    LIG     O2      5     -0.300     15.999   ;
     6      CG321      1    LIG     C3      6      0.234     12.011   ;
     7      CG314      1    LIG     C4      7     -0.025     12.011   ;
     8      CG311      1    LIG     C5      8      0.099     12.011   ;
     9      CG321      1    LIG     C6      9     -0.091     12.011   ;
    10     CG2R61      1    LIG     C7     10     -0.011     12.011   ;
    11     CG2R61      1    LIG     C8     11     -0.097     12.011   ;
    12     CG2R61      1    LIG     C9     12     -0.052     12.011   ;
    13      BRGR1      1    LIG     BR     13     -0.146     79.904   ;
    14     CG2R61      1    LIG    C10     14      0.180     12.011   ;
    15     CG2R61      1    LIG    C11     15     -0.110     12.011   ;
    16     CG2R61      1    LIG    C12     16     -0.117     12.011   ;
    17      OG311      1    LIG     O3     17     -0.530     15.999   ;
    18       HGP1      1    LIG     H1     18      0.421      1.008   ;
    19      OG311      1    LIG     O4     19     -0.595     15.999   ;
    20       HGP1      1    LIG     H2     20      0.422      1.008   ;
    21      NG3P3      1    LIG      N     21     -0.293     14.007   ;
    22       HGP2      1    LIG     H3     22      0.306      1.008   ;
    23       HGP2      1    LIG     H4     23      0.306      1.008   ;
    24       HGP2      1    LIG     H5     24      0.306      1.008   ;
    25       HGA1      1    LIG     H6     25      0.090      1.008   ;
    26       HGA2      1    LIG     H7     26      0.090      1.008   ;
    27       HGA2      1    LIG     H8     27      0.090      1.008   ;
    28       HGA2      1    LIG     H9     28      0.090      1.008   ;
    29       HGA2      1    LIG    H10     29      0.090      1.008   ;
    30       HGA1      1    LIG    H11     30      0.109      1.008   ;
    31       HGA1      1    LIG    H12     31      0.090      1.008   ;
    32       HGA2      1    LIG    H13     32      0.090      1.008   ;
    33       HGA2      1    LIG    H14     33      0.090      1.008   ;
    34      HGR62      1    LIG    H15     34      0.143      1.008   ;
    35      HGR61      1    LIG    H16     35      0.116      1.008   ;
    36      HGR61      1    LIG    H17     36      0.116      1.008   ;
    37        LPH      1    LIG    LP1     37      0.050      0.000   ;

[ bonds ]
;	ai	  aj funct			  c0			c1			  c2			c3
    1     9	 1 ;       CG311      CG321
    1     2	 1 ;       CG311      CG321
    1     8	 1 ;       CG311      CG311
    1    25	 1 ;       CG311       HGA1
    2     3	 1 ;       CG321      SG3O2
    2    26	 1 ;       CG321       HGA2
    2    27	 1 ;       CG321       HGA2
    3     5	 1 ;       SG3O2      OG2P1
    3     4	 1 ;       SG3O2      OG2P1
    3     6	 1 ;       SG3O2      CG321
    6     7	 1 ;       CG321      CG314
    6    28	 1 ;       CG321       HGA2
    6    29	 1 ;       CG321       HGA2
    7     8	 1 ;       CG314      CG311
    7    21	 1 ;       CG314      NG3P3
    7    30	 1 ;       CG314       HGA1
    8    19	 1 ;       CG311      OG311
    8    31	 1 ;       CG311       HGA1
    9    10	 1 ;       CG321     CG2R61
    9    32	 1 ;       CG321       HGA2
    9    33	 1 ;       CG321       HGA2
   10    11	 1 ;      CG2R61     CG2R61
   10    16	 1 ;      CG2R61     CG2R61
   11    12	 1 ;      CG2R61     CG2R61
   11    34	 1 ;      CG2R61      HGR62
   12    13	 1 ;      CG2R61      BRGR1
   12    14	 1 ;      CG2R61     CG2R61
   14    17	 1 ;      CG2R61      OG311
   14    15	 1 ;      CG2R61     CG2R61
   15    16	 1 ;      CG2R61     CG2R61
   15    35	 1 ;      CG2R61      HGR61
   16    36	 1 ;      CG2R61      HGR61
   17    18	 1 ;       OG311       HGP1
   19    20	 1 ;       OG311       HGP1
   21    22	 1 ;       NG3P3       HGP2
   21    24	 1 ;       NG3P3       HGP2
   21    23	 1 ;       NG3P3       HGP2

[ pairs ]
;	ai	  aj funct			  c0			c1			  c2			c3
    1     5	 1
    1     4	 1
    1     6	 1
    1    21	 1
    1    30	 1
    1    20	 1
    1    11	 1
    1    16	 1
    2    10	 1
    2    32	 1
    2    33	 1
    2    19	 1
    2     7	 1
    2    31	 1
    2    28	 1
    2    29	 1
    3     9	 1
    3     8	 1
    3    25	 1
    3    21	 1
    3    30	 1
    4    26	 1
    4    27	 1
    4     7	 1
    4    28	 1
    4    29	 1
    5    26	 1
    5    27	 1
    5     7	 1
    5    28	 1
    5    29	 1
    6    26	 1
    6    27	 1
    6    19	 1
    6    31	 1
    6    22	 1
    6    24	 1
    6    23	 1
    7     9	 1
    7    25	 1
    7    20	 1
    8    10	 1
    8    32	 1
    8    33	 1
    8    26	 1
    8    27	 1
    8    28	 1
    8    29	 1
    8    22	 1
    8    24	 1
    8    23	 1
    9    26	 1
    9    27	 1
    9    19	 1
    9    31	 1
    9    12	 1
    9    34	 1
    9    15	 1
    9    36	 1
   10    25	 1
   10    13	 1
   37    10	 1
   10    14	 1
   10    35	 1
   11    32	 1
   11    33	 1
   11    15	 1
   11    36	 1
   11    17	 1
   12    16	 1
   12    18	 1
   12    35	 1
   13    34	 1
   37    34	 1
   13    17	 1
   37    17	 1
   13    15	 1
   37    15	 1
   14    34	 1
   14    36	 1
   15    18	 1
   16    32	 1
   16    33	 1
   16    34	 1
   16    17	 1
   17    35	 1
   19    25	 1
   19    21	 1
   19    30	 1
   20    31	 1
   21    28	 1
   21    29	 1
   21    31	 1
   22    30	 1
   23    30	 1
   24    30	 1
   25    32	 1
   25    33	 1
   25    26	 1
   25    27	 1
   25    31	 1
   28    30	 1
   29    30	 1
   30    31	 1
   35    36	 1

[ angles ]
;	ai	  aj	ak funct			c0			  c1			c2			  c3
    9     1     2	5 ;      CG321      CG311      CG321
    9     1     8	5 ;      CG321      CG311      CG311
    9     1    25	5 ;      CG321      CG311       HGA1
    2     1     8	5 ;      CG321      CG311      CG311
    2     1    25	5 ;      CG321      CG311       HGA1
    8     1    25	5 ;      CG311      CG311       HGA1
    1     2     3	5 ;      CG311      CG321      SG3O2
    1     2    26	5 ;      CG311      CG321       HGA2
    1     2    27	5 ;      CG311      CG321       HGA2
    3     2    26	5 ;      SG3O2      CG321       HGA2
    3     2    27	5 ;      SG3O2      CG321       HGA2
   26     2    27	5 ;       HGA2      CG321       HGA2
    2     3     5	5 ;      CG321      SG3O2      OG2P1
    2     3     4	5 ;      CG321      SG3O2      OG2P1
    2     3     6	5 ;      CG321      SG3O2      CG321
    5     3     4	5 ;      OG2P1      SG3O2      OG2P1
    5     3     6	5 ;      OG2P1      SG3O2      CG321
    4     3     6	5 ;      OG2P1      SG3O2      CG321
    3     6     7	5 ;      SG3O2      CG321      CG314
    3     6    28	5 ;      SG3O2      CG321       HGA2
    3     6    29	5 ;      SG3O2      CG321       HGA2
    7     6    28	5 ;      CG314      CG321       HGA2
    7     6    29	5 ;      CG314      CG321       HGA2
   28     6    29	5 ;       HGA2      CG321       HGA2
    8     7     6	5 ;      CG311      CG314      CG321
    8     7    21	5 ;      CG311      CG314      NG3P3
    8     7    30	5 ;      CG311      CG314       HGA1
    6     7    21	5 ;      CG321      CG314      NG3P3
    6     7    30	5 ;      CG321      CG314       HGA1
   21     7    30	5 ;      NG3P3      CG314       HGA1
    1     8    19	5 ;      CG311      CG311      OG311
    1     8     7	5 ;      CG311      CG311      CG314
    1     8    31	5 ;      CG311      CG311       HGA1
   19     8     7	5 ;      OG311      CG311      CG314
   19     8    31	5 ;      OG311      CG311       HGA1
    7     8    31	5 ;      CG314      CG311       HGA1
   10     9     1	5 ;     CG2R61      CG321      CG311
   10     9    32	5 ;     CG2R61      CG321       HGA2
   10     9    33	5 ;     CG2R61      CG321       HGA2
    1     9    32	5 ;      CG311      CG321       HGA2
    1     9    33	5 ;      CG311      CG321       HGA2
   32     9    33	5 ;       HGA2      CG321       HGA2
   11    10     9	5 ;     CG2R61     CG2R61      CG321
   11    10    16	5 ;     CG2R61     CG2R61     CG2R61
    9    10    16	5 ;      CG321     CG2R61     CG2R61
   12    11    10	5 ;     CG2R61     CG2R61     CG2R61
   12    11    34	5 ;     CG2R61     CG2R61      HGR62
   10    11    34	5 ;     CG2R61     CG2R61      HGR62
   13    12    11	5 ;      BRGR1     CG2R61     CG2R61
   13    12    14	5 ;      BRGR1     CG2R61     CG2R61
   11    12    14	5 ;     CG2R61     CG2R61     CG2R61
   12    14    17	5 ;     CG2R61     CG2R61      OG311
   12    14    15	5 ;     CG2R61     CG2R61     CG2R61
   17    14    15	5 ;      OG311     CG2R61     CG2R61
   14    15    16	5 ;     CG2R61     CG2R61     CG2R61
   14    15    35	5 ;     CG2R61     CG2R61      HGR61
   16    15    35	5 ;     CG2R61     CG2R61      HGR61
   10    16    15	5 ;     CG2R61     CG2R61     CG2R61
   10    16    36	5 ;     CG2R61     CG2R61      HGR61
   15    16    36	5 ;     CG2R61     CG2R61      HGR61
   14    17    18	5 ;     CG2R61      OG311       HGP1
    8    19    20	5 ;      CG311      OG311       HGP1
    7    21    22	5 ;      CG314      NG3P3       HGP2
    7    21    24	5 ;      CG314      NG3P3       HGP2
    7    21    23	5 ;      CG314      NG3P3       HGP2
   22    21    24	5 ;       HGP2      NG3P3       HGP2
   22    21    23	5 ;       HGP2      NG3P3       HGP2
   24    21    23	5 ;       HGP2      NG3P3       HGP2

[ dihedrals ]
;	ai	  aj	ak	  al funct			  c0			c1			  c2			c3			  c4			c5
    2     1     9    10	 9 ;      CG321      CG311      CG321     CG2R61
    2     1     9    32	 9 ;      CG321      CG311      CG321       HGA2
    2     1     9    33	 9 ;      CG321      CG311      CG321       HGA2
    8     1     9    10	 9 ;      CG311      CG311      CG321     CG2R61
    8     1     9    32	 9 ;      CG311      CG311      CG321       HGA2
    8     1     9    33	 9 ;      CG311      CG311      CG321       HGA2
   25     1     9    10	 9 ;       HGA1      CG311      CG321     CG2R61
   25     1     9    32	 9 ;       HGA1      CG311      CG321       HGA2
   25     1     9    33	 9 ;       HGA1      CG311      CG321       HGA2
    9     1     2     3	 9 ;      CG321      CG311      CG321      SG3O2
    9     1     2    26	 9 ;      CG321      CG311      CG321       HGA2
    9     1     2    27	 9 ;      CG321      CG311      CG321       HGA2
    8     1     2     3	 9 ;      CG311      CG311      CG321      SG3O2
    8     1     2    26	 9 ;      CG311      CG311      CG321       HGA2
    8     1     2    27	 9 ;      CG311      CG311      CG321       HGA2
   25     1     2     3	 9 ;       HGA1      CG311      CG321      SG3O2
   25     1     2    26	 9 ;       HGA1      CG311      CG321       HGA2
   25     1     2    27	 9 ;       HGA1      CG311      CG321       HGA2
    9     1     8    19	 9 ;      CG321      CG311      CG311      OG311
    9     1     8     7	 9 ;      CG321      CG311      CG311      CG314
    9     1     8    31	 9 ;      CG321      CG311      CG311       HGA1
    2     1     8    19	 9 ;      CG321      CG311      CG311      OG311
    2     1     8     7	 9 ;      CG321      CG311      CG311      CG314
    2     1     8    31	 9 ;      CG321      CG311      CG311       HGA1
   25     1     8    19	 9 ;       HGA1      CG311      CG311      OG311
   25     1     8     7	 9 ;       HGA1      CG311      CG311      CG314
   25     1     8    31	 9 ;       HGA1      CG311      CG311       HGA1
    1     2     3     5	 9 ;      CG311      CG321      SG3O2      OG2P1
    1     2     3     4	 9 ;      CG311      CG321      SG3O2      OG2P1
    1     2     3     6	 9 ;      CG311      CG321      SG3O2      CG321
   26     2     3     5	 9 ;       HGA2      CG321      SG3O2      OG2P1
   26     2     3     4	 9 ;       HGA2      CG321      SG3O2      OG2P1
   26     2     3     6	 9 ;       HGA2      CG321      SG3O2      CG321
   27     2     3     5	 9 ;       HGA2      CG321      SG3O2      OG2P1
   27     2     3     4	 9 ;       HGA2      CG321      SG3O2      OG2P1
   27     2     3     6	 9 ;       HGA2      CG321      SG3O2      CG321
    2     3     6     7	 9 ;      CG321      SG3O2      CG321      CG314
    2     3     6    28	 9 ;      CG321      SG3O2      CG321       HGA2
    2     3     6    29	 9 ;      CG321      SG3O2      CG321       HGA2
    5     3     6     7	 9 ;      OG2P1      SG3O2      CG321      CG314
    5     3     6    28	 9 ;      OG2P1      SG3O2      CG321       HGA2
    5     3     6    29	 9 ;      OG2P1      SG3O2      CG321       HGA2
    4     3     6     7	 9 ;      OG2P1      SG3O2      CG321      CG314
    4     3     6    28	 9 ;      OG2P1      SG3O2      CG321       HGA2
    4     3     6    29	 9 ;      OG2P1      SG3O2      CG321       HGA2
    3     6     7     8	 9 ;      SG3O2      CG321      CG314      CG311
    3     6     7    21	 9 ;      SG3O2      CG321      CG314      NG3P3
    3     6     7    30	 9 ;      SG3O2      CG321      CG314       HGA1
   28     6     7     8	 9 ;       HGA2      CG321      CG314      CG311
   28     6     7    21	 9 ;       HGA2      CG321      CG314      NG3P3
   28     6     7    30	 9 ;       HGA2      CG321      CG314       HGA1
   29     6     7     8	 9 ;       HGA2      CG321      CG314      CG311
   29     6     7    21	 9 ;       HGA2      CG321      CG314      NG3P3
   29     6     7    30	 9 ;       HGA2      CG321      CG314       HGA1
    6     7     8     1	 9 ;      CG321      CG314      CG311      CG311
    6     7     8    19	 9 ;      CG321      CG314      CG311      OG311
    6     7     8    31	 9 ;      CG321      CG314      CG311       HGA1
   21     7     8     1	 9 ;      NG3P3      CG314      CG311      CG311
   21     7     8    19	 9 ;      NG3P3      CG314      CG311      OG311
   21     7     8    31	 9 ;      NG3P3      CG314      CG311       HGA1
   30     7     8     1	 9 ;       HGA1      CG314      CG311      CG311
   30     7     8    19	 9 ;       HGA1      CG314      CG311      OG311
   30     7     8    31	 9 ;       HGA1      CG314      CG311       HGA1
    8     7    21    22	 9 ;      CG311      CG314      NG3P3       HGP2
    8     7    21    24	 9 ;      CG311      CG314      NG3P3       HGP2
    8     7    21    23	 9 ;      CG311      CG314      NG3P3       HGP2
    6     7    21    22	 9 ;      CG321      CG314      NG3P3       HGP2
    6     7    21    24	 9 ;      CG321      CG314      NG3P3       HGP2
    6     7    21    23	 9 ;      CG321      CG314      NG3P3       HGP2
   30     7    21    22	 9 ;       HGA1      CG314      NG3P3       HGP2
   30     7    21    24	 9 ;       HGA1      CG314      NG3P3       HGP2
   30     7    21    23	 9 ;       HGA1      CG314      NG3P3       HGP2
    1     8    19    20	 9 ;      CG311      CG311      OG311       HGP1
    7     8    19    20	 9 ;      CG314      CG311      OG311       HGP1
   31     8    19    20	 9 ;       HGA1      CG311      OG311       HGP1
    1     9    10    11	 9 ;      CG311      CG321     CG2R61     CG2R61
    1     9    10    16	 9 ;      CG311      CG321     CG2R61     CG2R61
   32     9    10    11	 9 ;       HGA2      CG321     CG2R61     CG2R61
   32     9    10    16	 9 ;       HGA2      CG321     CG2R61     CG2R61
   33     9    10    11	 9 ;       HGA2      CG321     CG2R61     CG2R61
   33     9    10    16	 9 ;       HGA2      CG321     CG2R61     CG2R61
    9    10    11    12	 9 ;      CG321     CG2R61     CG2R61     CG2R61
    9    10    11    34	 9 ;      CG321     CG2R61     CG2R61      HGR62
   16    10    11    12	 9 ;     CG2R61     CG2R61     CG2R61     CG2R61
   16    10    11    34	 9 ;     CG2R61     CG2R61     CG2R61      HGR62
   11    10    16    15	 9 ;     CG2R61     CG2R61     CG2R61     CG2R61
   11    10    16    36	 9 ;     CG2R61     CG2R61     CG2R61      HGR61
    9    10    16    15	 9 ;      CG321     CG2R61     CG2R61     CG2R61
    9    10    16    36	 9 ;      CG321     CG2R61     CG2R61      HGR61
   10    11    12    13	 9 ;     CG2R61     CG2R61     CG2R61      BRGR1
   10    11    12    14	 9 ;     CG2R61     CG2R61     CG2R61     CG2R61
   34    11    12    13	 9 ;      HGR62     CG2R61     CG2R61      BRGR1
   34    11    12    14	 9 ;      HGR62     CG2R61     CG2R61     CG2R61
   13    12    14    17	 9 ;      BRGR1     CG2R61     CG2R61      OG311
   13    12    14    15	 9 ;      BRGR1     CG2R61     CG2R61     CG2R61
   11    12    14    17	 9 ;     CG2R61     CG2R61     CG2R61      OG311
   11    12    14    15	 9 ;     CG2R61     CG2R61     CG2R61     CG2R61
   12    14    17    18	 9 ;     CG2R61     CG2R61      OG311       HGP1
   15    14    17    18	 9 ;     CG2R61     CG2R61      OG311       HGP1
   12    14    15    16	 9 ;     CG2R61     CG2R61     CG2R61     CG2R61
   12    14    15    35	 9 ;     CG2R61     CG2R61     CG2R61      HGR61
   17    14    15    16	 9 ;      OG311     CG2R61     CG2R61     CG2R61
   17    14    15    35	 9 ;      OG311     CG2R61     CG2R61      HGR61
   14    15    16    10	 9 ;     CG2R61     CG2R61     CG2R61     CG2R61
   14    15    16    36	 9 ;     CG2R61     CG2R61     CG2R61      HGR61
   35    15    16    10	 9 ;      HGR61     CG2R61     CG2R61     CG2R61
   35    15    16    36	 9 ;      HGR61     CG2R61     CG2R61      HGR61

[ virtual_sites2 ]
; Site   from				funct a
   37    13    12     2   -0.189

[ exclusions ]
;	ai	  aj
   13    37
   37    12
   37    11
   37    14
   37    10
   37    34
   37    17
   37    15

