Good gRace! Old Maple Actually Chews Slate
   37
    1LIG     C1    1  -1.505   0.503  -1.480
    1LIG     C2    2  -1.636   0.582  -1.494
    1LIG      S    3  -1.645   0.708  -1.372
    1LIG     O1    4  -1.522   0.785  -1.374
    1LIG     O2    5  -1.775   0.771  -1.378
    1LIG     C3    6  -1.640   0.611  -1.224
    1LIG     C4    7  -1.512   0.528  -1.222
    1LIG     C5    8  -1.499   0.431  -1.343
    1LIG     C6    9  -1.473   0.415  -1.605
    1LIG     C7   10  -1.338   0.349  -1.607
    1LIG     C8   11  -1.324   0.216  -1.646
    1LIG     C9   12  -1.204   0.147  -1.624
    1LIG     BR   13  -1.203  -0.041  -1.650
    1LIG    C10   14  -1.093   0.216  -1.576
    1LIG    C11   15  -1.102   0.354  -1.551
    1LIG    C12   16  -1.224   0.419  -1.565
    1LIG     O3   17  -0.977   0.149  -1.552
    1LIG     H1   18  -0.928   0.191  -1.479
    1LIG     O4   19  -1.601   0.333  -1.321
    1LIG     H2   20  -1.565   0.252  -1.282
    1LIG      N   21  -1.517   0.442  -1.096
    1LIG     H3   22  -1.462   0.356  -1.105
    1LIG     H4   23  -1.485   0.492  -1.012
    1LIG     H5   24  -1.615   0.418  -1.076
    1LIG     H6   25  -1.424   0.573  -1.479
    1LIG     H7   26  -1.718   0.515  -1.482
    1LIG     H8   27  -1.639   0.627  -1.591
    1LIG     H9   28  -1.725   0.546  -1.222
    1LIG    H10   29  -1.643   0.676  -1.139
    1LIG    H11   30  -1.429   0.596  -1.225
    1LIG    H12   31  -1.403   0.384  -1.349
    1LIG    H13   32  -1.547   0.338  -1.610
    1LIG    H14   33  -1.474   0.482  -1.688
    1LIG    H15   34  -1.403   0.167  -1.691
    1LIG    H16   35  -1.018   0.406  -1.522
    1LIG    H17   36  -1.230   0.520  -1.545
    1LIG    LP1   37  -1.201  -0.228  -1.676
   0.00000   0.00000   0.00000
