; Created by cgenff_charmm2gmx.py

[ moleculetype ]
; Name			   nrexcl
LIG				 3

[ atoms ]
;	 nr		  type	resnr residue  atom   cgnr	   charge		mass  typeB    chargeB		massB
; residue	 1 LIG rtp LIG q	qsum
     1     CG3C50      1    LIG     C1      1      1.875     12.011   ;
     2      NG3P2      1    LIG     N1      2     -0.573     14.007   ;
     3       HGP2      1    LIG    HN3      3      0.364      1.008   ;
     4     CG3C53      1    LIG     C2      4      0.784     12.011   ;
     5     NG2R53      1    LIG     N2      5     -0.209     14.007   ;
     6      CG331      1    LIG     C3      6     -0.169     12.011   ;
     7     CG2R53      1    LIG     C4      7     -0.361     12.011   ;
     8      OG2D1      1    LIG     O1      8     -0.296     15.999   ;
     9     CG2R57      1    LIG     C5      9     -0.638     12.011   ;
    10     CG2R51      1    LIG     C6     10     -0.230     12.011   ;
    11     SG2R50      1    LIG      S     11      0.108     32.060   ;
    12     CG2R51      1    LIG     C7     12     -0.455     12.011   ;
    13     CG2R51      1    LIG     C8     13     -0.028     12.011   ;
    14      CG2O5      1    LIG     C9     14      0.550     12.011   ;
    15      OG2D3      1    LIG     O2     15     -0.478     15.999   ;
    16      CG321      1    LIG    C10     16     -0.225     12.011   ;
    17      CG331      1    LIG    C11     17     -0.256     12.011   ;
    18     CG2R61      1    LIG    C12     18     -0.018     12.011   ;
    19     CG2R61      1    LIG    C13     19     -0.133     12.011   ;
    20     CG2R61      1    LIG    C14     20     -0.137     12.011   ;
    21     CG2R61      1    LIG    C15     21     -0.117     12.011   ;
    22     CG2R61      1    LIG    C16     22     -0.102     12.011   ;
    23     CG2R61      1    LIG    C17     23     -0.132     12.011   ;
    24     CG2DC1      1    LIG    C18     24      0.053     12.011   ;
    25     CG2DC2      1    LIG    C19     25     -0.246     12.011   ;
    26     CG2DC2      1    LIG    C20     26     -0.181     12.011   ;
    27      CG321      1    LIG    C21     27     -0.037     12.011   ;
    28      NG311      1    LIG     N3     28     -0.466     14.007   ;
    29     CG2D1O      1    LIG    C22     29      0.321     12.011   ;
    30     HGPAM1      1    LIG    HN4     30      0.324      1.008   ;
    31       FGA1      1    LIG      F     31     -0.107     18.998   ;
    32      NG3P3      1    LIG     N4     32     -0.267     14.007   ;
    33       HGP2      1    LIG     H1     33      0.301      1.008   ;
    34       HGP2      1    LIG     H2     34      0.301      1.008   ;
    35       HGP2      1    LIG    HN2     35      0.364      1.008   ;
    36       HGA1      1    LIG     HC     36      0.073      1.008   ;
    37       HGA3      1    LIG    HC1     37      0.090      1.008   ;
    38       HGA3      1    LIG    HC2     38      0.090      1.008   ;
    39       HGA3      1    LIG    HC3     39      0.090      1.008   ;
    40      HGR52      1    LIG    HC4     40      0.191      1.008   ;
    41      HGR51      1    LIG    HC5     41      0.284      1.008   ;
    42       HGA2      1    LIG    HC6     42      0.090      1.008   ;
    43       HGA2      1    LIG    HC7     43      0.090      1.008   ;
    44       HGA3      1    LIG    HC8     44      0.090      1.008   ;
    45       HGA3      1    LIG    HC9     45      0.090      1.008   ;
    46       HGA3      1    LIG   HC10     46      0.090      1.008   ;
    47      HGR61      1    LIG   HC11     47      0.116      1.008   ;
    48      HGR61      1    LIG   HC12     48      0.116      1.008   ;
    49      HGR61      1    LIG   HC13     49      0.116      1.008   ;
    50      HGR61      1    LIG   HC14     50      0.116      1.008   ;
    51       HGA4      1    LIG   HC15     51      0.153      1.008   ;
    52       HGA4      1    LIG   HC16     52      0.150      1.008   ;
    53       HGA2      1    LIG   HC17     53      0.090      1.008   ;
    54       HGP2      1    LIG    HN1     54      0.301      1.008   ;
    55       HGA2      1    LIG    H25     55      0.090      1.008   ;

[ bonds ]
;	ai	  aj funct			  c0			c1			  c2			c3
    1     7	 1 ;      CG3C50     CG2R53
    1     2	 1 ;      CG3C50      NG3P2
    1    18	 1 ;      CG3C50     CG2R61
    1     9	 1 ;      CG3C50     CG2R57
    2     4	 1 ;       NG3P2     CG3C53
    2     3	 1 ;       NG3P2       HGP2
    2    35	 1 ;       NG3P2       HGP2
    4     5	 1 ;      CG3C53     NG2R53
    4    32	 1 ;      CG3C53      NG3P3
    4    36	 1 ;      CG3C53       HGA1
    5     6	 1 ;      NG2R53      CG331
    5     7	 1 ;      NG2R53     CG2R53
    6    37	 1 ;       CG331       HGA3
    6    38	 1 ;       CG331       HGA3
    6    39	 1 ;       CG331       HGA3
    7     8	 1 ;      CG2R53      OG2D1
    9    13	 1 ;      CG2R57     CG2R51
    9    10	 1 ;      CG2R57     CG2R51
   10    11	 1 ;      CG2R51     SG2R50
   10    40	 1 ;      CG2R51      HGR52
   11    12	 1 ;      SG2R50     CG2R51
   12    13	 1 ;      CG2R51     CG2R51
   12    14	 1 ;      CG2R51      CG2O5
   13    41	 1 ;      CG2R51      HGR51
   14    15	 1 ;       CG2O5      OG2D3
   14    16	 1 ;       CG2O5      CG321
   16    17	 1 ;       CG321      CG331
   16    42	 1 ;       CG321       HGA2
   16    43	 1 ;       CG321       HGA2
   17    44	 1 ;       CG331       HGA3
   17    45	 1 ;       CG331       HGA3
   17    46	 1 ;       CG331       HGA3
   18    23	 1 ;      CG2R61     CG2R61
   18    19	 1 ;      CG2R61     CG2R61
   19    20	 1 ;      CG2R61     CG2R61
   19    47	 1 ;      CG2R61      HGR61
   20    21	 1 ;      CG2R61     CG2R61
   20    24	 1 ;      CG2R61     CG2DC1
   21    22	 1 ;      CG2R61     CG2R61
   21    48	 1 ;      CG2R61      HGR61
   22    23	 1 ;      CG2R61     CG2R61
   22    49	 1 ;      CG2R61      HGR61
   23    50	 1 ;      CG2R61      HGR61
   24    29	 1 ;      CG2DC1     CG2D1O
   24    25	 1 ;      CG2DC1     CG2DC2
   25    26	 1 ;      CG2DC2     CG2DC2
   25    51	 1 ;      CG2DC2       HGA4
   26    27	 1 ;      CG2DC2      CG321
   26    52	 1 ;      CG2DC2       HGA4
   27    28	 1 ;       CG321      NG311
   27    53	 1 ;       CG321       HGA2
   27    55	 1 ;       CG321       HGA2
   28    29	 1 ;       NG311     CG2D1O
   28    30	 1 ;       NG311     HGPAM1
   29    31	 1 ;      CG2D1O       FGA1
   32    34	 1 ;       NG3P3       HGP2
   32    33	 1 ;       NG3P3       HGP2
   32    54	 1 ;       NG3P3       HGP2

[ pairs ]
;	ai	  aj funct			  c0			c1			  c2			c3
    1    32	 1
    1    36	 1
    1     6	 1
    1    12	 1
    1    41	 1
    1    11	 1
    1    40	 1
    1    22	 1
    1    50	 1
    1    20	 1
    1    47	 1
    2     8	 1
    2    23	 1
    2    19	 1
    2    13	 1
    2    10	 1
    2     6	 1
    2    34	 1
    2    33	 1
    2    54	 1
    3     7	 1
    3    18	 1
    3     9	 1
    3     5	 1
    3    32	 1
    3    36	 1
    4    18	 1
    4     9	 1
    4    37	 1
    4    38	 1
    4    39	 1
    4     8	 1
    5    18	 1
    5     9	 1
    5    35	 1
    5    34	 1
    5    33	 1
    5    54	 1
    6    32	 1
    6    36	 1
    6     8	 1
    7    35	 1
    7    23	 1
    7    19	 1
    7    13	 1
    7    10	 1
    7    32	 1
    7    36	 1
    7    37	 1
    7    38	 1
    7    39	 1
    8    18	 1
    8     9	 1
    9    35	 1
    9    23	 1
    9    19	 1
    9    14	 1
   10    18	 1
   10    41	 1
   10    14	 1
   11    41	 1
   11    15	 1
   11    16	 1
   12    40	 1
   12    17	 1
   12    42	 1
   12    43	 1
   13    18	 1
   13    40	 1
   13    15	 1
   13    16	 1
   14    41	 1
   14    44	 1
   14    45	 1
   14    46	 1
   15    17	 1
   15    42	 1
   15    43	 1
   18    35	 1
   18    21	 1
   18    24	 1
   18    49	 1
   19    22	 1
   19    50	 1
   19    48	 1
   19    29	 1
   19    25	 1
   20    23	 1
   20    49	 1
   20    31	 1
   20    28	 1
   20    26	 1
   20    51	 1
   21    47	 1
   21    29	 1
   21    25	 1
   21    50	 1
   22    24	 1
   23    47	 1
   23    48	 1
   24    47	 1
   24    48	 1
   24    27	 1
   24    52	 1
   24    30	 1
   25    31	 1
   25    28	 1
   25    53	 1
   25    55	 1
   26    29	 1
   26    30	 1
   27    51	 1
   27    31	 1
   28    52	 1
   29    51	 1
   29    53	 1
   29    55	 1
   30    53	 1
   30    55	 1
   30    31	 1
   32    35	 1
   33    36	 1
   34    36	 1
   35    36	 1
   36    54	 1
   42    44	 1
   42    45	 1
   42    46	 1
   43    44	 1
   43    45	 1
   43    46	 1
   48    49	 1
   49    50	 1
   51    52	 1
   52    53	 1
   52    55	 1

[ angles ]
;	ai	  aj	ak funct			c0			  c1			c2			  c3
    7     1     2	5 ;     CG2R53     CG3C50      NG3P2
    7     1    18	5 ;     CG2R53     CG3C50     CG2R61
    7     1     9	5 ;     CG2R53     CG3C50     CG2R57
    2     1    18	5 ;      NG3P2     CG3C50     CG2R61
    2     1     9	5 ;      NG3P2     CG3C50     CG2R57
   18     1     9	5 ;     CG2R61     CG3C50     CG2R57
    4     2     1	5 ;     CG3C53      NG3P2     CG3C50
    4     2     3	5 ;     CG3C53      NG3P2       HGP2
    4     2    35	5 ;     CG3C53      NG3P2       HGP2
    1     2     3	5 ;     CG3C50      NG3P2       HGP2
    1     2    35	5 ;     CG3C50      NG3P2       HGP2
    3     2    35	5 ;       HGP2      NG3P2       HGP2
    5     4    32	5 ;     NG2R53     CG3C53      NG3P3
    5     4     2	5 ;     NG2R53     CG3C53      NG3P2
    5     4    36	5 ;     NG2R53     CG3C53       HGA1
   32     4     2	5 ;      NG3P3     CG3C53      NG3P2
   32     4    36	5 ;      NG3P3     CG3C53       HGA1
    2     4    36	5 ;      NG3P2     CG3C53       HGA1
    6     5     7	5 ;      CG331     NG2R53     CG2R53
    6     5     4	5 ;      CG331     NG2R53     CG3C53
    7     5     4	5 ;     CG2R53     NG2R53     CG3C53
    5     6    37	5 ;     NG2R53      CG331       HGA3
    5     6    38	5 ;     NG2R53      CG331       HGA3
    5     6    39	5 ;     NG2R53      CG331       HGA3
   37     6    38	5 ;       HGA3      CG331       HGA3
   37     6    39	5 ;       HGA3      CG331       HGA3
   38     6    39	5 ;       HGA3      CG331       HGA3
    8     7     5	5 ;      OG2D1     CG2R53     NG2R53
    8     7     1	5 ;      OG2D1     CG2R53     CG3C50
    5     7     1	5 ;     NG2R53     CG2R53     CG3C50
    1     9    13	5 ;     CG3C50     CG2R57     CG2R51
    1     9    10	5 ;     CG3C50     CG2R57     CG2R51
   13     9    10	5 ;     CG2R51     CG2R57     CG2R51
    9    10    11	5 ;     CG2R57     CG2R51     SG2R50
    9    10    40	5 ;     CG2R57     CG2R51      HGR52
   11    10    40	5 ;     SG2R50     CG2R51      HGR52
   12    11    10	5 ;     CG2R51     SG2R50     CG2R51
   13    12    14	5 ;     CG2R51     CG2R51      CG2O5
   13    12    11	5 ;     CG2R51     CG2R51     SG2R50
   14    12    11	5 ;      CG2O5     CG2R51     SG2R50
    9    13    12	5 ;     CG2R57     CG2R51     CG2R51
    9    13    41	5 ;     CG2R57     CG2R51      HGR51
   12    13    41	5 ;     CG2R51     CG2R51      HGR51
   12    14    15	5 ;     CG2R51      CG2O5      OG2D3
   12    14    16	5 ;     CG2R51      CG2O5      CG321
   15    14    16	5 ;      OG2D3      CG2O5      CG321
   17    16    14	5 ;      CG331      CG321      CG2O5
   17    16    42	5 ;      CG331      CG321       HGA2
   17    16    43	5 ;      CG331      CG321       HGA2
   14    16    42	5 ;      CG2O5      CG321       HGA2
   14    16    43	5 ;      CG2O5      CG321       HGA2
   42    16    43	5 ;       HGA2      CG321       HGA2
   16    17    44	5 ;      CG321      CG331       HGA3
   16    17    45	5 ;      CG321      CG331       HGA3
   16    17    46	5 ;      CG321      CG331       HGA3
   44    17    45	5 ;       HGA3      CG331       HGA3
   44    17    46	5 ;       HGA3      CG331       HGA3
   45    17    46	5 ;       HGA3      CG331       HGA3
   23    18     1	5 ;     CG2R61     CG2R61     CG3C50
   23    18    19	5 ;     CG2R61     CG2R61     CG2R61
    1    18    19	5 ;     CG3C50     CG2R61     CG2R61
   18    19    20	5 ;     CG2R61     CG2R61     CG2R61
   18    19    47	5 ;     CG2R61     CG2R61      HGR61
   20    19    47	5 ;     CG2R61     CG2R61      HGR61
   21    20    19	5 ;     CG2R61     CG2R61     CG2R61
   21    20    24	5 ;     CG2R61     CG2R61     CG2DC1
   19    20    24	5 ;     CG2R61     CG2R61     CG2DC1
   22    21    20	5 ;     CG2R61     CG2R61     CG2R61
   22    21    48	5 ;     CG2R61     CG2R61      HGR61
   20    21    48	5 ;     CG2R61     CG2R61      HGR61
   23    22    21	5 ;     CG2R61     CG2R61     CG2R61
   23    22    49	5 ;     CG2R61     CG2R61      HGR61
   21    22    49	5 ;     CG2R61     CG2R61      HGR61
   22    23    18	5 ;     CG2R61     CG2R61     CG2R61
   22    23    50	5 ;     CG2R61     CG2R61      HGR61
   18    23    50	5 ;     CG2R61     CG2R61      HGR61
   20    24    29	5 ;     CG2R61     CG2DC1     CG2D1O
   20    24    25	5 ;     CG2R61     CG2DC1     CG2DC2
   29    24    25	5 ;     CG2D1O     CG2DC1     CG2DC2
   24    25    26	5 ;     CG2DC1     CG2DC2     CG2DC2
   24    25    51	5 ;     CG2DC1     CG2DC2       HGA4
   26    25    51	5 ;     CG2DC2     CG2DC2       HGA4
   25    26    27	5 ;     CG2DC2     CG2DC2      CG321
   25    26    52	5 ;     CG2DC2     CG2DC2       HGA4
   27    26    52	5 ;      CG321     CG2DC2       HGA4
   28    27    26	5 ;      NG311      CG321     CG2DC2
   28    27    53	5 ;      NG311      CG321       HGA2
   28    27    55	5 ;      NG311      CG321       HGA2
   26    27    53	5 ;     CG2DC2      CG321       HGA2
   26    27    55	5 ;     CG2DC2      CG321       HGA2
   53    27    55	5 ;       HGA2      CG321       HGA2
   29    28    30	5 ;     CG2D1O      NG311     HGPAM1
   29    28    27	5 ;     CG2D1O      NG311      CG321
   30    28    27	5 ;     HGPAM1      NG311      CG321
   31    29    24	5 ;       FGA1     CG2D1O     CG2DC1
   31    29    28	5 ;       FGA1     CG2D1O      NG311
   24    29    28	5 ;     CG2DC1     CG2D1O      NG311
   34    32     4	5 ;       HGP2      NG3P3     CG3C53
   34    32    33	5 ;       HGP2      NG3P3       HGP2
   34    32    54	5 ;       HGP2      NG3P3       HGP2
    4    32    33	5 ;     CG3C53      NG3P3       HGP2
    4    32    54	5 ;     CG3C53      NG3P3       HGP2
   33    32    54	5 ;       HGP2      NG3P3       HGP2

[ dihedrals ]
;	ai	  aj	ak	  al funct			  c0			c1			  c2			c3			  c4			c5
    2     1     7     8	 9 ;      NG3P2     CG3C50     CG2R53      OG2D1
    2     1     7     5	 9 ;      NG3P2     CG3C50     CG2R53     NG2R53
   18     1     7     8	 9 ;     CG2R61     CG3C50     CG2R53      OG2D1
   18     1     7     5	 9 ;     CG2R61     CG3C50     CG2R53     NG2R53
    9     1     7     8	 9 ;     CG2R57     CG3C50     CG2R53      OG2D1
    9     1     7     5	 9 ;     CG2R57     CG3C50     CG2R53     NG2R53
    7     1     2     4	 9 ;     CG2R53     CG3C50      NG3P2     CG3C53
    7     1     2     3	 9 ;     CG2R53     CG3C50      NG3P2       HGP2
    7     1     2    35	 9 ;     CG2R53     CG3C50      NG3P2       HGP2
   18     1     2     4	 9 ;     CG2R61     CG3C50      NG3P2     CG3C53
   18     1     2     3	 9 ;     CG2R61     CG3C50      NG3P2       HGP2
   18     1     2    35	 9 ;     CG2R61     CG3C50      NG3P2       HGP2
    9     1     2     4	 9 ;     CG2R57     CG3C50      NG3P2     CG3C53
    9     1     2     3	 9 ;     CG2R57     CG3C50      NG3P2       HGP2
    9     1     2    35	 9 ;     CG2R57     CG3C50      NG3P2       HGP2
    7     1    18    23	 9 ;     CG2R53     CG3C50     CG2R61     CG2R61
    7     1    18    19	 9 ;     CG2R53     CG3C50     CG2R61     CG2R61
    2     1    18    23	 9 ;      NG3P2     CG3C50     CG2R61     CG2R61
    2     1    18    19	 9 ;      NG3P2     CG3C50     CG2R61     CG2R61
    9     1    18    23	 9 ;     CG2R57     CG3C50     CG2R61     CG2R61
    9     1    18    19	 9 ;     CG2R57     CG3C50     CG2R61     CG2R61
    7     1     9    13	 9 ;     CG2R53     CG3C50     CG2R57     CG2R51
    7     1     9    10	 9 ;     CG2R53     CG3C50     CG2R57     CG2R51
    2     1     9    13	 9 ;      NG3P2     CG3C50     CG2R57     CG2R51
    2     1     9    10	 9 ;      NG3P2     CG3C50     CG2R57     CG2R51
   18     1     9    13	 9 ;     CG2R61     CG3C50     CG2R57     CG2R51
   18     1     9    10	 9 ;     CG2R61     CG3C50     CG2R57     CG2R51
    1     2     4     5	 9 ;     CG3C50      NG3P2     CG3C53     NG2R53
    1     2     4    32	 9 ;     CG3C50      NG3P2     CG3C53      NG3P3
    1     2     4    36	 9 ;     CG3C50      NG3P2     CG3C53       HGA1
    3     2     4     5	 9 ;       HGP2      NG3P2     CG3C53     NG2R53
    3     2     4    32	 9 ;       HGP2      NG3P2     CG3C53      NG3P3
    3     2     4    36	 9 ;       HGP2      NG3P2     CG3C53       HGA1
   35     2     4     5	 9 ;       HGP2      NG3P2     CG3C53     NG2R53
   35     2     4    32	 9 ;       HGP2      NG3P2     CG3C53      NG3P3
   35     2     4    36	 9 ;       HGP2      NG3P2     CG3C53       HGA1
   32     4     5     6	 9 ;      NG3P3     CG3C53     NG2R53      CG331
   32     4     5     7	 9 ;      NG3P3     CG3C53     NG2R53     CG2R53
    2     4     5     6	 9 ;      NG3P2     CG3C53     NG2R53      CG331
    2     4     5     7	 9 ;      NG3P2     CG3C53     NG2R53     CG2R53
   36     4     5     6	 9 ;       HGA1     CG3C53     NG2R53      CG331
   36     4     5     7	 9 ;       HGA1     CG3C53     NG2R53     CG2R53
    5     4    32    34	 9 ;     NG2R53     CG3C53      NG3P3       HGP2
    5     4    32    33	 9 ;     NG2R53     CG3C53      NG3P3       HGP2
    5     4    32    54	 9 ;     NG2R53     CG3C53      NG3P3       HGP2
    2     4    32    34	 9 ;      NG3P2     CG3C53      NG3P3       HGP2
    2     4    32    33	 9 ;      NG3P2     CG3C53      NG3P3       HGP2
    2     4    32    54	 9 ;      NG3P2     CG3C53      NG3P3       HGP2
   36     4    32    34	 9 ;       HGA1     CG3C53      NG3P3       HGP2
   36     4    32    33	 9 ;       HGA1     CG3C53      NG3P3       HGP2
   36     4    32    54	 9 ;       HGA1     CG3C53      NG3P3       HGP2
    7     5     6    37	 9 ;     CG2R53     NG2R53      CG331       HGA3
    7     5     6    38	 9 ;     CG2R53     NG2R53      CG331       HGA3
    7     5     6    39	 9 ;     CG2R53     NG2R53      CG331       HGA3
    4     5     6    37	 9 ;     CG3C53     NG2R53      CG331       HGA3
    4     5     6    38	 9 ;     CG3C53     NG2R53      CG331       HGA3
    4     5     6    39	 9 ;     CG3C53     NG2R53      CG331       HGA3
    6     5     7     8	 9 ;      CG331     NG2R53     CG2R53      OG2D1
    6     5     7     1	 9 ;      CG331     NG2R53     CG2R53     CG3C50
    4     5     7     8	 9 ;     CG3C53     NG2R53     CG2R53      OG2D1
    4     5     7     1	 9 ;     CG3C53     NG2R53     CG2R53     CG3C50
    1     9    13    12	 9 ;     CG3C50     CG2R57     CG2R51     CG2R51
    1     9    13    41	 9 ;     CG3C50     CG2R57     CG2R51      HGR51
   10     9    13    12	 9 ;     CG2R51     CG2R57     CG2R51     CG2R51
   10     9    13    41	 9 ;     CG2R51     CG2R57     CG2R51      HGR51
    1     9    10    11	 9 ;     CG3C50     CG2R57     CG2R51     SG2R50
    1     9    10    40	 9 ;     CG3C50     CG2R57     CG2R51      HGR52
   13     9    10    11	 9 ;     CG2R51     CG2R57     CG2R51     SG2R50
   13     9    10    40	 9 ;     CG2R51     CG2R57     CG2R51      HGR52
    9    10    11    12	 9 ;     CG2R57     CG2R51     SG2R50     CG2R51
   40    10    11    12	 9 ;      HGR52     CG2R51     SG2R50     CG2R51
   10    11    12    13	 9 ;     CG2R51     SG2R50     CG2R51     CG2R51
   10    11    12    14	 9 ;     CG2R51     SG2R50     CG2R51      CG2O5
   14    12    13     9	 9 ;      CG2O5     CG2R51     CG2R51     CG2R57
   14    12    13    41	 9 ;      CG2O5     CG2R51     CG2R51      HGR51
   11    12    13     9	 9 ;     SG2R50     CG2R51     CG2R51     CG2R57
   11    12    13    41	 9 ;     SG2R50     CG2R51     CG2R51      HGR51
   13    12    14    15	 9 ;     CG2R51     CG2R51      CG2O5      OG2D3
   13    12    14    16	 9 ;     CG2R51     CG2R51      CG2O5      CG321
   11    12    14    15	 9 ;     SG2R50     CG2R51      CG2O5      OG2D3
   11    12    14    16	 9 ;     SG2R50     CG2R51      CG2O5      CG321
   12    14    16    17	 9 ;     CG2R51      CG2O5      CG321      CG331
   12    14    16    42	 9 ;     CG2R51      CG2O5      CG321       HGA2
   12    14    16    43	 9 ;     CG2R51      CG2O5      CG321       HGA2
   15    14    16    17	 9 ;      OG2D3      CG2O5      CG321      CG331
   15    14    16    42	 9 ;      OG2D3      CG2O5      CG321       HGA2
   15    14    16    43	 9 ;      OG2D3      CG2O5      CG321       HGA2
   14    16    17    44	 9 ;      CG2O5      CG321      CG331       HGA3
   14    16    17    45	 9 ;      CG2O5      CG321      CG331       HGA3
   14    16    17    46	 9 ;      CG2O5      CG321      CG331       HGA3
   42    16    17    44	 9 ;       HGA2      CG321      CG331       HGA3
   42    16    17    45	 9 ;       HGA2      CG321      CG331       HGA3
   42    16    17    46	 9 ;       HGA2      CG321      CG331       HGA3
   43    16    17    44	 9 ;       HGA2      CG321      CG331       HGA3
   43    16    17    45	 9 ;       HGA2      CG321      CG331       HGA3
   43    16    17    46	 9 ;       HGA2      CG321      CG331       HGA3
    1    18    23    22	 9 ;     CG3C50     CG2R61     CG2R61     CG2R61
    1    18    23    50	 9 ;     CG3C50     CG2R61     CG2R61      HGR61
   19    18    23    22	 9 ;     CG2R61     CG2R61     CG2R61     CG2R61
   19    18    23    50	 9 ;     CG2R61     CG2R61     CG2R61      HGR61
   23    18    19    20	 9 ;     CG2R61     CG2R61     CG2R61     CG2R61
   23    18    19    47	 9 ;     CG2R61     CG2R61     CG2R61      HGR61
    1    18    19    20	 9 ;     CG3C50     CG2R61     CG2R61     CG2R61
    1    18    19    47	 9 ;     CG3C50     CG2R61     CG2R61      HGR61
   18    19    20    21	 9 ;     CG2R61     CG2R61     CG2R61     CG2R61
   18    19    20    24	 9 ;     CG2R61     CG2R61     CG2R61     CG2DC1
   47    19    20    21	 9 ;      HGR61     CG2R61     CG2R61     CG2R61
   47    19    20    24	 9 ;      HGR61     CG2R61     CG2R61     CG2DC1
   19    20    21    22	 9 ;     CG2R61     CG2R61     CG2R61     CG2R61
   19    20    21    48	 9 ;     CG2R61     CG2R61     CG2R61      HGR61
   24    20    21    22	 9 ;     CG2DC1     CG2R61     CG2R61     CG2R61
   24    20    21    48	 9 ;     CG2DC1     CG2R61     CG2R61      HGR61
   21    20    24    29	 9 ;     CG2R61     CG2R61     CG2DC1     CG2D1O
   21    20    24    25	 9 ;     CG2R61     CG2R61     CG2DC1     CG2DC2
   19    20    24    29	 9 ;     CG2R61     CG2R61     CG2DC1     CG2D1O
   19    20    24    25	 9 ;     CG2R61     CG2R61     CG2DC1     CG2DC2
   20    21    22    23	 9 ;     CG2R61     CG2R61     CG2R61     CG2R61
   20    21    22    49	 9 ;     CG2R61     CG2R61     CG2R61      HGR61
   48    21    22    23	 9 ;      HGR61     CG2R61     CG2R61     CG2R61
   48    21    22    49	 9 ;      HGR61     CG2R61     CG2R61      HGR61
   21    22    23    18	 9 ;     CG2R61     CG2R61     CG2R61     CG2R61
   21    22    23    50	 9 ;     CG2R61     CG2R61     CG2R61      HGR61
   49    22    23    18	 9 ;      HGR61     CG2R61     CG2R61     CG2R61
   49    22    23    50	 9 ;      HGR61     CG2R61     CG2R61      HGR61
   20    24    29    31	 9 ;     CG2R61     CG2DC1     CG2D1O       FGA1
   20    24    29    28	 9 ;     CG2R61     CG2DC1     CG2D1O      NG311
   25    24    29    31	 9 ;     CG2DC2     CG2DC1     CG2D1O       FGA1
   25    24    29    28	 9 ;     CG2DC2     CG2DC1     CG2D1O      NG311
   20    24    25    26	 9 ;     CG2R61     CG2DC1     CG2DC2     CG2DC2
   20    24    25    51	 9 ;     CG2R61     CG2DC1     CG2DC2       HGA4
   29    24    25    26	 9 ;     CG2D1O     CG2DC1     CG2DC2     CG2DC2
   29    24    25    51	 9 ;     CG2D1O     CG2DC1     CG2DC2       HGA4
   24    25    26    27	 9 ;     CG2DC1     CG2DC2     CG2DC2      CG321
   24    25    26    52	 9 ;     CG2DC1     CG2DC2     CG2DC2       HGA4
   51    25    26    27	 9 ;       HGA4     CG2DC2     CG2DC2      CG321
   51    25    26    52	 9 ;       HGA4     CG2DC2     CG2DC2       HGA4
   25    26    27    28	 9 ;     CG2DC2     CG2DC2      CG321      NG311
   25    26    27    53	 9 ;     CG2DC2     CG2DC2      CG321       HGA2
   25    26    27    55	 9 ;     CG2DC2     CG2DC2      CG321       HGA2
   52    26    27    28	 9 ;       HGA4     CG2DC2      CG321      NG311
   52    26    27    53	 9 ;       HGA4     CG2DC2      CG321       HGA2
   52    26    27    55	 9 ;       HGA4     CG2DC2      CG321       HGA2
   26    27    28    29	 9 ;     CG2DC2      CG321      NG311     CG2D1O
   26    27    28    30	 9 ;     CG2DC2      CG321      NG311     HGPAM1
   53    27    28    29	 9 ;       HGA2      CG321      NG311     CG2D1O
   53    27    28    30	 9 ;       HGA2      CG321      NG311     HGPAM1
   55    27    28    29	 9 ;       HGA2      CG321      NG311     CG2D1O
   55    27    28    30	 9 ;       HGA2      CG321      NG311     HGPAM1
   30    28    29    31	 9 ;     HGPAM1      NG311     CG2D1O       FGA1
   30    28    29    24	 9 ;     HGPAM1      NG311     CG2D1O     CG2DC1
   27    28    29    31	 9 ;      CG321      NG311     CG2D1O       FGA1
   27    28    29    24	 9 ;      CG321      NG311     CG2D1O     CG2DC1

[ dihedrals ]
;	ai	  aj	ak	  al funct			  c0			c1			  c2			c3
    7     1     5     8	 2
   14    12    16    15	 2
   29    24    28    31	 2

