Gromacs Runs On Most of All Computer Systems
   55
    1LIG     C1    1  -1.247   0.478  -1.554
    1LIG     N1    2  -1.233   0.590  -1.454
    1LIG    HN3    3  -1.279   0.599  -1.363
    1LIG     C2    4  -1.148   0.672  -1.507
    1LIG     N2    5  -1.091   0.634  -1.623
    1LIG     C3    6  -1.016   0.715  -1.715
    1LIG     C4    7  -1.129   0.504  -1.648
    1LIG     O1    8  -1.081   0.431  -1.733
    1LIG     C5    9  -1.249   0.345  -1.481
    1LIG     C6   10  -1.276   0.324  -1.347
    1LIG      S   11  -1.268   0.160  -1.301
    1LIG     C7   12  -1.234   0.109  -1.461
    1LIG     C8   13  -1.222   0.218  -1.545
    1LIG     C9   14  -1.221  -0.034  -1.491
    1LIG     O2   15  -1.274  -0.087  -1.588
    1LIG    C10   16  -1.133  -0.115  -1.395
    1LIG    C11   17  -0.995  -0.055  -1.376
    1LIG    C12   18  -1.380   0.489  -1.631
    1LIG    C13   19  -1.496   0.428  -1.580
    1LIG    C14   20  -1.625   0.455  -1.631
    1LIG    C15   21  -1.633   0.542  -1.742
    1LIG    C16   22  -1.519   0.598  -1.798
    1LIG    C17   23  -1.394   0.572  -1.743
    1LIG    C18   24  -1.746   0.400  -1.566
    1LIG    C19   25  -1.786   0.445  -1.439
    1LIG    C20   26  -1.901   0.393  -1.378
    1LIG    C21   27  -1.974   0.298  -1.446
    1LIG     N3   28  -1.941   0.253  -1.568
    1LIG    C22   29  -1.829   0.304  -1.625
    1LIG    HN4   30  -1.998   0.183  -1.616
    1LIG      F   31  -1.798   0.255  -1.746
    1LIG     N4   32  -1.114   0.788  -1.447
    1LIG     H1   33  -1.193   0.833  -1.402
    1LIG     H2   34  -1.032   0.785  -1.387
    1LIG    HN2   35  -1.308   0.640  -1.498
    1LIG     HC   36  -1.228   0.722  -1.561
    1LIG    HC1   37  -0.984   0.655  -1.800
    1LIG    HC2   38  -1.079   0.797  -1.751
    1LIG    HC3   39  -0.929   0.756  -1.665
    1LIG    HC4   40  -1.299   0.404  -1.278
    1LIG    HC5   41  -1.196   0.209  -1.649
    1LIG    HC6   42  -1.123  -0.215  -1.435
    1LIG    HC7   43  -1.183  -0.120  -1.298
    1LIG    HC8   44  -0.925  -0.134  -1.346
    1LIG    HC9   45  -0.998   0.022  -1.299
    1LIG   HC10   46  -0.961  -0.011  -1.470
    1LIG   HC11   47  -1.487   0.357  -1.499
    1LIG   HC12   48  -1.730   0.565  -1.783
    1LIG   HC13   49  -1.528   0.662  -1.885
    1LIG   HC14   50  -1.306   0.616  -1.788
    1LIG   HC15   51  -1.728   0.520  -1.388
    1LIG   HC16   52  -1.931   0.427  -1.280
    1LIG   HC17   53  -2.062   0.259  -1.399
    1LIG    HN1   54  -1.088   0.850  -1.522
    1LIG    H25   55  -2.034   0.377  -1.492
   0.00000   0.00000   0.00000
