; Created by cgenff_charmm2gmx.py

[ moleculetype ]
; Name			   nrexcl
LIG				 3

[ atoms ]
;	 nr		  type	resnr residue  atom   cgnr	   charge		mass  typeB    chargeB		massB
; residue	 1 LIG rtp LIG q	qsum
     1     CG3C50      1    LIG     C1      1      1.599     12.011   ;
     2      NG3P2      1    LIG     N1      2     -0.701     14.007   ;
     3       HGP2      1    LIG     HN      3      0.353      1.008   ;
     4     CG3C53      1    LIG     C2      4      0.784     12.011   ;
     5     NG2R53      1    LIG     N2      5     -0.171     14.007   ;
     6      CG331      1    LIG     C3      6     -0.169     12.011   ;
     7     CG2R53      1    LIG     C4      7     -0.361     12.011   ;
     8      OG2D1      1    LIG     O1      8     -0.342     15.999   ;
     9     CG2R61      1    LIG     C5      9     -0.154     12.011   ;
    10     CG2R61      1    LIG     C6     10     -0.131     12.011   ;
    11     CG2R61      1    LIG     C7     11     -0.105     12.011   ;
    12     CG2R61      1    LIG     C8     12     -0.116     12.011   ;
    13     CG2R61      1    LIG     C9     13     -0.105     12.011   ;
    14     CG2R61      1    LIG    C10     14     -0.131     12.011   ;
    15     CG2R61      1    LIG    C11     15     -0.154     12.011   ;
    16     CG2R61      1    LIG    C12     16     -0.128     12.011   ;
    17     CG2R61      1    LIG    C13     17     -0.108     12.011   ;
    18     CG2R61      1    LIG    C14     18      0.217     12.011   ;
    19     CG2R61      1    LIG    C15     19     -0.108     12.011   ;
    20     CG2R61      1    LIG    C16     20     -0.128     12.011   ;
    21      OG301      1    LIG     O2     21     -0.303     15.999   ;
    22      CG302      1    LIG    C17     22      0.464     12.011   ;
    23       FGA3      1    LIG     F1     23     -0.126     18.998   ;
    24       FGA3      1    LIG     F2     24     -0.126     18.998   ;
    25       FGA3      1    LIG     F3     25     -0.126     18.998   ;
    26      NG3P3      1    LIG     N3     26     -0.267     14.007   ;
    27       HGP2      1    LIG     H1     27      0.301      1.008   ;
    28       HGP2      1    LIG     H2     28      0.301      1.008   ;
    29       HGP2      1    LIG    HN2     29      0.353      1.008   ;
    30       HGA1      1    LIG     HC     30      0.073      1.008   ;
    31       HGA3      1    LIG    HC1     31      0.090      1.008   ;
    32       HGA3      1    LIG    HC2     32      0.090      1.008   ;
    33       HGA3      1    LIG    HC3     33      0.090      1.008   ;
    34      HGR61      1    LIG    HC4     34      0.116      1.008   ;
    35      HGR61      1    LIG    HC5     35      0.116      1.008   ;
    36      HGR61      1    LIG    HC6     36      0.116      1.008   ;
    37      HGR61      1    LIG    HC7     37      0.116      1.008   ;
    38      HGR61      1    LIG    HC8     38      0.116      1.008   ;
    39      HGR61      1    LIG    HC9     39      0.116      1.008   ;
    40      HGR61      1    LIG   HC10     40      0.116      1.008   ;
    41      HGR61      1    LIG   HC11     41      0.116      1.008   ;
    42      HGR61      1    LIG   HC12     42      0.116      1.008   ;
    43       HGP2      1    LIG    HN1     43      0.301      1.008   ;

[ bonds ]
;	ai	  aj funct			  c0			c1			  c2			c3
    1     2	 1 ;      CG3C50      NG3P2
    1     7	 1 ;      CG3C50     CG2R53
    1    15	 1 ;      CG3C50     CG2R61
    1     9	 1 ;      CG3C50     CG2R61
    2     4	 1 ;       NG3P2     CG3C53
    2     3	 1 ;       NG3P2       HGP2
    2    29	 1 ;       NG3P2       HGP2
    4    26	 1 ;      CG3C53      NG3P3
    4     5	 1 ;      CG3C53     NG2R53
    4    30	 1 ;      CG3C53       HGA1
    5     6	 1 ;      NG2R53      CG331
    5     7	 1 ;      NG2R53     CG2R53
    6    31	 1 ;       CG331       HGA3
    6    32	 1 ;       CG331       HGA3
    6    33	 1 ;       CG331       HGA3
    7     8	 1 ;      CG2R53      OG2D1
    9    14	 1 ;      CG2R61     CG2R61
    9    10	 1 ;      CG2R61     CG2R61
   10    11	 1 ;      CG2R61     CG2R61
   10    34	 1 ;      CG2R61      HGR61
   11    12	 1 ;      CG2R61     CG2R61
   11    35	 1 ;      CG2R61      HGR61
   12    13	 1 ;      CG2R61     CG2R61
   12    36	 1 ;      CG2R61      HGR61
   13    14	 1 ;      CG2R61     CG2R61
   13    37	 1 ;      CG2R61      HGR61
   14    38	 1 ;      CG2R61      HGR61
   15    20	 1 ;      CG2R61     CG2R61
   15    16	 1 ;      CG2R61     CG2R61
   16    17	 1 ;      CG2R61     CG2R61
   16    39	 1 ;      CG2R61      HGR61
   17    18	 1 ;      CG2R61     CG2R61
   17    40	 1 ;      CG2R61      HGR61
   18    19	 1 ;      CG2R61     CG2R61
   18    21	 1 ;      CG2R61      OG301
   19    20	 1 ;      CG2R61     CG2R61
   19    41	 1 ;      CG2R61      HGR61
   20    42	 1 ;      CG2R61      HGR61
   21    22	 1 ;       OG301      CG302
   22    25	 1 ;       CG302       FGA3
   22    23	 1 ;       CG302       FGA3
   22    24	 1 ;       CG302       FGA3
   26    28	 1 ;       NG3P3       HGP2
   26    27	 1 ;       NG3P3       HGP2
   26    43	 1 ;       NG3P3       HGP2

[ pairs ]
;	ai	  aj funct			  c0			c1			  c2			c3
    1    26	 1
    1    30	 1
    1     6	 1
    1    13	 1
    1    38	 1
    1    11	 1
    1    34	 1
    1    19	 1
    1    42	 1
    1    17	 1
    1    39	 1
    2     8	 1
    2    20	 1
    2    16	 1
    2    14	 1
    2    10	 1
    2    28	 1
    2    27	 1
    2    43	 1
    2     6	 1
    3     7	 1
    3    15	 1
    3     9	 1
    3    26	 1
    3     5	 1
    3    30	 1
    4    15	 1
    4     9	 1
    4    31	 1
    4    32	 1
    4    33	 1
    4     8	 1
    5    15	 1
    5     9	 1
    5    29	 1
    5    28	 1
    5    27	 1
    5    43	 1
    6    26	 1
    6    30	 1
    6     8	 1
    7    29	 1
    7    20	 1
    7    16	 1
    7    14	 1
    7    10	 1
    7    26	 1
    7    30	 1
    7    31	 1
    7    32	 1
    7    33	 1
    8    15	 1
    8     9	 1
    9    29	 1
    9    20	 1
    9    16	 1
    9    12	 1
    9    35	 1
    9    37	 1
   10    15	 1
   10    13	 1
   10    38	 1
   10    36	 1
   11    14	 1
   11    37	 1
   12    34	 1
   12    38	 1
   13    35	 1
   14    15	 1
   14    34	 1
   14    36	 1
   15    29	 1
   15    18	 1
   15    40	 1
   15    41	 1
   16    19	 1
   16    42	 1
   16    21	 1
   17    20	 1
   17    41	 1
   17    22	 1
   18    39	 1
   18    42	 1
   18    25	 1
   18    23	 1
   18    24	 1
   19    40	 1
   19    22	 1
   20    39	 1
   20    21	 1
   21    40	 1
   21    41	 1
   26    29	 1
   27    30	 1
   28    30	 1
   29    30	 1
   30    43	 1
   34    35	 1
   35    36	 1
   36    37	 1
   37    38	 1
   39    40	 1
   41    42	 1

[ angles ]
;	ai	  aj	ak funct			c0			  c1			c2			  c3
    2     1     7	5 ;      NG3P2     CG3C50     CG2R53
    2     1    15	5 ;      NG3P2     CG3C50     CG2R61
    2     1     9	5 ;      NG3P2     CG3C50     CG2R61
    7     1    15	5 ;     CG2R53     CG3C50     CG2R61
    7     1     9	5 ;     CG2R53     CG3C50     CG2R61
   15     1     9	5 ;     CG2R61     CG3C50     CG2R61
    4     2     3	5 ;     CG3C53      NG3P2       HGP2
    4     2     1	5 ;     CG3C53      NG3P2     CG3C50
    4     2    29	5 ;     CG3C53      NG3P2       HGP2
    3     2     1	5 ;       HGP2      NG3P2     CG3C50
    3     2    29	5 ;       HGP2      NG3P2       HGP2
    1     2    29	5 ;     CG3C50      NG3P2       HGP2
   26     4     5	5 ;      NG3P3     CG3C53     NG2R53
   26     4     2	5 ;      NG3P3     CG3C53      NG3P2
   26     4    30	5 ;      NG3P3     CG3C53       HGA1
    5     4     2	5 ;     NG2R53     CG3C53      NG3P2
    5     4    30	5 ;     NG2R53     CG3C53       HGA1
    2     4    30	5 ;      NG3P2     CG3C53       HGA1
    6     5     4	5 ;      CG331     NG2R53     CG3C53
    6     5     7	5 ;      CG331     NG2R53     CG2R53
    4     5     7	5 ;     CG3C53     NG2R53     CG2R53
    5     6    31	5 ;     NG2R53      CG331       HGA3
    5     6    32	5 ;     NG2R53      CG331       HGA3
    5     6    33	5 ;     NG2R53      CG331       HGA3
   31     6    32	5 ;       HGA3      CG331       HGA3
   31     6    33	5 ;       HGA3      CG331       HGA3
   32     6    33	5 ;       HGA3      CG331       HGA3
    5     7     8	5 ;     NG2R53     CG2R53      OG2D1
    5     7     1	5 ;     NG2R53     CG2R53     CG3C50
    8     7     1	5 ;      OG2D1     CG2R53     CG3C50
    1     9    14	5 ;     CG3C50     CG2R61     CG2R61
    1     9    10	5 ;     CG3C50     CG2R61     CG2R61
   14     9    10	5 ;     CG2R61     CG2R61     CG2R61
    9    10    11	5 ;     CG2R61     CG2R61     CG2R61
    9    10    34	5 ;     CG2R61     CG2R61      HGR61
   11    10    34	5 ;     CG2R61     CG2R61      HGR61
   10    11    12	5 ;     CG2R61     CG2R61     CG2R61
   10    11    35	5 ;     CG2R61     CG2R61      HGR61
   12    11    35	5 ;     CG2R61     CG2R61      HGR61
   13    12    11	5 ;     CG2R61     CG2R61     CG2R61
   13    12    36	5 ;     CG2R61     CG2R61      HGR61
   11    12    36	5 ;     CG2R61     CG2R61      HGR61
   14    13    12	5 ;     CG2R61     CG2R61     CG2R61
   14    13    37	5 ;     CG2R61     CG2R61      HGR61
   12    13    37	5 ;     CG2R61     CG2R61      HGR61
    9    14    13	5 ;     CG2R61     CG2R61     CG2R61
    9    14    38	5 ;     CG2R61     CG2R61      HGR61
   13    14    38	5 ;     CG2R61     CG2R61      HGR61
   20    15     1	5 ;     CG2R61     CG2R61     CG3C50
   20    15    16	5 ;     CG2R61     CG2R61     CG2R61
    1    15    16	5 ;     CG3C50     CG2R61     CG2R61
   15    16    17	5 ;     CG2R61     CG2R61     CG2R61
   15    16    39	5 ;     CG2R61     CG2R61      HGR61
   17    16    39	5 ;     CG2R61     CG2R61      HGR61
   18    17    16	5 ;     CG2R61     CG2R61     CG2R61
   18    17    40	5 ;     CG2R61     CG2R61      HGR61
   16    17    40	5 ;     CG2R61     CG2R61      HGR61
   19    18    21	5 ;     CG2R61     CG2R61      OG301
   19    18    17	5 ;     CG2R61     CG2R61     CG2R61
   21    18    17	5 ;      OG301     CG2R61     CG2R61
   20    19    18	5 ;     CG2R61     CG2R61     CG2R61
   20    19    41	5 ;     CG2R61     CG2R61      HGR61
   18    19    41	5 ;     CG2R61     CG2R61      HGR61
   19    20    15	5 ;     CG2R61     CG2R61     CG2R61
   19    20    42	5 ;     CG2R61     CG2R61      HGR61
   15    20    42	5 ;     CG2R61     CG2R61      HGR61
   18    21    22	5 ;     CG2R61      OG301      CG302
   25    22    21	5 ;       FGA3      CG302      OG301
   25    22    23	5 ;       FGA3      CG302       FGA3
   25    22    24	5 ;       FGA3      CG302       FGA3
   21    22    23	5 ;      OG301      CG302       FGA3
   21    22    24	5 ;      OG301      CG302       FGA3
   23    22    24	5 ;       FGA3      CG302       FGA3
   28    26    27	5 ;       HGP2      NG3P3       HGP2
   28    26     4	5 ;       HGP2      NG3P3     CG3C53
   28    26    43	5 ;       HGP2      NG3P3       HGP2
   27    26     4	5 ;       HGP2      NG3P3     CG3C53
   27    26    43	5 ;       HGP2      NG3P3       HGP2
    4    26    43	5 ;     CG3C53      NG3P3       HGP2

[ dihedrals ]
;	ai	  aj	ak	  al funct			  c0			c1			  c2			c3			  c4			c5
    7     1     2     4	 9 ;     CG2R53     CG3C50      NG3P2     CG3C53
    7     1     2     3	 9 ;     CG2R53     CG3C50      NG3P2       HGP2
    7     1     2    29	 9 ;     CG2R53     CG3C50      NG3P2       HGP2
   15     1     2     4	 9 ;     CG2R61     CG3C50      NG3P2     CG3C53
   15     1     2     3	 9 ;     CG2R61     CG3C50      NG3P2       HGP2
   15     1     2    29	 9 ;     CG2R61     CG3C50      NG3P2       HGP2
    9     1     2     4	 9 ;     CG2R61     CG3C50      NG3P2     CG3C53
    9     1     2     3	 9 ;     CG2R61     CG3C50      NG3P2       HGP2
    9     1     2    29	 9 ;     CG2R61     CG3C50      NG3P2       HGP2
    2     1     7     5	 9 ;      NG3P2     CG3C50     CG2R53     NG2R53
    2     1     7     8	 9 ;      NG3P2     CG3C50     CG2R53      OG2D1
   15     1     7     5	 9 ;     CG2R61     CG3C50     CG2R53     NG2R53
   15     1     7     8	 9 ;     CG2R61     CG3C50     CG2R53      OG2D1
    9     1     7     5	 9 ;     CG2R61     CG3C50     CG2R53     NG2R53
    9     1     7     8	 9 ;     CG2R61     CG3C50     CG2R53      OG2D1
    2     1    15    20	 9 ;      NG3P2     CG3C50     CG2R61     CG2R61
    2     1    15    16	 9 ;      NG3P2     CG3C50     CG2R61     CG2R61
    7     1    15    20	 9 ;     CG2R53     CG3C50     CG2R61     CG2R61
    7     1    15    16	 9 ;     CG2R53     CG3C50     CG2R61     CG2R61
    9     1    15    20	 9 ;     CG2R61     CG3C50     CG2R61     CG2R61
    9     1    15    16	 9 ;     CG2R61     CG3C50     CG2R61     CG2R61
    2     1     9    14	 9 ;      NG3P2     CG3C50     CG2R61     CG2R61
    2     1     9    10	 9 ;      NG3P2     CG3C50     CG2R61     CG2R61
    7     1     9    14	 9 ;     CG2R53     CG3C50     CG2R61     CG2R61
    7     1     9    10	 9 ;     CG2R53     CG3C50     CG2R61     CG2R61
   15     1     9    14	 9 ;     CG2R61     CG3C50     CG2R61     CG2R61
   15     1     9    10	 9 ;     CG2R61     CG3C50     CG2R61     CG2R61
    3     2     4    26	 9 ;       HGP2      NG3P2     CG3C53      NG3P3
    3     2     4     5	 9 ;       HGP2      NG3P2     CG3C53     NG2R53
    3     2     4    30	 9 ;       HGP2      NG3P2     CG3C53       HGA1
    1     2     4    26	 9 ;     CG3C50      NG3P2     CG3C53      NG3P3
    1     2     4     5	 9 ;     CG3C50      NG3P2     CG3C53     NG2R53
    1     2     4    30	 9 ;     CG3C50      NG3P2     CG3C53       HGA1
   29     2     4    26	 9 ;       HGP2      NG3P2     CG3C53      NG3P3
   29     2     4     5	 9 ;       HGP2      NG3P2     CG3C53     NG2R53
   29     2     4    30	 9 ;       HGP2      NG3P2     CG3C53       HGA1
    5     4    26    28	 9 ;     NG2R53     CG3C53      NG3P3       HGP2
    5     4    26    27	 9 ;     NG2R53     CG3C53      NG3P3       HGP2
    5     4    26    43	 9 ;     NG2R53     CG3C53      NG3P3       HGP2
    2     4    26    28	 9 ;      NG3P2     CG3C53      NG3P3       HGP2
    2     4    26    27	 9 ;      NG3P2     CG3C53      NG3P3       HGP2
    2     4    26    43	 9 ;      NG3P2     CG3C53      NG3P3       HGP2
   30     4    26    28	 9 ;       HGA1     CG3C53      NG3P3       HGP2
   30     4    26    27	 9 ;       HGA1     CG3C53      NG3P3       HGP2
   30     4    26    43	 9 ;       HGA1     CG3C53      NG3P3       HGP2
   26     4     5     6	 9 ;      NG3P3     CG3C53     NG2R53      CG331
   26     4     5     7	 9 ;      NG3P3     CG3C53     NG2R53     CG2R53
    2     4     5     6	 9 ;      NG3P2     CG3C53     NG2R53      CG331
    2     4     5     7	 9 ;      NG3P2     CG3C53     NG2R53     CG2R53
   30     4     5     6	 9 ;       HGA1     CG3C53     NG2R53      CG331
   30     4     5     7	 9 ;       HGA1     CG3C53     NG2R53     CG2R53
    4     5     6    31	 9 ;     CG3C53     NG2R53      CG331       HGA3
    4     5     6    32	 9 ;     CG3C53     NG2R53      CG331       HGA3
    4     5     6    33	 9 ;     CG3C53     NG2R53      CG331       HGA3
    7     5     6    31	 9 ;     CG2R53     NG2R53      CG331       HGA3
    7     5     6    32	 9 ;     CG2R53     NG2R53      CG331       HGA3
    7     5     6    33	 9 ;     CG2R53     NG2R53      CG331       HGA3
    6     5     7     8	 9 ;      CG331     NG2R53     CG2R53      OG2D1
    6     5     7     1	 9 ;      CG331     NG2R53     CG2R53     CG3C50
    4     5     7     8	 9 ;     CG3C53     NG2R53     CG2R53      OG2D1
    4     5     7     1	 9 ;     CG3C53     NG2R53     CG2R53     CG3C50
    1     9    14    13	 9 ;     CG3C50     CG2R61     CG2R61     CG2R61
    1     9    14    38	 9 ;     CG3C50     CG2R61     CG2R61      HGR61
   10     9    14    13	 9 ;     CG2R61     CG2R61     CG2R61     CG2R61
   10     9    14    38	 9 ;     CG2R61     CG2R61     CG2R61      HGR61
    1     9    10    11	 9 ;     CG3C50     CG2R61     CG2R61     CG2R61
    1     9    10    34	 9 ;     CG3C50     CG2R61     CG2R61      HGR61
   14     9    10    11	 9 ;     CG2R61     CG2R61     CG2R61     CG2R61
   14     9    10    34	 9 ;     CG2R61     CG2R61     CG2R61      HGR61
    9    10    11    12	 9 ;     CG2R61     CG2R61     CG2R61     CG2R61
    9    10    11    35	 9 ;     CG2R61     CG2R61     CG2R61      HGR61
   34    10    11    12	 9 ;      HGR61     CG2R61     CG2R61     CG2R61
   34    10    11    35	 9 ;      HGR61     CG2R61     CG2R61      HGR61
   10    11    12    13	 9 ;     CG2R61     CG2R61     CG2R61     CG2R61
   10    11    12    36	 9 ;     CG2R61     CG2R61     CG2R61      HGR61
   35    11    12    13	 9 ;      HGR61     CG2R61     CG2R61     CG2R61
   35    11    12    36	 9 ;      HGR61     CG2R61     CG2R61      HGR61
   11    12    13    14	 9 ;     CG2R61     CG2R61     CG2R61     CG2R61
   11    12    13    37	 9 ;     CG2R61     CG2R61     CG2R61      HGR61
   36    12    13    14	 9 ;      HGR61     CG2R61     CG2R61     CG2R61
   36    12    13    37	 9 ;      HGR61     CG2R61     CG2R61      HGR61
   12    13    14     9	 9 ;     CG2R61     CG2R61     CG2R61     CG2R61
   12    13    14    38	 9 ;     CG2R61     CG2R61     CG2R61      HGR61
   37    13    14     9	 9 ;      HGR61     CG2R61     CG2R61     CG2R61
   37    13    14    38	 9 ;      HGR61     CG2R61     CG2R61      HGR61
    1    15    20    19	 9 ;     CG3C50     CG2R61     CG2R61     CG2R61
    1    15    20    42	 9 ;     CG3C50     CG2R61     CG2R61      HGR61
   16    15    20    19	 9 ;     CG2R61     CG2R61     CG2R61     CG2R61
   16    15    20    42	 9 ;     CG2R61     CG2R61     CG2R61      HGR61
   20    15    16    17	 9 ;     CG2R61     CG2R61     CG2R61     CG2R61
   20    15    16    39	 9 ;     CG2R61     CG2R61     CG2R61      HGR61
    1    15    16    17	 9 ;     CG3C50     CG2R61     CG2R61     CG2R61
    1    15    16    39	 9 ;     CG3C50     CG2R61     CG2R61      HGR61
   15    16    17    18	 9 ;     CG2R61     CG2R61     CG2R61     CG2R61
   15    16    17    40	 9 ;     CG2R61     CG2R61     CG2R61      HGR61
   39    16    17    18	 9 ;      HGR61     CG2R61     CG2R61     CG2R61
   39    16    17    40	 9 ;      HGR61     CG2R61     CG2R61      HGR61
   16    17    18    19	 9 ;     CG2R61     CG2R61     CG2R61     CG2R61
   16    17    18    21	 9 ;     CG2R61     CG2R61     CG2R61      OG301
   40    17    18    19	 9 ;      HGR61     CG2R61     CG2R61     CG2R61
   40    17    18    21	 9 ;      HGR61     CG2R61     CG2R61      OG301
   21    18    19    20	 9 ;      OG301     CG2R61     CG2R61     CG2R61
   21    18    19    41	 9 ;      OG301     CG2R61     CG2R61      HGR61
   17    18    19    20	 9 ;     CG2R61     CG2R61     CG2R61     CG2R61
   17    18    19    41	 9 ;     CG2R61     CG2R61     CG2R61      HGR61
   19    18    21    22	 9 ;     CG2R61     CG2R61      OG301      CG302
   17    18    21    22	 9 ;     CG2R61     CG2R61      OG301      CG302
   18    19    20    15	 9 ;     CG2R61     CG2R61     CG2R61     CG2R61
   18    19    20    42	 9 ;     CG2R61     CG2R61     CG2R61      HGR61
   41    19    20    15	 9 ;      HGR61     CG2R61     CG2R61     CG2R61
   41    19    20    42	 9 ;      HGR61     CG2R61     CG2R61      HGR61
   18    21    22    25	 9 ;     CG2R61      OG301      CG302       FGA3
   18    21    22    23	 9 ;     CG2R61      OG301      CG302       FGA3
   18    21    22    24	 9 ;     CG2R61      OG301      CG302       FGA3

[ dihedrals ]
;	ai	  aj	ak	  al funct			  c0			c1			  c2			c3
    7     1     5     8	 2

