Green Red Orange Magenta Azure Cyan Skyblue
   43
    1LIG     C1    1  -1.398   0.405  -1.627
    1LIG     N1    2  -1.398   0.382  -1.776
    1LIG     HN    3  -1.421   0.295  -1.825
    1LIG     C2    4  -1.363   0.494  -1.830
    1LIG     N2    5  -1.344   0.598  -1.747
    1LIG     C3    6  -1.289   0.727  -1.780
    1LIG     C4    7  -1.378   0.559  -1.621
    1LIG     O1    8  -1.386   0.633  -1.524
    1LIG     C5    9  -1.528   0.354  -1.562
    1LIG     C6   10  -1.592   0.430  -1.462
    1LIG     C7   11  -1.719   0.396  -1.415
    1LIG     C8   12  -1.786   0.285  -1.468
    1LIG     C9   13  -1.723   0.207  -1.564
    1LIG    C10   14  -1.595   0.241  -1.611
    1LIG    C11   15  -1.277   0.333  -1.562
    1LIG    C12   16  -1.275   0.301  -1.426
    1LIG    C13   17  -1.168   0.231  -1.369
    1LIG    C14   18  -1.063   0.187  -1.449
    1LIG    C15   19  -1.063   0.220  -1.585
    1LIG    C16   20  -1.168   0.292  -1.641
    1LIG     O2   21  -0.956   0.112  -1.408
    1LIG    C17   22  -0.958  -0.028  -1.428
    1LIG     F1   23  -1.071  -0.074  -1.485
    1LIG     F2   24  -0.940  -0.091  -1.310
    1LIG     F3   25  -0.855  -0.061  -1.509
    1LIG     N3   26  -1.349   0.507  -1.964
    1LIG     H1   27  -1.425   0.560  -2.006
    1LIG     H2   28  -1.258   0.536  -1.997
    1LIG    HN2   29  -1.495   0.410  -1.781
    1LIG     HC   30  -1.258   0.467  -1.821
    1LIG    HC1   31  -1.287   0.789  -1.690
    1LIG    HC2   32  -1.188   0.715  -1.818
    1LIG    HC3   33  -1.352   0.775  -1.855
    1LIG    HC4   34  -1.542   0.516  -1.420
    1LIG    HC5   35  -1.767   0.455  -1.339
    1LIG    HC6   36  -1.885   0.260  -1.434
    1LIG    HC7   37  -1.773   0.120  -1.604
    1LIG    HC8   38  -1.548   0.179  -1.686
    1LIG    HC9   39  -1.358   0.330  -1.363
    1LIG   HC10   40  -1.166   0.212  -1.263
    1LIG   HC11   41  -0.980   0.190  -1.647
    1LIG   HC12   42  -1.167   0.316  -1.746
    1LIG    HN1   43  -1.361   0.413  -2.001
   0.00000   0.00000   0.00000
