Gravel Rubs Often Many Awfully Cauterized Sores
   75
    1LIG     N1    1  -1.677   0.455  -1.411
    1LIG     H1    2  -1.714   0.429  -1.319
    1LIG     H2    3  -1.640   0.550  -1.398
    1LIG     C1    4  -1.547   0.367  -1.431
    1LIG     C2    5  -1.429   0.435  -1.509
    1LIG     C3    6  -1.279   0.396  -1.464
    1LIG     N2    7  -1.175   0.501  -1.476
    1LIG     C4    8  -1.109   0.515  -1.598
    1LIG     O1    9  -1.146   0.458  -1.701
    1LIG     C5   10  -0.987   0.605  -1.596
    1LIG     H3   11  -1.121   0.526  -1.394
    1LIG     C6   12  -1.275   0.341  -1.316
    1LIG     C7   13  -1.234   0.196  -1.318
    1LIG     C8   14  -1.327   0.100  -1.360
    1LIG     C9   15  -1.309  -0.033  -1.326
    1LIG     F1   16  -1.405  -0.122  -1.354
    1LIG    C10   17  -1.197  -0.074  -1.254
    1LIG    C11   18  -1.100   0.020  -1.223
    1LIG    C12   19  -1.116   0.154  -1.256
    1LIG     F2   20  -0.994  -0.016  -1.149
    1LIG     O2   21  -1.447   0.417  -1.651
    1LIG     H4   22  -1.389   0.342  -1.678
    1LIG    C13   23  -1.801   0.479  -1.507
    1LIG    C14   24  -1.829   0.349  -1.586
    1LIG    C15   25  -1.943   0.366  -1.688
    1LIG    C16   26  -1.915   0.478  -1.788
    1LIG    C17   27  -1.875   0.608  -1.719
    1LIG    C18   28  -1.763   0.587  -1.614
    1LIG    C19   29  -1.929   0.523  -1.421
    1LIG    C20   30  -2.020   0.431  -1.361
    1LIG    C21   31  -2.138   0.470  -1.292
    1LIG    C22   32  -2.168   0.608  -1.289
    1LIG    C23   33  -2.087   0.702  -1.351
    1LIG    C24   34  -1.965   0.660  -1.408
    1LIG    C25   35  -2.233   0.375  -1.213
    1LIG    C26   36  -2.166   0.310  -1.090
    1LIG    C27   37  -2.352   0.460  -1.163
    1LIG    C28   38  -2.293   0.259  -1.297
    1LIG     N3   39  -2.117   0.838  -1.338
    1LIG     H5   40  -2.042   0.895  -1.299
    1LIG     H6   41  -2.155   0.881  -1.423
    1LIG    HC2   42  -1.510   0.339  -1.333
    1LIG    HC3   43  -1.575   0.276  -1.485
    1LIG     HC   44  -1.439   0.543  -1.492
    1LIG    HC1   45  -1.248   0.314  -1.528
    1LIG    HC4   46  -1.203   0.399  -1.258
    1LIG    HC5   47  -1.374   0.351  -1.271
    1LIG    HC6   48  -1.413   0.130  -1.418
    1LIG    HC7   49  -1.186  -0.177  -1.224
    1LIG    HC8   50  -1.037   0.225  -1.235
    1LIG    HC9   51  -1.738   0.319  -1.638
    1LIG   HC10   52  -1.856   0.270  -1.515
    1LIG   HC11   53  -1.955   0.272  -1.743
    1LIG   HC12   54  -2.035   0.388  -1.635
    1LIG   HC13   55  -1.834   0.447  -1.854
    1LIG   HC14   56  -2.005   0.496  -1.847
    1LIG   HC15   57  -1.839   0.678  -1.794
    1LIG   HC16   58  -1.962   0.651  -1.669
    1LIG   HC17   59  -1.745   0.681  -1.563
    1LIG   HC18   60  -1.672   0.556  -1.665
    1LIG   HC19   61  -1.997   0.325  -1.368
    1LIG   HC20   62  -2.257   0.641  -1.238
    1LIG   HC21   63  -1.896   0.735  -1.443
    1LIG   HC22   64  -2.425   0.395  -1.115
    1LIG   HC23   65  -2.316   0.534  -1.090
    1LIG   HC24   66  -2.398   0.512  -1.247
    1LIG   HC25   67  -0.944   0.610  -1.696
    1LIG   HC26   68  -1.017   0.706  -1.564
    1LIG   HC27   69  -0.914   0.565  -1.526
    1LIG   HC28   70  -2.121   0.387  -1.028
    1LIG   HC29   71  -2.240   0.255  -1.033
    1LIG   HC30   72  -2.088   0.241  -1.124
    1LIG   HC31   73  -2.342   0.300  -1.385
    1LIG   HC32   74  -2.366   0.205  -1.237
    1LIG   HC33   75  -2.214   0.191  -1.328
   0.00000   0.00000   0.00000
