Good gRace! Old Maple Actually Chews Slate
   43
    1LIG     C1    1  -1.269   0.339  -1.513
    1LIG     N1    2  -1.242   0.450  -1.413
    1LIG     HN    3  -1.247   0.444  -1.311
    1LIG     C2    4  -1.211   0.554  -1.483
    1LIG     N2    5  -1.206   0.538  -1.616
    1LIG     C3    6  -1.213   0.643  -1.715
    1LIG     C4    7  -1.217   0.404  -1.643
    1LIG     O1    8  -1.199   0.352  -1.753
    1LIG     C5    9  -1.201   0.209  -1.465
    1LIG     C6   10  -1.171   0.109  -1.560
    1LIG     C7   11  -1.089   0.001  -1.529
    1LIG     C8   12  -1.036  -0.011  -1.401
    1LIG     C9   13  -1.068   0.084  -1.304
    1LIG    C10   14  -1.150   0.194  -1.335
    1LIG    C11   15  -1.421   0.314  -1.525
    1LIG    C12   16  -1.510   0.375  -1.435
    1LIG    C13   17  -1.647   0.353  -1.442
    1LIG    C14   18  -1.698   0.268  -1.540
    1LIG    C15   19  -1.612   0.204  -1.629
    1LIG    C16   20  -1.475   0.226  -1.622
    1LIG     O2   21  -1.741   0.408  -1.358
    1LIG    C17   22  -1.762   0.340  -1.235
    1LIG     N3   23  -1.181   0.673  -1.425
    1LIG     H1   24  -1.132   0.659  -1.337
    1LIG     H2   25  -1.134   0.739  -1.485
    1LIG    HN2   26  -1.339   0.477  -1.416
    1LIG     HC   27  -1.316   0.582  -1.489
    1LIG    HC1   28  -1.207   0.599  -1.814
    1LIG    HC2   29  -1.130   0.712  -1.700
    1LIG    HC3   30  -1.307   0.697  -1.704
    1LIG    HC4   31  -1.212   0.117  -1.659
    1LIG    HC5   32  -1.067  -0.073  -1.604
    1LIG    HC6   33  -0.970  -0.093  -1.377
    1LIG    HC7   34  -1.029   0.074  -1.204
    1LIG    HC8   35  -1.174   0.266  -1.259
    1LIG    HC9   36  -1.470   0.440  -1.358
    1LIG   HC10   37  -1.805   0.251  -1.546
    1LIG   HC11   38  -1.653   0.138  -1.705
    1LIG   HC12   39  -1.409   0.175  -1.690
    1LIG   HC13   40  -1.838   0.393  -1.177
    1LIG   HC14   41  -1.795   0.238  -1.254
    1LIG   HC15   42  -1.669   0.338  -1.178
    1LIG    HN1   43  -1.270   0.715  -1.401
   0.00000   0.00000   0.00000
