; Created by cgenff_charmm2gmx.py

[ moleculetype ]
; Name			   nrexcl
LIG				 3

[ atoms ]
;	 nr		  type	resnr residue  atom   cgnr	   charge		mass  typeB    chargeB		massB
; residue	 1 LIG rtp LIG q	qsum
     1     CG3C50      1    LIG     C1      1      1.599     12.011   ;
     2      NG3P2      1    LIG     N1      2     -0.701     14.007   ;
     3       HGP2      1    LIG     HN      3      0.353      1.008   ;
     4     CG3C53      1    LIG     C2      4      0.784     12.011   ;
     5     NG2R53      1    LIG     N2      5     -0.171     14.007   ;
     6      CG331      1    LIG     C3      6     -0.169     12.011   ;
     7     CG2R53      1    LIG     C4      7     -0.361     12.011   ;
     8      OG2D1      1    LIG     O1      8     -0.342     15.999   ;
     9     CG2R61      1    LIG     C5      9     -0.154     12.011   ;
    10     CG2R61      1    LIG     C6     10     -0.131     12.011   ;
    11     CG2R61      1    LIG     C7     11     -0.105     12.011   ;
    12     CG2R61      1    LIG     C8     12     -0.116     12.011   ;
    13     CG2R61      1    LIG     C9     13     -0.105     12.011   ;
    14     CG2R61      1    LIG    C10     14     -0.131     12.011   ;
    15     CG2R61      1    LIG    C11     15     -0.151     12.011   ;
    16     CG2R61      1    LIG    C12     16     -0.136     12.011   ;
    17     CG2R61      1    LIG    C13     17      0.222     12.011   ;
    18     CG2R61      1    LIG    C14     18     -0.121     12.011   ;
    19     CG2R61      1    LIG    C15     19     -0.102     12.011   ;
    20     CG2R61      1    LIG    C16     20     -0.131     12.011   ;
    21      OG301      1    LIG     O2     21     -0.383     15.999   ;
    22      CG331      1    LIG    C17     22     -0.094     12.011   ;
    23      NG3P3      1    LIG     N3     23     -0.267     14.007   ;
    24       HGP2      1    LIG     H1     24      0.301      1.008   ;
    25       HGP2      1    LIG     H2     25      0.301      1.008   ;
    26       HGP2      1    LIG    HN2     26      0.353      1.008   ;
    27       HGA1      1    LIG     HC     27      0.073      1.008   ;
    28       HGA3      1    LIG    HC1     28      0.090      1.008   ;
    29       HGA3      1    LIG    HC2     29      0.090      1.008   ;
    30       HGA3      1    LIG    HC3     30      0.090      1.008   ;
    31      HGR61      1    LIG    HC4     31      0.116      1.008   ;
    32      HGR61      1    LIG    HC5     32      0.116      1.008   ;
    33      HGR61      1    LIG    HC6     33      0.116      1.008   ;
    34      HGR61      1    LIG    HC7     34      0.116      1.008   ;
    35      HGR61      1    LIG    HC8     35      0.116      1.008   ;
    36      HGR61      1    LIG    HC9     36      0.116      1.008   ;
    37      HGR61      1    LIG   HC10     37      0.116      1.008   ;
    38      HGR61      1    LIG   HC11     38      0.116      1.008   ;
    39      HGR61      1    LIG   HC12     39      0.116      1.008   ;
    40       HGA3      1    LIG   HC13     40      0.090      1.008   ;
    41       HGA3      1    LIG   HC14     41      0.090      1.008   ;
    42       HGA3      1    LIG   HC15     42      0.090      1.008   ;
    43       HGP2      1    LIG    HN1     43      0.301      1.008   ;

[ bonds ]
;	ai	  aj funct			  c0			c1			  c2			c3
    1     7	 1 ;      CG3C50     CG2R53
    1     2	 1 ;      CG3C50      NG3P2
    1     9	 1 ;      CG3C50     CG2R61
    1    15	 1 ;      CG3C50     CG2R61
    2     4	 1 ;       NG3P2     CG3C53
    2     3	 1 ;       NG3P2       HGP2
    2    26	 1 ;       NG3P2       HGP2
    4     5	 1 ;      CG3C53     NG2R53
    4    23	 1 ;      CG3C53      NG3P3
    4    27	 1 ;      CG3C53       HGA1
    5     6	 1 ;      NG2R53      CG331
    5     7	 1 ;      NG2R53     CG2R53
    6    28	 1 ;       CG331       HGA3
    6    29	 1 ;       CG331       HGA3
    6    30	 1 ;       CG331       HGA3
    7     8	 1 ;      CG2R53      OG2D1
    9    10	 1 ;      CG2R61     CG2R61
    9    14	 1 ;      CG2R61     CG2R61
   10    11	 1 ;      CG2R61     CG2R61
   10    31	 1 ;      CG2R61      HGR61
   11    12	 1 ;      CG2R61     CG2R61
   11    32	 1 ;      CG2R61      HGR61
   12    13	 1 ;      CG2R61     CG2R61
   12    33	 1 ;      CG2R61      HGR61
   13    14	 1 ;      CG2R61     CG2R61
   13    34	 1 ;      CG2R61      HGR61
   14    35	 1 ;      CG2R61      HGR61
   15    20	 1 ;      CG2R61     CG2R61
   15    16	 1 ;      CG2R61     CG2R61
   16    17	 1 ;      CG2R61     CG2R61
   16    36	 1 ;      CG2R61      HGR61
   17    18	 1 ;      CG2R61     CG2R61
   17    21	 1 ;      CG2R61      OG301
   18    19	 1 ;      CG2R61     CG2R61
   18    37	 1 ;      CG2R61      HGR61
   19    20	 1 ;      CG2R61     CG2R61
   19    38	 1 ;      CG2R61      HGR61
   20    39	 1 ;      CG2R61      HGR61
   21    22	 1 ;       OG301      CG331
   22    40	 1 ;       CG331       HGA3
   22    41	 1 ;       CG331       HGA3
   22    42	 1 ;       CG331       HGA3
   23    25	 1 ;       NG3P3       HGP2
   23    24	 1 ;       NG3P3       HGP2
   23    43	 1 ;       NG3P3       HGP2

[ pairs ]
;	ai	  aj funct			  c0			c1			  c2			c3
    1    23	 1
    1    27	 1
    1     6	 1
    1    11	 1
    1    31	 1
    1    13	 1
    1    35	 1
    1    19	 1
    1    39	 1
    1    17	 1
    1    36	 1
    2     8	 1
    2    10	 1
    2    14	 1
    2    20	 1
    2    16	 1
    2     6	 1
    2    25	 1
    2    24	 1
    2    43	 1
    3     7	 1
    3     9	 1
    3    15	 1
    3     5	 1
    3    23	 1
    3    27	 1
    4     9	 1
    4    15	 1
    4    28	 1
    4    29	 1
    4    30	 1
    4     8	 1
    5     9	 1
    5    15	 1
    5    26	 1
    5    25	 1
    5    24	 1
    5    43	 1
    6    23	 1
    6    27	 1
    6     8	 1
    7    26	 1
    7    10	 1
    7    14	 1
    7    20	 1
    7    16	 1
    7    23	 1
    7    27	 1
    7    28	 1
    7    29	 1
    7    30	 1
    8     9	 1
    8    15	 1
    9    26	 1
    9    20	 1
    9    16	 1
    9    12	 1
    9    32	 1
    9    34	 1
   10    15	 1
   10    13	 1
   10    35	 1
   10    33	 1
   11    14	 1
   11    34	 1
   12    31	 1
   12    35	 1
   13    32	 1
   14    15	 1
   14    31	 1
   14    33	 1
   15    26	 1
   15    18	 1
   15    21	 1
   15    38	 1
   16    19	 1
   16    39	 1
   16    37	 1
   16    22	 1
   17    20	 1
   17    38	 1
   17    40	 1
   17    41	 1
   17    42	 1
   18    36	 1
   18    22	 1
   18    39	 1
   19    21	 1
   20    36	 1
   20    37	 1
   21    36	 1
   21    37	 1
   23    26	 1
   24    27	 1
   25    27	 1
   26    27	 1
   27    43	 1
   31    32	 1
   32    33	 1
   33    34	 1
   34    35	 1
   37    38	 1
   38    39	 1

[ angles ]
;	ai	  aj	ak funct			c0			  c1			c2			  c3
    7     1     2	5 ;     CG2R53     CG3C50      NG3P2
    7     1     9	5 ;     CG2R53     CG3C50     CG2R61
    7     1    15	5 ;     CG2R53     CG3C50     CG2R61
    2     1     9	5 ;      NG3P2     CG3C50     CG2R61
    2     1    15	5 ;      NG3P2     CG3C50     CG2R61
    9     1    15	5 ;     CG2R61     CG3C50     CG2R61
    4     2     1	5 ;     CG3C53      NG3P2     CG3C50
    4     2     3	5 ;     CG3C53      NG3P2       HGP2
    4     2    26	5 ;     CG3C53      NG3P2       HGP2
    1     2     3	5 ;     CG3C50      NG3P2       HGP2
    1     2    26	5 ;     CG3C50      NG3P2       HGP2
    3     2    26	5 ;       HGP2      NG3P2       HGP2
    5     4    23	5 ;     NG2R53     CG3C53      NG3P3
    5     4     2	5 ;     NG2R53     CG3C53      NG3P2
    5     4    27	5 ;     NG2R53     CG3C53       HGA1
   23     4     2	5 ;      NG3P3     CG3C53      NG3P2
   23     4    27	5 ;      NG3P3     CG3C53       HGA1
    2     4    27	5 ;      NG3P2     CG3C53       HGA1
    6     5     7	5 ;      CG331     NG2R53     CG2R53
    6     5     4	5 ;      CG331     NG2R53     CG3C53
    7     5     4	5 ;     CG2R53     NG2R53     CG3C53
    5     6    28	5 ;     NG2R53      CG331       HGA3
    5     6    29	5 ;     NG2R53      CG331       HGA3
    5     6    30	5 ;     NG2R53      CG331       HGA3
   28     6    29	5 ;       HGA3      CG331       HGA3
   28     6    30	5 ;       HGA3      CG331       HGA3
   29     6    30	5 ;       HGA3      CG331       HGA3
    8     7     5	5 ;      OG2D1     CG2R53     NG2R53
    8     7     1	5 ;      OG2D1     CG2R53     CG3C50
    5     7     1	5 ;     NG2R53     CG2R53     CG3C50
   10     9     1	5 ;     CG2R61     CG2R61     CG3C50
   10     9    14	5 ;     CG2R61     CG2R61     CG2R61
    1     9    14	5 ;     CG3C50     CG2R61     CG2R61
   11    10     9	5 ;     CG2R61     CG2R61     CG2R61
   11    10    31	5 ;     CG2R61     CG2R61      HGR61
    9    10    31	5 ;     CG2R61     CG2R61      HGR61
   10    11    12	5 ;     CG2R61     CG2R61     CG2R61
   10    11    32	5 ;     CG2R61     CG2R61      HGR61
   12    11    32	5 ;     CG2R61     CG2R61      HGR61
   11    12    13	5 ;     CG2R61     CG2R61     CG2R61
   11    12    33	5 ;     CG2R61     CG2R61      HGR61
   13    12    33	5 ;     CG2R61     CG2R61      HGR61
   12    13    14	5 ;     CG2R61     CG2R61     CG2R61
   12    13    34	5 ;     CG2R61     CG2R61      HGR61
   14    13    34	5 ;     CG2R61     CG2R61      HGR61
    9    14    13	5 ;     CG2R61     CG2R61     CG2R61
    9    14    35	5 ;     CG2R61     CG2R61      HGR61
   13    14    35	5 ;     CG2R61     CG2R61      HGR61
    1    15    20	5 ;     CG3C50     CG2R61     CG2R61
    1    15    16	5 ;     CG3C50     CG2R61     CG2R61
   20    15    16	5 ;     CG2R61     CG2R61     CG2R61
   15    16    17	5 ;     CG2R61     CG2R61     CG2R61
   15    16    36	5 ;     CG2R61     CG2R61      HGR61
   17    16    36	5 ;     CG2R61     CG2R61      HGR61
   16    17    18	5 ;     CG2R61     CG2R61     CG2R61
   16    17    21	5 ;     CG2R61     CG2R61      OG301
   18    17    21	5 ;     CG2R61     CG2R61      OG301
   19    18    17	5 ;     CG2R61     CG2R61     CG2R61
   19    18    37	5 ;     CG2R61     CG2R61      HGR61
   17    18    37	5 ;     CG2R61     CG2R61      HGR61
   20    19    18	5 ;     CG2R61     CG2R61     CG2R61
   20    19    38	5 ;     CG2R61     CG2R61      HGR61
   18    19    38	5 ;     CG2R61     CG2R61      HGR61
   15    20    19	5 ;     CG2R61     CG2R61     CG2R61
   15    20    39	5 ;     CG2R61     CG2R61      HGR61
   19    20    39	5 ;     CG2R61     CG2R61      HGR61
   17    21    22	5 ;     CG2R61      OG301      CG331
   21    22    40	5 ;      OG301      CG331       HGA3
   21    22    41	5 ;      OG301      CG331       HGA3
   21    22    42	5 ;      OG301      CG331       HGA3
   40    22    41	5 ;       HGA3      CG331       HGA3
   40    22    42	5 ;       HGA3      CG331       HGA3
   41    22    42	5 ;       HGA3      CG331       HGA3
   25    23     4	5 ;       HGP2      NG3P3     CG3C53
   25    23    24	5 ;       HGP2      NG3P3       HGP2
   25    23    43	5 ;       HGP2      NG3P3       HGP2
    4    23    24	5 ;     CG3C53      NG3P3       HGP2
    4    23    43	5 ;     CG3C53      NG3P3       HGP2
   24    23    43	5 ;       HGP2      NG3P3       HGP2

[ dihedrals ]
;	ai	  aj	ak	  al funct			  c0			c1			  c2			c3			  c4			c5
    2     1     7     8	 9 ;      NG3P2     CG3C50     CG2R53      OG2D1
    2     1     7     5	 9 ;      NG3P2     CG3C50     CG2R53     NG2R53
    9     1     7     8	 9 ;     CG2R61     CG3C50     CG2R53      OG2D1
    9     1     7     5	 9 ;     CG2R61     CG3C50     CG2R53     NG2R53
   15     1     7     8	 9 ;     CG2R61     CG3C50     CG2R53      OG2D1
   15     1     7     5	 9 ;     CG2R61     CG3C50     CG2R53     NG2R53
    7     1     2     4	 9 ;     CG2R53     CG3C50      NG3P2     CG3C53
    7     1     2     3	 9 ;     CG2R53     CG3C50      NG3P2       HGP2
    7     1     2    26	 9 ;     CG2R53     CG3C50      NG3P2       HGP2
    9     1     2     4	 9 ;     CG2R61     CG3C50      NG3P2     CG3C53
    9     1     2     3	 9 ;     CG2R61     CG3C50      NG3P2       HGP2
    9     1     2    26	 9 ;     CG2R61     CG3C50      NG3P2       HGP2
   15     1     2     4	 9 ;     CG2R61     CG3C50      NG3P2     CG3C53
   15     1     2     3	 9 ;     CG2R61     CG3C50      NG3P2       HGP2
   15     1     2    26	 9 ;     CG2R61     CG3C50      NG3P2       HGP2
    7     1     9    10	 9 ;     CG2R53     CG3C50     CG2R61     CG2R61
    7     1     9    14	 9 ;     CG2R53     CG3C50     CG2R61     CG2R61
    2     1     9    10	 9 ;      NG3P2     CG3C50     CG2R61     CG2R61
    2     1     9    14	 9 ;      NG3P2     CG3C50     CG2R61     CG2R61
   15     1     9    10	 9 ;     CG2R61     CG3C50     CG2R61     CG2R61
   15     1     9    14	 9 ;     CG2R61     CG3C50     CG2R61     CG2R61
    7     1    15    20	 9 ;     CG2R53     CG3C50     CG2R61     CG2R61
    7     1    15    16	 9 ;     CG2R53     CG3C50     CG2R61     CG2R61
    2     1    15    20	 9 ;      NG3P2     CG3C50     CG2R61     CG2R61
    2     1    15    16	 9 ;      NG3P2     CG3C50     CG2R61     CG2R61
    9     1    15    20	 9 ;     CG2R61     CG3C50     CG2R61     CG2R61
    9     1    15    16	 9 ;     CG2R61     CG3C50     CG2R61     CG2R61
    1     2     4     5	 9 ;     CG3C50      NG3P2     CG3C53     NG2R53
    1     2     4    23	 9 ;     CG3C50      NG3P2     CG3C53      NG3P3
    1     2     4    27	 9 ;     CG3C50      NG3P2     CG3C53       HGA1
    3     2     4     5	 9 ;       HGP2      NG3P2     CG3C53     NG2R53
    3     2     4    23	 9 ;       HGP2      NG3P2     CG3C53      NG3P3
    3     2     4    27	 9 ;       HGP2      NG3P2     CG3C53       HGA1
   26     2     4     5	 9 ;       HGP2      NG3P2     CG3C53     NG2R53
   26     2     4    23	 9 ;       HGP2      NG3P2     CG3C53      NG3P3
   26     2     4    27	 9 ;       HGP2      NG3P2     CG3C53       HGA1
   23     4     5     6	 9 ;      NG3P3     CG3C53     NG2R53      CG331
   23     4     5     7	 9 ;      NG3P3     CG3C53     NG2R53     CG2R53
    2     4     5     6	 9 ;      NG3P2     CG3C53     NG2R53      CG331
    2     4     5     7	 9 ;      NG3P2     CG3C53     NG2R53     CG2R53
   27     4     5     6	 9 ;       HGA1     CG3C53     NG2R53      CG331
   27     4     5     7	 9 ;       HGA1     CG3C53     NG2R53     CG2R53
    5     4    23    25	 9 ;     NG2R53     CG3C53      NG3P3       HGP2
    5     4    23    24	 9 ;     NG2R53     CG3C53      NG3P3       HGP2
    5     4    23    43	 9 ;     NG2R53     CG3C53      NG3P3       HGP2
    2     4    23    25	 9 ;      NG3P2     CG3C53      NG3P3       HGP2
    2     4    23    24	 9 ;      NG3P2     CG3C53      NG3P3       HGP2
    2     4    23    43	 9 ;      NG3P2     CG3C53      NG3P3       HGP2
   27     4    23    25	 9 ;       HGA1     CG3C53      NG3P3       HGP2
   27     4    23    24	 9 ;       HGA1     CG3C53      NG3P3       HGP2
   27     4    23    43	 9 ;       HGA1     CG3C53      NG3P3       HGP2
    7     5     6    28	 9 ;     CG2R53     NG2R53      CG331       HGA3
    7     5     6    29	 9 ;     CG2R53     NG2R53      CG331       HGA3
    7     5     6    30	 9 ;     CG2R53     NG2R53      CG331       HGA3
    4     5     6    28	 9 ;     CG3C53     NG2R53      CG331       HGA3
    4     5     6    29	 9 ;     CG3C53     NG2R53      CG331       HGA3
    4     5     6    30	 9 ;     CG3C53     NG2R53      CG331       HGA3
    6     5     7     8	 9 ;      CG331     NG2R53     CG2R53      OG2D1
    6     5     7     1	 9 ;      CG331     NG2R53     CG2R53     CG3C50
    4     5     7     8	 9 ;     CG3C53     NG2R53     CG2R53      OG2D1
    4     5     7     1	 9 ;     CG3C53     NG2R53     CG2R53     CG3C50
    1     9    10    11	 9 ;     CG3C50     CG2R61     CG2R61     CG2R61
    1     9    10    31	 9 ;     CG3C50     CG2R61     CG2R61      HGR61
   14     9    10    11	 9 ;     CG2R61     CG2R61     CG2R61     CG2R61
   14     9    10    31	 9 ;     CG2R61     CG2R61     CG2R61      HGR61
   10     9    14    13	 9 ;     CG2R61     CG2R61     CG2R61     CG2R61
   10     9    14    35	 9 ;     CG2R61     CG2R61     CG2R61      HGR61
    1     9    14    13	 9 ;     CG3C50     CG2R61     CG2R61     CG2R61
    1     9    14    35	 9 ;     CG3C50     CG2R61     CG2R61      HGR61
    9    10    11    12	 9 ;     CG2R61     CG2R61     CG2R61     CG2R61
    9    10    11    32	 9 ;     CG2R61     CG2R61     CG2R61      HGR61
   31    10    11    12	 9 ;      HGR61     CG2R61     CG2R61     CG2R61
   31    10    11    32	 9 ;      HGR61     CG2R61     CG2R61      HGR61
   10    11    12    13	 9 ;     CG2R61     CG2R61     CG2R61     CG2R61
   10    11    12    33	 9 ;     CG2R61     CG2R61     CG2R61      HGR61
   32    11    12    13	 9 ;      HGR61     CG2R61     CG2R61     CG2R61
   32    11    12    33	 9 ;      HGR61     CG2R61     CG2R61      HGR61
   11    12    13    14	 9 ;     CG2R61     CG2R61     CG2R61     CG2R61
   11    12    13    34	 9 ;     CG2R61     CG2R61     CG2R61      HGR61
   33    12    13    14	 9 ;      HGR61     CG2R61     CG2R61     CG2R61
   33    12    13    34	 9 ;      HGR61     CG2R61     CG2R61      HGR61
   12    13    14     9	 9 ;     CG2R61     CG2R61     CG2R61     CG2R61
   12    13    14    35	 9 ;     CG2R61     CG2R61     CG2R61      HGR61
   34    13    14     9	 9 ;      HGR61     CG2R61     CG2R61     CG2R61
   34    13    14    35	 9 ;      HGR61     CG2R61     CG2R61      HGR61
    1    15    20    19	 9 ;     CG3C50     CG2R61     CG2R61     CG2R61
    1    15    20    39	 9 ;     CG3C50     CG2R61     CG2R61      HGR61
   16    15    20    19	 9 ;     CG2R61     CG2R61     CG2R61     CG2R61
   16    15    20    39	 9 ;     CG2R61     CG2R61     CG2R61      HGR61
    1    15    16    17	 9 ;     CG3C50     CG2R61     CG2R61     CG2R61
    1    15    16    36	 9 ;     CG3C50     CG2R61     CG2R61      HGR61
   20    15    16    17	 9 ;     CG2R61     CG2R61     CG2R61     CG2R61
   20    15    16    36	 9 ;     CG2R61     CG2R61     CG2R61      HGR61
   15    16    17    18	 9 ;     CG2R61     CG2R61     CG2R61     CG2R61
   15    16    17    21	 9 ;     CG2R61     CG2R61     CG2R61      OG301
   36    16    17    18	 9 ;      HGR61     CG2R61     CG2R61     CG2R61
   36    16    17    21	 9 ;      HGR61     CG2R61     CG2R61      OG301
   16    17    18    19	 9 ;     CG2R61     CG2R61     CG2R61     CG2R61
   16    17    18    37	 9 ;     CG2R61     CG2R61     CG2R61      HGR61
   21    17    18    19	 9 ;      OG301     CG2R61     CG2R61     CG2R61
   21    17    18    37	 9 ;      OG301     CG2R61     CG2R61      HGR61
   16    17    21    22	 9 ;     CG2R61     CG2R61      OG301      CG331
   18    17    21    22	 9 ;     CG2R61     CG2R61      OG301      CG331
   17    18    19    20	 9 ;     CG2R61     CG2R61     CG2R61     CG2R61
   17    18    19    38	 9 ;     CG2R61     CG2R61     CG2R61      HGR61
   37    18    19    20	 9 ;      HGR61     CG2R61     CG2R61     CG2R61
   37    18    19    38	 9 ;      HGR61     CG2R61     CG2R61      HGR61
   18    19    20    15	 9 ;     CG2R61     CG2R61     CG2R61     CG2R61
   18    19    20    39	 9 ;     CG2R61     CG2R61     CG2R61      HGR61
   38    19    20    15	 9 ;      HGR61     CG2R61     CG2R61     CG2R61
   38    19    20    39	 9 ;      HGR61     CG2R61     CG2R61      HGR61
   17    21    22    40	 9 ;     CG2R61      OG301      CG331       HGA3
   17    21    22    41	 9 ;     CG2R61      OG301      CG331       HGA3
   17    21    22    42	 9 ;     CG2R61      OG301      CG331       HGA3

[ dihedrals ]
;	ai	  aj	ak	  al funct			  c0			c1			  c2			c3
    7     1     5     8	 2

