Grunge ROck MAChoS
   53
    1LIG     C1    1  -1.403   0.776  -1.566
    1LIG     C2    2  -1.415   0.637  -1.580
    1LIG     C3    3  -1.311   0.548  -1.546
    1LIG     C4    4  -1.191   0.601  -1.498
    1LIG     O1    5  -1.082   0.526  -1.463
    1LIG     C5    6  -1.094   0.389  -1.464
    1LIG     C6    7  -1.209   0.322  -1.507
    1LIG     C7    8  -1.210   0.181  -1.502
    1LIG     C8    9  -1.099   0.110  -1.456
    1LIG     C9   10  -0.985   0.178  -1.416
    1LIG    C10   11  -0.982   0.318  -1.419
    1LIG    C11   12  -1.330   0.398  -1.557
    1LIG     N1   13  -1.450   0.359  -1.478
    1LIG     HN   14  -1.467   0.376  -1.379
    1LIG    C12   15  -1.527   0.300  -1.562
    1LIG     O2   16  -1.488   0.284  -1.690
    1LIG    C13   17  -1.365   0.356  -1.702
    1LIG    C14   18  -1.176   0.739  -1.484
    1LIG    C15   19  -1.281   0.825  -1.516
    1LIG    C16   20  -1.515   0.866  -1.602
    1LIG    C17   21  -1.624   0.888  -1.514
    1LIG      F   22  -1.622   0.828  -1.394
    1LIG    C18   23  -1.731   0.971  -1.548
    1LIG    C19   24  -1.730   1.037  -1.671
    1LIG    C20   25  -1.623   1.020  -1.759
    1LIG    C21   26  -1.518   0.934  -1.725
    1LIG     O3   27  -1.843   0.996  -1.473
    1LIG    C22   28  -1.823   1.066  -1.350
    1LIG     N2   29  -1.648   0.248  -1.535
    1LIG     H1   30  -1.659   0.152  -1.565
    1LIG     H2   31  -1.727   0.308  -1.556
    1LIG     O4   32  -1.093  -0.027  -1.448
    1LIG    C23   33  -0.996  -0.078  -1.358
    1LIG     HC   34  -1.507   0.596  -1.619
    1LIG    HC1   35  -1.298   0.128  -1.534
    1LIG    HC2   36  -0.898   0.124  -1.383
    1LIG    HC3   37  -0.894   0.371  -1.388
    1LIG    HN2   38  -1.493   0.448  -1.501
    1LIG    HC4   39  -1.573   0.396  -1.588
    1LIG    HC5   40  -1.287   0.292  -1.743
    1LIG    HC6   41  -1.379   0.444  -1.764
    1LIG    HC7   42  -1.083   0.779  -1.447
    1LIG    HC8   43  -1.269   0.931  -1.502
    1LIG    HC9   44  -1.811   1.102  -1.698
    1LIG   HC10   45  -1.622   1.072  -1.853
    1LIG   HC11   46  -1.436   0.921  -1.794
    1LIG   HC12   47  -1.918   1.080  -1.300
    1LIG   HC13   48  -1.778   1.164  -1.371
    1LIG   HC14   49  -1.756   1.009  -1.286
    1LIG    HN1   50  -1.649   0.242  -1.435
    1LIG   HC15   51  -1.013  -0.185  -1.343
    1LIG   HC16   52  -0.896  -0.062  -1.399
    1LIG   HC17   53  -1.005  -0.027  -1.262
   0.00000   0.00000   0.00000
