; Created by cgenff_charmm2gmx.py

[ moleculetype ]
; Name			   nrexcl
LIG				 3

[ atoms ]
;	 nr		  type	resnr residue  atom   cgnr	   charge		mass  typeB    chargeB		massB
; residue	 1 LIG rtp LIG q	qsum
     1     CG2R67      1    LIG     C1      1     -0.026     12.011   ;
     2     CG2R61      1    LIG     C2      2     -0.127     12.011   ;
     3     CG2R61      1    LIG     C3      3     -0.329     12.011   ;
     4     CG2R61      1    LIG     C4      4      0.153     12.011   ;
     5     OG3R60      1    LIG     O1      5     -0.292     15.999   ;
     6     CG2R61      1    LIG     C5      6      0.147     12.011   ;
     7     CG2R61      1    LIG     C6      7     -0.324     12.011   ;
     8     CG2R61      1    LIG     C7      8     -0.131     12.011   ;
     9     CG2R61      1    LIG     C8      9      0.222     12.011   ;
    10     CG2R61      1    LIG     C9     10     -0.117     12.011   ;
    11     CG2R61      1    LIG    C10     11     -0.106     12.011   ;
    12     CG3C50      1    LIG    C11     12      1.306     12.011   ;
    13      NG3P2      1    LIG     N1     13     -1.541     14.007   ;
    14       HGP2      1    LIG     HN     14      0.500      1.008   ;
    15     CG3C53      1    LIG    C12     15      1.711     12.011   ;
    16     OG3C51      1    LIG     O2     16     -0.243     15.999   ;
    17     CG3C52      1    LIG    C13     17     -0.015     12.011   ;
    18     CG2R61      1    LIG    C14     18     -0.112     12.011   ;
    19     CG2R61      1    LIG    C15     19     -0.115     12.011   ;
    20     CG2R67      1    LIG    C16     20      0.158     12.011   ;
    21     CG2R66      1    LIG    C17     21     -0.089     12.011   ;
    22       FGR1      1    LIG      F     22     -0.204     18.998   ;
    23     CG2R61      1    LIG    C18     23      0.297     12.011   ;
    24     CG2R61      1    LIG    C19     24     -0.151     12.011   ;
    25     CG2R61      1    LIG    C20     25     -0.091     12.011   ;
    26     CG2R61      1    LIG    C21     26     -0.153     12.011   ;
    27      OG301      1    LIG     O3     27     -0.242     15.999   ;
    28      CG331      1    LIG    C22     28     -0.103     12.011   ;
    29      NG3P3      1    LIG     N2     29     -0.781     14.007   ;
    30       HGP2      1    LIG     H1     30      0.307      1.008   ;
    31       HGP2      1    LIG     H2     31      0.307      1.008   ;
    32      OG301      1    LIG     O4     32     -0.383     15.999   ;
    33      CG331      1    LIG    C23     33     -0.094     12.011   ;
    34      HGR61      1    LIG     HC     34      0.116      1.008   ;
    35      HGR61      1    LIG    HC1     35      0.116      1.008   ;
    36      HGR61      1    LIG    HC2     36      0.116      1.008   ;
    37      HGR61      1    LIG    HC3     37      0.116      1.008   ;
    38       HGP2      1    LIG    HN2     38      0.500      1.008   ;
    39       HGA1      1    LIG    HC4     39      0.090      1.008   ;
    40       HGA2      1    LIG    HC5     40      0.090      1.008   ;
    41       HGA2      1    LIG    HC6     41      0.090      1.008   ;
    42      HGR61      1    LIG    HC7     42      0.116      1.008   ;
    43      HGR61      1    LIG    HC8     43      0.116      1.008   ;
    44      HGR61      1    LIG    HC9     44      0.116      1.008   ;
    45      HGR61      1    LIG   HC10     45      0.116      1.008   ;
    46      HGR61      1    LIG   HC11     46      0.116      1.008   ;
    47       HGA3      1    LIG   HC12     47      0.090      1.008   ;
    48       HGA3      1    LIG   HC13     48      0.090      1.008   ;
    49       HGA3      1    LIG   HC14     49      0.090      1.008   ;
    50       HGP2      1    LIG    HN1     50      0.307      1.008   ;
    51       HGA3      1    LIG   HC15     51      0.090      1.008   ;
    52       HGA3      1    LIG   HC16     52      0.090      1.008   ;
    53       HGA3      1    LIG   HC17     53      0.090      1.008   ;

[ bonds ]
;	ai	  aj funct			  c0			c1			  c2			c3
    1    19	 1 ;      CG2R67     CG2R61
    1    20	 1 ;      CG2R67     CG2R67
    1     2	 1 ;      CG2R67     CG2R61
    2     3	 1 ;      CG2R61     CG2R61
    2    34	 1 ;      CG2R61      HGR61
    3     4	 1 ;      CG2R61     CG2R61
    3    12	 1 ;      CG2R61     CG3C50
    4    18	 1 ;      CG2R61     CG2R61
    4     5	 1 ;      CG2R61     OG3R60
    5     6	 1 ;      OG3R60     CG2R61
    6    11	 1 ;      CG2R61     CG2R61
    6     7	 1 ;      CG2R61     CG2R61
    7    12	 1 ;      CG2R61     CG3C50
    7     8	 1 ;      CG2R61     CG2R61
    8     9	 1 ;      CG2R61     CG2R61
    8    35	 1 ;      CG2R61      HGR61
    9    10	 1 ;      CG2R61     CG2R61
    9    32	 1 ;      CG2R61      OG301
   10    11	 1 ;      CG2R61     CG2R61
   10    36	 1 ;      CG2R61      HGR61
   11    37	 1 ;      CG2R61      HGR61
   12    17	 1 ;      CG3C50     CG3C52
   12    13	 1 ;      CG3C50      NG3P2
   13    15	 1 ;       NG3P2     CG3C53
   13    14	 1 ;       NG3P2       HGP2
   13    38	 1 ;       NG3P2       HGP2
   15    16	 1 ;      CG3C53     OG3C51
   15    29	 1 ;      CG3C53      NG3P3
   15    39	 1 ;      CG3C53       HGA1
   16    17	 1 ;      OG3C51     CG3C52
   17    40	 1 ;      CG3C52       HGA2
   17    41	 1 ;      CG3C52       HGA2
   18    19	 1 ;      CG2R61     CG2R61
   18    42	 1 ;      CG2R61      HGR61
   19    43	 1 ;      CG2R61      HGR61
   20    26	 1 ;      CG2R67     CG2R61
   20    21	 1 ;      CG2R67     CG2R66
   21    23	 1 ;      CG2R66     CG2R61
   21    22	 1 ;      CG2R66       FGR1
   23    24	 1 ;      CG2R61     CG2R61
   23    27	 1 ;      CG2R61      OG301
   24    25	 1 ;      CG2R61     CG2R61
   24    44	 1 ;      CG2R61      HGR61
   25    26	 1 ;      CG2R61     CG2R61
   25    45	 1 ;      CG2R61      HGR61
   26    46	 1 ;      CG2R61      HGR61
   27    28	 1 ;       OG301      CG331
   28    47	 1 ;       CG331       HGA3
   28    48	 1 ;       CG331       HGA3
   28    49	 1 ;       CG331       HGA3
   29    31	 1 ;       NG3P3       HGP2
   29    30	 1 ;       NG3P3       HGP2
   29    50	 1 ;       NG3P3       HGP2
   32    33	 1 ;       OG301      CG331
   33    51	 1 ;       CG331       HGA3
   33    52	 1 ;       CG331       HGA3
   33    53	 1 ;       CG331       HGA3

[ pairs ]
;	ai	  aj funct			  c0			c1			  c2			c3
    1     4	 1
    1    12	 1
    1    42	 1
    1    25	 1
    1    46	 1
    1    23	 1
    1    22	 1
    2    18	 1
    2    43	 1
    2    26	 1
    2    21	 1
    2     5	 1
    2    17	 1
    2     7	 1
    2    13	 1
    3    19	 1
    3    20	 1
    3    42	 1
    3     6	 1
    3     8	 1
    3    16	 1
    3    40	 1
    3    41	 1
    3    15	 1
    3    14	 1
    3    38	 1
    4    34	 1
    4    17	 1
    4     7	 1
    4    13	 1
    4    11	 1
    4    43	 1
    5    12	 1
    5    19	 1
    5    42	 1
    5    10	 1
    5    37	 1
    5     8	 1
    6    18	 1
    6    17	 1
    6    13	 1
    6     9	 1
    6    35	 1
    6    36	 1
    7    10	 1
    7    37	 1
    7    32	 1
    7    16	 1
    7    40	 1
    7    41	 1
    7    15	 1
    7    14	 1
    7    38	 1
    8    11	 1
    8    17	 1
    8    13	 1
    8    36	 1
    8    33	 1
    9    12	 1
    9    37	 1
    9    51	 1
    9    52	 1
    9    53	 1
   10    35	 1
   10    33	 1
   11    12	 1
   11    32	 1
   12    34	 1
   12    18	 1
   12    35	 1
   12    29	 1
   12    39	 1
   13    40	 1
   13    41	 1
   13    31	 1
   13    30	 1
   13    50	 1
   14    17	 1
   14    16	 1
   14    29	 1
   14    39	 1
   15    40	 1
   15    41	 1
   16    38	 1
   16    31	 1
   16    30	 1
   16    50	 1
   17    38	 1
   17    29	 1
   17    39	 1
   18    20	 1
   19    26	 1
   19    21	 1
   19    34	 1
   20    43	 1
   20    34	 1
   20    24	 1
   20    27	 1
   20    45	 1
   21    25	 1
   21    46	 1
   21    44	 1
   21    28	 1
   22    26	 1
   22    24	 1
   22    27	 1
   23    26	 1
   23    45	 1
   23    47	 1
   23    48	 1
   23    49	 1
   24    28	 1
   24    46	 1
   25    27	 1
   26    44	 1
   27    44	 1
   29    38	 1
   30    39	 1
   31    39	 1
   32    35	 1
   32    36	 1
   36    37	 1
   38    39	 1
   39    50	 1
   42    43	 1
   44    45	 1
   45    46	 1

[ angles ]
;	ai	  aj	ak funct			c0			  c1			c2			  c3
   19     1    20	5 ;     CG2R61     CG2R67     CG2R67
   19     1     2	5 ;     CG2R61     CG2R67     CG2R61
   20     1     2	5 ;     CG2R67     CG2R67     CG2R61
    1     2     3	5 ;     CG2R67     CG2R61     CG2R61
    1     2    34	5 ;     CG2R67     CG2R61      HGR61
    3     2    34	5 ;     CG2R61     CG2R61      HGR61
    4     3     2	5 ;     CG2R61     CG2R61     CG2R61
    4     3    12	5 ;     CG2R61     CG2R61     CG3C50
    2     3    12	5 ;     CG2R61     CG2R61     CG3C50
   18     4     5	5 ;     CG2R61     CG2R61     OG3R60
   18     4     3	5 ;     CG2R61     CG2R61     CG2R61
    5     4     3	5 ;     OG3R60     CG2R61     CG2R61
    4     5     6	5 ;     CG2R61     OG3R60     CG2R61
    5     6    11	5 ;     OG3R60     CG2R61     CG2R61
    5     6     7	5 ;     OG3R60     CG2R61     CG2R61
   11     6     7	5 ;     CG2R61     CG2R61     CG2R61
    6     7    12	5 ;     CG2R61     CG2R61     CG3C50
    6     7     8	5 ;     CG2R61     CG2R61     CG2R61
   12     7     8	5 ;     CG3C50     CG2R61     CG2R61
    7     8     9	5 ;     CG2R61     CG2R61     CG2R61
    7     8    35	5 ;     CG2R61     CG2R61      HGR61
    9     8    35	5 ;     CG2R61     CG2R61      HGR61
   10     9     8	5 ;     CG2R61     CG2R61     CG2R61
   10     9    32	5 ;     CG2R61     CG2R61      OG301
    8     9    32	5 ;     CG2R61     CG2R61      OG301
   11    10     9	5 ;     CG2R61     CG2R61     CG2R61
   11    10    36	5 ;     CG2R61     CG2R61      HGR61
    9    10    36	5 ;     CG2R61     CG2R61      HGR61
    6    11    10	5 ;     CG2R61     CG2R61     CG2R61
    6    11    37	5 ;     CG2R61     CG2R61      HGR61
   10    11    37	5 ;     CG2R61     CG2R61      HGR61
   17    12     3	5 ;     CG3C52     CG3C50     CG2R61
   17    12     7	5 ;     CG3C52     CG3C50     CG2R61
   17    12    13	5 ;     CG3C52     CG3C50      NG3P2
    3    12     7	5 ;     CG2R61     CG3C50     CG2R61
    3    12    13	5 ;     CG2R61     CG3C50      NG3P2
    7    12    13	5 ;     CG2R61     CG3C50      NG3P2
   12    13    15	5 ;     CG3C50      NG3P2     CG3C53
   12    13    14	5 ;     CG3C50      NG3P2       HGP2
   12    13    38	5 ;     CG3C50      NG3P2       HGP2
   15    13    14	5 ;     CG3C53      NG3P2       HGP2
   15    13    38	5 ;     CG3C53      NG3P2       HGP2
   14    13    38	5 ;       HGP2      NG3P2       HGP2
   16    15    13	5 ;     OG3C51     CG3C53      NG3P2
   16    15    29	5 ;     OG3C51     CG3C53      NG3P3
   16    15    39	5 ;     OG3C51     CG3C53       HGA1
   13    15    29	5 ;      NG3P2     CG3C53      NG3P3
   13    15    39	5 ;      NG3P2     CG3C53       HGA1
   29    15    39	5 ;      NG3P3     CG3C53       HGA1
   17    16    15	5 ;     CG3C52     OG3C51     CG3C53
   12    17    16	5 ;     CG3C50     CG3C52     OG3C51
   12    17    40	5 ;     CG3C50     CG3C52       HGA2
   12    17    41	5 ;     CG3C50     CG3C52       HGA2
   16    17    40	5 ;     OG3C51     CG3C52       HGA2
   16    17    41	5 ;     OG3C51     CG3C52       HGA2
   40    17    41	5 ;       HGA2     CG3C52       HGA2
   19    18     4	5 ;     CG2R61     CG2R61     CG2R61
   19    18    42	5 ;     CG2R61     CG2R61      HGR61
    4    18    42	5 ;     CG2R61     CG2R61      HGR61
   18    19     1	5 ;     CG2R61     CG2R61     CG2R67
   18    19    43	5 ;     CG2R61     CG2R61      HGR61
    1    19    43	5 ;     CG2R67     CG2R61      HGR61
   26    20     1	5 ;     CG2R61     CG2R67     CG2R67
   26    20    21	5 ;     CG2R61     CG2R67     CG2R66
    1    20    21	5 ;     CG2R67     CG2R67     CG2R66
   20    21    23	5 ;     CG2R67     CG2R66     CG2R61
   20    21    22	5 ;     CG2R67     CG2R66       FGR1
   23    21    22	5 ;     CG2R61     CG2R66       FGR1
   24    23    21	5 ;     CG2R61     CG2R61     CG2R66
   24    23    27	5 ;     CG2R61     CG2R61      OG301
   21    23    27	5 ;     CG2R66     CG2R61      OG301
   25    24    23	5 ;     CG2R61     CG2R61     CG2R61
   25    24    44	5 ;     CG2R61     CG2R61      HGR61
   23    24    44	5 ;     CG2R61     CG2R61      HGR61
   26    25    24	5 ;     CG2R61     CG2R61     CG2R61
   26    25    45	5 ;     CG2R61     CG2R61      HGR61
   24    25    45	5 ;     CG2R61     CG2R61      HGR61
   25    26    20	5 ;     CG2R61     CG2R61     CG2R67
   25    26    46	5 ;     CG2R61     CG2R61      HGR61
   20    26    46	5 ;     CG2R67     CG2R61      HGR61
   23    27    28	5 ;     CG2R61      OG301      CG331
   27    28    47	5 ;      OG301      CG331       HGA3
   27    28    48	5 ;      OG301      CG331       HGA3
   27    28    49	5 ;      OG301      CG331       HGA3
   47    28    48	5 ;       HGA3      CG331       HGA3
   47    28    49	5 ;       HGA3      CG331       HGA3
   48    28    49	5 ;       HGA3      CG331       HGA3
   15    29    31	5 ;     CG3C53      NG3P3       HGP2
   15    29    30	5 ;     CG3C53      NG3P3       HGP2
   15    29    50	5 ;     CG3C53      NG3P3       HGP2
   31    29    30	5 ;       HGP2      NG3P3       HGP2
   31    29    50	5 ;       HGP2      NG3P3       HGP2
   30    29    50	5 ;       HGP2      NG3P3       HGP2
    9    32    33	5 ;     CG2R61      OG301      CG331
   32    33    51	5 ;      OG301      CG331       HGA3
   32    33    52	5 ;      OG301      CG331       HGA3
   32    33    53	5 ;      OG301      CG331       HGA3
   51    33    52	5 ;       HGA3      CG331       HGA3
   51    33    53	5 ;       HGA3      CG331       HGA3
   52    33    53	5 ;       HGA3      CG331       HGA3

[ dihedrals ]
;	ai	  aj	ak	  al funct			  c0			c1			  c2			c3			  c4			c5
   20     1    19    18	 9 ;     CG2R67     CG2R67     CG2R61     CG2R61
   20     1    19    43	 9 ;     CG2R67     CG2R67     CG2R61      HGR61
    2     1    19    18	 9 ;     CG2R61     CG2R67     CG2R61     CG2R61
    2     1    19    43	 9 ;     CG2R61     CG2R67     CG2R61      HGR61
   19     1    20    26	 9 ;     CG2R61     CG2R67     CG2R67     CG2R61
   19     1    20    21	 9 ;     CG2R61     CG2R67     CG2R67     CG2R66
    2     1    20    26	 9 ;     CG2R61     CG2R67     CG2R67     CG2R61
    2     1    20    21	 9 ;     CG2R61     CG2R67     CG2R67     CG2R66
   19     1     2     3	 9 ;     CG2R61     CG2R67     CG2R61     CG2R61
   19     1     2    34	 9 ;     CG2R61     CG2R67     CG2R61      HGR61
   20     1     2     3	 9 ;     CG2R67     CG2R67     CG2R61     CG2R61
   20     1     2    34	 9 ;     CG2R67     CG2R67     CG2R61      HGR61
    1     2     3     4	 9 ;     CG2R67     CG2R61     CG2R61     CG2R61
    1     2     3    12	 9 ;     CG2R67     CG2R61     CG2R61     CG3C50
   34     2     3     4	 9 ;      HGR61     CG2R61     CG2R61     CG2R61
   34     2     3    12	 9 ;      HGR61     CG2R61     CG2R61     CG3C50
    2     3     4    18	 9 ;     CG2R61     CG2R61     CG2R61     CG2R61
    2     3     4     5	 9 ;     CG2R61     CG2R61     CG2R61     OG3R60
   12     3     4    18	 9 ;     CG3C50     CG2R61     CG2R61     CG2R61
   12     3     4     5	 9 ;     CG3C50     CG2R61     CG2R61     OG3R60
    4     3    12    17	 9 ;     CG2R61     CG2R61     CG3C50     CG3C52
    4     3    12     7	 9 ;     CG2R61     CG2R61     CG3C50     CG2R61
    4     3    12    13	 9 ;     CG2R61     CG2R61     CG3C50      NG3P2
    2     3    12    17	 9 ;     CG2R61     CG2R61     CG3C50     CG3C52
    2     3    12     7	 9 ;     CG2R61     CG2R61     CG3C50     CG2R61
    2     3    12    13	 9 ;     CG2R61     CG2R61     CG3C50      NG3P2
    5     4    18    19	 9 ;     OG3R60     CG2R61     CG2R61     CG2R61
    5     4    18    42	 9 ;     OG3R60     CG2R61     CG2R61      HGR61
    3     4    18    19	 9 ;     CG2R61     CG2R61     CG2R61     CG2R61
    3     4    18    42	 9 ;     CG2R61     CG2R61     CG2R61      HGR61
   18     4     5     6	 9 ;     CG2R61     CG2R61     OG3R60     CG2R61
    3     4     5     6	 9 ;     CG2R61     CG2R61     OG3R60     CG2R61
    4     5     6    11	 9 ;     CG2R61     OG3R60     CG2R61     CG2R61
    4     5     6     7	 9 ;     CG2R61     OG3R60     CG2R61     CG2R61
    5     6    11    10	 9 ;     OG3R60     CG2R61     CG2R61     CG2R61
    5     6    11    37	 9 ;     OG3R60     CG2R61     CG2R61      HGR61
    7     6    11    10	 9 ;     CG2R61     CG2R61     CG2R61     CG2R61
    7     6    11    37	 9 ;     CG2R61     CG2R61     CG2R61      HGR61
    5     6     7    12	 9 ;     OG3R60     CG2R61     CG2R61     CG3C50
    5     6     7     8	 9 ;     OG3R60     CG2R61     CG2R61     CG2R61
   11     6     7    12	 9 ;     CG2R61     CG2R61     CG2R61     CG3C50
   11     6     7     8	 9 ;     CG2R61     CG2R61     CG2R61     CG2R61
    6     7    12    17	 9 ;     CG2R61     CG2R61     CG3C50     CG3C52
    6     7    12     3	 9 ;     CG2R61     CG2R61     CG3C50     CG2R61
    6     7    12    13	 9 ;     CG2R61     CG2R61     CG3C50      NG3P2
    8     7    12    17	 9 ;     CG2R61     CG2R61     CG3C50     CG3C52
    8     7    12     3	 9 ;     CG2R61     CG2R61     CG3C50     CG2R61
    8     7    12    13	 9 ;     CG2R61     CG2R61     CG3C50      NG3P2
    6     7     8     9	 9 ;     CG2R61     CG2R61     CG2R61     CG2R61
    6     7     8    35	 9 ;     CG2R61     CG2R61     CG2R61      HGR61
   12     7     8     9	 9 ;     CG3C50     CG2R61     CG2R61     CG2R61
   12     7     8    35	 9 ;     CG3C50     CG2R61     CG2R61      HGR61
    7     8     9    10	 9 ;     CG2R61     CG2R61     CG2R61     CG2R61
    7     8     9    32	 9 ;     CG2R61     CG2R61     CG2R61      OG301
   35     8     9    10	 9 ;      HGR61     CG2R61     CG2R61     CG2R61
   35     8     9    32	 9 ;      HGR61     CG2R61     CG2R61      OG301
    8     9    10    11	 9 ;     CG2R61     CG2R61     CG2R61     CG2R61
    8     9    10    36	 9 ;     CG2R61     CG2R61     CG2R61      HGR61
   32     9    10    11	 9 ;      OG301     CG2R61     CG2R61     CG2R61
   32     9    10    36	 9 ;      OG301     CG2R61     CG2R61      HGR61
   10     9    32    33	 9 ;     CG2R61     CG2R61      OG301      CG331
    8     9    32    33	 9 ;     CG2R61     CG2R61      OG301      CG331
    9    10    11     6	 9 ;     CG2R61     CG2R61     CG2R61     CG2R61
    9    10    11    37	 9 ;     CG2R61     CG2R61     CG2R61      HGR61
   36    10    11     6	 9 ;      HGR61     CG2R61     CG2R61     CG2R61
   36    10    11    37	 9 ;      HGR61     CG2R61     CG2R61      HGR61
    3    12    17    16	 9 ;     CG2R61     CG3C50     CG3C52     OG3C51
    3    12    17    40	 9 ;     CG2R61     CG3C50     CG3C52       HGA2
    3    12    17    41	 9 ;     CG2R61     CG3C50     CG3C52       HGA2
    7    12    17    16	 9 ;     CG2R61     CG3C50     CG3C52     OG3C51
    7    12    17    40	 9 ;     CG2R61     CG3C50     CG3C52       HGA2
    7    12    17    41	 9 ;     CG2R61     CG3C50     CG3C52       HGA2
   13    12    17    16	 9 ;      NG3P2     CG3C50     CG3C52     OG3C51
   13    12    17    40	 9 ;      NG3P2     CG3C50     CG3C52       HGA2
   13    12    17    41	 9 ;      NG3P2     CG3C50     CG3C52       HGA2
   17    12    13    15	 9 ;     CG3C52     CG3C50      NG3P2     CG3C53
   17    12    13    14	 9 ;     CG3C52     CG3C50      NG3P2       HGP2
   17    12    13    38	 9 ;     CG3C52     CG3C50      NG3P2       HGP2
    3    12    13    15	 9 ;     CG2R61     CG3C50      NG3P2     CG3C53
    3    12    13    14	 9 ;     CG2R61     CG3C50      NG3P2       HGP2
    3    12    13    38	 9 ;     CG2R61     CG3C50      NG3P2       HGP2
    7    12    13    15	 9 ;     CG2R61     CG3C50      NG3P2     CG3C53
    7    12    13    14	 9 ;     CG2R61     CG3C50      NG3P2       HGP2
    7    12    13    38	 9 ;     CG2R61     CG3C50      NG3P2       HGP2
   12    13    15    16	 9 ;     CG3C50      NG3P2     CG3C53     OG3C51
   12    13    15    29	 9 ;     CG3C50      NG3P2     CG3C53      NG3P3
   12    13    15    39	 9 ;     CG3C50      NG3P2     CG3C53       HGA1
   14    13    15    16	 9 ;       HGP2      NG3P2     CG3C53     OG3C51
   14    13    15    29	 9 ;       HGP2      NG3P2     CG3C53      NG3P3
   14    13    15    39	 9 ;       HGP2      NG3P2     CG3C53       HGA1
   38    13    15    16	 9 ;       HGP2      NG3P2     CG3C53     OG3C51
   38    13    15    29	 9 ;       HGP2      NG3P2     CG3C53      NG3P3
   38    13    15    39	 9 ;       HGP2      NG3P2     CG3C53       HGA1
   13    15    16    17	 9 ;      NG3P2     CG3C53     OG3C51     CG3C52
   29    15    16    17	 9 ;      NG3P3     CG3C53     OG3C51     CG3C52
   39    15    16    17	 9 ;       HGA1     CG3C53     OG3C51     CG3C52
   16    15    29    31	 9 ;     OG3C51     CG3C53      NG3P3       HGP2
   16    15    29    30	 9 ;     OG3C51     CG3C53      NG3P3       HGP2
   16    15    29    50	 9 ;     OG3C51     CG3C53      NG3P3       HGP2
   13    15    29    31	 9 ;      NG3P2     CG3C53      NG3P3       HGP2
   13    15    29    30	 9 ;      NG3P2     CG3C53      NG3P3       HGP2
   13    15    29    50	 9 ;      NG3P2     CG3C53      NG3P3       HGP2
   39    15    29    31	 9 ;       HGA1     CG3C53      NG3P3       HGP2
   39    15    29    30	 9 ;       HGA1     CG3C53      NG3P3       HGP2
   39    15    29    50	 9 ;       HGA1     CG3C53      NG3P3       HGP2
   15    16    17    12	 9 ;     CG3C53     OG3C51     CG3C52     CG3C50
   15    16    17    40	 9 ;     CG3C53     OG3C51     CG3C52       HGA2
   15    16    17    41	 9 ;     CG3C53     OG3C51     CG3C52       HGA2
    4    18    19     1	 9 ;     CG2R61     CG2R61     CG2R61     CG2R67
    4    18    19    43	 9 ;     CG2R61     CG2R61     CG2R61      HGR61
   42    18    19     1	 9 ;      HGR61     CG2R61     CG2R61     CG2R67
   42    18    19    43	 9 ;      HGR61     CG2R61     CG2R61      HGR61
    1    20    26    25	 9 ;     CG2R67     CG2R67     CG2R61     CG2R61
    1    20    26    46	 9 ;     CG2R67     CG2R67     CG2R61      HGR61
   21    20    26    25	 9 ;     CG2R66     CG2R67     CG2R61     CG2R61
   21    20    26    46	 9 ;     CG2R66     CG2R67     CG2R61      HGR61
   26    20    21    23	 9 ;     CG2R61     CG2R67     CG2R66     CG2R61
   26    20    21    22	 9 ;     CG2R61     CG2R67     CG2R66       FGR1
    1    20    21    23	 9 ;     CG2R67     CG2R67     CG2R66     CG2R61
    1    20    21    22	 9 ;     CG2R67     CG2R67     CG2R66       FGR1
   20    21    23    24	 9 ;     CG2R67     CG2R66     CG2R61     CG2R61
   20    21    23    27	 9 ;     CG2R67     CG2R66     CG2R61      OG301
   22    21    23    24	 9 ;       FGR1     CG2R66     CG2R61     CG2R61
   22    21    23    27	 9 ;       FGR1     CG2R66     CG2R61      OG301
   21    23    24    25	 9 ;     CG2R66     CG2R61     CG2R61     CG2R61
   21    23    24    44	 9 ;     CG2R66     CG2R61     CG2R61      HGR61
   27    23    24    25	 9 ;      OG301     CG2R61     CG2R61     CG2R61
   27    23    24    44	 9 ;      OG301     CG2R61     CG2R61      HGR61
   24    23    27    28	 9 ;     CG2R61     CG2R61      OG301      CG331
   21    23    27    28	 9 ;     CG2R66     CG2R61      OG301      CG331
   23    24    25    26	 9 ;     CG2R61     CG2R61     CG2R61     CG2R61
   23    24    25    45	 9 ;     CG2R61     CG2R61     CG2R61      HGR61
   44    24    25    26	 9 ;      HGR61     CG2R61     CG2R61     CG2R61
   44    24    25    45	 9 ;      HGR61     CG2R61     CG2R61      HGR61
   24    25    26    20	 9 ;     CG2R61     CG2R61     CG2R61     CG2R67
   24    25    26    46	 9 ;     CG2R61     CG2R61     CG2R61      HGR61
   45    25    26    20	 9 ;      HGR61     CG2R61     CG2R61     CG2R67
   45    25    26    46	 9 ;      HGR61     CG2R61     CG2R61      HGR61
   23    27    28    47	 9 ;     CG2R61      OG301      CG331       HGA3
   23    27    28    48	 9 ;     CG2R61      OG301      CG331       HGA3
   23    27    28    49	 9 ;     CG2R61      OG301      CG331       HGA3
    9    32    33    51	 9 ;     CG2R61      OG301      CG331       HGA3
    9    32    33    52	 9 ;     CG2R61      OG301      CG331       HGA3
    9    32    33    53	 9 ;     CG2R61      OG301      CG331       HGA3

