GROningen MAchine for Chemical Simulation
   76
    1LIG     N1    1  -1.412   0.567  -1.725
    1LIG     H1    2  -1.365   0.634  -1.788
    1LIG     H2    3  -1.372   0.475  -1.745
    1LIG     C1    4  -1.371   0.604  -1.582
    1LIG     C2    5  -1.241   0.526  -1.546
    1LIG     O1    6  -1.164   0.593  -1.445
    1LIG     H3    7  -1.211   0.600  -1.360
    1LIG     C3    8  -1.266   0.375  -1.512
    1LIG     N2    9  -1.175   0.294  -1.595
    1LIG     C4   10  -1.197   0.259  -1.726
    1LIG     O2   11  -1.299   0.289  -1.787
    1LIG     C5   12  -1.079   0.190  -1.789
    1LIG     H4   13  -1.087   0.262  -1.553
    1LIG     C6   14  -1.250   0.339  -1.361
    1LIG     C7   15  -1.228   0.190  -1.335
    1LIG     C8   16  -1.329   0.097  -1.365
    1LIG     C9   17  -1.316  -0.036  -1.325
    1LIG     F1   18  -1.414  -0.123  -1.353
    1LIG    C10   19  -1.208  -0.076  -1.250
    1LIG    C11   20  -1.105   0.014  -1.224
    1LIG    C12   21  -1.113   0.145  -1.271
    1LIG     F2   22  -1.003  -0.023  -1.148
    1LIG    C13   23  -1.562   0.564  -1.764
    1LIG    C14   24  -1.567   0.513  -1.913
    1LIG    C15   25  -1.504   0.608  -2.016
    1LIG    C16   26  -1.554   0.752  -2.001
    1LIG     N3   27  -1.541   0.793  -1.862
    1LIG    C17   28  -1.617   0.711  -1.766
    1LIG    C18   29  -1.467   0.898  -1.814
    1LIG     O3   30  -1.456   0.922  -1.694
    1LIG     N4   31  -1.391   0.966  -1.902
    1LIG     H5   32  -1.428   0.985  -1.994
    1LIG     H6   33  -1.346   1.047  -1.862
    1LIG    C19   34  -1.639   0.467  -1.673
    1LIG    C20   35  -1.738   0.516  -1.585
    1LIG    C21   36  -1.822   0.433  -1.509
    1LIG    C22   37  -1.801   0.295  -1.520
    1LIG    C23   38  -1.700   0.243  -1.601
    1LIG    C24   39  -1.619   0.328  -1.676
    1LIG    C25   40  -1.937   0.488  -1.422
    1LIG    C26   41  -2.047   0.382  -1.396
    1LIG    C27   42  -1.881   0.534  -1.286
    1LIG    C28   43  -2.007   0.609  -1.488
    1LIG    HC2   44  -1.451   0.578  -1.513
    1LIG    HC3   45  -1.352   0.711  -1.577
    1LIG     HC   46  -1.180   0.526  -1.636
    1LIG    HC1   47  -1.368   0.350  -1.542
    1LIG    HC4   48  -1.340   0.370  -1.308
    1LIG    HC5   49  -1.165   0.394  -1.320
    1LIG    HC6   50  -1.417   0.127  -1.421
    1LIG    HC7   51  -1.203  -0.177  -1.212
    1LIG    HC8   52  -1.029   0.211  -1.259
    1LIG    HC9   53  -1.514   0.418  -1.917
    1LIG   HC10   54  -1.671   0.496  -1.940
    1LIG   HC11   55  -1.530   0.573  -2.116
    1LIG   HC12   56  -1.396   0.607  -2.004
    1LIG   HC13   57  -1.495   0.817  -2.064
    1LIG   HC14   58  -1.659   0.757  -2.031
    1LIG   HC15   59  -1.608   0.754  -1.667
    1LIG   HC16   60  -1.722   0.709  -1.796
    1LIG   HC17   61  -1.750   0.623  -1.577
    1LIG   HC18   62  -1.865   0.227  -1.464
    1LIG   HC19   63  -1.685   0.137  -1.606
    1LIG   HC20   64  -1.541   0.287  -1.738
    1LIG   HC21   65  -1.103   0.166  -1.893
    1LIG   HC22   66  -1.056   0.099  -1.734
    1LIG   HC23   67  -0.992   0.256  -1.787
    1LIG   HC24   68  -2.003   0.295  -1.349
    1LIG   HC25   69  -2.123   0.424  -1.329
    1LIG   HC26   70  -2.093   0.354  -1.490
    1LIG   HC27   71  -1.933   0.687  -1.509
    1LIG   HC28   72  -2.054   0.578  -1.582
    1LIG   HC29   73  -2.083   0.649  -1.421
    1LIG   HC30   74  -1.803   0.608  -1.302
    1LIG   HC31   75  -1.838   0.448  -1.234
    1LIG   HC32   76  -1.961   0.577  -1.226
   0.00000   0.00000   0.00000
