; Created by cgenff_charmm2gmx.py

[ moleculetype ]
; Name			   nrexcl
LIG				 3

[ atoms ]
;	 nr		  type	resnr residue  atom   cgnr	   charge		mass  typeB    chargeB		massB
; residue	 1 LIG rtp LIG q	qsum
     1      NG3P2      1    LIG     N1      1     -0.425     14.007   ;
     2       HGP2      1    LIG     H1      2      0.341      1.008   ;
     3       HGP2      1    LIG     H2      3      0.341      1.008   ;
     4      CG324      1    LIG     C1      4      0.208     12.011   ;
     5      CG311      1    LIG     C2      5      0.089     12.011   ;
     6      OG311      1    LIG     O1      6     -0.625     15.999   ;
     7       HGP1      1    LIG     H3      7      0.415      1.008   ;
     8      CG311      1    LIG     C3      8     -0.007     12.011   ;
     9      NG2S1      1    LIG     N2      9     -0.339     14.007   ;
    10      CG2O1      1    LIG     C4     10      0.488     12.011   ;
    11      OG2D1      1    LIG     O2     11     -0.509     15.999   ;
    12      CG331      1    LIG     C5     12     -0.270     12.011   ;
    13       HGP1      1    LIG     H4     13      0.261      1.008   ;
    14      CG321      1    LIG     C6     14     -0.153     12.011   ;
    15     CG2R61      1    LIG     C7     15      0.057     12.011   ;
    16     CG2R61      1    LIG     C8     16     -0.218     12.011   ;
    17     CG2R66      1    LIG     C9     17      0.261     12.011   ;
    18       FGR1      1    LIG     F1     18     -0.210     18.998   ;
    19     CG2R61      1    LIG    C10     19     -0.240     12.011   ;
    20     CG2R66      1    LIG    C11     20      0.261     12.011   ;
    21     CG2R61      1    LIG    C12     21     -0.218     12.011   ;
    22       FGR1      1    LIG     F2     22     -0.210     18.998   ;
    23      CG301      1    LIG    C13     23      0.292     12.011   ;
    24      CG321      1    LIG    C14     24     -0.156     12.011   ;
    25      CG321      1    LIG    C15     25     -0.192     12.011   ;
    26      CG321      1    LIG    C16     26      0.107     12.011   ;
    27      NG2S0      1    LIG     N3     27     -0.713     14.007   ;
    28      CG321      1    LIG    C17     28      0.226     12.011   ;
    29      CG2O6      1    LIG    C18     29      0.646     12.011   ;
    30      OG2D1      1    LIG     O3     30     -0.568     15.999   ;
    31      NG2S2      1    LIG     N4     31     -0.666     14.007   ;
    32       HGP1      1    LIG     H5     32      0.303      1.008   ;
    33       HGP1      1    LIG     H6     33      0.303      1.008   ;
    34     CG2R61      1    LIG    C19     34      0.079     12.011   ;
    35     CG2R61      1    LIG    C20     35     -0.134     12.011   ;
    36     CG2R61      1    LIG    C21     36      0.082     12.011   ;
    37     CG2R61      1    LIG    C22     37     -0.121     12.011   ;
    38     CG2R61      1    LIG    C23     38     -0.110     12.011   ;
    39     CG2R61      1    LIG    C24     39     -0.129     12.011   ;
    40      CG301      1    LIG    C25     40     -0.018     12.011   ;
    41      CG331      1    LIG    C26     41     -0.289     12.011   ;
    42      CG331      1    LIG    C27     42     -0.289     12.011   ;
    43      CG331      1    LIG    C28     43     -0.289     12.011   ;
    44       HGA2      1    LIG    HC2     44      0.090      1.008   ;
    45       HGA2      1    LIG    HC3     45      0.090      1.008   ;
    46       HGA1      1    LIG     HC     46      0.090      1.008   ;
    47       HGA1      1    LIG    HC1     47      0.090      1.008   ;
    48       HGA2      1    LIG    HC4     48      0.090      1.008   ;
    49       HGA2      1    LIG    HC5     49      0.090      1.008   ;
    50      HGR62      1    LIG    HC6     50      0.174      1.008   ;
    51      HGR62      1    LIG    HC7     51      0.186      1.008   ;
    52      HGR62      1    LIG    HC8     52      0.174      1.008   ;
    53       HGA2      1    LIG    HC9     53      0.090      1.008   ;
    54       HGA2      1    LIG   HC10     54      0.090      1.008   ;
    55       HGA2      1    LIG   HC11     55      0.090      1.008   ;
    56       HGA2      1    LIG   HC12     56      0.090      1.008   ;
    57       HGA2      1    LIG   HC13     57      0.090      1.008   ;
    58       HGA2      1    LIG   HC14     58      0.090      1.008   ;
    59       HGA2      1    LIG   HC15     59      0.090      1.008   ;
    60       HGA2      1    LIG   HC16     60      0.090      1.008   ;
    61      HGR61      1    LIG   HC17     61      0.116      1.008   ;
    62      HGR61      1    LIG   HC18     62      0.116      1.008   ;
    63      HGR61      1    LIG   HC19     63      0.116      1.008   ;
    64      HGR61      1    LIG   HC20     64      0.116      1.008   ;
    65       HGA3      1    LIG   HC21     65      0.090      1.008   ;
    66       HGA3      1    LIG   HC22     66      0.090      1.008   ;
    67       HGA3      1    LIG   HC23     67      0.090      1.008   ;
    68       HGA3      1    LIG   HC24     68      0.090      1.008   ;
    69       HGA3      1    LIG   HC25     69      0.090      1.008   ;
    70       HGA3      1    LIG   HC26     70      0.090      1.008   ;
    71       HGA3      1    LIG   HC27     71      0.090      1.008   ;
    72       HGA3      1    LIG   HC28     72      0.090      1.008   ;
    73       HGA3      1    LIG   HC29     73      0.090      1.008   ;
    74       HGA3      1    LIG   HC30     74      0.090      1.008   ;
    75       HGA3      1    LIG   HC31     75      0.090      1.008   ;
    76       HGA3      1    LIG   HC32     76      0.090      1.008   ;

[ bonds ]
;	ai	  aj funct			  c0			c1			  c2			c3
    1     2	 1 ;       NG3P2       HGP2
    1     3	 1 ;       NG3P2       HGP2
    1     4	 1 ;       NG3P2      CG324
    1    23	 1 ;       NG3P2      CG301
    4     5	 1 ;       CG324      CG311
    4    44	 1 ;       CG324       HGA2
    4    45	 1 ;       CG324       HGA2
    5     6	 1 ;       CG311      OG311
    5     8	 1 ;       CG311      CG311
    5    46	 1 ;       CG311       HGA1
    6     7	 1 ;       OG311       HGP1
    8     9	 1 ;       CG311      NG2S1
    8    14	 1 ;       CG311      CG321
    8    47	 1 ;       CG311       HGA1
    9    10	 1 ;       NG2S1      CG2O1
    9    13	 1 ;       NG2S1       HGP1
   10    12	 1 ;       CG2O1      CG331
   10    11	 1 ;       CG2O1      OG2D1
   12    65	 1 ;       CG331       HGA3
   12    66	 1 ;       CG331       HGA3
   12    67	 1 ;       CG331       HGA3
   14    15	 1 ;       CG321     CG2R61
   14    48	 1 ;       CG321       HGA2
   14    49	 1 ;       CG321       HGA2
   15    21	 1 ;      CG2R61     CG2R61
   15    16	 1 ;      CG2R61     CG2R61
   16    17	 1 ;      CG2R61     CG2R66
   16    50	 1 ;      CG2R61      HGR62
   17    19	 1 ;      CG2R66     CG2R61
   17    18	 1 ;      CG2R66       FGR1
   19    20	 1 ;      CG2R61     CG2R66
   19    51	 1 ;      CG2R61      HGR62
   20    22	 1 ;      CG2R66       FGR1
   20    21	 1 ;      CG2R66     CG2R61
   21    52	 1 ;      CG2R61      HGR62
   23    24	 1 ;       CG301      CG321
   23    28	 1 ;       CG301      CG321
   23    34	 1 ;       CG301     CG2R61
   24    25	 1 ;       CG321      CG321
   24    53	 1 ;       CG321       HGA2
   24    54	 1 ;       CG321       HGA2
   25    26	 1 ;       CG321      CG321
   25    55	 1 ;       CG321       HGA2
   25    56	 1 ;       CG321       HGA2
   26    27	 1 ;       CG321      NG2S0
   26    57	 1 ;       CG321       HGA2
   26    58	 1 ;       CG321       HGA2
   27    29	 1 ;       NG2S0      CG2O6
   27    28	 1 ;       NG2S0      CG321
   28    59	 1 ;       CG321       HGA2
   28    60	 1 ;       CG321       HGA2
   29    31	 1 ;       CG2O6      NG2S2
   29    30	 1 ;       CG2O6      OG2D1
   31    32	 1 ;       NG2S2       HGP1
   31    33	 1 ;       NG2S2       HGP1
   34    39	 1 ;      CG2R61     CG2R61
   34    35	 1 ;      CG2R61     CG2R61
   35    36	 1 ;      CG2R61     CG2R61
   35    61	 1 ;      CG2R61      HGR61
   36    37	 1 ;      CG2R61     CG2R61
   36    40	 1 ;      CG2R61      CG301
   37    38	 1 ;      CG2R61     CG2R61
   37    62	 1 ;      CG2R61      HGR61
   38    39	 1 ;      CG2R61     CG2R61
   38    63	 1 ;      CG2R61      HGR61
   39    64	 1 ;      CG2R61      HGR61
   40    43	 1 ;       CG301      CG331
   40    42	 1 ;       CG301      CG331
   40    41	 1 ;       CG301      CG331
   41    68	 1 ;       CG331       HGA3
   41    69	 1 ;       CG331       HGA3
   41    70	 1 ;       CG331       HGA3
   42    74	 1 ;       CG331       HGA3
   42    75	 1 ;       CG331       HGA3
   42    76	 1 ;       CG331       HGA3
   43    71	 1 ;       CG331       HGA3
   43    72	 1 ;       CG331       HGA3
   43    73	 1 ;       CG331       HGA3

[ pairs ]
;	ai	  aj funct			  c0			c1			  c2			c3
    1     6	 1
    1     8	 1
    1    46	 1
    1    25	 1
    1    53	 1
    1    54	 1
    1    27	 1
    1    59	 1
    1    60	 1
    1    39	 1
    1    35	 1
    2     5	 1
    2    44	 1
    2    45	 1
    2    24	 1
    2    28	 1
    2    34	 1
    3     5	 1
    3    44	 1
    3    45	 1
    3    24	 1
    3    28	 1
    3    34	 1
    4    24	 1
    4    28	 1
    4    34	 1
    4     7	 1
    4     9	 1
    4    14	 1
    4    47	 1
    5    23	 1
    5    10	 1
    5    13	 1
    5    15	 1
    5    48	 1
    5    49	 1
    6    44	 1
    6    45	 1
    6     9	 1
    6    14	 1
    6    47	 1
    7     8	 1
    7    46	 1
    8    44	 1
    8    45	 1
    8    12	 1
    8    11	 1
    8    21	 1
    8    16	 1
    9    46	 1
    9    15	 1
    9    48	 1
    9    49	 1
    9    65	 1
    9    66	 1
    9    67	 1
   10    14	 1
   10    47	 1
   11    13	 1
   11    65	 1
   11    66	 1
   11    67	 1
   12    13	 1
   13    14	 1
   13    47	 1
   14    46	 1
   14    20	 1
   14    52	 1
   14    17	 1
   14    50	 1
   15    47	 1
   15    19	 1
   15    18	 1
   15    22	 1
   16    48	 1
   16    49	 1
   16    20	 1
   16    52	 1
   16    51	 1
   17    21	 1
   17    22	 1
   18    50	 1
   18    20	 1
   18    51	 1
   19    50	 1
   19    52	 1
   21    48	 1
   21    49	 1
   21    50	 1
   21    51	 1
   22    51	 1
   22    52	 1
   23    44	 1
   23    45	 1
   23    26	 1
   23    55	 1
   23    56	 1
   23    29	 1
   23    38	 1
   23    64	 1
   23    36	 1
   23    61	 1
   24    27	 1
   24    59	 1
   24    60	 1
   24    39	 1
   24    35	 1
   24    57	 1
   24    58	 1
   25    28	 1
   25    34	 1
   25    29	 1
   26    53	 1
   26    54	 1
   26    31	 1
   26    30	 1
   26    59	 1
   26    60	 1
   27    34	 1
   27    55	 1
   27    56	 1
   27    32	 1
   27    33	 1
   28    53	 1
   28    54	 1
   28    39	 1
   28    35	 1
   28    57	 1
   28    58	 1
   28    31	 1
   28    30	 1
   29    57	 1
   29    58	 1
   29    59	 1
   29    60	 1
   30    32	 1
   30    33	 1
   34    53	 1
   34    54	 1
   34    59	 1
   34    60	 1
   34    37	 1
   34    40	 1
   34    63	 1
   35    38	 1
   35    64	 1
   35    62	 1
   35    43	 1
   35    42	 1
   35    41	 1
   36    39	 1
   36    63	 1
   36    71	 1
   36    72	 1
   36    73	 1
   36    74	 1
   36    75	 1
   36    76	 1
   36    68	 1
   36    69	 1
   36    70	 1
   37    61	 1
   37    43	 1
   37    42	 1
   37    41	 1
   37    64	 1
   38    40	 1
   39    61	 1
   39    62	 1
   40    61	 1
   40    62	 1
   41    71	 1
   41    72	 1
   41    73	 1
   41    74	 1
   41    75	 1
   41    76	 1
   42    71	 1
   42    72	 1
   42    73	 1
   42    68	 1
   42    69	 1
   42    70	 1
   43    74	 1
   43    75	 1
   43    76	 1
   43    68	 1
   43    69	 1
   43    70	 1
   44    46	 1
   45    46	 1
   46    47	 1
   47    48	 1
   47    49	 1
   53    55	 1
   53    56	 1
   54    55	 1
   54    56	 1
   55    57	 1
   55    58	 1
   56    57	 1
   56    58	 1
   62    63	 1
   63    64	 1

[ angles ]
;	ai	  aj	ak funct			c0			  c1			c2			  c3
    2     1     3	5 ;       HGP2      NG3P2       HGP2
    2     1     4	5 ;       HGP2      NG3P2      CG324
    2     1    23	5 ;       HGP2      NG3P2      CG301
    3     1     4	5 ;       HGP2      NG3P2      CG324
    3     1    23	5 ;       HGP2      NG3P2      CG301
    4     1    23	5 ;      CG324      NG3P2      CG301
    5     4     1	5 ;      CG311      CG324      NG3P2
    5     4    44	5 ;      CG311      CG324       HGA2
    5     4    45	5 ;      CG311      CG324       HGA2
    1     4    44	5 ;      NG3P2      CG324       HGA2
    1     4    45	5 ;      NG3P2      CG324       HGA2
   44     4    45	5 ;       HGA2      CG324       HGA2
    6     5     8	5 ;      OG311      CG311      CG311
    6     5     4	5 ;      OG311      CG311      CG324
    6     5    46	5 ;      OG311      CG311       HGA1
    8     5     4	5 ;      CG311      CG311      CG324
    8     5    46	5 ;      CG311      CG311       HGA1
    4     5    46	5 ;      CG324      CG311       HGA1
    5     6     7	5 ;      CG311      OG311       HGP1
    9     8     5	5 ;      NG2S1      CG311      CG311
    9     8    14	5 ;      NG2S1      CG311      CG321
    9     8    47	5 ;      NG2S1      CG311       HGA1
    5     8    14	5 ;      CG311      CG311      CG321
    5     8    47	5 ;      CG311      CG311       HGA1
   14     8    47	5 ;      CG321      CG311       HGA1
   10     9    13	5 ;      CG2O1      NG2S1       HGP1
   10     9     8	5 ;      CG2O1      NG2S1      CG311
   13     9     8	5 ;       HGP1      NG2S1      CG311
   12    10    11	5 ;      CG331      CG2O1      OG2D1
   12    10     9	5 ;      CG331      CG2O1      NG2S1
   11    10     9	5 ;      OG2D1      CG2O1      NG2S1
   10    12    65	5 ;      CG2O1      CG331       HGA3
   10    12    66	5 ;      CG2O1      CG331       HGA3
   10    12    67	5 ;      CG2O1      CG331       HGA3
   65    12    66	5 ;       HGA3      CG331       HGA3
   65    12    67	5 ;       HGA3      CG331       HGA3
   66    12    67	5 ;       HGA3      CG331       HGA3
    8    14    15	5 ;      CG311      CG321     CG2R61
    8    14    48	5 ;      CG311      CG321       HGA2
    8    14    49	5 ;      CG311      CG321       HGA2
   15    14    48	5 ;     CG2R61      CG321       HGA2
   15    14    49	5 ;     CG2R61      CG321       HGA2
   48    14    49	5 ;       HGA2      CG321       HGA2
   21    15    14	5 ;     CG2R61     CG2R61      CG321
   21    15    16	5 ;     CG2R61     CG2R61     CG2R61
   14    15    16	5 ;      CG321     CG2R61     CG2R61
   15    16    17	5 ;     CG2R61     CG2R61     CG2R66
   15    16    50	5 ;     CG2R61     CG2R61      HGR62
   17    16    50	5 ;     CG2R66     CG2R61      HGR62
   19    17    16	5 ;     CG2R61     CG2R66     CG2R61
   19    17    18	5 ;     CG2R61     CG2R66       FGR1
   16    17    18	5 ;     CG2R61     CG2R66       FGR1
   20    19    17	5 ;     CG2R66     CG2R61     CG2R66
   20    19    51	5 ;     CG2R66     CG2R61      HGR62
   17    19    51	5 ;     CG2R66     CG2R61      HGR62
   22    20    21	5 ;       FGR1     CG2R66     CG2R61
   22    20    19	5 ;       FGR1     CG2R66     CG2R61
   21    20    19	5 ;     CG2R61     CG2R66     CG2R61
   20    21    15	5 ;     CG2R66     CG2R61     CG2R61
   20    21    52	5 ;     CG2R66     CG2R61      HGR62
   15    21    52	5 ;     CG2R61     CG2R61      HGR62
   24    23     1	5 ;      CG321      CG301      NG3P2
   24    23    28	5 ;      CG321      CG301      CG321
   24    23    34	5 ;      CG321      CG301     CG2R61
    1    23    28	5 ;      NG3P2      CG301      CG321
    1    23    34	5 ;      NG3P2      CG301     CG2R61
   28    23    34	5 ;      CG321      CG301     CG2R61
   25    24    23	5 ;      CG321      CG321      CG301
   25    24    53	5 ;      CG321      CG321       HGA2
   25    24    54	5 ;      CG321      CG321       HGA2
   23    24    53	5 ;      CG301      CG321       HGA2
   23    24    54	5 ;      CG301      CG321       HGA2
   53    24    54	5 ;       HGA2      CG321       HGA2
   26    25    24	5 ;      CG321      CG321      CG321
   26    25    55	5 ;      CG321      CG321       HGA2
   26    25    56	5 ;      CG321      CG321       HGA2
   24    25    55	5 ;      CG321      CG321       HGA2
   24    25    56	5 ;      CG321      CG321       HGA2
   55    25    56	5 ;       HGA2      CG321       HGA2
   25    26    27	5 ;      CG321      CG321      NG2S0
   25    26    57	5 ;      CG321      CG321       HGA2
   25    26    58	5 ;      CG321      CG321       HGA2
   27    26    57	5 ;      NG2S0      CG321       HGA2
   27    26    58	5 ;      NG2S0      CG321       HGA2
   57    26    58	5 ;       HGA2      CG321       HGA2
   26    27    29	5 ;      CG321      NG2S0      CG2O6
   26    27    28	5 ;      CG321      NG2S0      CG321
   29    27    28	5 ;      CG2O6      NG2S0      CG321
   27    28    23	5 ;      NG2S0      CG321      CG301
   27    28    59	5 ;      NG2S0      CG321       HGA2
   27    28    60	5 ;      NG2S0      CG321       HGA2
   23    28    59	5 ;      CG301      CG321       HGA2
   23    28    60	5 ;      CG301      CG321       HGA2
   59    28    60	5 ;       HGA2      CG321       HGA2
   31    29    27	5 ;      NG2S2      CG2O6      NG2S0
   31    29    30	5 ;      NG2S2      CG2O6      OG2D1
   27    29    30	5 ;      NG2S0      CG2O6      OG2D1
   32    31    33	5 ;       HGP1      NG2S2       HGP1
   32    31    29	5 ;       HGP1      NG2S2      CG2O6
   33    31    29	5 ;       HGP1      NG2S2      CG2O6
   23    34    39	5 ;      CG301     CG2R61     CG2R61
   23    34    35	5 ;      CG301     CG2R61     CG2R61
   39    34    35	5 ;     CG2R61     CG2R61     CG2R61
   34    35    36	5 ;     CG2R61     CG2R61     CG2R61
   34    35    61	5 ;     CG2R61     CG2R61      HGR61
   36    35    61	5 ;     CG2R61     CG2R61      HGR61
   35    36    37	5 ;     CG2R61     CG2R61     CG2R61
   35    36    40	5 ;     CG2R61     CG2R61      CG301
   37    36    40	5 ;     CG2R61     CG2R61      CG301
   38    37    36	5 ;     CG2R61     CG2R61     CG2R61
   38    37    62	5 ;     CG2R61     CG2R61      HGR61
   36    37    62	5 ;     CG2R61     CG2R61      HGR61
   39    38    37	5 ;     CG2R61     CG2R61     CG2R61
   39    38    63	5 ;     CG2R61     CG2R61      HGR61
   37    38    63	5 ;     CG2R61     CG2R61      HGR61
   34    39    38	5 ;     CG2R61     CG2R61     CG2R61
   34    39    64	5 ;     CG2R61     CG2R61      HGR61
   38    39    64	5 ;     CG2R61     CG2R61      HGR61
   36    40    43	5 ;     CG2R61      CG301      CG331
   36    40    42	5 ;     CG2R61      CG301      CG331
   36    40    41	5 ;     CG2R61      CG301      CG331
   43    40    42	5 ;      CG331      CG301      CG331
   43    40    41	5 ;      CG331      CG301      CG331
   42    40    41	5 ;      CG331      CG301      CG331
   40    41    68	5 ;      CG301      CG331       HGA3
   40    41    69	5 ;      CG301      CG331       HGA3
   40    41    70	5 ;      CG301      CG331       HGA3
   68    41    69	5 ;       HGA3      CG331       HGA3
   68    41    70	5 ;       HGA3      CG331       HGA3
   69    41    70	5 ;       HGA3      CG331       HGA3
   40    42    74	5 ;      CG301      CG331       HGA3
   40    42    75	5 ;      CG301      CG331       HGA3
   40    42    76	5 ;      CG301      CG331       HGA3
   74    42    75	5 ;       HGA3      CG331       HGA3
   74    42    76	5 ;       HGA3      CG331       HGA3
   75    42    76	5 ;       HGA3      CG331       HGA3
   40    43    71	5 ;      CG301      CG331       HGA3
   40    43    72	5 ;      CG301      CG331       HGA3
   40    43    73	5 ;      CG301      CG331       HGA3
   71    43    72	5 ;       HGA3      CG331       HGA3
   71    43    73	5 ;       HGA3      CG331       HGA3
   72    43    73	5 ;       HGA3      CG331       HGA3

[ dihedrals ]
;	ai	  aj	ak	  al funct			  c0			c1			  c2			c3			  c4			c5
    2     1     4     5	 9 ;       HGP2      NG3P2      CG324      CG311
    2     1     4    44	 9 ;       HGP2      NG3P2      CG324       HGA2
    2     1     4    45	 9 ;       HGP2      NG3P2      CG324       HGA2
    3     1     4     5	 9 ;       HGP2      NG3P2      CG324      CG311
    3     1     4    44	 9 ;       HGP2      NG3P2      CG324       HGA2
    3     1     4    45	 9 ;       HGP2      NG3P2      CG324       HGA2
   23     1     4     5	 9 ;      CG301      NG3P2      CG324      CG311
   23     1     4    44	 9 ;      CG301      NG3P2      CG324       HGA2
   23     1     4    45	 9 ;      CG301      NG3P2      CG324       HGA2
    2     1    23    24	 9 ;       HGP2      NG3P2      CG301      CG321
    2     1    23    28	 9 ;       HGP2      NG3P2      CG301      CG321
    2     1    23    34	 9 ;       HGP2      NG3P2      CG301     CG2R61
    3     1    23    24	 9 ;       HGP2      NG3P2      CG301      CG321
    3     1    23    28	 9 ;       HGP2      NG3P2      CG301      CG321
    3     1    23    34	 9 ;       HGP2      NG3P2      CG301     CG2R61
    4     1    23    24	 9 ;      CG324      NG3P2      CG301      CG321
    4     1    23    28	 9 ;      CG324      NG3P2      CG301      CG321
    4     1    23    34	 9 ;      CG324      NG3P2      CG301     CG2R61
    1     4     5     6	 9 ;      NG3P2      CG324      CG311      OG311
    1     4     5     8	 9 ;      NG3P2      CG324      CG311      CG311
    1     4     5    46	 9 ;      NG3P2      CG324      CG311       HGA1
   44     4     5     6	 9 ;       HGA2      CG324      CG311      OG311
   44     4     5     8	 9 ;       HGA2      CG324      CG311      CG311
   44     4     5    46	 9 ;       HGA2      CG324      CG311       HGA1
   45     4     5     6	 9 ;       HGA2      CG324      CG311      OG311
   45     4     5     8	 9 ;       HGA2      CG324      CG311      CG311
   45     4     5    46	 9 ;       HGA2      CG324      CG311       HGA1
    8     5     6     7	 9 ;      CG311      CG311      OG311       HGP1
    4     5     6     7	 9 ;      CG324      CG311      OG311       HGP1
   46     5     6     7	 9 ;       HGA1      CG311      OG311       HGP1
    6     5     8     9	 9 ;      OG311      CG311      CG311      NG2S1
    6     5     8    14	 9 ;      OG311      CG311      CG311      CG321
    6     5     8    47	 9 ;      OG311      CG311      CG311       HGA1
    4     5     8     9	 9 ;      CG324      CG311      CG311      NG2S1
    4     5     8    14	 9 ;      CG324      CG311      CG311      CG321
    4     5     8    47	 9 ;      CG324      CG311      CG311       HGA1
   46     5     8     9	 9 ;       HGA1      CG311      CG311      NG2S1
   46     5     8    14	 9 ;       HGA1      CG311      CG311      CG321
   46     5     8    47	 9 ;       HGA1      CG311      CG311       HGA1
    5     8     9    10	 9 ;      CG311      CG311      NG2S1      CG2O1
    5     8     9    13	 9 ;      CG311      CG311      NG2S1       HGP1
   14     8     9    10	 9 ;      CG321      CG311      NG2S1      CG2O1
   14     8     9    13	 9 ;      CG321      CG311      NG2S1       HGP1
   47     8     9    10	 9 ;       HGA1      CG311      NG2S1      CG2O1
   47     8     9    13	 9 ;       HGA1      CG311      NG2S1       HGP1
    9     8    14    15	 9 ;      NG2S1      CG311      CG321     CG2R61
    9     8    14    48	 9 ;      NG2S1      CG311      CG321       HGA2
    9     8    14    49	 9 ;      NG2S1      CG311      CG321       HGA2
    5     8    14    15	 9 ;      CG311      CG311      CG321     CG2R61
    5     8    14    48	 9 ;      CG311      CG311      CG321       HGA2
    5     8    14    49	 9 ;      CG311      CG311      CG321       HGA2
   47     8    14    15	 9 ;       HGA1      CG311      CG321     CG2R61
   47     8    14    48	 9 ;       HGA1      CG311      CG321       HGA2
   47     8    14    49	 9 ;       HGA1      CG311      CG321       HGA2
   13     9    10    12	 9 ;       HGP1      NG2S1      CG2O1      CG331
   13     9    10    11	 9 ;       HGP1      NG2S1      CG2O1      OG2D1
    8     9    10    12	 9 ;      CG311      NG2S1      CG2O1      CG331
    8     9    10    11	 9 ;      CG311      NG2S1      CG2O1      OG2D1
   11    10    12    65	 9 ;      OG2D1      CG2O1      CG331       HGA3
   11    10    12    66	 9 ;      OG2D1      CG2O1      CG331       HGA3
   11    10    12    67	 9 ;      OG2D1      CG2O1      CG331       HGA3
    9    10    12    65	 9 ;      NG2S1      CG2O1      CG331       HGA3
    9    10    12    66	 9 ;      NG2S1      CG2O1      CG331       HGA3
    9    10    12    67	 9 ;      NG2S1      CG2O1      CG331       HGA3
    8    14    15    21	 9 ;      CG311      CG321     CG2R61     CG2R61
    8    14    15    16	 9 ;      CG311      CG321     CG2R61     CG2R61
   48    14    15    21	 9 ;       HGA2      CG321     CG2R61     CG2R61
   48    14    15    16	 9 ;       HGA2      CG321     CG2R61     CG2R61
   49    14    15    21	 9 ;       HGA2      CG321     CG2R61     CG2R61
   49    14    15    16	 9 ;       HGA2      CG321     CG2R61     CG2R61
   14    15    21    20	 9 ;      CG321     CG2R61     CG2R61     CG2R66
   14    15    21    52	 9 ;      CG321     CG2R61     CG2R61      HGR62
   16    15    21    20	 9 ;     CG2R61     CG2R61     CG2R61     CG2R66
   16    15    21    52	 9 ;     CG2R61     CG2R61     CG2R61      HGR62
   21    15    16    17	 9 ;     CG2R61     CG2R61     CG2R61     CG2R66
   21    15    16    50	 9 ;     CG2R61     CG2R61     CG2R61      HGR62
   14    15    16    17	 9 ;      CG321     CG2R61     CG2R61     CG2R66
   14    15    16    50	 9 ;      CG321     CG2R61     CG2R61      HGR62
   15    16    17    19	 9 ;     CG2R61     CG2R61     CG2R66     CG2R61
   15    16    17    18	 9 ;     CG2R61     CG2R61     CG2R66       FGR1
   50    16    17    19	 9 ;      HGR62     CG2R61     CG2R66     CG2R61
   50    16    17    18	 9 ;      HGR62     CG2R61     CG2R66       FGR1
   16    17    19    20	 9 ;     CG2R61     CG2R66     CG2R61     CG2R66
   16    17    19    51	 9 ;     CG2R61     CG2R66     CG2R61      HGR62
   18    17    19    20	 9 ;       FGR1     CG2R66     CG2R61     CG2R66
   18    17    19    51	 9 ;       FGR1     CG2R66     CG2R61      HGR62
   17    19    20    22	 9 ;     CG2R66     CG2R61     CG2R66       FGR1
   17    19    20    21	 9 ;     CG2R66     CG2R61     CG2R66     CG2R61
   51    19    20    22	 9 ;      HGR62     CG2R61     CG2R66       FGR1
   51    19    20    21	 9 ;      HGR62     CG2R61     CG2R66     CG2R61
   22    20    21    15	 9 ;       FGR1     CG2R66     CG2R61     CG2R61
   22    20    21    52	 9 ;       FGR1     CG2R66     CG2R61      HGR62
   19    20    21    15	 9 ;     CG2R61     CG2R66     CG2R61     CG2R61
   19    20    21    52	 9 ;     CG2R61     CG2R66     CG2R61      HGR62
    1    23    24    25	 9 ;      NG3P2      CG301      CG321      CG321
    1    23    24    53	 9 ;      NG3P2      CG301      CG321       HGA2
    1    23    24    54	 9 ;      NG3P2      CG301      CG321       HGA2
   28    23    24    25	 9 ;      CG321      CG301      CG321      CG321
   28    23    24    53	 9 ;      CG321      CG301      CG321       HGA2
   28    23    24    54	 9 ;      CG321      CG301      CG321       HGA2
   34    23    24    25	 9 ;     CG2R61      CG301      CG321      CG321
   34    23    24    53	 9 ;     CG2R61      CG301      CG321       HGA2
   34    23    24    54	 9 ;     CG2R61      CG301      CG321       HGA2
   24    23    28    27	 9 ;      CG321      CG301      CG321      NG2S0
   24    23    28    59	 9 ;      CG321      CG301      CG321       HGA2
   24    23    28    60	 9 ;      CG321      CG301      CG321       HGA2
    1    23    28    27	 9 ;      NG3P2      CG301      CG321      NG2S0
    1    23    28    59	 9 ;      NG3P2      CG301      CG321       HGA2
    1    23    28    60	 9 ;      NG3P2      CG301      CG321       HGA2
   34    23    28    27	 9 ;     CG2R61      CG301      CG321      NG2S0
   34    23    28    59	 9 ;     CG2R61      CG301      CG321       HGA2
   34    23    28    60	 9 ;     CG2R61      CG301      CG321       HGA2
   24    23    34    39	 9 ;      CG321      CG301     CG2R61     CG2R61
   24    23    34    35	 9 ;      CG321      CG301     CG2R61     CG2R61
    1    23    34    39	 9 ;      NG3P2      CG301     CG2R61     CG2R61
    1    23    34    35	 9 ;      NG3P2      CG301     CG2R61     CG2R61
   28    23    34    39	 9 ;      CG321      CG301     CG2R61     CG2R61
   28    23    34    35	 9 ;      CG321      CG301     CG2R61     CG2R61
   23    24    25    26	 9 ;      CG301      CG321      CG321      CG321
   23    24    25    55	 9 ;      CG301      CG321      CG321       HGA2
   23    24    25    56	 9 ;      CG301      CG321      CG321       HGA2
   53    24    25    26	 9 ;       HGA2      CG321      CG321      CG321
   53    24    25    55	 9 ;       HGA2      CG321      CG321       HGA2
   53    24    25    56	 9 ;       HGA2      CG321      CG321       HGA2
   54    24    25    26	 9 ;       HGA2      CG321      CG321      CG321
   54    24    25    55	 9 ;       HGA2      CG321      CG321       HGA2
   54    24    25    56	 9 ;       HGA2      CG321      CG321       HGA2
   24    25    26    27	 9 ;      CG321      CG321      CG321      NG2S0
   24    25    26    57	 9 ;      CG321      CG321      CG321       HGA2
   24    25    26    58	 9 ;      CG321      CG321      CG321       HGA2
   55    25    26    27	 9 ;       HGA2      CG321      CG321      NG2S0
   55    25    26    57	 9 ;       HGA2      CG321      CG321       HGA2
   55    25    26    58	 9 ;       HGA2      CG321      CG321       HGA2
   56    25    26    27	 9 ;       HGA2      CG321      CG321      NG2S0
   56    25    26    57	 9 ;       HGA2      CG321      CG321       HGA2
   56    25    26    58	 9 ;       HGA2      CG321      CG321       HGA2
   25    26    27    29	 9 ;      CG321      CG321      NG2S0      CG2O6
   25    26    27    28	 9 ;      CG321      CG321      NG2S0      CG321
   57    26    27    29	 9 ;       HGA2      CG321      NG2S0      CG2O6
   57    26    27    28	 9 ;       HGA2      CG321      NG2S0      CG321
   58    26    27    29	 9 ;       HGA2      CG321      NG2S0      CG2O6
   58    26    27    28	 9 ;       HGA2      CG321      NG2S0      CG321
   26    27    29    31	 9 ;      CG321      NG2S0      CG2O6      NG2S2
   26    27    29    30	 9 ;      CG321      NG2S0      CG2O6      OG2D1
   28    27    29    31	 9 ;      CG321      NG2S0      CG2O6      NG2S2
   28    27    29    30	 9 ;      CG321      NG2S0      CG2O6      OG2D1
   26    27    28    23	 9 ;      CG321      NG2S0      CG321      CG301
   26    27    28    59	 9 ;      CG321      NG2S0      CG321       HGA2
   26    27    28    60	 9 ;      CG321      NG2S0      CG321       HGA2
   29    27    28    23	 9 ;      CG2O6      NG2S0      CG321      CG301
   29    27    28    59	 9 ;      CG2O6      NG2S0      CG321       HGA2
   29    27    28    60	 9 ;      CG2O6      NG2S0      CG321       HGA2
   27    29    31    32	 9 ;      NG2S0      CG2O6      NG2S2       HGP1
   27    29    31    33	 9 ;      NG2S0      CG2O6      NG2S2       HGP1
   30    29    31    32	 9 ;      OG2D1      CG2O6      NG2S2       HGP1
   30    29    31    33	 9 ;      OG2D1      CG2O6      NG2S2       HGP1
   23    34    39    38	 9 ;      CG301     CG2R61     CG2R61     CG2R61
   23    34    39    64	 9 ;      CG301     CG2R61     CG2R61      HGR61
   35    34    39    38	 9 ;     CG2R61     CG2R61     CG2R61     CG2R61
   35    34    39    64	 9 ;     CG2R61     CG2R61     CG2R61      HGR61
   23    34    35    36	 9 ;      CG301     CG2R61     CG2R61     CG2R61
   23    34    35    61	 9 ;      CG301     CG2R61     CG2R61      HGR61
   39    34    35    36	 9 ;     CG2R61     CG2R61     CG2R61     CG2R61
   39    34    35    61	 9 ;     CG2R61     CG2R61     CG2R61      HGR61
   34    35    36    37	 9 ;     CG2R61     CG2R61     CG2R61     CG2R61
   34    35    36    40	 9 ;     CG2R61     CG2R61     CG2R61      CG301
   61    35    36    37	 9 ;      HGR61     CG2R61     CG2R61     CG2R61
   61    35    36    40	 9 ;      HGR61     CG2R61     CG2R61      CG301
   35    36    37    38	 9 ;     CG2R61     CG2R61     CG2R61     CG2R61
   35    36    37    62	 9 ;     CG2R61     CG2R61     CG2R61      HGR61
   40    36    37    38	 9 ;      CG301     CG2R61     CG2R61     CG2R61
   40    36    37    62	 9 ;      CG301     CG2R61     CG2R61      HGR61
   35    36    40    43	 9 ;     CG2R61     CG2R61      CG301      CG331
   35    36    40    42	 9 ;     CG2R61     CG2R61      CG301      CG331
   35    36    40    41	 9 ;     CG2R61     CG2R61      CG301      CG331
   37    36    40    43	 9 ;     CG2R61     CG2R61      CG301      CG331
   37    36    40    42	 9 ;     CG2R61     CG2R61      CG301      CG331
   37    36    40    41	 9 ;     CG2R61     CG2R61      CG301      CG331
   36    37    38    39	 9 ;     CG2R61     CG2R61     CG2R61     CG2R61
   36    37    38    63	 9 ;     CG2R61     CG2R61     CG2R61      HGR61
   62    37    38    39	 9 ;      HGR61     CG2R61     CG2R61     CG2R61
   62    37    38    63	 9 ;      HGR61     CG2R61     CG2R61      HGR61
   37    38    39    34	 9 ;     CG2R61     CG2R61     CG2R61     CG2R61
   37    38    39    64	 9 ;     CG2R61     CG2R61     CG2R61      HGR61
   63    38    39    34	 9 ;      HGR61     CG2R61     CG2R61     CG2R61
   63    38    39    64	 9 ;      HGR61     CG2R61     CG2R61      HGR61
   36    40    43    71	 9 ;     CG2R61      CG301      CG331       HGA3
   36    40    43    72	 9 ;     CG2R61      CG301      CG331       HGA3
   36    40    43    73	 9 ;     CG2R61      CG301      CG331       HGA3
   42    40    43    71	 9 ;      CG331      CG301      CG331       HGA3
   42    40    43    72	 9 ;      CG331      CG301      CG331       HGA3
   42    40    43    73	 9 ;      CG331      CG301      CG331       HGA3
   41    40    43    71	 9 ;      CG331      CG301      CG331       HGA3
   41    40    43    72	 9 ;      CG331      CG301      CG331       HGA3
   41    40    43    73	 9 ;      CG331      CG301      CG331       HGA3
   36    40    42    74	 9 ;     CG2R61      CG301      CG331       HGA3
   36    40    42    75	 9 ;     CG2R61      CG301      CG331       HGA3
   36    40    42    76	 9 ;     CG2R61      CG301      CG331       HGA3
   43    40    42    74	 9 ;      CG331      CG301      CG331       HGA3
   43    40    42    75	 9 ;      CG331      CG301      CG331       HGA3
   43    40    42    76	 9 ;      CG331      CG301      CG331       HGA3
   41    40    42    74	 9 ;      CG331      CG301      CG331       HGA3
   41    40    42    75	 9 ;      CG331      CG301      CG331       HGA3
   41    40    42    76	 9 ;      CG331      CG301      CG331       HGA3
   36    40    41    68	 9 ;     CG2R61      CG301      CG331       HGA3
   36    40    41    69	 9 ;     CG2R61      CG301      CG331       HGA3
   36    40    41    70	 9 ;     CG2R61      CG301      CG331       HGA3
   43    40    41    68	 9 ;      CG331      CG301      CG331       HGA3
   43    40    41    69	 9 ;      CG331      CG301      CG331       HGA3
   43    40    41    70	 9 ;      CG331      CG301      CG331       HGA3
   42    40    41    68	 9 ;      CG331      CG301      CG331       HGA3
   42    40    41    69	 9 ;      CG331      CG301      CG331       HGA3
   42    40    41    70	 9 ;      CG331      CG301      CG331       HGA3

[ dihedrals ]
;	ai	  aj	ak	  al funct			  c0			c1			  c2			c3
   10    12     9    11	 2
   29    27    31    30	 2

