; Created by cgenff_charmm2gmx.py

[ moleculetype ]
; Name			   nrexcl
LIG				 3

[ atoms ]
;	 nr		  type	resnr residue  atom   cgnr	   charge		mass  typeB    chargeB		massB
; residue	 1 LIG rtp LIG q	qsum
     1      CG311      1    LIG     C1      1     -0.003     12.011   ;
     2      CG311      1    LIG     C2      2      0.094     12.011   ;
     3      OG311      1    LIG     O1      3     -0.625     15.999   ;
     4       HGP1      1    LIG     H1      4      0.415      1.008   ;
     5      CG324      1    LIG     C3      5      0.178     12.011   ;
     6      NG3P2      1    LIG     N1      6     -0.444     14.007   ;
     7       HGP2      1    LIG     H2      7      0.348      1.008   ;
     8       HGP2      1    LIG     H3      8      0.348      1.008   ;
     9      CG324      1    LIG     C4      9      0.171     12.011   ;
    10     CG2R61      1    LIG     C5     10      0.036     12.011   ;
    11     CG2R61      1    LIG     C6     11     -0.124     12.011   ;
    12     CG2R61      1    LIG     C7     12      0.216     12.011   ;
    13     CG2R61      1    LIG     C8     13     -0.121     12.011   ;
    14     CG2R61      1    LIG     C9     14     -0.108     12.011   ;
    15     CG2R61      1    LIG    C10     15     -0.119     12.011   ;
    16      OG301      1    LIG     O2     16     -0.383     15.999   ;
    17      CG331      1    LIG    C11     17     -0.094     12.011   ;
    18      NG2S1      1    LIG     N2     18     -0.371     14.007   ;
    19      CG2O1      1    LIG    C12     19      0.510     12.011   ;
    20      OG2D1      1    LIG     O3     20     -0.511     15.999   ;
    21       HGP1      1    LIG     H4     21      0.269      1.008   ;
    22      CG311      1    LIG    C13     22     -0.013     12.011   ;
    23      CG331      1    LIG    C14     23     -0.232     12.011   ;
    24     NG2R53      1    LIG     N3     24     -0.084     14.007   ;
    25     CG3C52      1    LIG    C15     25     -0.138     12.011   ;
    26     CG3C52      1    LIG    C16     26     -0.219     12.011   ;
    27     CG3C51      1    LIG    C17     27     -0.079     12.011   ;
    28     CG2R53      1    LIG    C18     28      0.406     12.011   ;
    29      OG2D1      1    LIG     O4     29     -0.496     15.999   ;
    30      CG321      1    LIG    C19     30     -0.012     12.011   ;
    31      OG301      1    LIG     O5     31     -0.318     15.999   ;
    32      CG331      1    LIG    C20     32     -0.100     12.011   ;
    33      CG321      1    LIG    C21     33     -0.153     12.011   ;
    34     CG2R61      1    LIG    C22     34      0.057     12.011   ;
    35     CG2R61      1    LIG    C23     35     -0.218     12.011   ;
    36     CG2R66      1    LIG    C24     36      0.261     12.011   ;
    37       FGR1      1    LIG     F1     37     -0.210     18.998   ;
    38     CG2R61      1    LIG    C25     38     -0.240     12.011   ;
    39     CG2R66      1    LIG    C26     39      0.261     12.011   ;
    40     CG2R61      1    LIG    C27     40     -0.218     12.011   ;
    41       FGR1      1    LIG     F2     41     -0.210     18.998   ;
    42       HGA1      1    LIG     HC     42      0.090      1.008   ;
    43       HGA1      1    LIG    HC1     43      0.090      1.008   ;
    44       HGA2      1    LIG    HC2     44      0.090      1.008   ;
    45       HGA2      1    LIG    HC3     45      0.090      1.008   ;
    46       HGA2      1    LIG    HC4     46      0.090      1.008   ;
    47       HGA2      1    LIG    HC5     47      0.090      1.008   ;
    48      HGR61      1    LIG    HC6     48      0.116      1.008   ;
    49      HGR61      1    LIG    HC7     49      0.116      1.008   ;
    50      HGR61      1    LIG    HC8     50      0.116      1.008   ;
    51      HGR61      1    LIG    HC9     51      0.116      1.008   ;
    52       HGA1      1    LIG   HC10     52      0.090      1.008   ;
    53       HGA2      1    LIG   HC11     53      0.090      1.008   ;
    54       HGA2      1    LIG   HC12     54      0.090      1.008   ;
    55       HGA2      1    LIG   HC13     55      0.090      1.008   ;
    56       HGA2      1    LIG   HC14     56      0.090      1.008   ;
    57       HGA1      1    LIG   HC15     57      0.115      1.008   ;
    58       HGA2      1    LIG   HC16     58      0.090      1.008   ;
    59       HGA2      1    LIG   HC17     59      0.090      1.008   ;
    60       HGA2      1    LIG   HC18     60      0.090      1.008   ;
    61       HGA2      1    LIG   HC19     61      0.090      1.008   ;
    62      HGR62      1    LIG   HC20     62      0.174      1.008   ;
    63      HGR62      1    LIG   HC21     63      0.186      1.008   ;
    64      HGR62      1    LIG   HC22     64      0.174      1.008   ;
    65       HGA3      1    LIG   HC23     65      0.090      1.008   ;
    66       HGA3      1    LIG   HC24     66      0.090      1.008   ;
    67       HGA3      1    LIG   HC25     67      0.090      1.008   ;
    68       HGA3      1    LIG   HC26     68      0.090      1.008   ;
    69       HGA3      1    LIG   HC27     69      0.090      1.008   ;
    70       HGA3      1    LIG   HC28     70      0.090      1.008   ;
    71       HGA3      1    LIG   HC29     71      0.090      1.008   ;
    72       HGA3      1    LIG   HC30     72      0.090      1.008   ;
    73       HGA3      1    LIG   HC31     73      0.090      1.008   ;

[ bonds ]
;	ai	  aj funct			  c0			c1			  c2			c3
    1    33	 1 ;       CG311      CG321
    1    18	 1 ;       CG311      NG2S1
    1     2	 1 ;       CG311      CG311
    1    42	 1 ;       CG311       HGA1
    2     5	 1 ;       CG311      CG324
    2     3	 1 ;       CG311      OG311
    2    43	 1 ;       CG311       HGA1
    3     4	 1 ;       OG311       HGP1
    5     6	 1 ;       CG324      NG3P2
    5    44	 1 ;       CG324       HGA2
    5    45	 1 ;       CG324       HGA2
    6     9	 1 ;       NG3P2      CG324
    6     8	 1 ;       NG3P2       HGP2
    6     7	 1 ;       NG3P2       HGP2
    9    10	 1 ;       CG324     CG2R61
    9    46	 1 ;       CG324       HGA2
    9    47	 1 ;       CG324       HGA2
   10    15	 1 ;      CG2R61     CG2R61
   10    11	 1 ;      CG2R61     CG2R61
   11    12	 1 ;      CG2R61     CG2R61
   11    48	 1 ;      CG2R61      HGR61
   12    13	 1 ;      CG2R61     CG2R61
   12    16	 1 ;      CG2R61      OG301
   13    14	 1 ;      CG2R61     CG2R61
   13    49	 1 ;      CG2R61      HGR61
   14    15	 1 ;      CG2R61     CG2R61
   14    50	 1 ;      CG2R61      HGR61
   15    51	 1 ;      CG2R61      HGR61
   16    17	 1 ;       OG301      CG331
   17    65	 1 ;       CG331       HGA3
   17    66	 1 ;       CG331       HGA3
   17    67	 1 ;       CG331       HGA3
   18    21	 1 ;       NG2S1       HGP1
   18    19	 1 ;       NG2S1      CG2O1
   19    20	 1 ;       CG2O1      OG2D1
   19    22	 1 ;       CG2O1      CG311
   22    23	 1 ;       CG311      CG331
   22    24	 1 ;       CG311     NG2R53
   22    52	 1 ;       CG311       HGA1
   23    68	 1 ;       CG331       HGA3
   23    69	 1 ;       CG331       HGA3
   23    70	 1 ;       CG331       HGA3
   24    28	 1 ;      NG2R53     CG2R53
   24    25	 1 ;      NG2R53     CG3C52
   25    26	 1 ;      CG3C52     CG3C52
   25    53	 1 ;      CG3C52       HGA2
   25    54	 1 ;      CG3C52       HGA2
   26    27	 1 ;      CG3C52     CG3C51
   26    55	 1 ;      CG3C52       HGA2
   26    56	 1 ;      CG3C52       HGA2
   27    28	 1 ;      CG3C51     CG2R53
   27    30	 1 ;      CG3C51      CG321
   27    57	 1 ;      CG3C51       HGA1
   28    29	 1 ;      CG2R53      OG2D1
   30    31	 1 ;       CG321      OG301
   30    58	 1 ;       CG321       HGA2
   30    59	 1 ;       CG321       HGA2
   31    32	 1 ;       OG301      CG331
   32    71	 1 ;       CG331       HGA3
   32    72	 1 ;       CG331       HGA3
   32    73	 1 ;       CG331       HGA3
   33    34	 1 ;       CG321     CG2R61
   33    60	 1 ;       CG321       HGA2
   33    61	 1 ;       CG321       HGA2
   34    35	 1 ;      CG2R61     CG2R61
   34    40	 1 ;      CG2R61     CG2R61
   35    36	 1 ;      CG2R61     CG2R66
   35    62	 1 ;      CG2R61      HGR62
   36    37	 1 ;      CG2R66       FGR1
   36    38	 1 ;      CG2R66     CG2R61
   38    39	 1 ;      CG2R61     CG2R66
   38    63	 1 ;      CG2R61      HGR62
   39    40	 1 ;      CG2R66     CG2R61
   39    41	 1 ;      CG2R66       FGR1
   40    64	 1 ;      CG2R61      HGR62

[ pairs ]
;	ai	  aj funct			  c0			c1			  c2			c3
    1     6	 1
    1    44	 1
    1    45	 1
    1     4	 1
    1    20	 1
    1    22	 1
    1    35	 1
    1    40	 1
    2    34	 1
    2    60	 1
    2    61	 1
    2    21	 1
    2    19	 1
    2     9	 1
    2     8	 1
    2     7	 1
    3    33	 1
    3    18	 1
    3    42	 1
    3     6	 1
    3    44	 1
    3    45	 1
    4     5	 1
    4    43	 1
    5    33	 1
    5    18	 1
    5    42	 1
    5    10	 1
    5    46	 1
    5    47	 1
    6    43	 1
    6    15	 1
    6    11	 1
    7    44	 1
    7    45	 1
    7    10	 1
    7    46	 1
    7    47	 1
    8    44	 1
    8    45	 1
    8    10	 1
    8    46	 1
    8    47	 1
    9    44	 1
    9    45	 1
    9    14	 1
    9    51	 1
    9    12	 1
    9    48	 1
   10    13	 1
   10    16	 1
   10    50	 1
   11    46	 1
   11    47	 1
   11    14	 1
   11    51	 1
   11    49	 1
   11    17	 1
   12    15	 1
   12    50	 1
   12    65	 1
   12    66	 1
   12    67	 1
   13    48	 1
   13    17	 1
   13    51	 1
   14    16	 1
   15    46	 1
   15    47	 1
   15    48	 1
   15    49	 1
   16    48	 1
   16    49	 1
   18    34	 1
   18    60	 1
   18    61	 1
   18    43	 1
   18    23	 1
   18    24	 1
   18    52	 1
   19    33	 1
   19    42	 1
   19    68	 1
   19    69	 1
   19    70	 1
   19    28	 1
   19    25	 1
   20    21	 1
   20    23	 1
   20    24	 1
   20    52	 1
   21    33	 1
   21    42	 1
   21    22	 1
   22    29	 1
   22    27	 1
   22    26	 1
   22    53	 1
   22    54	 1
   23    28	 1
   23    25	 1
   24    68	 1
   24    69	 1
   24    70	 1
   24    55	 1
   24    56	 1
   24    30	 1
   24    57	 1
   25    52	 1
   25    29	 1
   25    30	 1
   25    57	 1
   26    29	 1
   26    31	 1
   26    58	 1
   26    59	 1
   27    53	 1
   27    54	 1
   27    32	 1
   28    52	 1
   28    53	 1
   28    54	 1
   28    55	 1
   28    56	 1
   28    31	 1
   28    58	 1
   28    59	 1
   29    30	 1
   29    57	 1
   30    55	 1
   30    56	 1
   30    71	 1
   30    72	 1
   30    73	 1
   31    57	 1
   32    58	 1
   32    59	 1
   33    43	 1
   33    36	 1
   33    62	 1
   33    39	 1
   33    64	 1
   34    42	 1
   34    37	 1
   34    38	 1
   34    41	 1
   35    60	 1
   35    61	 1
   35    39	 1
   35    64	 1
   35    63	 1
   36    40	 1
   36    41	 1
   37    62	 1
   37    39	 1
   37    63	 1
   38    62	 1
   38    64	 1
   40    60	 1
   40    61	 1
   40    62	 1
   40    63	 1
   41    63	 1
   41    64	 1
   42    60	 1
   42    61	 1
   42    43	 1
   43    44	 1
   43    45	 1
   49    50	 1
   50    51	 1
   52    68	 1
   52    69	 1
   52    70	 1
   53    55	 1
   53    56	 1
   54    55	 1
   54    56	 1
   55    57	 1
   56    57	 1
   57    58	 1
   57    59	 1

[ angles ]
;	ai	  aj	ak funct			c0			  c1			c2			  c3
   33     1    18	5 ;      CG321      CG311      NG2S1
   33     1     2	5 ;      CG321      CG311      CG311
   33     1    42	5 ;      CG321      CG311       HGA1
   18     1     2	5 ;      NG2S1      CG311      CG311
   18     1    42	5 ;      NG2S1      CG311       HGA1
    2     1    42	5 ;      CG311      CG311       HGA1
    5     2     1	5 ;      CG324      CG311      CG311
    5     2     3	5 ;      CG324      CG311      OG311
    5     2    43	5 ;      CG324      CG311       HGA1
    1     2     3	5 ;      CG311      CG311      OG311
    1     2    43	5 ;      CG311      CG311       HGA1
    3     2    43	5 ;      OG311      CG311       HGA1
    2     3     4	5 ;      CG311      OG311       HGP1
    6     5     2	5 ;      NG3P2      CG324      CG311
    6     5    44	5 ;      NG3P2      CG324       HGA2
    6     5    45	5 ;      NG3P2      CG324       HGA2
    2     5    44	5 ;      CG311      CG324       HGA2
    2     5    45	5 ;      CG311      CG324       HGA2
   44     5    45	5 ;       HGA2      CG324       HGA2
    9     6     8	5 ;      CG324      NG3P2       HGP2
    9     6     5	5 ;      CG324      NG3P2      CG324
    9     6     7	5 ;      CG324      NG3P2       HGP2
    8     6     5	5 ;       HGP2      NG3P2      CG324
    8     6     7	5 ;       HGP2      NG3P2       HGP2
    5     6     7	5 ;      CG324      NG3P2       HGP2
   10     9     6	5 ;     CG2R61      CG324      NG3P2
   10     9    46	5 ;     CG2R61      CG324       HGA2
   10     9    47	5 ;     CG2R61      CG324       HGA2
    6     9    46	5 ;      NG3P2      CG324       HGA2
    6     9    47	5 ;      NG3P2      CG324       HGA2
   46     9    47	5 ;       HGA2      CG324       HGA2
   15    10    11	5 ;     CG2R61     CG2R61     CG2R61
   15    10     9	5 ;     CG2R61     CG2R61      CG324
   11    10     9	5 ;     CG2R61     CG2R61      CG324
   12    11    10	5 ;     CG2R61     CG2R61     CG2R61
   12    11    48	5 ;     CG2R61     CG2R61      HGR61
   10    11    48	5 ;     CG2R61     CG2R61      HGR61
   13    12    16	5 ;     CG2R61     CG2R61      OG301
   13    12    11	5 ;     CG2R61     CG2R61     CG2R61
   16    12    11	5 ;      OG301     CG2R61     CG2R61
   14    13    12	5 ;     CG2R61     CG2R61     CG2R61
   14    13    49	5 ;     CG2R61     CG2R61      HGR61
   12    13    49	5 ;     CG2R61     CG2R61      HGR61
   13    14    15	5 ;     CG2R61     CG2R61     CG2R61
   13    14    50	5 ;     CG2R61     CG2R61      HGR61
   15    14    50	5 ;     CG2R61     CG2R61      HGR61
   14    15    10	5 ;     CG2R61     CG2R61     CG2R61
   14    15    51	5 ;     CG2R61     CG2R61      HGR61
   10    15    51	5 ;     CG2R61     CG2R61      HGR61
   12    16    17	5 ;     CG2R61      OG301      CG331
   16    17    65	5 ;      OG301      CG331       HGA3
   16    17    66	5 ;      OG301      CG331       HGA3
   16    17    67	5 ;      OG301      CG331       HGA3
   65    17    66	5 ;       HGA3      CG331       HGA3
   65    17    67	5 ;       HGA3      CG331       HGA3
   66    17    67	5 ;       HGA3      CG331       HGA3
   21    18    19	5 ;       HGP1      NG2S1      CG2O1
   21    18     1	5 ;       HGP1      NG2S1      CG311
   19    18     1	5 ;      CG2O1      NG2S1      CG311
   20    19    18	5 ;      OG2D1      CG2O1      NG2S1
   20    19    22	5 ;      OG2D1      CG2O1      CG311
   18    19    22	5 ;      NG2S1      CG2O1      CG311
   19    22    23	5 ;      CG2O1      CG311      CG331
   19    22    24	5 ;      CG2O1      CG311     NG2R53
   19    22    52	5 ;      CG2O1      CG311       HGA1
   23    22    24	5 ;      CG331      CG311     NG2R53
   23    22    52	5 ;      CG331      CG311       HGA1
   24    22    52	5 ;     NG2R53      CG311       HGA1
   22    23    68	5 ;      CG311      CG331       HGA3
   22    23    69	5 ;      CG311      CG331       HGA3
   22    23    70	5 ;      CG311      CG331       HGA3
   68    23    69	5 ;       HGA3      CG331       HGA3
   68    23    70	5 ;       HGA3      CG331       HGA3
   69    23    70	5 ;       HGA3      CG331       HGA3
   22    24    28	5 ;      CG311     NG2R53     CG2R53
   22    24    25	5 ;      CG311     NG2R53     CG3C52
   28    24    25	5 ;     CG2R53     NG2R53     CG3C52
   24    25    26	5 ;     NG2R53     CG3C52     CG3C52
   24    25    53	5 ;     NG2R53     CG3C52       HGA2
   24    25    54	5 ;     NG2R53     CG3C52       HGA2
   26    25    53	5 ;     CG3C52     CG3C52       HGA2
   26    25    54	5 ;     CG3C52     CG3C52       HGA2
   53    25    54	5 ;       HGA2     CG3C52       HGA2
   25    26    27	5 ;     CG3C52     CG3C52     CG3C51
   25    26    55	5 ;     CG3C52     CG3C52       HGA2
   25    26    56	5 ;     CG3C52     CG3C52       HGA2
   27    26    55	5 ;     CG3C51     CG3C52       HGA2
   27    26    56	5 ;     CG3C51     CG3C52       HGA2
   55    26    56	5 ;       HGA2     CG3C52       HGA2
   28    27    30	5 ;     CG2R53     CG3C51      CG321
   28    27    26	5 ;     CG2R53     CG3C51     CG3C52
   28    27    57	5 ;     CG2R53     CG3C51       HGA1
   30    27    26	5 ;      CG321     CG3C51     CG3C52
   30    27    57	5 ;      CG321     CG3C51       HGA1
   26    27    57	5 ;     CG3C52     CG3C51       HGA1
   29    28    24	5 ;      OG2D1     CG2R53     NG2R53
   29    28    27	5 ;      OG2D1     CG2R53     CG3C51
   24    28    27	5 ;     NG2R53     CG2R53     CG3C51
   31    30    27	5 ;      OG301      CG321     CG3C51
   31    30    58	5 ;      OG301      CG321       HGA2
   31    30    59	5 ;      OG301      CG321       HGA2
   27    30    58	5 ;     CG3C51      CG321       HGA2
   27    30    59	5 ;     CG3C51      CG321       HGA2
   58    30    59	5 ;       HGA2      CG321       HGA2
   32    31    30	5 ;      CG331      OG301      CG321
   31    32    71	5 ;      OG301      CG331       HGA3
   31    32    72	5 ;      OG301      CG331       HGA3
   31    32    73	5 ;      OG301      CG331       HGA3
   71    32    72	5 ;       HGA3      CG331       HGA3
   71    32    73	5 ;       HGA3      CG331       HGA3
   72    32    73	5 ;       HGA3      CG331       HGA3
   34    33     1	5 ;     CG2R61      CG321      CG311
   34    33    60	5 ;     CG2R61      CG321       HGA2
   34    33    61	5 ;     CG2R61      CG321       HGA2
    1    33    60	5 ;      CG311      CG321       HGA2
    1    33    61	5 ;      CG311      CG321       HGA2
   60    33    61	5 ;       HGA2      CG321       HGA2
   33    34    35	5 ;      CG321     CG2R61     CG2R61
   33    34    40	5 ;      CG321     CG2R61     CG2R61
   35    34    40	5 ;     CG2R61     CG2R61     CG2R61
   34    35    36	5 ;     CG2R61     CG2R61     CG2R66
   34    35    62	5 ;     CG2R61     CG2R61      HGR62
   36    35    62	5 ;     CG2R66     CG2R61      HGR62
   35    36    37	5 ;     CG2R61     CG2R66       FGR1
   35    36    38	5 ;     CG2R61     CG2R66     CG2R61
   37    36    38	5 ;       FGR1     CG2R66     CG2R61
   36    38    39	5 ;     CG2R66     CG2R61     CG2R66
   36    38    63	5 ;     CG2R66     CG2R61      HGR62
   39    38    63	5 ;     CG2R66     CG2R61      HGR62
   40    39    38	5 ;     CG2R61     CG2R66     CG2R61
   40    39    41	5 ;     CG2R61     CG2R66       FGR1
   38    39    41	5 ;     CG2R61     CG2R66       FGR1
   34    40    39	5 ;     CG2R61     CG2R61     CG2R66
   34    40    64	5 ;     CG2R61     CG2R61      HGR62
   39    40    64	5 ;     CG2R66     CG2R61      HGR62

[ dihedrals ]
;	ai	  aj	ak	  al funct			  c0			c1			  c2			c3			  c4			c5
   18     1    33    34	 9 ;      NG2S1      CG311      CG321     CG2R61
   18     1    33    60	 9 ;      NG2S1      CG311      CG321       HGA2
   18     1    33    61	 9 ;      NG2S1      CG311      CG321       HGA2
    2     1    33    34	 9 ;      CG311      CG311      CG321     CG2R61
    2     1    33    60	 9 ;      CG311      CG311      CG321       HGA2
    2     1    33    61	 9 ;      CG311      CG311      CG321       HGA2
   42     1    33    34	 9 ;       HGA1      CG311      CG321     CG2R61
   42     1    33    60	 9 ;       HGA1      CG311      CG321       HGA2
   42     1    33    61	 9 ;       HGA1      CG311      CG321       HGA2
   33     1    18    21	 9 ;      CG321      CG311      NG2S1       HGP1
   33     1    18    19	 9 ;      CG321      CG311      NG2S1      CG2O1
    2     1    18    21	 9 ;      CG311      CG311      NG2S1       HGP1
    2     1    18    19	 9 ;      CG311      CG311      NG2S1      CG2O1
   42     1    18    21	 9 ;       HGA1      CG311      NG2S1       HGP1
   42     1    18    19	 9 ;       HGA1      CG311      NG2S1      CG2O1
   33     1     2     5	 9 ;      CG321      CG311      CG311      CG324
   33     1     2     3	 9 ;      CG321      CG311      CG311      OG311
   33     1     2    43	 9 ;      CG321      CG311      CG311       HGA1
   18     1     2     5	 9 ;      NG2S1      CG311      CG311      CG324
   18     1     2     3	 9 ;      NG2S1      CG311      CG311      OG311
   18     1     2    43	 9 ;      NG2S1      CG311      CG311       HGA1
   42     1     2     5	 9 ;       HGA1      CG311      CG311      CG324
   42     1     2     3	 9 ;       HGA1      CG311      CG311      OG311
   42     1     2    43	 9 ;       HGA1      CG311      CG311       HGA1
    1     2     5     6	 9 ;      CG311      CG311      CG324      NG3P2
    1     2     5    44	 9 ;      CG311      CG311      CG324       HGA2
    1     2     5    45	 9 ;      CG311      CG311      CG324       HGA2
    3     2     5     6	 9 ;      OG311      CG311      CG324      NG3P2
    3     2     5    44	 9 ;      OG311      CG311      CG324       HGA2
    3     2     5    45	 9 ;      OG311      CG311      CG324       HGA2
   43     2     5     6	 9 ;       HGA1      CG311      CG324      NG3P2
   43     2     5    44	 9 ;       HGA1      CG311      CG324       HGA2
   43     2     5    45	 9 ;       HGA1      CG311      CG324       HGA2
    5     2     3     4	 9 ;      CG324      CG311      OG311       HGP1
    1     2     3     4	 9 ;      CG311      CG311      OG311       HGP1
   43     2     3     4	 9 ;       HGA1      CG311      OG311       HGP1
    2     5     6     9	 9 ;      CG311      CG324      NG3P2      CG324
    2     5     6     8	 9 ;      CG311      CG324      NG3P2       HGP2
    2     5     6     7	 9 ;      CG311      CG324      NG3P2       HGP2
   44     5     6     9	 9 ;       HGA2      CG324      NG3P2      CG324
   44     5     6     8	 9 ;       HGA2      CG324      NG3P2       HGP2
   44     5     6     7	 9 ;       HGA2      CG324      NG3P2       HGP2
   45     5     6     9	 9 ;       HGA2      CG324      NG3P2      CG324
   45     5     6     8	 9 ;       HGA2      CG324      NG3P2       HGP2
   45     5     6     7	 9 ;       HGA2      CG324      NG3P2       HGP2
    8     6     9    10	 9 ;       HGP2      NG3P2      CG324     CG2R61
    8     6     9    46	 9 ;       HGP2      NG3P2      CG324       HGA2
    8     6     9    47	 9 ;       HGP2      NG3P2      CG324       HGA2
    5     6     9    10	 9 ;      CG324      NG3P2      CG324     CG2R61
    5     6     9    46	 9 ;      CG324      NG3P2      CG324       HGA2
    5     6     9    47	 9 ;      CG324      NG3P2      CG324       HGA2
    7     6     9    10	 9 ;       HGP2      NG3P2      CG324     CG2R61
    7     6     9    46	 9 ;       HGP2      NG3P2      CG324       HGA2
    7     6     9    47	 9 ;       HGP2      NG3P2      CG324       HGA2
    6     9    10    15	 9 ;      NG3P2      CG324     CG2R61     CG2R61
    6     9    10    11	 9 ;      NG3P2      CG324     CG2R61     CG2R61
   46     9    10    15	 9 ;       HGA2      CG324     CG2R61     CG2R61
   46     9    10    11	 9 ;       HGA2      CG324     CG2R61     CG2R61
   47     9    10    15	 9 ;       HGA2      CG324     CG2R61     CG2R61
   47     9    10    11	 9 ;       HGA2      CG324     CG2R61     CG2R61
   11    10    15    14	 9 ;     CG2R61     CG2R61     CG2R61     CG2R61
   11    10    15    51	 9 ;     CG2R61     CG2R61     CG2R61      HGR61
    9    10    15    14	 9 ;      CG324     CG2R61     CG2R61     CG2R61
    9    10    15    51	 9 ;      CG324     CG2R61     CG2R61      HGR61
   15    10    11    12	 9 ;     CG2R61     CG2R61     CG2R61     CG2R61
   15    10    11    48	 9 ;     CG2R61     CG2R61     CG2R61      HGR61
    9    10    11    12	 9 ;      CG324     CG2R61     CG2R61     CG2R61
    9    10    11    48	 9 ;      CG324     CG2R61     CG2R61      HGR61
   10    11    12    13	 9 ;     CG2R61     CG2R61     CG2R61     CG2R61
   10    11    12    16	 9 ;     CG2R61     CG2R61     CG2R61      OG301
   48    11    12    13	 9 ;      HGR61     CG2R61     CG2R61     CG2R61
   48    11    12    16	 9 ;      HGR61     CG2R61     CG2R61      OG301
   16    12    13    14	 9 ;      OG301     CG2R61     CG2R61     CG2R61
   16    12    13    49	 9 ;      OG301     CG2R61     CG2R61      HGR61
   11    12    13    14	 9 ;     CG2R61     CG2R61     CG2R61     CG2R61
   11    12    13    49	 9 ;     CG2R61     CG2R61     CG2R61      HGR61
   13    12    16    17	 9 ;     CG2R61     CG2R61      OG301      CG331
   11    12    16    17	 9 ;     CG2R61     CG2R61      OG301      CG331
   12    13    14    15	 9 ;     CG2R61     CG2R61     CG2R61     CG2R61
   12    13    14    50	 9 ;     CG2R61     CG2R61     CG2R61      HGR61
   49    13    14    15	 9 ;      HGR61     CG2R61     CG2R61     CG2R61
   49    13    14    50	 9 ;      HGR61     CG2R61     CG2R61      HGR61
   13    14    15    10	 9 ;     CG2R61     CG2R61     CG2R61     CG2R61
   13    14    15    51	 9 ;     CG2R61     CG2R61     CG2R61      HGR61
   50    14    15    10	 9 ;      HGR61     CG2R61     CG2R61     CG2R61
   50    14    15    51	 9 ;      HGR61     CG2R61     CG2R61      HGR61
   12    16    17    65	 9 ;     CG2R61      OG301      CG331       HGA3
   12    16    17    66	 9 ;     CG2R61      OG301      CG331       HGA3
   12    16    17    67	 9 ;     CG2R61      OG301      CG331       HGA3
   21    18    19    20	 9 ;       HGP1      NG2S1      CG2O1      OG2D1
   21    18    19    22	 9 ;       HGP1      NG2S1      CG2O1      CG311
    1    18    19    20	 9 ;      CG311      NG2S1      CG2O1      OG2D1
    1    18    19    22	 9 ;      CG311      NG2S1      CG2O1      CG311
   20    19    22    23	 9 ;      OG2D1      CG2O1      CG311      CG331
   20    19    22    24	 9 ;      OG2D1      CG2O1      CG311     NG2R53
   20    19    22    52	 9 ;      OG2D1      CG2O1      CG311       HGA1
   18    19    22    23	 9 ;      NG2S1      CG2O1      CG311      CG331
   18    19    22    24	 9 ;      NG2S1      CG2O1      CG311     NG2R53
   18    19    22    52	 9 ;      NG2S1      CG2O1      CG311       HGA1
   19    22    23    68	 9 ;      CG2O1      CG311      CG331       HGA3
   19    22    23    69	 9 ;      CG2O1      CG311      CG331       HGA3
   19    22    23    70	 9 ;      CG2O1      CG311      CG331       HGA3
   24    22    23    68	 9 ;     NG2R53      CG311      CG331       HGA3
   24    22    23    69	 9 ;     NG2R53      CG311      CG331       HGA3
   24    22    23    70	 9 ;     NG2R53      CG311      CG331       HGA3
   52    22    23    68	 9 ;       HGA1      CG311      CG331       HGA3
   52    22    23    69	 9 ;       HGA1      CG311      CG331       HGA3
   52    22    23    70	 9 ;       HGA1      CG311      CG331       HGA3
   19    22    24    28	 9 ;      CG2O1      CG311     NG2R53     CG2R53
   19    22    24    25	 9 ;      CG2O1      CG311     NG2R53     CG3C52
   23    22    24    28	 9 ;      CG331      CG311     NG2R53     CG2R53
   23    22    24    25	 9 ;      CG331      CG311     NG2R53     CG3C52
   52    22    24    28	 9 ;       HGA1      CG311     NG2R53     CG2R53
   52    22    24    25	 9 ;       HGA1      CG311     NG2R53     CG3C52
   22    24    28    29	 9 ;      CG311     NG2R53     CG2R53      OG2D1
   22    24    28    27	 9 ;      CG311     NG2R53     CG2R53     CG3C51
   25    24    28    29	 9 ;     CG3C52     NG2R53     CG2R53      OG2D1
   25    24    28    27	 9 ;     CG3C52     NG2R53     CG2R53     CG3C51
   22    24    25    26	 9 ;      CG311     NG2R53     CG3C52     CG3C52
   22    24    25    53	 9 ;      CG311     NG2R53     CG3C52       HGA2
   22    24    25    54	 9 ;      CG311     NG2R53     CG3C52       HGA2
   28    24    25    26	 9 ;     CG2R53     NG2R53     CG3C52     CG3C52
   28    24    25    53	 9 ;     CG2R53     NG2R53     CG3C52       HGA2
   28    24    25    54	 9 ;     CG2R53     NG2R53     CG3C52       HGA2
   24    25    26    27	 9 ;     NG2R53     CG3C52     CG3C52     CG3C51
   24    25    26    55	 9 ;     NG2R53     CG3C52     CG3C52       HGA2
   24    25    26    56	 9 ;     NG2R53     CG3C52     CG3C52       HGA2
   53    25    26    27	 9 ;       HGA2     CG3C52     CG3C52     CG3C51
   53    25    26    55	 9 ;       HGA2     CG3C52     CG3C52       HGA2
   53    25    26    56	 9 ;       HGA2     CG3C52     CG3C52       HGA2
   54    25    26    27	 9 ;       HGA2     CG3C52     CG3C52     CG3C51
   54    25    26    55	 9 ;       HGA2     CG3C52     CG3C52       HGA2
   54    25    26    56	 9 ;       HGA2     CG3C52     CG3C52       HGA2
   25    26    27    28	 9 ;     CG3C52     CG3C52     CG3C51     CG2R53
   25    26    27    30	 9 ;     CG3C52     CG3C52     CG3C51      CG321
   25    26    27    57	 9 ;     CG3C52     CG3C52     CG3C51       HGA1
   55    26    27    28	 9 ;       HGA2     CG3C52     CG3C51     CG2R53
   55    26    27    30	 9 ;       HGA2     CG3C52     CG3C51      CG321
   55    26    27    57	 9 ;       HGA2     CG3C52     CG3C51       HGA1
   56    26    27    28	 9 ;       HGA2     CG3C52     CG3C51     CG2R53
   56    26    27    30	 9 ;       HGA2     CG3C52     CG3C51      CG321
   56    26    27    57	 9 ;       HGA2     CG3C52     CG3C51       HGA1
   30    27    28    29	 9 ;      CG321     CG3C51     CG2R53      OG2D1
   30    27    28    24	 9 ;      CG321     CG3C51     CG2R53     NG2R53
   26    27    28    29	 9 ;     CG3C52     CG3C51     CG2R53      OG2D1
   26    27    28    24	 9 ;     CG3C52     CG3C51     CG2R53     NG2R53
   57    27    28    29	 9 ;       HGA1     CG3C51     CG2R53      OG2D1
   57    27    28    24	 9 ;       HGA1     CG3C51     CG2R53     NG2R53
   28    27    30    31	 9 ;     CG2R53     CG3C51      CG321      OG301
   28    27    30    58	 9 ;     CG2R53     CG3C51      CG321       HGA2
   28    27    30    59	 9 ;     CG2R53     CG3C51      CG321       HGA2
   26    27    30    31	 9 ;     CG3C52     CG3C51      CG321      OG301
   26    27    30    58	 9 ;     CG3C52     CG3C51      CG321       HGA2
   26    27    30    59	 9 ;     CG3C52     CG3C51      CG321       HGA2
   57    27    30    31	 9 ;       HGA1     CG3C51      CG321      OG301
   57    27    30    58	 9 ;       HGA1     CG3C51      CG321       HGA2
   57    27    30    59	 9 ;       HGA1     CG3C51      CG321       HGA2
   27    30    31    32	 9 ;     CG3C51      CG321      OG301      CG331
   58    30    31    32	 9 ;       HGA2      CG321      OG301      CG331
   59    30    31    32	 9 ;       HGA2      CG321      OG301      CG331
   30    31    32    71	 9 ;      CG321      OG301      CG331       HGA3
   30    31    32    72	 9 ;      CG321      OG301      CG331       HGA3
   30    31    32    73	 9 ;      CG321      OG301      CG331       HGA3
    1    33    34    35	 9 ;      CG311      CG321     CG2R61     CG2R61
    1    33    34    40	 9 ;      CG311      CG321     CG2R61     CG2R61
   60    33    34    35	 9 ;       HGA2      CG321     CG2R61     CG2R61
   60    33    34    40	 9 ;       HGA2      CG321     CG2R61     CG2R61
   61    33    34    35	 9 ;       HGA2      CG321     CG2R61     CG2R61
   61    33    34    40	 9 ;       HGA2      CG321     CG2R61     CG2R61
   33    34    35    36	 9 ;      CG321     CG2R61     CG2R61     CG2R66
   33    34    35    62	 9 ;      CG321     CG2R61     CG2R61      HGR62
   40    34    35    36	 9 ;     CG2R61     CG2R61     CG2R61     CG2R66
   40    34    35    62	 9 ;     CG2R61     CG2R61     CG2R61      HGR62
   33    34    40    39	 9 ;      CG321     CG2R61     CG2R61     CG2R66
   33    34    40    64	 9 ;      CG321     CG2R61     CG2R61      HGR62
   35    34    40    39	 9 ;     CG2R61     CG2R61     CG2R61     CG2R66
   35    34    40    64	 9 ;     CG2R61     CG2R61     CG2R61      HGR62
   34    35    36    37	 9 ;     CG2R61     CG2R61     CG2R66       FGR1
   34    35    36    38	 9 ;     CG2R61     CG2R61     CG2R66     CG2R61
   62    35    36    37	 9 ;      HGR62     CG2R61     CG2R66       FGR1
   62    35    36    38	 9 ;      HGR62     CG2R61     CG2R66     CG2R61
   35    36    38    39	 9 ;     CG2R61     CG2R66     CG2R61     CG2R66
   35    36    38    63	 9 ;     CG2R61     CG2R66     CG2R61      HGR62
   37    36    38    39	 9 ;       FGR1     CG2R66     CG2R61     CG2R66
   37    36    38    63	 9 ;       FGR1     CG2R66     CG2R61      HGR62
   36    38    39    40	 9 ;     CG2R66     CG2R61     CG2R66     CG2R61
   36    38    39    41	 9 ;     CG2R66     CG2R61     CG2R66       FGR1
   63    38    39    40	 9 ;      HGR62     CG2R61     CG2R66     CG2R61
   63    38    39    41	 9 ;      HGR62     CG2R61     CG2R66       FGR1
   38    39    40    34	 9 ;     CG2R61     CG2R66     CG2R61     CG2R61
   38    39    40    64	 9 ;     CG2R61     CG2R66     CG2R61      HGR62
   41    39    40    34	 9 ;       FGR1     CG2R66     CG2R61     CG2R61
   41    39    40    64	 9 ;       FGR1     CG2R66     CG2R61      HGR62

[ dihedrals ]
;	ai	  aj	ak	  al funct			  c0			c1			  c2			c3
   19    22    18    20	 2
   28    27    24    29	 2

