GROup of MAchos and Cynical Suckers
   73
    1LIG     C1    1  -1.349   0.331  -1.499
    1LIG     C2    2  -1.310   0.432  -1.385
    1LIG     O1    3  -1.331   0.371  -1.256
    1LIG     H1    4  -1.246   0.376  -1.208
    1LIG     C3    5  -1.160   0.477  -1.391
    1LIG     N1    6  -1.145   0.623  -1.425
    1LIG     H2    7  -1.221   0.677  -1.381
    1LIG     H3    8  -1.059   0.655  -1.379
    1LIG     C4    9  -1.138   0.662  -1.572
    1LIG     C5   10  -1.020   0.607  -1.648
    1LIG     C6   11  -1.036   0.499  -1.737
    1LIG     C7   12  -0.925   0.437  -1.796
    1LIG     C8   13  -0.797   0.486  -1.768
    1LIG     C9   14  -0.780   0.600  -1.691
    1LIG    C10   15  -0.891   0.661  -1.632
    1LIG     O2   16  -0.929   0.324  -1.872
    1LIG    C11   17  -1.004   0.215  -1.820
    1LIG     N2   18  -1.380   0.394  -1.629
    1LIG    C12   19  -1.488   0.365  -1.710
    1LIG     O3   20  -1.462   0.354  -1.830
    1LIG     H4   21  -1.302   0.401  -1.694
    1LIG    C13   22  -1.634   0.341  -1.654
    1LIG    C14   23  -1.648   0.214  -1.571
    1LIG     N3   24  -1.687   0.454  -1.574
    1LIG    C15   25  -1.672   0.469  -1.431
    1LIG    C16   26  -1.777   0.574  -1.396
    1LIG    C17   27  -1.783   0.663  -1.521
    1LIG    C18   28  -1.752   0.563  -1.631
    1LIG     O4   29  -1.777   0.576  -1.750
    1LIG    C19   30  -1.675   0.770  -1.521
    1LIG     O5   31  -1.725   0.887  -1.586
    1LIG    C20   32  -1.622   0.956  -1.656
    1LIG    C21   33  -1.252   0.212  -1.518
    1LIG    C22   34  -1.235   0.111  -1.407
    1LIG    C23   35  -1.122   0.102  -1.324
    1LIG    C24   36  -1.114   0.001  -1.227
    1LIG     F1   37  -1.005  -0.005  -1.150
    1LIG    C25   38  -1.214  -0.093  -1.211
    1LIG    C26   39  -1.326  -0.083  -1.291
    1LIG    C27   40  -1.337   0.016  -1.388
    1LIG     F2   41  -1.425  -0.173  -1.277
    1LIG     HC   42  -1.443   0.286  -1.466
    1LIG    HC1   43  -1.373   0.521  -1.392
    1LIG    HC2   44  -1.109   0.418  -1.467
    1LIG    HC3   45  -1.113   0.458  -1.294
    1LIG    HC4   46  -1.134   0.771  -1.577
    1LIG    HC5   47  -1.230   0.629  -1.621
    1LIG    HC6   48  -1.135   0.464  -1.761
    1LIG    HC7   49  -0.710   0.434  -1.808
    1LIG    HC8   50  -0.682   0.642  -1.678
    1LIG    HC9   51  -0.878   0.751  -1.573
    1LIG   HC10   52  -1.700   0.330  -1.740
    1LIG   HC11   53  -1.693   0.375  -1.379
    1LIG   HC12   54  -1.573   0.506  -1.406
    1LIG   HC13   55  -1.747   0.632  -1.309
    1LIG   HC14   56  -1.873   0.527  -1.379
    1LIG   HC15   57  -1.882   0.706  -1.534
    1LIG   HC16   58  -1.587   0.734  -1.574
    1LIG   HC17   59  -1.648   0.795  -1.418
    1LIG   HC18   60  -1.154   0.254  -1.538
    1LIG   HC19   61  -1.284   0.158  -1.607
    1LIG   HC20   62  -1.042   0.173  -1.334
    1LIG   HC21   63  -1.205  -0.171  -1.137
    1LIG   HC22   64  -1.426   0.021  -1.449
    1LIG   HC23   65  -1.000   0.131  -1.890
    1LIG   HC24   66  -0.963   0.184  -1.724
    1LIG   HC25   67  -1.108   0.245  -1.807
    1LIG   HC26   68  -1.636   0.127  -1.635
    1LIG   HC27   69  -1.570   0.212  -1.494
    1LIG   HC28   70  -1.746   0.212  -1.523
    1LIG   HC29   71  -1.665   1.044  -1.704
    1LIG   HC30   72  -1.579   0.891  -1.731
    1LIG   HC31   73  -1.545   0.987  -1.585
   0.00000   0.00000   0.00000
