; Created by cgenff_charmm2gmx.py

[ moleculetype ]
; Name			   nrexcl
LIG				 3

[ atoms ]
;	 nr		  type	resnr residue  atom   cgnr	   charge		mass  typeB    chargeB		massB
; residue	 1 LIG rtp LIG q	qsum
     1      CG2O1      1    LIG     C1      1      0.653     12.011   ;
     2      OG2D1      1    LIG      O      2     -0.558     15.999   ;
     3      NG2S0      1    LIG     N1      3     -0.363     14.007   ;
     4      CG321      1    LIG     C2      4      0.047     12.011   ;
     5      CG321      1    LIG     C3      5     -0.173     12.011   ;
     6      CG311      1    LIG     C4      6     -0.136     12.011   ;
     7      CG321      1    LIG     C5      7     -0.164     12.011   ;
     8      CG311      1    LIG     C6      8      0.058     12.011   ;
     9     CG3C51      1    LIG     C7      9     -0.067     12.011   ;
    10     CG3C54      1    LIG     C8     10     -0.476     12.011   ;
    11      NG3P2      1    LIG     N2     11     -0.162     14.007   ;
    12     CG3C54      1    LIG     C9     12     -0.479     12.011   ;
    13       HGP2      1    LIG     H1     13      0.338      1.008   ;
    14       HGP2      1    LIG     H2     14      0.338      1.008   ;
    15     CG3C51      1    LIG    C10     15      0.040     12.011   ;
    16     CG2R61      1    LIG    C11     16      0.062     12.011   ;
    17     CG2R61      1    LIG    C12     17     -0.091     12.011   ;
    18     CG2R61      1    LIG    C13     18     -0.108     12.011   ;
    19     CG2R61      1    LIG    C14     19     -0.116     12.011   ;
    20     CG2R61      1    LIG    C15     20     -0.073     12.011   ;
    21     CG2R61      1    LIG    C16     21     -0.011     12.011   ;
    22      BRGR1      1    LIG     BR     22     -0.170     79.904   ;
    23     CG2R61      1    LIG    C17     23     -0.079     12.011   ;
    24     CG2R61      1    LIG    C18     24     -0.085     12.011   ;
    25     CG2R61      1    LIG    C19     25     -0.114     12.011   ;
    26     CG2R61      1    LIG    C20     26     -0.116     12.011   ;
    27     CG2R61      1    LIG    C21     27     -0.114     12.011   ;
    28     CG2R61      1    LIG    C22     28     -0.085     12.011   ;
    29     CG2R61      1    LIG    C23     29      0.034     12.011   ;
    30     CG2R61      1    LIG    C24     30     -0.112     12.011   ;
    31     CG2R61      1    LIG    C25     31     -0.114     12.011   ;
    32     CG2R61      1    LIG    C26     32     -0.116     12.011   ;
    33     CG2R61      1    LIG    C27     33     -0.114     12.011   ;
    34     CG2R61      1    LIG    C28     34     -0.112     12.011   ;
    35       HGA2      1    LIG    HC2     35      0.090      1.008   ;
    36       HGA2      1    LIG    HC3     36      0.090      1.008   ;
    37       HGA2      1    LIG    HC4     37      0.090      1.008   ;
    38       HGA2      1    LIG    HC5     38      0.090      1.008   ;
    39       HGA1      1    LIG     HC     39      0.090      1.008   ;
    40       HGA2      1    LIG    HC6     40      0.090      1.008   ;
    41       HGA2      1    LIG    HC7     41      0.090      1.008   ;
    42       HGA1      1    LIG    HC1     42      0.090      1.008   ;
    43       HGA1      1    LIG    HC8     43      0.090      1.008   ;
    44       HGA2      1    LIG    HC9     44      0.280      1.008   ;
    45       HGA2      1    LIG   HC10     45      0.280      1.008   ;
    46       HGA2      1    LIG   HC11     46      0.286      1.008   ;
    47       HGA2      1    LIG   HC12     47      0.286      1.008   ;
    48      HGR61      1    LIG   HC13     48      0.116      1.008   ;
    49      HGR61      1    LIG   HC14     49      0.116      1.008   ;
    50      HGR61      1    LIG   HC15     50      0.116      1.008   ;
    51      HGR62      1    LIG   HC16     51      0.148      1.008   ;
    52      HGR61      1    LIG   HC17     52      0.116      1.008   ;
    53      HGR61      1    LIG   HC18     53      0.116      1.008   ;
    54      HGR61      1    LIG   HC19     54      0.116      1.008   ;
    55      HGR61      1    LIG   HC20     55      0.116      1.008   ;
    56      HGR61      1    LIG   HC21     56      0.116      1.008   ;
    57      HGR61      1    LIG   HC22     57      0.116      1.008   ;
    58      HGR61      1    LIG   HC23     58      0.116      1.008   ;
    59      HGR61      1    LIG   HC24     59      0.116      1.008   ;
    60      HGR61      1    LIG   HC25     60      0.116      1.008   ;
    61      HGR61      1    LIG   HC26     61      0.116      1.008   ;
    62       HGA1      1    LIG    H30     62      0.090      1.008   ;
    63        LPH      1    LIG    LP1     63      0.050      0.000   ;

[ bonds ]
;	ai	  aj funct			  c0			c1			  c2			c3
    1     2	 1 ;       CG2O1      OG2D1
    1     3	 1 ;       CG2O1      NG2S0
    1     9	 1 ;       CG2O1     CG3C51
    3     8	 1 ;       NG2S0      CG311
    3     4	 1 ;       NG2S0      CG321
    4     5	 1 ;       CG321      CG321
    4    35	 1 ;       CG321       HGA2
    4    36	 1 ;       CG321       HGA2
    5     6	 1 ;       CG321      CG311
    5    37	 1 ;       CG321       HGA2
    5    38	 1 ;       CG321       HGA2
    6     7	 1 ;       CG311      CG321
    6    29	 1 ;       CG311     CG2R61
    6    39	 1 ;       CG311       HGA1
    7     8	 1 ;       CG321      CG311
    7    40	 1 ;       CG321       HGA2
    7    41	 1 ;       CG321       HGA2
    8    23	 1 ;       CG311     CG2R61
    8    42	 1 ;       CG311       HGA1
    9    10	 1 ;      CG3C51     CG3C54
    9    15	 1 ;      CG3C51     CG3C51
    9    43	 1 ;      CG3C51       HGA1
   10    11	 1 ;      CG3C54      NG3P2
   10    44	 1 ;      CG3C54       HGA2
   10    45	 1 ;      CG3C54       HGA2
   11    13	 1 ;       NG3P2       HGP2
   11    14	 1 ;       NG3P2       HGP2
   11    12	 1 ;       NG3P2     CG3C54
   12    15	 1 ;      CG3C54     CG3C51
   12    46	 1 ;      CG3C54       HGA2
   12    47	 1 ;      CG3C54       HGA2
   15    16	 1 ;      CG3C51     CG2R61
   15    62	 1 ;      CG3C51       HGA1
   16    21	 1 ;      CG2R61     CG2R61
   16    17	 1 ;      CG2R61     CG2R61
   17    18	 1 ;      CG2R61     CG2R61
   17    48	 1 ;      CG2R61      HGR61
   18    19	 1 ;      CG2R61     CG2R61
   18    49	 1 ;      CG2R61      HGR61
   19    20	 1 ;      CG2R61     CG2R61
   19    50	 1 ;      CG2R61      HGR61
   20    21	 1 ;      CG2R61     CG2R61
   20    51	 1 ;      CG2R61      HGR62
   21    22	 1 ;      CG2R61      BRGR1
   23    28	 1 ;      CG2R61     CG2R61
   23    24	 1 ;      CG2R61     CG2R61
   24    25	 1 ;      CG2R61     CG2R61
   24    52	 1 ;      CG2R61      HGR61
   25    26	 1 ;      CG2R61     CG2R61
   25    53	 1 ;      CG2R61      HGR61
   26    27	 1 ;      CG2R61     CG2R61
   26    54	 1 ;      CG2R61      HGR61
   27    28	 1 ;      CG2R61     CG2R61
   27    55	 1 ;      CG2R61      HGR61
   28    56	 1 ;      CG2R61      HGR61
   29    34	 1 ;      CG2R61     CG2R61
   29    30	 1 ;      CG2R61     CG2R61
   30    31	 1 ;      CG2R61     CG2R61
   30    57	 1 ;      CG2R61      HGR61
   31    32	 1 ;      CG2R61     CG2R61
   31    58	 1 ;      CG2R61      HGR61
   32    33	 1 ;      CG2R61     CG2R61
   32    59	 1 ;      CG2R61      HGR61
   33    34	 1 ;      CG2R61     CG2R61
   33    60	 1 ;      CG2R61      HGR61
   34    61	 1 ;      CG2R61      HGR61

[ pairs ]
;	ai	  aj funct			  c0			c1			  c2			c3
    1    23	 1
    1     7	 1
    1    42	 1
    1     5	 1
    1    35	 1
    1    36	 1
    1    11	 1
    1    44	 1
    1    45	 1
    1    16	 1
    1    12	 1
    1    62	 1
    2     8	 1
    2     4	 1
    2    10	 1
    2    15	 1
    2    43	 1
    3    10	 1
    3    15	 1
    3    43	 1
    3     6	 1
    3    37	 1
    3    38	 1
    3    40	 1
    3    41	 1
    3    28	 1
    3    24	 1
    4     9	 1
    4    23	 1
    4     7	 1
    4    42	 1
    4    29	 1
    4    39	 1
    5     8	 1
    5    40	 1
    5    41	 1
    5    34	 1
    5    30	 1
    6    35	 1
    6    36	 1
    6    23	 1
    6    42	 1
    6    33	 1
    6    61	 1
    6    31	 1
    6    57	 1
    7    37	 1
    7    38	 1
    7    34	 1
    7    30	 1
    7    28	 1
    7    24	 1
    8     9	 1
    8    35	 1
    8    36	 1
    8    29	 1
    8    39	 1
    8    27	 1
    8    56	 1
    8    25	 1
    8    52	 1
    9    13	 1
    9    14	 1
    9    46	 1
    9    47	 1
    9    21	 1
    9    17	 1
   10    16	 1
   10    62	 1
   10    46	 1
   10    47	 1
   11    43	 1
   11    16	 1
   11    62	 1
   12    43	 1
   12    44	 1
   12    45	 1
   12    21	 1
   12    17	 1
   13    44	 1
   13    45	 1
   13    15	 1
   13    46	 1
   13    47	 1
   14    44	 1
   14    45	 1
   14    15	 1
   14    46	 1
   14    47	 1
   15    44	 1
   15    45	 1
   15    22	 1
   63    15	 1
   15    20	 1
   15    18	 1
   15    48	 1
   16    43	 1
   16    46	 1
   16    47	 1
   16    19	 1
   16    49	 1
   16    51	 1
   17    62	 1
   17    22	 1
   63    17	 1
   17    20	 1
   17    50	 1
   18    21	 1
   18    51	 1
   19    48	 1
   19    22	 1
   63    19	 1
   20    49	 1
   21    62	 1
   21    48	 1
   21    50	 1
   22    51	 1
   63    51	 1
   23    40	 1
   23    41	 1
   23    26	 1
   23    53	 1
   23    55	 1
   24    42	 1
   24    27	 1
   24    56	 1
   24    54	 1
   25    28	 1
   25    55	 1
   26    52	 1
   26    56	 1
   27    53	 1
   28    42	 1
   28    52	 1
   28    54	 1
   29    37	 1
   29    38	 1
   29    40	 1
   29    41	 1
   29    32	 1
   29    58	 1
   29    60	 1
   30    39	 1
   30    33	 1
   30    61	 1
   30    59	 1
   31    34	 1
   31    60	 1
   32    57	 1
   32    61	 1
   33    58	 1
   34    39	 1
   34    57	 1
   34    59	 1
   35    37	 1
   35    38	 1
   36    37	 1
   36    38	 1
   37    39	 1
   38    39	 1
   39    40	 1
   39    41	 1
   40    42	 1
   41    42	 1
   43    44	 1
   43    45	 1
   43    62	 1
   46    62	 1
   47    62	 1
   48    49	 1
   49    50	 1
   50    51	 1
   52    53	 1
   53    54	 1
   54    55	 1
   55    56	 1
   57    58	 1
   58    59	 1
   59    60	 1
   60    61	 1

[ angles ]
;	ai	  aj	ak funct			c0			  c1			c2			  c3
    2     1     3	5 ;      OG2D1      CG2O1      NG2S0
    2     1     9	5 ;      OG2D1      CG2O1     CG3C51
    3     1     9	5 ;      NG2S0      CG2O1     CG3C51
    8     3     1	5 ;      CG311      NG2S0      CG2O1
    8     3     4	5 ;      CG311      NG2S0      CG321
    1     3     4	5 ;      CG2O1      NG2S0      CG321
    3     4     5	5 ;      NG2S0      CG321      CG321
    3     4    35	5 ;      NG2S0      CG321       HGA2
    3     4    36	5 ;      NG2S0      CG321       HGA2
    5     4    35	5 ;      CG321      CG321       HGA2
    5     4    36	5 ;      CG321      CG321       HGA2
   35     4    36	5 ;       HGA2      CG321       HGA2
    6     5     4	5 ;      CG311      CG321      CG321
    6     5    37	5 ;      CG311      CG321       HGA2
    6     5    38	5 ;      CG311      CG321       HGA2
    4     5    37	5 ;      CG321      CG321       HGA2
    4     5    38	5 ;      CG321      CG321       HGA2
   37     5    38	5 ;       HGA2      CG321       HGA2
    7     6    29	5 ;      CG321      CG311     CG2R61
    7     6     5	5 ;      CG321      CG311      CG321
    7     6    39	5 ;      CG321      CG311       HGA1
   29     6     5	5 ;     CG2R61      CG311      CG321
   29     6    39	5 ;     CG2R61      CG311       HGA1
    5     6    39	5 ;      CG321      CG311       HGA1
    8     7     6	5 ;      CG311      CG321      CG311
    8     7    40	5 ;      CG311      CG321       HGA2
    8     7    41	5 ;      CG311      CG321       HGA2
    6     7    40	5 ;      CG311      CG321       HGA2
    6     7    41	5 ;      CG311      CG321       HGA2
   40     7    41	5 ;       HGA2      CG321       HGA2
   23     8     7	5 ;     CG2R61      CG311      CG321
   23     8     3	5 ;     CG2R61      CG311      NG2S0
   23     8    42	5 ;     CG2R61      CG311       HGA1
    7     8     3	5 ;      CG321      CG311      NG2S0
    7     8    42	5 ;      CG321      CG311       HGA1
    3     8    42	5 ;      NG2S0      CG311       HGA1
    1     9    10	5 ;      CG2O1     CG3C51     CG3C54
    1     9    15	5 ;      CG2O1     CG3C51     CG3C51
    1     9    43	5 ;      CG2O1     CG3C51       HGA1
   10     9    15	5 ;     CG3C54     CG3C51     CG3C51
   10     9    43	5 ;     CG3C54     CG3C51       HGA1
   15     9    43	5 ;     CG3C51     CG3C51       HGA1
    9    10    11	5 ;     CG3C51     CG3C54      NG3P2
    9    10    44	5 ;     CG3C51     CG3C54       HGA2
    9    10    45	5 ;     CG3C51     CG3C54       HGA2
   11    10    44	5 ;      NG3P2     CG3C54       HGA2
   11    10    45	5 ;      NG3P2     CG3C54       HGA2
   44    10    45	5 ;       HGA2     CG3C54       HGA2
   10    11    13	5 ;     CG3C54      NG3P2       HGP2
   10    11    14	5 ;     CG3C54      NG3P2       HGP2
   10    11    12	5 ;     CG3C54      NG3P2     CG3C54
   13    11    14	5 ;       HGP2      NG3P2       HGP2
   13    11    12	5 ;       HGP2      NG3P2     CG3C54
   14    11    12	5 ;       HGP2      NG3P2     CG3C54
   11    12    15	5 ;      NG3P2     CG3C54     CG3C51
   11    12    46	5 ;      NG3P2     CG3C54       HGA2
   11    12    47	5 ;      NG3P2     CG3C54       HGA2
   15    12    46	5 ;     CG3C51     CG3C54       HGA2
   15    12    47	5 ;     CG3C51     CG3C54       HGA2
   46    12    47	5 ;       HGA2     CG3C54       HGA2
    9    15    16	5 ;     CG3C51     CG3C51     CG2R61
    9    15    12	5 ;     CG3C51     CG3C51     CG3C54
    9    15    62	5 ;     CG3C51     CG3C51       HGA1
   16    15    12	5 ;     CG2R61     CG3C51     CG3C54
   16    15    62	5 ;     CG2R61     CG3C51       HGA1
   12    15    62	5 ;     CG3C54     CG3C51       HGA1
   21    16    15	5 ;     CG2R61     CG2R61     CG3C51
   21    16    17	5 ;     CG2R61     CG2R61     CG2R61
   15    16    17	5 ;     CG3C51     CG2R61     CG2R61
   16    17    18	5 ;     CG2R61     CG2R61     CG2R61
   16    17    48	5 ;     CG2R61     CG2R61      HGR61
   18    17    48	5 ;     CG2R61     CG2R61      HGR61
   19    18    17	5 ;     CG2R61     CG2R61     CG2R61
   19    18    49	5 ;     CG2R61     CG2R61      HGR61
   17    18    49	5 ;     CG2R61     CG2R61      HGR61
   20    19    18	5 ;     CG2R61     CG2R61     CG2R61
   20    19    50	5 ;     CG2R61     CG2R61      HGR61
   18    19    50	5 ;     CG2R61     CG2R61      HGR61
   21    20    19	5 ;     CG2R61     CG2R61     CG2R61
   21    20    51	5 ;     CG2R61     CG2R61      HGR62
   19    20    51	5 ;     CG2R61     CG2R61      HGR62
   22    21    20	5 ;      BRGR1     CG2R61     CG2R61
   22    21    16	5 ;      BRGR1     CG2R61     CG2R61
   20    21    16	5 ;     CG2R61     CG2R61     CG2R61
   28    23    24	5 ;     CG2R61     CG2R61     CG2R61
   28    23     8	5 ;     CG2R61     CG2R61      CG311
   24    23     8	5 ;     CG2R61     CG2R61      CG311
   25    24    23	5 ;     CG2R61     CG2R61     CG2R61
   25    24    52	5 ;     CG2R61     CG2R61      HGR61
   23    24    52	5 ;     CG2R61     CG2R61      HGR61
   26    25    24	5 ;     CG2R61     CG2R61     CG2R61
   26    25    53	5 ;     CG2R61     CG2R61      HGR61
   24    25    53	5 ;     CG2R61     CG2R61      HGR61
   27    26    25	5 ;     CG2R61     CG2R61     CG2R61
   27    26    54	5 ;     CG2R61     CG2R61      HGR61
   25    26    54	5 ;     CG2R61     CG2R61      HGR61
   26    27    28	5 ;     CG2R61     CG2R61     CG2R61
   26    27    55	5 ;     CG2R61     CG2R61      HGR61
   28    27    55	5 ;     CG2R61     CG2R61      HGR61
   27    28    23	5 ;     CG2R61     CG2R61     CG2R61
   27    28    56	5 ;     CG2R61     CG2R61      HGR61
   23    28    56	5 ;     CG2R61     CG2R61      HGR61
   34    29     6	5 ;     CG2R61     CG2R61      CG311
   34    29    30	5 ;     CG2R61     CG2R61     CG2R61
    6    29    30	5 ;      CG311     CG2R61     CG2R61
   29    30    31	5 ;     CG2R61     CG2R61     CG2R61
   29    30    57	5 ;     CG2R61     CG2R61      HGR61
   31    30    57	5 ;     CG2R61     CG2R61      HGR61
   32    31    30	5 ;     CG2R61     CG2R61     CG2R61
   32    31    58	5 ;     CG2R61     CG2R61      HGR61
   30    31    58	5 ;     CG2R61     CG2R61      HGR61
   33    32    31	5 ;     CG2R61     CG2R61     CG2R61
   33    32    59	5 ;     CG2R61     CG2R61      HGR61
   31    32    59	5 ;     CG2R61     CG2R61      HGR61
   34    33    32	5 ;     CG2R61     CG2R61     CG2R61
   34    33    60	5 ;     CG2R61     CG2R61      HGR61
   32    33    60	5 ;     CG2R61     CG2R61      HGR61
   33    34    29	5 ;     CG2R61     CG2R61     CG2R61
   33    34    61	5 ;     CG2R61     CG2R61      HGR61
   29    34    61	5 ;     CG2R61     CG2R61      HGR61

[ dihedrals ]
;	ai	  aj	ak	  al funct			  c0			c1			  c2			c3			  c4			c5
    2     1     3     8	 9 ;      OG2D1      CG2O1      NG2S0      CG311
    2     1     3     4	 9 ;      OG2D1      CG2O1      NG2S0      CG321
    9     1     3     8	 9 ;     CG3C51      CG2O1      NG2S0      CG311
    9     1     3     4	 9 ;     CG3C51      CG2O1      NG2S0      CG321
    2     1     9    10	 9 ;      OG2D1      CG2O1     CG3C51     CG3C54
    2     1     9    15	 9 ;      OG2D1      CG2O1     CG3C51     CG3C51
    2     1     9    43	 9 ;      OG2D1      CG2O1     CG3C51       HGA1
    3     1     9    10	 9 ;      NG2S0      CG2O1     CG3C51     CG3C54
    3     1     9    15	 9 ;      NG2S0      CG2O1     CG3C51     CG3C51
    3     1     9    43	 9 ;      NG2S0      CG2O1     CG3C51       HGA1
    1     3     8    23	 9 ;      CG2O1      NG2S0      CG311     CG2R61
    1     3     8     7	 9 ;      CG2O1      NG2S0      CG311      CG321
    1     3     8    42	 9 ;      CG2O1      NG2S0      CG311       HGA1
    4     3     8    23	 9 ;      CG321      NG2S0      CG311     CG2R61
    4     3     8     7	 9 ;      CG321      NG2S0      CG311      CG321
    4     3     8    42	 9 ;      CG321      NG2S0      CG311       HGA1
    8     3     4     5	 9 ;      CG311      NG2S0      CG321      CG321
    8     3     4    35	 9 ;      CG311      NG2S0      CG321       HGA2
    8     3     4    36	 9 ;      CG311      NG2S0      CG321       HGA2
    1     3     4     5	 9 ;      CG2O1      NG2S0      CG321      CG321
    1     3     4    35	 9 ;      CG2O1      NG2S0      CG321       HGA2
    1     3     4    36	 9 ;      CG2O1      NG2S0      CG321       HGA2
    3     4     5     6	 9 ;      NG2S0      CG321      CG321      CG311
    3     4     5    37	 9 ;      NG2S0      CG321      CG321       HGA2
    3     4     5    38	 9 ;      NG2S0      CG321      CG321       HGA2
   35     4     5     6	 9 ;       HGA2      CG321      CG321      CG311
   35     4     5    37	 9 ;       HGA2      CG321      CG321       HGA2
   35     4     5    38	 9 ;       HGA2      CG321      CG321       HGA2
   36     4     5     6	 9 ;       HGA2      CG321      CG321      CG311
   36     4     5    37	 9 ;       HGA2      CG321      CG321       HGA2
   36     4     5    38	 9 ;       HGA2      CG321      CG321       HGA2
    4     5     6     7	 9 ;      CG321      CG321      CG311      CG321
    4     5     6    29	 9 ;      CG321      CG321      CG311     CG2R61
    4     5     6    39	 9 ;      CG321      CG321      CG311       HGA1
   37     5     6     7	 9 ;       HGA2      CG321      CG311      CG321
   37     5     6    29	 9 ;       HGA2      CG321      CG311     CG2R61
   37     5     6    39	 9 ;       HGA2      CG321      CG311       HGA1
   38     5     6     7	 9 ;       HGA2      CG321      CG311      CG321
   38     5     6    29	 9 ;       HGA2      CG321      CG311     CG2R61
   38     5     6    39	 9 ;       HGA2      CG321      CG311       HGA1
   29     6     7     8	 9 ;     CG2R61      CG311      CG321      CG311
   29     6     7    40	 9 ;     CG2R61      CG311      CG321       HGA2
   29     6     7    41	 9 ;     CG2R61      CG311      CG321       HGA2
    5     6     7     8	 9 ;      CG321      CG311      CG321      CG311
    5     6     7    40	 9 ;      CG321      CG311      CG321       HGA2
    5     6     7    41	 9 ;      CG321      CG311      CG321       HGA2
   39     6     7     8	 9 ;       HGA1      CG311      CG321      CG311
   39     6     7    40	 9 ;       HGA1      CG311      CG321       HGA2
   39     6     7    41	 9 ;       HGA1      CG311      CG321       HGA2
    7     6    29    34	 9 ;      CG321      CG311     CG2R61     CG2R61
    7     6    29    30	 9 ;      CG321      CG311     CG2R61     CG2R61
    5     6    29    34	 9 ;      CG321      CG311     CG2R61     CG2R61
    5     6    29    30	 9 ;      CG321      CG311     CG2R61     CG2R61
   39     6    29    34	 9 ;       HGA1      CG311     CG2R61     CG2R61
   39     6    29    30	 9 ;       HGA1      CG311     CG2R61     CG2R61
    6     7     8    23	 9 ;      CG311      CG321      CG311     CG2R61
    6     7     8     3	 9 ;      CG311      CG321      CG311      NG2S0
    6     7     8    42	 9 ;      CG311      CG321      CG311       HGA1
   40     7     8    23	 9 ;       HGA2      CG321      CG311     CG2R61
   40     7     8     3	 9 ;       HGA2      CG321      CG311      NG2S0
   40     7     8    42	 9 ;       HGA2      CG321      CG311       HGA1
   41     7     8    23	 9 ;       HGA2      CG321      CG311     CG2R61
   41     7     8     3	 9 ;       HGA2      CG321      CG311      NG2S0
   41     7     8    42	 9 ;       HGA2      CG321      CG311       HGA1
    7     8    23    28	 9 ;      CG321      CG311     CG2R61     CG2R61
    7     8    23    24	 9 ;      CG321      CG311     CG2R61     CG2R61
    3     8    23    28	 9 ;      NG2S0      CG311     CG2R61     CG2R61
    3     8    23    24	 9 ;      NG2S0      CG311     CG2R61     CG2R61
   42     8    23    28	 9 ;       HGA1      CG311     CG2R61     CG2R61
   42     8    23    24	 9 ;       HGA1      CG311     CG2R61     CG2R61
    1     9    10    11	 9 ;      CG2O1     CG3C51     CG3C54      NG3P2
    1     9    10    44	 9 ;      CG2O1     CG3C51     CG3C54       HGA2
    1     9    10    45	 9 ;      CG2O1     CG3C51     CG3C54       HGA2
   15     9    10    11	 9 ;     CG3C51     CG3C51     CG3C54      NG3P2
   15     9    10    44	 9 ;     CG3C51     CG3C51     CG3C54       HGA2
   15     9    10    45	 9 ;     CG3C51     CG3C51     CG3C54       HGA2
   43     9    10    11	 9 ;       HGA1     CG3C51     CG3C54      NG3P2
   43     9    10    44	 9 ;       HGA1     CG3C51     CG3C54       HGA2
   43     9    10    45	 9 ;       HGA1     CG3C51     CG3C54       HGA2
    1     9    15    16	 9 ;      CG2O1     CG3C51     CG3C51     CG2R61
    1     9    15    12	 9 ;      CG2O1     CG3C51     CG3C51     CG3C54
    1     9    15    62	 9 ;      CG2O1     CG3C51     CG3C51       HGA1
   10     9    15    16	 9 ;     CG3C54     CG3C51     CG3C51     CG2R61
   10     9    15    12	 9 ;     CG3C54     CG3C51     CG3C51     CG3C54
   10     9    15    62	 9 ;     CG3C54     CG3C51     CG3C51       HGA1
   43     9    15    16	 9 ;       HGA1     CG3C51     CG3C51     CG2R61
   43     9    15    12	 9 ;       HGA1     CG3C51     CG3C51     CG3C54
   43     9    15    62	 9 ;       HGA1     CG3C51     CG3C51       HGA1
    9    10    11    13	 9 ;     CG3C51     CG3C54      NG3P2       HGP2
    9    10    11    14	 9 ;     CG3C51     CG3C54      NG3P2       HGP2
    9    10    11    12	 9 ;     CG3C51     CG3C54      NG3P2     CG3C54
   44    10    11    13	 9 ;       HGA2     CG3C54      NG3P2       HGP2
   44    10    11    14	 9 ;       HGA2     CG3C54      NG3P2       HGP2
   44    10    11    12	 9 ;       HGA2     CG3C54      NG3P2     CG3C54
   45    10    11    13	 9 ;       HGA2     CG3C54      NG3P2       HGP2
   45    10    11    14	 9 ;       HGA2     CG3C54      NG3P2       HGP2
   45    10    11    12	 9 ;       HGA2     CG3C54      NG3P2     CG3C54
   10    11    12    15	 9 ;     CG3C54      NG3P2     CG3C54     CG3C51
   10    11    12    46	 9 ;     CG3C54      NG3P2     CG3C54       HGA2
   10    11    12    47	 9 ;     CG3C54      NG3P2     CG3C54       HGA2
   13    11    12    15	 9 ;       HGP2      NG3P2     CG3C54     CG3C51
   13    11    12    46	 9 ;       HGP2      NG3P2     CG3C54       HGA2
   13    11    12    47	 9 ;       HGP2      NG3P2     CG3C54       HGA2
   14    11    12    15	 9 ;       HGP2      NG3P2     CG3C54     CG3C51
   14    11    12    46	 9 ;       HGP2      NG3P2     CG3C54       HGA2
   14    11    12    47	 9 ;       HGP2      NG3P2     CG3C54       HGA2
   11    12    15     9	 9 ;      NG3P2     CG3C54     CG3C51     CG3C51
   11    12    15    16	 9 ;      NG3P2     CG3C54     CG3C51     CG2R61
   11    12    15    62	 9 ;      NG3P2     CG3C54     CG3C51       HGA1
   46    12    15     9	 9 ;       HGA2     CG3C54     CG3C51     CG3C51
   46    12    15    16	 9 ;       HGA2     CG3C54     CG3C51     CG2R61
   46    12    15    62	 9 ;       HGA2     CG3C54     CG3C51       HGA1
   47    12    15     9	 9 ;       HGA2     CG3C54     CG3C51     CG3C51
   47    12    15    16	 9 ;       HGA2     CG3C54     CG3C51     CG2R61
   47    12    15    62	 9 ;       HGA2     CG3C54     CG3C51       HGA1
    9    15    16    21	 9 ;     CG3C51     CG3C51     CG2R61     CG2R61
    9    15    16    17	 9 ;     CG3C51     CG3C51     CG2R61     CG2R61
   12    15    16    21	 9 ;     CG3C54     CG3C51     CG2R61     CG2R61
   12    15    16    17	 9 ;     CG3C54     CG3C51     CG2R61     CG2R61
   62    15    16    21	 9 ;       HGA1     CG3C51     CG2R61     CG2R61
   62    15    16    17	 9 ;       HGA1     CG3C51     CG2R61     CG2R61
   15    16    21    22	 9 ;     CG3C51     CG2R61     CG2R61      BRGR1
   15    16    21    20	 9 ;     CG3C51     CG2R61     CG2R61     CG2R61
   17    16    21    22	 9 ;     CG2R61     CG2R61     CG2R61      BRGR1
   17    16    21    20	 9 ;     CG2R61     CG2R61     CG2R61     CG2R61
   21    16    17    18	 9 ;     CG2R61     CG2R61     CG2R61     CG2R61
   21    16    17    48	 9 ;     CG2R61     CG2R61     CG2R61      HGR61
   15    16    17    18	 9 ;     CG3C51     CG2R61     CG2R61     CG2R61
   15    16    17    48	 9 ;     CG3C51     CG2R61     CG2R61      HGR61
   16    17    18    19	 9 ;     CG2R61     CG2R61     CG2R61     CG2R61
   16    17    18    49	 9 ;     CG2R61     CG2R61     CG2R61      HGR61
   48    17    18    19	 9 ;      HGR61     CG2R61     CG2R61     CG2R61
   48    17    18    49	 9 ;      HGR61     CG2R61     CG2R61      HGR61
   17    18    19    20	 9 ;     CG2R61     CG2R61     CG2R61     CG2R61
   17    18    19    50	 9 ;     CG2R61     CG2R61     CG2R61      HGR61
   49    18    19    20	 9 ;      HGR61     CG2R61     CG2R61     CG2R61
   49    18    19    50	 9 ;      HGR61     CG2R61     CG2R61      HGR61
   18    19    20    21	 9 ;     CG2R61     CG2R61     CG2R61     CG2R61
   18    19    20    51	 9 ;     CG2R61     CG2R61     CG2R61      HGR62
   50    19    20    21	 9 ;      HGR61     CG2R61     CG2R61     CG2R61
   50    19    20    51	 9 ;      HGR61     CG2R61     CG2R61      HGR62
   19    20    21    22	 9 ;     CG2R61     CG2R61     CG2R61      BRGR1
   19    20    21    16	 9 ;     CG2R61     CG2R61     CG2R61     CG2R61
   51    20    21    22	 9 ;      HGR62     CG2R61     CG2R61      BRGR1
   51    20    21    16	 9 ;      HGR62     CG2R61     CG2R61     CG2R61
   24    23    28    27	 9 ;     CG2R61     CG2R61     CG2R61     CG2R61
   24    23    28    56	 9 ;     CG2R61     CG2R61     CG2R61      HGR61
    8    23    28    27	 9 ;      CG311     CG2R61     CG2R61     CG2R61
    8    23    28    56	 9 ;      CG311     CG2R61     CG2R61      HGR61
   28    23    24    25	 9 ;     CG2R61     CG2R61     CG2R61     CG2R61
   28    23    24    52	 9 ;     CG2R61     CG2R61     CG2R61      HGR61
    8    23    24    25	 9 ;      CG311     CG2R61     CG2R61     CG2R61
    8    23    24    52	 9 ;      CG311     CG2R61     CG2R61      HGR61
   23    24    25    26	 9 ;     CG2R61     CG2R61     CG2R61     CG2R61
   23    24    25    53	 9 ;     CG2R61     CG2R61     CG2R61      HGR61
   52    24    25    26	 9 ;      HGR61     CG2R61     CG2R61     CG2R61
   52    24    25    53	 9 ;      HGR61     CG2R61     CG2R61      HGR61
   24    25    26    27	 9 ;     CG2R61     CG2R61     CG2R61     CG2R61
   24    25    26    54	 9 ;     CG2R61     CG2R61     CG2R61      HGR61
   53    25    26    27	 9 ;      HGR61     CG2R61     CG2R61     CG2R61
   53    25    26    54	 9 ;      HGR61     CG2R61     CG2R61      HGR61
   25    26    27    28	 9 ;     CG2R61     CG2R61     CG2R61     CG2R61
   25    26    27    55	 9 ;     CG2R61     CG2R61     CG2R61      HGR61
   54    26    27    28	 9 ;      HGR61     CG2R61     CG2R61     CG2R61
   54    26    27    55	 9 ;      HGR61     CG2R61     CG2R61      HGR61
   26    27    28    23	 9 ;     CG2R61     CG2R61     CG2R61     CG2R61
   26    27    28    56	 9 ;     CG2R61     CG2R61     CG2R61      HGR61
   55    27    28    23	 9 ;      HGR61     CG2R61     CG2R61     CG2R61
   55    27    28    56	 9 ;      HGR61     CG2R61     CG2R61      HGR61
    6    29    34    33	 9 ;      CG311     CG2R61     CG2R61     CG2R61
    6    29    34    61	 9 ;      CG311     CG2R61     CG2R61      HGR61
   30    29    34    33	 9 ;     CG2R61     CG2R61     CG2R61     CG2R61
   30    29    34    61	 9 ;     CG2R61     CG2R61     CG2R61      HGR61
   34    29    30    31	 9 ;     CG2R61     CG2R61     CG2R61     CG2R61
   34    29    30    57	 9 ;     CG2R61     CG2R61     CG2R61      HGR61
    6    29    30    31	 9 ;      CG311     CG2R61     CG2R61     CG2R61
    6    29    30    57	 9 ;      CG311     CG2R61     CG2R61      HGR61
   29    30    31    32	 9 ;     CG2R61     CG2R61     CG2R61     CG2R61
   29    30    31    58	 9 ;     CG2R61     CG2R61     CG2R61      HGR61
   57    30    31    32	 9 ;      HGR61     CG2R61     CG2R61     CG2R61
   57    30    31    58	 9 ;      HGR61     CG2R61     CG2R61      HGR61
   30    31    32    33	 9 ;     CG2R61     CG2R61     CG2R61     CG2R61
   30    31    32    59	 9 ;     CG2R61     CG2R61     CG2R61      HGR61
   58    31    32    33	 9 ;      HGR61     CG2R61     CG2R61     CG2R61
   58    31    32    59	 9 ;      HGR61     CG2R61     CG2R61      HGR61
   31    32    33    34	 9 ;     CG2R61     CG2R61     CG2R61     CG2R61
   31    32    33    60	 9 ;     CG2R61     CG2R61     CG2R61      HGR61
   59    32    33    34	 9 ;      HGR61     CG2R61     CG2R61     CG2R61
   59    32    33    60	 9 ;      HGR61     CG2R61     CG2R61      HGR61
   32    33    34    29	 9 ;     CG2R61     CG2R61     CG2R61     CG2R61
   32    33    34    61	 9 ;     CG2R61     CG2R61     CG2R61      HGR61
   60    33    34    29	 9 ;      HGR61     CG2R61     CG2R61     CG2R61
   60    33    34    61	 9 ;      HGR61     CG2R61     CG2R61      HGR61

[ dihedrals ]
;	ai	  aj	ak	  al funct			  c0			c1			  c2			c3
    1     9     3     2	 2

[ virtual_sites2 ]
; Site   from				funct a
   63    22    21     2   -0.189

[ exclusions ]
;	ai	  aj
   22    63
   63    21
   63    20
   63    16
   63    15
   63    17
   63    19
   63    51

