GROningen MAchine for Chemical Simulation
   63
    1LIG     C1    1  -1.363   0.534  -1.660
    1LIG      O    2  -1.317   0.585  -1.760
    1LIG     N1    3  -1.317   0.415  -1.603
    1LIG     C2    4  -1.387   0.355  -1.489
    1LIG     C3    5  -1.319   0.395  -1.357
    1LIG     C4    6  -1.171   0.352  -1.356
    1LIG     C5    7  -1.103   0.410  -1.483
    1LIG     C6    8  -1.175   0.367  -1.615
    1LIG     C7    9  -1.468   0.611  -1.577
    1LIG     C8   10  -1.438   0.759  -1.592
    1LIG     N2   11  -1.568   0.827  -1.572
    1LIG     C9   12  -1.678   0.725  -1.558
    1LIG     H1   13  -1.588   0.887  -1.653
    1LIG     H2   14  -1.566   0.889  -1.490
    1LIG    C10   15  -1.618   0.588  -1.598
    1LIG    C11   16  -1.661   0.499  -1.714
    1LIG    C12   17  -1.703   0.368  -1.676
    1LIG    C13   18  -1.736   0.269  -1.769
    1LIG    C14   19  -1.732   0.297  -1.903
    1LIG    C15   20  -1.698   0.426  -1.945
    1LIG    C16   21  -1.664   0.527  -1.851
    1LIG     BR   22  -1.623   0.697  -1.924
    1LIG    C17   23  -1.090   0.392  -1.742
    1LIG    C18   24  -1.070   0.289  -1.837
    1LIG    C19   25  -0.969   0.298  -1.935
    1LIG    C20   26  -0.885   0.408  -1.941
    1LIG    C21   27  -0.909   0.515  -1.855
    1LIG    C22   28  -1.012   0.507  -1.759
    1LIG    C23   29  -1.151   0.201  -1.340
    1LIG    C24   30  -1.251   0.115  -1.290
    1LIG    C25   31  -1.234  -0.023  -1.288
    1LIG    C26   32  -1.114  -0.078  -1.329
    1LIG    C27   33  -1.010   0.005  -1.371
    1LIG    C28   34  -1.029   0.144  -1.375
    1LIG    HC2   35  -1.490   0.390  -1.488
    1LIG    HC3   36  -1.386   0.246  -1.498
    1LIG    HC4   37  -1.371   0.348  -1.274
    1LIG    HC5   38  -1.325   0.504  -1.345
    1LIG     HC   39  -1.125   0.400  -1.270
    1LIG    HC6   40  -0.999   0.375  -1.487
    1LIG    HC7   41  -1.103   0.519  -1.477
    1LIG    HC1   42  -1.182   0.258  -1.608
    1LIG    HC8   43  -1.448   0.586  -1.473
    1LIG    HC9   44  -1.366   0.791  -1.517
    1LIG   HC10   45  -1.400   0.779  -1.692
    1LIG   HC11   46  -1.761   0.749  -1.625
    1LIG   HC12   47  -1.713   0.721  -1.455
    1LIG   HC13   48  -1.710   0.345  -1.571
    1LIG   HC14   49  -1.764   0.170  -1.735
    1LIG   HC15   50  -1.754   0.220  -1.976
    1LIG   HC16   51  -1.699   0.450  -2.050
    1LIG   HC17   52  -1.133   0.201  -1.835
    1LIG   HC18   53  -0.957   0.218  -2.007
    1LIG   HC19   54  -0.802   0.411  -2.010
    1LIG   HC20   55  -0.849   0.604  -1.862
    1LIG   HC21   56  -1.031   0.593  -1.696
    1LIG   HC22   57  -1.343   0.158  -1.252
    1LIG   HC23   58  -1.314  -0.087  -1.254
    1LIG   HC24   59  -1.100  -0.185  -1.330
    1LIG   HC25   60  -0.915  -0.037  -1.400
    1LIG   HC26   61  -0.948   0.207  -1.407
    1LIG    H30   62  -1.643   0.526  -1.512
    1LIG    LP1   63  -1.582   0.867  -1.996
   0.00000   0.00000   0.00000
