Gromacs Runs On Most of All Computer Systems
   24
    1LIG      O    1  -1.202   0.403  -1.605
    1LIG     C1    2  -1.208   0.297  -1.666
    1LIG     N1    3  -1.255   0.287  -1.793
    1LIG     C2    4  -1.254   0.169  -1.862
    1LIG     N2    5  -1.211   0.058  -1.811
    1LIG     HN    6  -1.213  -0.028  -1.865
    1LIG     C3    7  -1.162   0.061  -1.682
    1LIG     C4    8  -1.162   0.171  -1.606
    1LIG     H1    9  -1.283   0.372  -1.838
    1LIG     N3   10  -1.304   0.173  -1.988
    1LIG     H2   11  -1.238   0.191  -2.062
    1LIG     H3   12  -1.388   0.229  -1.995
    1LIG     C5   13  -1.108  -0.069  -1.629
    1LIG     C6   14  -0.955  -0.078  -1.626
    1LIG     C7   15  -0.887  -0.012  -1.746
    1LIG     H4   16  -1.195   0.106  -1.800
    1LIG     H5   17  -1.130   0.168  -1.508
    1LIG     H6   18  -1.145  -0.149  -1.691
    1LIG     H7   19  -1.141  -0.077  -1.528
    1LIG     H8   20  -0.920  -0.030  -1.537
    1LIG     H9   21  -0.929  -0.182  -1.630
    1LIG    H10   22  -0.910   0.093  -1.747
    1LIG    H11   23  -0.922  -0.056  -1.836
    1LIG    H12   24  -0.781  -0.025  -1.739
   0.00000   0.00000   0.00000
