; Created by cgenff_charmm2gmx.py

[ moleculetype ]
; Name			   nrexcl
LIG				 3

[ atoms ]
;	 nr		  type	resnr residue  atom   cgnr	   charge		mass  typeB    chargeB		massB
; residue	 1 LIG rtp LIG q	qsum
     1      OG2D1      1    LIG      O      1     -0.523     15.999   ;
     2      CG2O1      1    LIG     C1      2      0.379     12.011   ;
     3      NG2S1      1    LIG     N1      3     -0.401     14.007   ;
     4      CG311      1    LIG     C2      4      0.260     12.011   ;
     5      NG311      1    LIG     N2      5     -0.513     14.007   ;
     6     HGPAM1      1    LIG     HN      6      0.336      1.008   ;
     7     CG2D1O      1    LIG     C3      7      0.048     12.011   ;
     8     CG2DC1      1    LIG     C4      8     -0.036     12.011   ;
     9       HGP1      1    LIG     H1      9      0.267      1.008   ;
    10      NG321      1    LIG     N3     10     -0.963     14.007   ;
    11     HGPAM2      1    LIG     H2     11      0.403      1.008   ;
    12     HGPAM2      1    LIG     H3     12      0.403      1.008   ;
    13      CG321      1    LIG     C5     13     -0.088     12.011   ;
    14      CG321      1    LIG     C6     14     -0.153     12.011   ;
    15      CG331      1    LIG     C7     15     -0.275     12.011   ;
    16       HGA1      1    LIG     H4     16      0.090      1.008   ;
    17       HGA4      1    LIG     H5     17      0.136      1.008   ;
    18       HGA2      1    LIG     H6     18      0.090      1.008   ;
    19       HGA2      1    LIG     H7     19      0.090      1.008   ;
    20       HGA2      1    LIG     H8     20      0.090      1.008   ;
    21       HGA2      1    LIG     H9     21      0.090      1.008   ;
    22       HGA3      1    LIG    H10     22      0.090      1.008   ;
    23       HGA3      1    LIG    H11     23      0.090      1.008   ;
    24       HGA3      1    LIG    H12     24      0.090      1.008   ;

[ bonds ]
;	ai	  aj funct			  c0			c1			  c2			c3
    1     2	 1 ;       OG2D1      CG2O1
    2     3	 1 ;       CG2O1      NG2S1
    2     8	 1 ;       CG2O1     CG2DC1
    3     4	 1 ;       NG2S1      CG311
    3     9	 1 ;       NG2S1       HGP1
    4    10	 1 ;       CG311      NG321
    4     5	 1 ;       CG311      NG311
    4    16	 1 ;       CG311       HGA1
    5     6	 1 ;       NG311     HGPAM1
    5     7	 1 ;       NG311     CG2D1O
    7    13	 1 ;      CG2D1O      CG321
    7     8	 1 ;      CG2D1O     CG2DC1
    8    17	 1 ;      CG2DC1       HGA4
   10    11	 1 ;       NG321     HGPAM2
   10    12	 1 ;       NG321     HGPAM2
   13    14	 1 ;       CG321      CG321
   13    18	 1 ;       CG321       HGA2
   13    19	 1 ;       CG321       HGA2
   14    15	 1 ;       CG321      CG331
   14    20	 1 ;       CG321       HGA2
   14    21	 1 ;       CG321       HGA2
   15    22	 1 ;       CG331       HGA3
   15    23	 1 ;       CG331       HGA3
   15    24	 1 ;       CG331       HGA3

[ pairs ]
;	ai	  aj funct			  c0			c1			  c2			c3
    1     4	 1
    1     9	 1
    1     7	 1
    1    17	 1
    2    10	 1
    2     5	 1
    2    16	 1
    2    13	 1
    3     7	 1
    3    17	 1
    3    11	 1
    3    12	 1
    3     6	 1
    4     8	 1
    4    13	 1
    5     9	 1
    5    11	 1
    5    12	 1
    5    14	 1
    5    18	 1
    5    19	 1
    5    17	 1
    6    10	 1
    6    16	 1
    6    13	 1
    6     8	 1
    7    10	 1
    7    16	 1
    7    15	 1
    7    20	 1
    7    21	 1
    8     9	 1
    8    14	 1
    8    18	 1
    8    19	 1
    9    10	 1
    9    16	 1
   11    16	 1
   12    16	 1
   13    17	 1
   13    22	 1
   13    23	 1
   13    24	 1
   15    18	 1
   15    19	 1
   18    20	 1
   18    21	 1
   19    20	 1
   19    21	 1
   20    22	 1
   20    23	 1
   20    24	 1
   21    22	 1
   21    23	 1
   21    24	 1

[ angles ]
;	ai	  aj	ak funct			c0			  c1			c2			  c3
    3     2     8	5 ;      NG2S1      CG2O1     CG2DC1
    3     2     1	5 ;      NG2S1      CG2O1      OG2D1
    8     2     1	5 ;     CG2DC1      CG2O1      OG2D1
    4     3     9	5 ;      CG311      NG2S1       HGP1
    4     3     2	5 ;      CG311      NG2S1      CG2O1
    9     3     2	5 ;       HGP1      NG2S1      CG2O1
   10     4     5	5 ;      NG321      CG311      NG311
   10     4     3	5 ;      NG321      CG311      NG2S1
   10     4    16	5 ;      NG321      CG311       HGA1
    5     4     3	5 ;      NG311      CG311      NG2S1
    5     4    16	5 ;      NG311      CG311       HGA1
    3     4    16	5 ;      NG2S1      CG311       HGA1
    6     5     4	5 ;     HGPAM1      NG311      CG311
    6     5     7	5 ;     HGPAM1      NG311     CG2D1O
    4     5     7	5 ;      CG311      NG311     CG2D1O
    5     7    13	5 ;      NG311     CG2D1O      CG321
    5     7     8	5 ;      NG311     CG2D1O     CG2DC1
   13     7     8	5 ;      CG321     CG2D1O     CG2DC1
    7     8     2	5 ;     CG2D1O     CG2DC1      CG2O1
    7     8    17	5 ;     CG2D1O     CG2DC1       HGA4
    2     8    17	5 ;      CG2O1     CG2DC1       HGA4
   11    10    12	5 ;     HGPAM2      NG321     HGPAM2
   11    10     4	5 ;     HGPAM2      NG321      CG311
   12    10     4	5 ;     HGPAM2      NG321      CG311
    7    13    14	5 ;     CG2D1O      CG321      CG321
    7    13    18	5 ;     CG2D1O      CG321       HGA2
    7    13    19	5 ;     CG2D1O      CG321       HGA2
   14    13    18	5 ;      CG321      CG321       HGA2
   14    13    19	5 ;      CG321      CG321       HGA2
   18    13    19	5 ;       HGA2      CG321       HGA2
   15    14    13	5 ;      CG331      CG321      CG321
   15    14    20	5 ;      CG331      CG321       HGA2
   15    14    21	5 ;      CG331      CG321       HGA2
   13    14    20	5 ;      CG321      CG321       HGA2
   13    14    21	5 ;      CG321      CG321       HGA2
   20    14    21	5 ;       HGA2      CG321       HGA2
   14    15    22	5 ;      CG321      CG331       HGA3
   14    15    23	5 ;      CG321      CG331       HGA3
   14    15    24	5 ;      CG321      CG331       HGA3
   22    15    23	5 ;       HGA3      CG331       HGA3
   22    15    24	5 ;       HGA3      CG331       HGA3
   23    15    24	5 ;       HGA3      CG331       HGA3

[ dihedrals ]
;	ai	  aj	ak	  al funct			  c0			c1			  c2			c3			  c4			c5
    8     2     3     4	 9 ;     CG2DC1      CG2O1      NG2S1      CG311
    8     2     3     9	 9 ;     CG2DC1      CG2O1      NG2S1       HGP1
    1     2     3     4	 9 ;      OG2D1      CG2O1      NG2S1      CG311
    1     2     3     9	 9 ;      OG2D1      CG2O1      NG2S1       HGP1
    3     2     8     7	 9 ;      NG2S1      CG2O1     CG2DC1     CG2D1O
    3     2     8    17	 9 ;      NG2S1      CG2O1     CG2DC1       HGA4
    1     2     8     7	 9 ;      OG2D1      CG2O1     CG2DC1     CG2D1O
    1     2     8    17	 9 ;      OG2D1      CG2O1     CG2DC1       HGA4
    9     3     4    10	 9 ;       HGP1      NG2S1      CG311      NG321
    9     3     4     5	 9 ;       HGP1      NG2S1      CG311      NG311
    9     3     4    16	 9 ;       HGP1      NG2S1      CG311       HGA1
    2     3     4    10	 9 ;      CG2O1      NG2S1      CG311      NG321
    2     3     4     5	 9 ;      CG2O1      NG2S1      CG311      NG311
    2     3     4    16	 9 ;      CG2O1      NG2S1      CG311       HGA1
    5     4    10    11	 9 ;      NG311      CG311      NG321     HGPAM2
    5     4    10    12	 9 ;      NG311      CG311      NG321     HGPAM2
    3     4    10    11	 9 ;      NG2S1      CG311      NG321     HGPAM2
    3     4    10    12	 9 ;      NG2S1      CG311      NG321     HGPAM2
   16     4    10    11	 9 ;       HGA1      CG311      NG321     HGPAM2
   16     4    10    12	 9 ;       HGA1      CG311      NG321     HGPAM2
   10     4     5     6	 9 ;      NG321      CG311      NG311     HGPAM1
   10     4     5     7	 9 ;      NG321      CG311      NG311     CG2D1O
    3     4     5     6	 9 ;      NG2S1      CG311      NG311     HGPAM1
    3     4     5     7	 9 ;      NG2S1      CG311      NG311     CG2D1O
   16     4     5     6	 9 ;       HGA1      CG311      NG311     HGPAM1
   16     4     5     7	 9 ;       HGA1      CG311      NG311     CG2D1O
    6     5     7    13	 9 ;     HGPAM1      NG311     CG2D1O      CG321
    6     5     7     8	 9 ;     HGPAM1      NG311     CG2D1O     CG2DC1
    4     5     7    13	 9 ;      CG311      NG311     CG2D1O      CG321
    4     5     7     8	 9 ;      CG311      NG311     CG2D1O     CG2DC1
    5     7    13    14	 9 ;      NG311     CG2D1O      CG321      CG321
    5     7    13    18	 9 ;      NG311     CG2D1O      CG321       HGA2
    5     7    13    19	 9 ;      NG311     CG2D1O      CG321       HGA2
    8     7    13    14	 9 ;     CG2DC1     CG2D1O      CG321      CG321
    8     7    13    18	 9 ;     CG2DC1     CG2D1O      CG321       HGA2
    8     7    13    19	 9 ;     CG2DC1     CG2D1O      CG321       HGA2
    5     7     8     2	 9 ;      NG311     CG2D1O     CG2DC1      CG2O1
    5     7     8    17	 9 ;      NG311     CG2D1O     CG2DC1       HGA4
   13     7     8     2	 9 ;      CG321     CG2D1O     CG2DC1      CG2O1
   13     7     8    17	 9 ;      CG321     CG2D1O     CG2DC1       HGA4
    7    13    14    15	 9 ;     CG2D1O      CG321      CG321      CG331
    7    13    14    20	 9 ;     CG2D1O      CG321      CG321       HGA2
    7    13    14    21	 9 ;     CG2D1O      CG321      CG321       HGA2
   18    13    14    15	 9 ;       HGA2      CG321      CG321      CG331
   18    13    14    20	 9 ;       HGA2      CG321      CG321       HGA2
   18    13    14    21	 9 ;       HGA2      CG321      CG321       HGA2
   19    13    14    15	 9 ;       HGA2      CG321      CG321      CG331
   19    13    14    20	 9 ;       HGA2      CG321      CG321       HGA2
   19    13    14    21	 9 ;       HGA2      CG321      CG321       HGA2
   13    14    15    22	 9 ;      CG321      CG321      CG331       HGA3
   13    14    15    23	 9 ;      CG321      CG321      CG331       HGA3
   13    14    15    24	 9 ;      CG321      CG321      CG331       HGA3
   20    14    15    22	 9 ;       HGA2      CG321      CG331       HGA3
   20    14    15    23	 9 ;       HGA2      CG321      CG331       HGA3
   20    14    15    24	 9 ;       HGA2      CG321      CG331       HGA3
   21    14    15    22	 9 ;       HGA2      CG321      CG331       HGA3
   21    14    15    23	 9 ;       HGA2      CG321      CG331       HGA3
   21    14    15    24	 9 ;       HGA2      CG321      CG331       HGA3

[ dihedrals ]
;	ai	  aj	ak	  al funct			  c0			c1			  c2			c3
    2     8     3     1	 2
    7     8    13     5	 2

