; Created by cgenff_charmm2gmx.py

[ moleculetype ]
; Name			   nrexcl
LIG				 3

[ atoms ]
;	 nr		  type	resnr residue  atom   cgnr	   charge		mass  typeB    chargeB		massB
; residue	 1 LIG rtp LIG q	qsum
     1      CG311      1    LIG     C1      1      0.301     12.011   ;
     2      CG321      1    LIG     C2      2     -0.245     12.011   ;
     3      CG311      1    LIG     C3      3     -0.066     12.011   ;
     4      CG321      1    LIG     C4      4     -0.287     12.011   ;
     5     CG2DC1      1    LIG     C5      5      0.465     12.011   ;
     6     CG2DC1      1    LIG     C6      6     -0.365     12.011   ;
     7      CG2O1      1    LIG     C7      7      0.300     12.011   ;
     8      OG2D1      1    LIG     O1      8     -0.490     15.999   ;
     9      NG2S1      1    LIG     N1      9     -0.326     14.007   ;
    10      CG311      1    LIG     C8     10     -0.050     12.011   ;
    11      CG321      1    LIG     C9     11      0.020     12.011   ;
    12      OG301      1    LIG     O2     12     -0.299     15.999   ;
    13      CG321      1    LIG    C10     13      0.102     12.011   ;
    14      CG2D1      1    LIG    C11     14     -0.394     12.011   ;
    15      CG2D1      1    LIG    C12     15     -0.134     12.011   ;
    16      CG321      1    LIG    C13     16     -0.063     12.011   ;
    17      CG311      1    LIG    C14     17      0.021     12.011   ;
    18      NG2S1      1    LIG     N2     18     -0.480     14.007   ;
    19      CG2O1      1    LIG    C15     19      0.484     12.011   ;
    20      OG2D1      1    LIG     O3     20     -0.508     15.999   ;
    21       HGP1      1    LIG     H1     21      0.232      1.008   ;
    22       HGP1      1    LIG     H2     22      0.321      1.008   ;
    23      CG311      1    LIG    C16     23      0.117     12.011   ;
    24      CG324      1    LIG    C17     24      0.178     12.011   ;
    25      NG3P2      1    LIG     N3     25     -0.444     14.007   ;
    26       HGP2      1    LIG     H3     26      0.348      1.008   ;
    27       HGP2      1    LIG     H4     27      0.348      1.008   ;
    28      CG324      1    LIG    C18     28      0.171     12.011   ;
    29     CG2R61      1    LIG    C19     29      0.035     12.011   ;
    30     CG2R61      1    LIG    C20     30     -0.117     12.011   ;
    31     CG2R61      1    LIG    C21     31     -0.017     12.011   ;
    32     CG2R61      1    LIG    C22     32     -0.114     12.011   ;
    33     CG2R61      1    LIG    C23     33     -0.109     12.011   ;
    34     CG2R61      1    LIG    C24     34     -0.119     12.011   ;
    35      CG311      1    LIG    C25     35     -0.088     12.011   ;
    36      CG331      1    LIG    C26     36     -0.264     12.011   ;
    37      CG331      1    LIG    C27     37     -0.264     12.011   ;
    38      OG311      1    LIG     O4     38     -0.625     15.999   ;
    39       HGP1      1    LIG     H5     39      0.415      1.008   ;
    40      NG301      1    LIG     N4     40     -0.297     14.007   ;
    41      CG331      1    LIG    C28     41     -0.084     12.011   ;
    42      SG3O2      1    LIG      S     42      0.278     32.060   ;
    43      OG2P1      1    LIG     O5     43     -0.346     15.999   ;
    44      OG2P1      1    LIG     O6     44     -0.346     15.999   ;
    45      CG331      1    LIG    C29     45      0.039     12.011   ;
    46     CG2R61      1    LIG    C30     46     -0.094     12.011   ;
    47     CG2R61      1    LIG    C31     47     -0.085     12.011   ;
    48     CG2R61      1    LIG    C32     48     -0.114     12.011   ;
    49     CG2R61      1    LIG    C33     49     -0.116     12.011   ;
    50     CG2R61      1    LIG    C34     50     -0.114     12.011   ;
    51     CG2R61      1    LIG    C35     51     -0.085     12.011   ;
    52       HGA2      1    LIG     HC     52      0.090      1.008   ;
    53       HGA1      1    LIG    HC1     53      0.090      1.008   ;
    54       HGA2      1    LIG    HC2     54      0.090      1.008   ;
    55       HGA4      1    LIG    HC3     55      0.127      1.008   ;
    56       HGA1      1    LIG    HC4     56      0.090      1.008   ;
    57       HGA2      1    LIG    HC5     57      0.090      1.008   ;
    58       HGA2      1    LIG    HC6     58      0.090      1.008   ;
    59       HGA2      1    LIG    HC7     59      0.090      1.008   ;
    60       HGA2      1    LIG    HC8     60      0.090      1.008   ;
    61       HGA4      1    LIG    HC9     61      0.173      1.008   ;
    62       HGA4      1    LIG   HC10     62      0.150      1.008   ;
    63       HGA2      1    LIG   HC11     63      0.090      1.008   ;
    64       HGA2      1    LIG   HC12     64      0.090      1.008   ;
    65       HGA1      1    LIG   HC13     65      0.090      1.008   ;
    66       HGA1      1    LIG   HC14     66      0.090      1.008   ;
    67       HGA2      1    LIG   HC15     67      0.090      1.008   ;
    68       HGA2      1    LIG   HC16     68      0.090      1.008   ;
    69       HGA2      1    LIG   HC17     69      0.090      1.008   ;
    70       HGA2      1    LIG   HC18     70      0.090      1.008   ;
    71      HGR61      1    LIG   HC19     71      0.116      1.008   ;
    72      HGR61      1    LIG   HC20     72      0.116      1.008   ;
    73      HGR61      1    LIG   HC21     73      0.116      1.008   ;
    74      HGR61      1    LIG   HC22     74      0.116      1.008   ;
    75       HGA1      1    LIG   HC23     75      0.090      1.008   ;
    76       HGA3      1    LIG   HC24     76      0.090      1.008   ;
    77       HGA3      1    LIG   HC25     77      0.090      1.008   ;
    78       HGA3      1    LIG   HC26     78      0.090      1.008   ;
    79       HGA3      1    LIG   HC27     79      0.090      1.008   ;
    80       HGA3      1    LIG   HC28     80      0.090      1.008   ;
    81       HGA3      1    LIG   HC29     81      0.090      1.008   ;
    82       HGA3      1    LIG   HC30     82      0.090      1.008   ;
    83       HGA3      1    LIG   HC31     83      0.090      1.008   ;
    84       HGA3      1    LIG   HC32     84      0.090      1.008   ;
    85       HGA3      1    LIG   HC33     85      0.090      1.008   ;
    86       HGA3      1    LIG   HC34     86      0.090      1.008   ;
    87       HGA3      1    LIG   HC35     87      0.090      1.008   ;
    88      HGR61      1    LIG   HC36     88      0.116      1.008   ;
    89      HGR61      1    LIG   HC37     89      0.116      1.008   ;
    90      HGR61      1    LIG   HC38     90      0.116      1.008   ;
    91      HGR61      1    LIG   HC39     91      0.116      1.008   ;
    92      HGR61      1    LIG   HC40     92      0.116      1.008   ;
    93       HGA1      1    LIG    H47     93      0.090      1.008   ;
    94       HGA2      1    LIG    H48     94      0.090      1.008   ;
    95       HGA2      1    LIG    H49     95      0.090      1.008   ;

[ bonds ]
;	ai	  aj funct			  c0			c1			  c2			c3
    1     6	 1 ;       CG311     CG2DC1
    1     2	 1 ;       CG311      CG321
    1    40	 1 ;       CG311      NG301
    1    93	 1 ;       CG311       HGA1
    2     3	 1 ;       CG321      CG311
    2    52	 1 ;       CG321       HGA2
    2    94	 1 ;       CG321       HGA2
    3     4	 1 ;       CG311      CG321
    3    19	 1 ;       CG311      CG2O1
    3    53	 1 ;       CG311       HGA1
    4     5	 1 ;       CG321     CG2DC1
    4    54	 1 ;       CG321       HGA2
    4    95	 1 ;       CG321       HGA2
    5     7	 1 ;      CG2DC1      CG2O1
    5     6	 1 ;      CG2DC1     CG2DC1
    6    55	 1 ;      CG2DC1       HGA4
    7     8	 1 ;       CG2O1      OG2D1
    7     9	 1 ;       CG2O1      NG2S1
    9    21	 1 ;       NG2S1       HGP1
    9    10	 1 ;       NG2S1      CG311
   10    23	 1 ;       CG311      CG311
   10    11	 1 ;       CG311      CG321
   10    56	 1 ;       CG311       HGA1
   11    12	 1 ;       CG321      OG301
   11    57	 1 ;       CG321       HGA2
   11    58	 1 ;       CG321       HGA2
   12    13	 1 ;       OG301      CG321
   13    14	 1 ;       CG321      CG2D1
   13    59	 1 ;       CG321       HGA2
   13    60	 1 ;       CG321       HGA2
   14    15	 1 ;       CG2D1      CG2D1
   14    61	 1 ;       CG2D1       HGA4
   15    16	 1 ;       CG2D1      CG321
   15    62	 1 ;       CG2D1       HGA4
   16    17	 1 ;       CG321      CG311
   16    63	 1 ;       CG321       HGA2
   16    64	 1 ;       CG321       HGA2
   17    18	 1 ;       CG311      NG2S1
   17    46	 1 ;       CG311     CG2R61
   17    65	 1 ;       CG311       HGA1
   18    22	 1 ;       NG2S1       HGP1
   18    19	 1 ;       NG2S1      CG2O1
   19    20	 1 ;       CG2O1      OG2D1
   23    38	 1 ;       CG311      OG311
   23    24	 1 ;       CG311      CG324
   23    66	 1 ;       CG311       HGA1
   24    25	 1 ;       CG324      NG3P2
   24    67	 1 ;       CG324       HGA2
   24    68	 1 ;       CG324       HGA2
   25    27	 1 ;       NG3P2       HGP2
   25    26	 1 ;       NG3P2       HGP2
   25    28	 1 ;       NG3P2      CG324
   28    29	 1 ;       CG324     CG2R61
   28    69	 1 ;       CG324       HGA2
   28    70	 1 ;       CG324       HGA2
   29    30	 1 ;      CG2R61     CG2R61
   29    34	 1 ;      CG2R61     CG2R61
   30    31	 1 ;      CG2R61     CG2R61
   30    71	 1 ;      CG2R61      HGR61
   31    35	 1 ;      CG2R61      CG311
   31    32	 1 ;      CG2R61     CG2R61
   32    33	 1 ;      CG2R61     CG2R61
   32    72	 1 ;      CG2R61      HGR61
   33    34	 1 ;      CG2R61     CG2R61
   33    73	 1 ;      CG2R61      HGR61
   34    74	 1 ;      CG2R61      HGR61
   35    36	 1 ;       CG311      CG331
   35    37	 1 ;       CG311      CG331
   35    75	 1 ;       CG311       HGA1
   36    76	 1 ;       CG331       HGA3
   36    77	 1 ;       CG331       HGA3
   36    78	 1 ;       CG331       HGA3
   37    79	 1 ;       CG331       HGA3
   37    80	 1 ;       CG331       HGA3
   37    81	 1 ;       CG331       HGA3
   38    39	 1 ;       OG311       HGP1
   40    41	 1 ;       NG301      CG331
   40    42	 1 ;       NG301      SG3O2
   41    82	 1 ;       CG331       HGA3
   41    83	 1 ;       CG331       HGA3
   41    84	 1 ;       CG331       HGA3
   42    45	 1 ;       SG3O2      CG331
   42    44	 1 ;       SG3O2      OG2P1
   42    43	 1 ;       SG3O2      OG2P1
   45    85	 1 ;       CG331       HGA3
   45    86	 1 ;       CG331       HGA3
   45    87	 1 ;       CG331       HGA3
   46    47	 1 ;      CG2R61     CG2R61
   46    51	 1 ;      CG2R61     CG2R61
   47    48	 1 ;      CG2R61     CG2R61
   47    88	 1 ;      CG2R61      HGR61
   48    49	 1 ;      CG2R61     CG2R61
   48    89	 1 ;      CG2R61      HGR61
   49    50	 1 ;      CG2R61     CG2R61
   49    90	 1 ;      CG2R61      HGR61
   50    51	 1 ;      CG2R61     CG2R61
   50    91	 1 ;      CG2R61      HGR61
   51    92	 1 ;      CG2R61      HGR61

[ pairs ]
;	ai	  aj funct			  c0			c1			  c2			c3
    1     4	 1
    1    19	 1
    1    53	 1
    1     7	 1
    1    82	 1
    1    83	 1
    1    84	 1
    1    45	 1
    1    44	 1
    1    43	 1
    2     5	 1
    2    55	 1
    2    41	 1
    2    42	 1
    2    54	 1
    2    95	 1
    2    18	 1
    2    20	 1
    3     6	 1
    3    40	 1
    3    93	 1
    3     7	 1
    3    22	 1
    3    17	 1
    4    52	 1
    4    94	 1
    4    18	 1
    4    20	 1
    4     8	 1
    4     9	 1
    4    55	 1
    5    40	 1
    5    93	 1
    5    19	 1
    5    53	 1
    5    21	 1
    5    10	 1
    6    52	 1
    6    94	 1
    6    41	 1
    6    42	 1
    6    54	 1
    6    95	 1
    6     8	 1
    6     9	 1
    7    54	 1
    7    95	 1
    7    55	 1
    7    23	 1
    7    11	 1
    7    56	 1
    8    21	 1
    8    10	 1
    9    38	 1
    9    24	 1
    9    66	 1
    9    12	 1
    9    57	 1
    9    58	 1
   10    13	 1
   10    39	 1
   10    25	 1
   10    67	 1
   10    68	 1
   11    21	 1
   11    38	 1
   11    24	 1
   11    66	 1
   11    14	 1
   11    59	 1
   11    60	 1
   12    23	 1
   12    56	 1
   12    15	 1
   12    61	 1
   13    57	 1
   13    58	 1
   13    16	 1
   13    62	 1
   14    17	 1
   14    63	 1
   14    64	 1
   15    59	 1
   15    60	 1
   15    18	 1
   15    46	 1
   15    65	 1
   16    61	 1
   16    22	 1
   16    19	 1
   16    47	 1
   16    51	 1
   17    62	 1
   17    20	 1
   17    48	 1
   17    88	 1
   17    50	 1
   17    92	 1
   18    53	 1
   18    63	 1
   18    64	 1
   18    47	 1
   18    51	 1
   19    52	 1
   19    94	 1
   19    54	 1
   19    95	 1
   19    46	 1
   19    65	 1
   20    53	 1
   20    22	 1
   21    23	 1
   21    56	 1
   22    46	 1
   22    65	 1
   23    57	 1
   23    58	 1
   23    27	 1
   23    26	 1
   23    28	 1
   24    56	 1
   24    39	 1
   24    29	 1
   24    69	 1
   24    70	 1
   25    38	 1
   25    66	 1
   25    30	 1
   25    34	 1
   26    67	 1
   26    68	 1
   26    29	 1
   26    69	 1
   26    70	 1
   27    67	 1
   27    68	 1
   27    29	 1
   27    69	 1
   27    70	 1
   28    67	 1
   28    68	 1
   28    31	 1
   28    71	 1
   28    33	 1
   28    74	 1
   29    35	 1
   29    32	 1
   29    73	 1
   30    69	 1
   30    70	 1
   30    33	 1
   30    74	 1
   30    36	 1
   30    37	 1
   30    75	 1
   30    72	 1
   31    34	 1
   31    73	 1
   31    76	 1
   31    77	 1
   31    78	 1
   31    79	 1
   31    80	 1
   31    81	 1
   32    71	 1
   32    36	 1
   32    37	 1
   32    75	 1
   32    74	 1
   33    35	 1
   34    69	 1
   34    70	 1
   34    71	 1
   34    72	 1
   35    71	 1
   35    72	 1
   36    79	 1
   36    80	 1
   36    81	 1
   37    76	 1
   37    77	 1
   37    78	 1
   38    56	 1
   38    67	 1
   38    68	 1
   39    66	 1
   40    55	 1
   40    52	 1
   40    94	 1
   40    85	 1
   40    86	 1
   40    87	 1
   41    93	 1
   41    45	 1
   41    44	 1
   41    43	 1
   42    93	 1
   42    82	 1
   42    83	 1
   42    84	 1
   43    85	 1
   43    86	 1
   43    87	 1
   44    85	 1
   44    86	 1
   44    87	 1
   46    63	 1
   46    64	 1
   46    49	 1
   46    89	 1
   46    91	 1
   47    65	 1
   47    50	 1
   47    92	 1
   47    90	 1
   48    51	 1
   48    91	 1
   49    88	 1
   49    92	 1
   50    89	 1
   51    65	 1
   51    88	 1
   51    90	 1
   52    93	 1
   52    53	 1
   53    94	 1
   53    54	 1
   53    95	 1
   55    93	 1
   56    66	 1
   56    57	 1
   56    58	 1
   59    61	 1
   60    61	 1
   61    62	 1
   62    63	 1
   62    64	 1
   63    65	 1
   64    65	 1
   66    67	 1
   66    68	 1
   72    73	 1
   73    74	 1
   75    76	 1
   75    77	 1
   75    78	 1
   75    79	 1
   75    80	 1
   75    81	 1
   88    89	 1
   89    90	 1
   90    91	 1
   91    92	 1
   93    94	 1

[ angles ]
;	ai	  aj	ak funct			c0			  c1			c2			  c3
    6     1     2	5 ;     CG2DC1      CG311      CG321
    6     1    40	5 ;     CG2DC1      CG311      NG301
    6     1    93	5 ;     CG2DC1      CG311       HGA1
    2     1    40	5 ;      CG321      CG311      NG301
    2     1    93	5 ;      CG321      CG311       HGA1
   40     1    93	5 ;      NG301      CG311       HGA1
    1     2     3	5 ;      CG311      CG321      CG311
    1     2    52	5 ;      CG311      CG321       HGA2
    1     2    94	5 ;      CG311      CG321       HGA2
    3     2    52	5 ;      CG311      CG321       HGA2
    3     2    94	5 ;      CG311      CG321       HGA2
   52     2    94	5 ;       HGA2      CG321       HGA2
    4     3    19	5 ;      CG321      CG311      CG2O1
    4     3     2	5 ;      CG321      CG311      CG321
    4     3    53	5 ;      CG321      CG311       HGA1
   19     3     2	5 ;      CG2O1      CG311      CG321
   19     3    53	5 ;      CG2O1      CG311       HGA1
    2     3    53	5 ;      CG321      CG311       HGA1
    5     4     3	5 ;     CG2DC1      CG321      CG311
    5     4    54	5 ;     CG2DC1      CG321       HGA2
    5     4    95	5 ;     CG2DC1      CG321       HGA2
    3     4    54	5 ;      CG311      CG321       HGA2
    3     4    95	5 ;      CG311      CG321       HGA2
   54     4    95	5 ;       HGA2      CG321       HGA2
    7     5     6	5 ;      CG2O1     CG2DC1     CG2DC1
    7     5     4	5 ;      CG2O1     CG2DC1      CG321
    6     5     4	5 ;     CG2DC1     CG2DC1      CG321
    5     6     1	5 ;     CG2DC1     CG2DC1      CG311
    5     6    55	5 ;     CG2DC1     CG2DC1       HGA4
    1     6    55	5 ;      CG311     CG2DC1       HGA4
    8     7     9	5 ;      OG2D1      CG2O1      NG2S1
    8     7     5	5 ;      OG2D1      CG2O1     CG2DC1
    9     7     5	5 ;      NG2S1      CG2O1     CG2DC1
   21     9    10	5 ;       HGP1      NG2S1      CG311
   21     9     7	5 ;       HGP1      NG2S1      CG2O1
   10     9     7	5 ;      CG311      NG2S1      CG2O1
   23    10    11	5 ;      CG311      CG311      CG321
   23    10     9	5 ;      CG311      CG311      NG2S1
   23    10    56	5 ;      CG311      CG311       HGA1
   11    10     9	5 ;      CG321      CG311      NG2S1
   11    10    56	5 ;      CG321      CG311       HGA1
    9    10    56	5 ;      NG2S1      CG311       HGA1
   12    11    10	5 ;      OG301      CG321      CG311
   12    11    57	5 ;      OG301      CG321       HGA2
   12    11    58	5 ;      OG301      CG321       HGA2
   10    11    57	5 ;      CG311      CG321       HGA2
   10    11    58	5 ;      CG311      CG321       HGA2
   57    11    58	5 ;       HGA2      CG321       HGA2
   13    12    11	5 ;      CG321      OG301      CG321
   12    13    14	5 ;      OG301      CG321      CG2D1
   12    13    59	5 ;      OG301      CG321       HGA2
   12    13    60	5 ;      OG301      CG321       HGA2
   14    13    59	5 ;      CG2D1      CG321       HGA2
   14    13    60	5 ;      CG2D1      CG321       HGA2
   59    13    60	5 ;       HGA2      CG321       HGA2
   13    14    15	5 ;      CG321      CG2D1      CG2D1
   13    14    61	5 ;      CG321      CG2D1       HGA4
   15    14    61	5 ;      CG2D1      CG2D1       HGA4
   14    15    16	5 ;      CG2D1      CG2D1      CG321
   14    15    62	5 ;      CG2D1      CG2D1       HGA4
   16    15    62	5 ;      CG321      CG2D1       HGA4
   15    16    17	5 ;      CG2D1      CG321      CG311
   15    16    63	5 ;      CG2D1      CG321       HGA2
   15    16    64	5 ;      CG2D1      CG321       HGA2
   17    16    63	5 ;      CG311      CG321       HGA2
   17    16    64	5 ;      CG311      CG321       HGA2
   63    16    64	5 ;       HGA2      CG321       HGA2
   16    17    18	5 ;      CG321      CG311      NG2S1
   16    17    46	5 ;      CG321      CG311     CG2R61
   16    17    65	5 ;      CG321      CG311       HGA1
   18    17    46	5 ;      NG2S1      CG311     CG2R61
   18    17    65	5 ;      NG2S1      CG311       HGA1
   46    17    65	5 ;     CG2R61      CG311       HGA1
   22    18    17	5 ;       HGP1      NG2S1      CG311
   22    18    19	5 ;       HGP1      NG2S1      CG2O1
   17    18    19	5 ;      CG311      NG2S1      CG2O1
   18    19     3	5 ;      NG2S1      CG2O1      CG311
   18    19    20	5 ;      NG2S1      CG2O1      OG2D1
    3    19    20	5 ;      CG311      CG2O1      OG2D1
   38    23    24	5 ;      OG311      CG311      CG324
   38    23    10	5 ;      OG311      CG311      CG311
   38    23    66	5 ;      OG311      CG311       HGA1
   24    23    10	5 ;      CG324      CG311      CG311
   24    23    66	5 ;      CG324      CG311       HGA1
   10    23    66	5 ;      CG311      CG311       HGA1
   23    24    25	5 ;      CG311      CG324      NG3P2
   23    24    67	5 ;      CG311      CG324       HGA2
   23    24    68	5 ;      CG311      CG324       HGA2
   25    24    67	5 ;      NG3P2      CG324       HGA2
   25    24    68	5 ;      NG3P2      CG324       HGA2
   67    24    68	5 ;       HGA2      CG324       HGA2
   24    25    27	5 ;      CG324      NG3P2       HGP2
   24    25    26	5 ;      CG324      NG3P2       HGP2
   24    25    28	5 ;      CG324      NG3P2      CG324
   27    25    26	5 ;       HGP2      NG3P2       HGP2
   27    25    28	5 ;       HGP2      NG3P2      CG324
   26    25    28	5 ;       HGP2      NG3P2      CG324
   25    28    29	5 ;      NG3P2      CG324     CG2R61
   25    28    69	5 ;      NG3P2      CG324       HGA2
   25    28    70	5 ;      NG3P2      CG324       HGA2
   29    28    69	5 ;     CG2R61      CG324       HGA2
   29    28    70	5 ;     CG2R61      CG324       HGA2
   69    28    70	5 ;       HGA2      CG324       HGA2
   28    29    30	5 ;      CG324     CG2R61     CG2R61
   28    29    34	5 ;      CG324     CG2R61     CG2R61
   30    29    34	5 ;     CG2R61     CG2R61     CG2R61
   29    30    31	5 ;     CG2R61     CG2R61     CG2R61
   29    30    71	5 ;     CG2R61     CG2R61      HGR61
   31    30    71	5 ;     CG2R61     CG2R61      HGR61
   30    31    35	5 ;     CG2R61     CG2R61      CG311
   30    31    32	5 ;     CG2R61     CG2R61     CG2R61
   35    31    32	5 ;      CG311     CG2R61     CG2R61
   31    32    33	5 ;     CG2R61     CG2R61     CG2R61
   31    32    72	5 ;     CG2R61     CG2R61      HGR61
   33    32    72	5 ;     CG2R61     CG2R61      HGR61
   34    33    32	5 ;     CG2R61     CG2R61     CG2R61
   34    33    73	5 ;     CG2R61     CG2R61      HGR61
   32    33    73	5 ;     CG2R61     CG2R61      HGR61
   29    34    33	5 ;     CG2R61     CG2R61     CG2R61
   29    34    74	5 ;     CG2R61     CG2R61      HGR61
   33    34    74	5 ;     CG2R61     CG2R61      HGR61
   36    35    31	5 ;      CG331      CG311     CG2R61
   36    35    37	5 ;      CG331      CG311      CG331
   36    35    75	5 ;      CG331      CG311       HGA1
   31    35    37	5 ;     CG2R61      CG311      CG331
   31    35    75	5 ;     CG2R61      CG311       HGA1
   37    35    75	5 ;      CG331      CG311       HGA1
   35    36    76	5 ;      CG311      CG331       HGA3
   35    36    77	5 ;      CG311      CG331       HGA3
   35    36    78	5 ;      CG311      CG331       HGA3
   76    36    77	5 ;       HGA3      CG331       HGA3
   76    36    78	5 ;       HGA3      CG331       HGA3
   77    36    78	5 ;       HGA3      CG331       HGA3
   35    37    79	5 ;      CG311      CG331       HGA3
   35    37    80	5 ;      CG311      CG331       HGA3
   35    37    81	5 ;      CG311      CG331       HGA3
   79    37    80	5 ;       HGA3      CG331       HGA3
   79    37    81	5 ;       HGA3      CG331       HGA3
   80    37    81	5 ;       HGA3      CG331       HGA3
   39    38    23	5 ;       HGP1      OG311      CG311
    1    40    41	5 ;      CG311      NG301      CG331
    1    40    42	5 ;      CG311      NG301      SG3O2
   41    40    42	5 ;      CG331      NG301      SG3O2
   40    41    82	5 ;      NG301      CG331       HGA3
   40    41    83	5 ;      NG301      CG331       HGA3
   40    41    84	5 ;      NG301      CG331       HGA3
   82    41    83	5 ;       HGA3      CG331       HGA3
   82    41    84	5 ;       HGA3      CG331       HGA3
   83    41    84	5 ;       HGA3      CG331       HGA3
   45    42    40	5 ;      CG331      SG3O2      NG301
   45    42    44	5 ;      CG331      SG3O2      OG2P1
   45    42    43	5 ;      CG331      SG3O2      OG2P1
   40    42    44	5 ;      NG301      SG3O2      OG2P1
   40    42    43	5 ;      NG301      SG3O2      OG2P1
   44    42    43	5 ;      OG2P1      SG3O2      OG2P1
   42    45    85	5 ;      SG3O2      CG331       HGA3
   42    45    86	5 ;      SG3O2      CG331       HGA3
   42    45    87	5 ;      SG3O2      CG331       HGA3
   85    45    86	5 ;       HGA3      CG331       HGA3
   85    45    87	5 ;       HGA3      CG331       HGA3
   86    45    87	5 ;       HGA3      CG331       HGA3
   47    46    17	5 ;     CG2R61     CG2R61      CG311
   47    46    51	5 ;     CG2R61     CG2R61     CG2R61
   17    46    51	5 ;      CG311     CG2R61     CG2R61
   48    47    46	5 ;     CG2R61     CG2R61     CG2R61
   48    47    88	5 ;     CG2R61     CG2R61      HGR61
   46    47    88	5 ;     CG2R61     CG2R61      HGR61
   47    48    49	5 ;     CG2R61     CG2R61     CG2R61
   47    48    89	5 ;     CG2R61     CG2R61      HGR61
   49    48    89	5 ;     CG2R61     CG2R61      HGR61
   48    49    50	5 ;     CG2R61     CG2R61     CG2R61
   48    49    90	5 ;     CG2R61     CG2R61      HGR61
   50    49    90	5 ;     CG2R61     CG2R61      HGR61
   49    50    51	5 ;     CG2R61     CG2R61     CG2R61
   49    50    91	5 ;     CG2R61     CG2R61      HGR61
   51    50    91	5 ;     CG2R61     CG2R61      HGR61
   46    51    50	5 ;     CG2R61     CG2R61     CG2R61
   46    51    92	5 ;     CG2R61     CG2R61      HGR61
   50    51    92	5 ;     CG2R61     CG2R61      HGR61

[ dihedrals ]
;	ai	  aj	ak	  al funct			  c0			c1			  c2			c3			  c4			c5
    2     1     6     5	 9 ;      CG321      CG311     CG2DC1     CG2DC1
    2     1     6    55	 9 ;      CG321      CG311     CG2DC1       HGA4
   40     1     6     5	 9 ;      NG301      CG311     CG2DC1     CG2DC1
   40     1     6    55	 9 ;      NG301      CG311     CG2DC1       HGA4
   93     1     6     5	 9 ;       HGA1      CG311     CG2DC1     CG2DC1
   93     1     6    55	 9 ;       HGA1      CG311     CG2DC1       HGA4
    6     1     2     3	 9 ;     CG2DC1      CG311      CG321      CG311
    6     1     2    52	 9 ;     CG2DC1      CG311      CG321       HGA2
    6     1     2    94	 9 ;     CG2DC1      CG311      CG321       HGA2
   40     1     2     3	 9 ;      NG301      CG311      CG321      CG311
   40     1     2    52	 9 ;      NG301      CG311      CG321       HGA2
   40     1     2    94	 9 ;      NG301      CG311      CG321       HGA2
   93     1     2     3	 9 ;       HGA1      CG311      CG321      CG311
   93     1     2    52	 9 ;       HGA1      CG311      CG321       HGA2
   93     1     2    94	 9 ;       HGA1      CG311      CG321       HGA2
    6     1    40    41	 9 ;     CG2DC1      CG311      NG301      CG331
    6     1    40    42	 9 ;     CG2DC1      CG311      NG301      SG3O2
    2     1    40    41	 9 ;      CG321      CG311      NG301      CG331
    2     1    40    42	 9 ;      CG321      CG311      NG301      SG3O2
   93     1    40    41	 9 ;       HGA1      CG311      NG301      CG331
   93     1    40    42	 9 ;       HGA1      CG311      NG301      SG3O2
    1     2     3     4	 9 ;      CG311      CG321      CG311      CG321
    1     2     3    19	 9 ;      CG311      CG321      CG311      CG2O1
    1     2     3    53	 9 ;      CG311      CG321      CG311       HGA1
   52     2     3     4	 9 ;       HGA2      CG321      CG311      CG321
   52     2     3    19	 9 ;       HGA2      CG321      CG311      CG2O1
   52     2     3    53	 9 ;       HGA2      CG321      CG311       HGA1
   94     2     3     4	 9 ;       HGA2      CG321      CG311      CG321
   94     2     3    19	 9 ;       HGA2      CG321      CG311      CG2O1
   94     2     3    53	 9 ;       HGA2      CG321      CG311       HGA1
   19     3     4     5	 9 ;      CG2O1      CG311      CG321     CG2DC1
   19     3     4    54	 9 ;      CG2O1      CG311      CG321       HGA2
   19     3     4    95	 9 ;      CG2O1      CG311      CG321       HGA2
    2     3     4     5	 9 ;      CG321      CG311      CG321     CG2DC1
    2     3     4    54	 9 ;      CG321      CG311      CG321       HGA2
    2     3     4    95	 9 ;      CG321      CG311      CG321       HGA2
   53     3     4     5	 9 ;       HGA1      CG311      CG321     CG2DC1
   53     3     4    54	 9 ;       HGA1      CG311      CG321       HGA2
   53     3     4    95	 9 ;       HGA1      CG311      CG321       HGA2
    4     3    19    18	 9 ;      CG321      CG311      CG2O1      NG2S1
    4     3    19    20	 9 ;      CG321      CG311      CG2O1      OG2D1
    2     3    19    18	 9 ;      CG321      CG311      CG2O1      NG2S1
    2     3    19    20	 9 ;      CG321      CG311      CG2O1      OG2D1
   53     3    19    18	 9 ;       HGA1      CG311      CG2O1      NG2S1
   53     3    19    20	 9 ;       HGA1      CG311      CG2O1      OG2D1
    3     4     5     7	 9 ;      CG311      CG321     CG2DC1      CG2O1
    3     4     5     6	 9 ;      CG311      CG321     CG2DC1     CG2DC1
   54     4     5     7	 9 ;       HGA2      CG321     CG2DC1      CG2O1
   54     4     5     6	 9 ;       HGA2      CG321     CG2DC1     CG2DC1
   95     4     5     7	 9 ;       HGA2      CG321     CG2DC1      CG2O1
   95     4     5     6	 9 ;       HGA2      CG321     CG2DC1     CG2DC1
    6     5     7     8	 9 ;     CG2DC1     CG2DC1      CG2O1      OG2D1
    6     5     7     9	 9 ;     CG2DC1     CG2DC1      CG2O1      NG2S1
    4     5     7     8	 9 ;      CG321     CG2DC1      CG2O1      OG2D1
    4     5     7     9	 9 ;      CG321     CG2DC1      CG2O1      NG2S1
    7     5     6     1	 9 ;      CG2O1     CG2DC1     CG2DC1      CG311
    7     5     6    55	 9 ;      CG2O1     CG2DC1     CG2DC1       HGA4
    4     5     6     1	 9 ;      CG321     CG2DC1     CG2DC1      CG311
    4     5     6    55	 9 ;      CG321     CG2DC1     CG2DC1       HGA4
    8     7     9    21	 9 ;      OG2D1      CG2O1      NG2S1       HGP1
    8     7     9    10	 9 ;      OG2D1      CG2O1      NG2S1      CG311
    5     7     9    21	 9 ;     CG2DC1      CG2O1      NG2S1       HGP1
    5     7     9    10	 9 ;     CG2DC1      CG2O1      NG2S1      CG311
   21     9    10    23	 9 ;       HGP1      NG2S1      CG311      CG311
   21     9    10    11	 9 ;       HGP1      NG2S1      CG311      CG321
   21     9    10    56	 9 ;       HGP1      NG2S1      CG311       HGA1
    7     9    10    23	 9 ;      CG2O1      NG2S1      CG311      CG311
    7     9    10    11	 9 ;      CG2O1      NG2S1      CG311      CG321
    7     9    10    56	 9 ;      CG2O1      NG2S1      CG311       HGA1
   11    10    23    38	 9 ;      CG321      CG311      CG311      OG311
   11    10    23    24	 9 ;      CG321      CG311      CG311      CG324
   11    10    23    66	 9 ;      CG321      CG311      CG311       HGA1
    9    10    23    38	 9 ;      NG2S1      CG311      CG311      OG311
    9    10    23    24	 9 ;      NG2S1      CG311      CG311      CG324
    9    10    23    66	 9 ;      NG2S1      CG311      CG311       HGA1
   56    10    23    38	 9 ;       HGA1      CG311      CG311      OG311
   56    10    23    24	 9 ;       HGA1      CG311      CG311      CG324
   56    10    23    66	 9 ;       HGA1      CG311      CG311       HGA1
   23    10    11    12	 9 ;      CG311      CG311      CG321      OG301
   23    10    11    57	 9 ;      CG311      CG311      CG321       HGA2
   23    10    11    58	 9 ;      CG311      CG311      CG321       HGA2
    9    10    11    12	 9 ;      NG2S1      CG311      CG321      OG301
    9    10    11    57	 9 ;      NG2S1      CG311      CG321       HGA2
    9    10    11    58	 9 ;      NG2S1      CG311      CG321       HGA2
   56    10    11    12	 9 ;       HGA1      CG311      CG321      OG301
   56    10    11    57	 9 ;       HGA1      CG311      CG321       HGA2
   56    10    11    58	 9 ;       HGA1      CG311      CG321       HGA2
   10    11    12    13	 9 ;      CG311      CG321      OG301      CG321
   57    11    12    13	 9 ;       HGA2      CG321      OG301      CG321
   58    11    12    13	 9 ;       HGA2      CG321      OG301      CG321
   11    12    13    14	 9 ;      CG321      OG301      CG321      CG2D1
   11    12    13    59	 9 ;      CG321      OG301      CG321       HGA2
   11    12    13    60	 9 ;      CG321      OG301      CG321       HGA2
   12    13    14    15	 9 ;      OG301      CG321      CG2D1      CG2D1
   12    13    14    61	 9 ;      OG301      CG321      CG2D1       HGA4
   59    13    14    15	 9 ;       HGA2      CG321      CG2D1      CG2D1
   59    13    14    61	 9 ;       HGA2      CG321      CG2D1       HGA4
   60    13    14    15	 9 ;       HGA2      CG321      CG2D1      CG2D1
   60    13    14    61	 9 ;       HGA2      CG321      CG2D1       HGA4
   13    14    15    16	 9 ;      CG321      CG2D1      CG2D1      CG321
   13    14    15    62	 9 ;      CG321      CG2D1      CG2D1       HGA4
   61    14    15    16	 9 ;       HGA4      CG2D1      CG2D1      CG321
   61    14    15    62	 9 ;       HGA4      CG2D1      CG2D1       HGA4
   14    15    16    17	 9 ;      CG2D1      CG2D1      CG321      CG311
   14    15    16    63	 9 ;      CG2D1      CG2D1      CG321       HGA2
   14    15    16    64	 9 ;      CG2D1      CG2D1      CG321       HGA2
   62    15    16    17	 9 ;       HGA4      CG2D1      CG321      CG311
   62    15    16    63	 9 ;       HGA4      CG2D1      CG321       HGA2
   62    15    16    64	 9 ;       HGA4      CG2D1      CG321       HGA2
   15    16    17    18	 9 ;      CG2D1      CG321      CG311      NG2S1
   15    16    17    46	 9 ;      CG2D1      CG321      CG311     CG2R61
   15    16    17    65	 9 ;      CG2D1      CG321      CG311       HGA1
   63    16    17    18	 9 ;       HGA2      CG321      CG311      NG2S1
   63    16    17    46	 9 ;       HGA2      CG321      CG311     CG2R61
   63    16    17    65	 9 ;       HGA2      CG321      CG311       HGA1
   64    16    17    18	 9 ;       HGA2      CG321      CG311      NG2S1
   64    16    17    46	 9 ;       HGA2      CG321      CG311     CG2R61
   64    16    17    65	 9 ;       HGA2      CG321      CG311       HGA1
   16    17    18    22	 9 ;      CG321      CG311      NG2S1       HGP1
   16    17    18    19	 9 ;      CG321      CG311      NG2S1      CG2O1
   46    17    18    22	 9 ;     CG2R61      CG311      NG2S1       HGP1
   46    17    18    19	 9 ;     CG2R61      CG311      NG2S1      CG2O1
   65    17    18    22	 9 ;       HGA1      CG311      NG2S1       HGP1
   65    17    18    19	 9 ;       HGA1      CG311      NG2S1      CG2O1
   16    17    46    47	 9 ;      CG321      CG311     CG2R61     CG2R61
   16    17    46    51	 9 ;      CG321      CG311     CG2R61     CG2R61
   18    17    46    47	 9 ;      NG2S1      CG311     CG2R61     CG2R61
   18    17    46    51	 9 ;      NG2S1      CG311     CG2R61     CG2R61
   65    17    46    47	 9 ;       HGA1      CG311     CG2R61     CG2R61
   65    17    46    51	 9 ;       HGA1      CG311     CG2R61     CG2R61
   22    18    19     3	 9 ;       HGP1      NG2S1      CG2O1      CG311
   22    18    19    20	 9 ;       HGP1      NG2S1      CG2O1      OG2D1
   17    18    19     3	 9 ;      CG311      NG2S1      CG2O1      CG311
   17    18    19    20	 9 ;      CG311      NG2S1      CG2O1      OG2D1
   24    23    38    39	 9 ;      CG324      CG311      OG311       HGP1
   10    23    38    39	 9 ;      CG311      CG311      OG311       HGP1
   66    23    38    39	 9 ;       HGA1      CG311      OG311       HGP1
   38    23    24    25	 9 ;      OG311      CG311      CG324      NG3P2
   38    23    24    67	 9 ;      OG311      CG311      CG324       HGA2
   38    23    24    68	 9 ;      OG311      CG311      CG324       HGA2
   10    23    24    25	 9 ;      CG311      CG311      CG324      NG3P2
   10    23    24    67	 9 ;      CG311      CG311      CG324       HGA2
   10    23    24    68	 9 ;      CG311      CG311      CG324       HGA2
   66    23    24    25	 9 ;       HGA1      CG311      CG324      NG3P2
   66    23    24    67	 9 ;       HGA1      CG311      CG324       HGA2
   66    23    24    68	 9 ;       HGA1      CG311      CG324       HGA2
   23    24    25    27	 9 ;      CG311      CG324      NG3P2       HGP2
   23    24    25    26	 9 ;      CG311      CG324      NG3P2       HGP2
   23    24    25    28	 9 ;      CG311      CG324      NG3P2      CG324
   67    24    25    27	 9 ;       HGA2      CG324      NG3P2       HGP2
   67    24    25    26	 9 ;       HGA2      CG324      NG3P2       HGP2
   67    24    25    28	 9 ;       HGA2      CG324      NG3P2      CG324
   68    24    25    27	 9 ;       HGA2      CG324      NG3P2       HGP2
   68    24    25    26	 9 ;       HGA2      CG324      NG3P2       HGP2
   68    24    25    28	 9 ;       HGA2      CG324      NG3P2      CG324
   24    25    28    29	 9 ;      CG324      NG3P2      CG324     CG2R61
   24    25    28    69	 9 ;      CG324      NG3P2      CG324       HGA2
   24    25    28    70	 9 ;      CG324      NG3P2      CG324       HGA2
   27    25    28    29	 9 ;       HGP2      NG3P2      CG324     CG2R61
   27    25    28    69	 9 ;       HGP2      NG3P2      CG324       HGA2
   27    25    28    70	 9 ;       HGP2      NG3P2      CG324       HGA2
   26    25    28    29	 9 ;       HGP2      NG3P2      CG324     CG2R61
   26    25    28    69	 9 ;       HGP2      NG3P2      CG324       HGA2
   26    25    28    70	 9 ;       HGP2      NG3P2      CG324       HGA2
   25    28    29    30	 9 ;      NG3P2      CG324     CG2R61     CG2R61
   25    28    29    34	 9 ;      NG3P2      CG324     CG2R61     CG2R61
   69    28    29    30	 9 ;       HGA2      CG324     CG2R61     CG2R61
   69    28    29    34	 9 ;       HGA2      CG324     CG2R61     CG2R61
   70    28    29    30	 9 ;       HGA2      CG324     CG2R61     CG2R61
   70    28    29    34	 9 ;       HGA2      CG324     CG2R61     CG2R61
   28    29    30    31	 9 ;      CG324     CG2R61     CG2R61     CG2R61
   28    29    30    71	 9 ;      CG324     CG2R61     CG2R61      HGR61
   34    29    30    31	 9 ;     CG2R61     CG2R61     CG2R61     CG2R61
   34    29    30    71	 9 ;     CG2R61     CG2R61     CG2R61      HGR61
   28    29    34    33	 9 ;      CG324     CG2R61     CG2R61     CG2R61
   28    29    34    74	 9 ;      CG324     CG2R61     CG2R61      HGR61
   30    29    34    33	 9 ;     CG2R61     CG2R61     CG2R61     CG2R61
   30    29    34    74	 9 ;     CG2R61     CG2R61     CG2R61      HGR61
   29    30    31    35	 9 ;     CG2R61     CG2R61     CG2R61      CG311
   29    30    31    32	 9 ;     CG2R61     CG2R61     CG2R61     CG2R61
   71    30    31    35	 9 ;      HGR61     CG2R61     CG2R61      CG311
   71    30    31    32	 9 ;      HGR61     CG2R61     CG2R61     CG2R61
   30    31    35    36	 9 ;     CG2R61     CG2R61      CG311      CG331
   30    31    35    37	 9 ;     CG2R61     CG2R61      CG311      CG331
   30    31    35    75	 9 ;     CG2R61     CG2R61      CG311       HGA1
   32    31    35    36	 9 ;     CG2R61     CG2R61      CG311      CG331
   32    31    35    37	 9 ;     CG2R61     CG2R61      CG311      CG331
   32    31    35    75	 9 ;     CG2R61     CG2R61      CG311       HGA1
   30    31    32    33	 9 ;     CG2R61     CG2R61     CG2R61     CG2R61
   30    31    32    72	 9 ;     CG2R61     CG2R61     CG2R61      HGR61
   35    31    32    33	 9 ;      CG311     CG2R61     CG2R61     CG2R61
   35    31    32    72	 9 ;      CG311     CG2R61     CG2R61      HGR61
   31    32    33    34	 9 ;     CG2R61     CG2R61     CG2R61     CG2R61
   31    32    33    73	 9 ;     CG2R61     CG2R61     CG2R61      HGR61
   72    32    33    34	 9 ;      HGR61     CG2R61     CG2R61     CG2R61
   72    32    33    73	 9 ;      HGR61     CG2R61     CG2R61      HGR61
   32    33    34    29	 9 ;     CG2R61     CG2R61     CG2R61     CG2R61
   32    33    34    74	 9 ;     CG2R61     CG2R61     CG2R61      HGR61
   73    33    34    29	 9 ;      HGR61     CG2R61     CG2R61     CG2R61
   73    33    34    74	 9 ;      HGR61     CG2R61     CG2R61      HGR61
   31    35    36    76	 9 ;     CG2R61      CG311      CG331       HGA3
   31    35    36    77	 9 ;     CG2R61      CG311      CG331       HGA3
   31    35    36    78	 9 ;     CG2R61      CG311      CG331       HGA3
   37    35    36    76	 9 ;      CG331      CG311      CG331       HGA3
   37    35    36    77	 9 ;      CG331      CG311      CG331       HGA3
   37    35    36    78	 9 ;      CG331      CG311      CG331       HGA3
   75    35    36    76	 9 ;       HGA1      CG311      CG331       HGA3
   75    35    36    77	 9 ;       HGA1      CG311      CG331       HGA3
   75    35    36    78	 9 ;       HGA1      CG311      CG331       HGA3
   36    35    37    79	 9 ;      CG331      CG311      CG331       HGA3
   36    35    37    80	 9 ;      CG331      CG311      CG331       HGA3
   36    35    37    81	 9 ;      CG331      CG311      CG331       HGA3
   31    35    37    79	 9 ;     CG2R61      CG311      CG331       HGA3
   31    35    37    80	 9 ;     CG2R61      CG311      CG331       HGA3
   31    35    37    81	 9 ;     CG2R61      CG311      CG331       HGA3
   75    35    37    79	 9 ;       HGA1      CG311      CG331       HGA3
   75    35    37    80	 9 ;       HGA1      CG311      CG331       HGA3
   75    35    37    81	 9 ;       HGA1      CG311      CG331       HGA3
    1    40    41    82	 9 ;      CG311      NG301      CG331       HGA3
    1    40    41    83	 9 ;      CG311      NG301      CG331       HGA3
    1    40    41    84	 9 ;      CG311      NG301      CG331       HGA3
   42    40    41    82	 9 ;      SG3O2      NG301      CG331       HGA3
   42    40    41    83	 9 ;      SG3O2      NG301      CG331       HGA3
   42    40    41    84	 9 ;      SG3O2      NG301      CG331       HGA3
    1    40    42    45	 9 ;      CG311      NG301      SG3O2      CG331
    1    40    42    44	 9 ;      CG311      NG301      SG3O2      OG2P1
    1    40    42    43	 9 ;      CG311      NG301      SG3O2      OG2P1
   41    40    42    45	 9 ;      CG331      NG301      SG3O2      CG331
   41    40    42    44	 9 ;      CG331      NG301      SG3O2      OG2P1
   41    40    42    43	 9 ;      CG331      NG301      SG3O2      OG2P1
   40    42    45    85	 9 ;      NG301      SG3O2      CG331       HGA3
   40    42    45    86	 9 ;      NG301      SG3O2      CG331       HGA3
   40    42    45    87	 9 ;      NG301      SG3O2      CG331       HGA3
   44    42    45    85	 9 ;      OG2P1      SG3O2      CG331       HGA3
   44    42    45    86	 9 ;      OG2P1      SG3O2      CG331       HGA3
   44    42    45    87	 9 ;      OG2P1      SG3O2      CG331       HGA3
   43    42    45    85	 9 ;      OG2P1      SG3O2      CG331       HGA3
   43    42    45    86	 9 ;      OG2P1      SG3O2      CG331       HGA3
   43    42    45    87	 9 ;      OG2P1      SG3O2      CG331       HGA3
   17    46    47    48	 9 ;      CG311     CG2R61     CG2R61     CG2R61
   17    46    47    88	 9 ;      CG311     CG2R61     CG2R61      HGR61
   51    46    47    48	 9 ;     CG2R61     CG2R61     CG2R61     CG2R61
   51    46    47    88	 9 ;     CG2R61     CG2R61     CG2R61      HGR61
   47    46    51    50	 9 ;     CG2R61     CG2R61     CG2R61     CG2R61
   47    46    51    92	 9 ;     CG2R61     CG2R61     CG2R61      HGR61
   17    46    51    50	 9 ;      CG311     CG2R61     CG2R61     CG2R61
   17    46    51    92	 9 ;      CG311     CG2R61     CG2R61      HGR61
   46    47    48    49	 9 ;     CG2R61     CG2R61     CG2R61     CG2R61
   46    47    48    89	 9 ;     CG2R61     CG2R61     CG2R61      HGR61
   88    47    48    49	 9 ;      HGR61     CG2R61     CG2R61     CG2R61
   88    47    48    89	 9 ;      HGR61     CG2R61     CG2R61      HGR61
   47    48    49    50	 9 ;     CG2R61     CG2R61     CG2R61     CG2R61
   47    48    49    90	 9 ;     CG2R61     CG2R61     CG2R61      HGR61
   89    48    49    50	 9 ;      HGR61     CG2R61     CG2R61     CG2R61
   89    48    49    90	 9 ;      HGR61     CG2R61     CG2R61      HGR61
   48    49    50    51	 9 ;     CG2R61     CG2R61     CG2R61     CG2R61
   48    49    50    91	 9 ;     CG2R61     CG2R61     CG2R61      HGR61
   90    49    50    51	 9 ;      HGR61     CG2R61     CG2R61     CG2R61
   90    49    50    91	 9 ;      HGR61     CG2R61     CG2R61      HGR61
   49    50    51    46	 9 ;     CG2R61     CG2R61     CG2R61     CG2R61
   49    50    51    92	 9 ;     CG2R61     CG2R61     CG2R61      HGR61
   91    50    51    46	 9 ;      HGR61     CG2R61     CG2R61     CG2R61
   91    50    51    92	 9 ;      HGR61     CG2R61     CG2R61      HGR61

[ dihedrals ]
;	ai	  aj	ak	  al funct			  c0			c1			  c2			c3
    7     5     9     8	 2
   19     3    18    20	 2

