Getting the Right Output Means no Artefacts in Calculating Stuff
   95
    1LIG     C1    1  -1.545   0.950  -1.687
    1LIG     C2    2  -1.541   0.847  -1.595
    1LIG     C3    3  -1.469   0.737  -1.633
    1LIG     C4    4  -1.350   0.758  -1.701
    1LIG     C5    5  -1.352   0.852  -1.802
    1LIG     C6    6  -1.453   0.952  -1.794
    1LIG     C7    7  -1.279   0.828  -1.931
    1LIG     O1    8  -1.294   0.910  -2.022
    1LIG     N1    9  -1.208   0.714  -1.964
    1LIG     C8   10  -1.140   0.603  -1.893
    1LIG     C9   11  -1.130   0.468  -1.969
    1LIG     O2   12  -1.089   0.478  -2.104
    1LIG    C10   13  -1.192   0.500  -2.202
    1LIG    C11   14  -1.334   0.470  -2.158
    1LIG    C12   15  -1.425   0.563  -2.123
    1LIG    C13   16  -1.568   0.539  -2.080
    1LIG    C14   17  -1.608   0.532  -1.929
    1LIG     N2   18  -1.556   0.641  -1.845
    1LIG    C15   19  -1.563   0.641  -1.705
    1LIG     O3   20  -1.635   0.572  -1.635
    1LIG     H1   21  -1.183   0.720  -2.062
    1LIG     H2   22  -1.554   0.732  -1.890
    1LIG    C16   23  -1.005   0.657  -1.845
    1LIG    C17   24  -0.984   0.647  -1.694
    1LIG     N3   25  -1.077   0.545  -1.640
    1LIG     H3   26  -1.153   0.525  -1.707
    1LIG     H4   27  -1.023   0.457  -1.633
    1LIG    C18   28  -1.136   0.574  -1.507
    1LIG    C19   29  -1.164   0.446  -1.436
    1LIG    C20   30  -1.125   0.325  -1.496
    1LIG    C21   31  -1.160   0.203  -1.438
    1LIG    C22   32  -1.232   0.204  -1.318
    1LIG    C23   33  -1.270   0.324  -1.258
    1LIG    C24   34  -1.237   0.445  -1.317
    1LIG    C25   35  -1.121   0.073  -1.507
    1LIG    C26   36  -1.033  -0.015  -1.420
    1LIG    C27   37  -1.246  -0.001  -1.554
    1LIG     O4   38  -0.892   0.595  -1.908
    1LIG     H5   39  -0.872   0.513  -1.859
    1LIG     N4   40  -1.653   1.045  -1.678
    1LIG    C28   41  -1.609   1.189  -1.683
    1LIG      S   42  -1.782   1.007  -1.787
    1LIG     O5   43  -1.905   1.052  -1.725
    1LIG     O6   44  -1.766   0.869  -1.828
    1LIG    C29   45  -1.744   1.115  -1.923
    1LIG    C30   46  -1.570   0.400  -1.863
    1LIG    C31   47  -1.441   0.387  -1.811
    1LIG    C32   48  -1.414   0.302  -1.705
    1LIG    C33   49  -1.517   0.223  -1.655
    1LIG    C34   50  -1.643   0.225  -1.716
    1LIG    C35   51  -1.670   0.313  -1.821
    1LIG     HC   52  -1.590   0.853  -1.499
    1LIG    HC1   53  -1.441   0.686  -1.540
    1LIG    HC2   54  -1.260   0.703  -1.677
    1LIG    HC3   55  -1.459   1.029  -1.870
    1LIG    HC4   56  -1.199   0.583  -1.803
    1LIG    HC5   57  -1.057   0.405  -1.917
    1LIG    HC6   58  -1.227   0.419  -1.966
    1LIG    HC7   59  -1.171   0.437  -2.288
    1LIG    HC8   60  -1.188   0.604  -2.233
    1LIG    HC9   61  -1.365   0.366  -2.154
    1LIG   HC10   62  -1.392   0.666  -2.125
    1LIG   HC11   63  -1.627   0.620  -2.124
    1LIG   HC12   64  -1.601   0.447  -2.127
    1LIG   HC13   65  -1.717   0.539  -1.925
    1LIG   HC14   66  -1.002   0.763  -1.871
    1LIG   HC15   67  -0.881   0.618  -1.673
    1LIG   HC16   68  -1.005   0.744  -1.647
    1LIG   HC17   69  -1.229   0.629  -1.520
    1LIG   HC18   70  -1.066   0.633  -1.448
    1LIG   HC19   71  -1.068   0.326  -1.588
    1LIG   HC20   72  -1.260   0.110  -1.271
    1LIG   HC21   73  -1.326   0.322  -1.165
    1LIG   HC22   74  -1.267   0.538  -1.272
    1LIG   HC23   75  -1.064   0.100  -1.596
    1LIG   HC24   76  -0.945   0.041  -1.388
    1LIG   HC25   77  -1.001  -0.103  -1.477
    1LIG   HC26   78  -1.089  -0.047  -1.332
    1LIG   HC27   79  -1.307   0.065  -1.616
    1LIG   HC28   80  -1.217  -0.089  -1.612
    1LIG   HC29   81  -1.304  -0.033  -1.467
    1LIG   HC30   82  -1.558   1.214  -1.590
    1LIG   HC31   83  -1.696   1.253  -1.696
    1LIG   HC32   84  -1.541   1.203  -1.767
    1LIG   HC33   85  -1.798   1.082  -2.011
    1LIG   HC34   86  -1.637   1.112  -1.942
    1LIG   HC35   87  -1.774   1.217  -1.897
    1LIG   HC36   88  -1.360   0.445  -1.854
    1LIG   HC37   89  -1.315   0.296  -1.662
    1LIG   HC38   90  -1.500   0.160  -1.569
    1LIG   HC39   91  -1.721   0.158  -1.681
    1LIG   HC40   92  -1.767   0.313  -1.868
    1LIG    H47   93  -1.480   1.013  -1.625
    1LIG    H48   94  -1.630   0.804  -1.639
    1LIG    H49   95  -1.377   0.681  -1.773
   0.00000   0.00000   0.00000
