; Created by cgenff_charmm2gmx.py

[ moleculetype ]
; Name			   nrexcl
LIG				 3

[ atoms ]
;	 nr		  type	resnr residue  atom   cgnr	   charge		mass  typeB    chargeB		massB
; residue	 1 LIG rtp LIG q	qsum
     1     CG3C50      1    LIG     C1      1      0.952     12.011   ;
     2     NG3C51      1    LIG     N1      2     -0.942     14.007   ;
     3       HGP1      1    LIG    HN1      3      0.206      1.008   ;
     4     CG3C51      1    LIG     C2      4      0.310     12.011   ;
     5     NG3C51      1    LIG     N2      5     -1.039     14.007   ;
     6     CG3RC1      1    LIG     C3      6      0.331     12.011   ;
     7      NG311      1    LIG     N3      7     -0.859     14.007   ;
     8     HGPAM1      1    LIG    HN2      8      0.413      1.008   ;
     9      CG321      1    LIG     C4      9      0.181     12.011   ;
    10      CG312      1    LIG     C5     10      0.104     12.011   ;
    11       FGA2      1    LIG     F1     11     -0.178     18.998   ;
    12       FGA2      1    LIG     F2     12     -0.178     18.998   ;
    13      CG321      1    LIG     C6     13      0.506     12.011   ;
    14     CG2R61      1    LIG     C7     14     -0.019     12.011   ;
    15     CG2R61      1    LIG     C8     15     -0.183     12.011   ;
    16     CG2R61      1    LIG     C9     16      0.015     12.011   ;
    17      CG331      1    LIG    C10     17     -0.262     12.011   ;
    18     CG2R61      1    LIG    C11     18      0.236     12.011   ;
    19     CG2R61      1    LIG    C12     19     -0.125     12.011   ;
    20     CG2R61      1    LIG    C13     20     -0.178     12.011   ;
    21      OG301      1    LIG      O     21     -0.390     15.999   ;
    22      CG331      1    LIG    C14     22     -0.094     12.011   ;
    23     CG2R61      1    LIG    C15     23      0.025     12.011   ;
    24     CG2R61      1    LIG    C16     24     -0.216     12.011   ;
    25     CG2R61      1    LIG    C17     25     -0.075     12.011   ;
    26     CG2R66      1    LIG    C18     26      0.006     12.011   ;
    27       FGR1      1    LIG     F3     27     -0.169     18.998   ;
    28     CG2R61      1    LIG    C19     28      0.035     12.011   ;
    29     CG2R61      1    LIG    C20     29     -0.214     12.011   ;
    30     CG2DC1      1    LIG    C21     30      0.114     12.011   ;
    31     CG2DC2      1    LIG    C22     31     -0.254     12.011   ;
    32     CG2DC2      1    LIG    C23     32     -0.181     12.011   ;
    33      CG321      1    LIG    C24     33     -0.038     12.011   ;
    34      NG311      1    LIG     N4     34     -0.536     14.007   ;
    35     CG2D1O      1    LIG    C25     35     -0.044     12.011   ;
    36     HGPAM1      1    LIG    HN3     36      0.389      1.008   ;
    37      NG321      1    LIG     N5     37     -0.868     14.007   ;
    38     HGPAM2      1    LIG     H1     38      0.349      1.008   ;
    39     HGPAM2      1    LIG     H2     39      0.349      1.008   ;
    40       HGA1      1    LIG     H3     40      0.137      1.008   ;
    41       HGA1      1    LIG     H4     41      0.090      1.008   ;
    42       HGA2      1    LIG     H5     42      0.090      1.008   ;
    43       HGA2      1    LIG     H6     43      0.090      1.008   ;
    44       HGA2      1    LIG     H7     44      0.090      1.008   ;
    45       HGA2      1    LIG     H8     45      0.090      1.008   ;
    46      HGR61      1    LIG     H9     46      0.116      1.008   ;
    47       HGA3      1    LIG    H10     47      0.090      1.008   ;
    48       HGA3      1    LIG    H11     48      0.090      1.008   ;
    49       HGA3      1    LIG    H12     49      0.090      1.008   ;
    50      HGR61      1    LIG    H13     50      0.116      1.008   ;
    51      HGR61      1    LIG    H14     51      0.116      1.008   ;
    52       HGA3      1    LIG    H15     52      0.090      1.008   ;
    53       HGA3      1    LIG    H16     53      0.090      1.008   ;
    54       HGA3      1    LIG    H17     54      0.090      1.008   ;
    55      HGR61      1    LIG    H18     55      0.116      1.008   ;
    56      HGR62      1    LIG    H19     56      0.179      1.008   ;
    57      HGR61      1    LIG    H20     57      0.116      1.008   ;
    58       HGA4      1    LIG    H21     58      0.153      1.008   ;
    59       HGA4      1    LIG    H22     59      0.150      1.008   ;
    60       HGA2      1    LIG    H23     60      0.090      1.008   ;
    61       HGA2      1    LIG    H24     61      0.090      1.008   ;
    62       HGA4      1    LIG    H25     62      0.152      1.008   ;

[ bonds ]
;	ai	  aj funct			  c0			c1			  c2			c3
    1    23	 1 ;      CG3C50     CG2R61
    1     6	 1 ;      CG3C50     CG3RC1
    1     2	 1 ;      CG3C50     NG3C51
    1    14	 1 ;      CG3C50     CG2R61
    2     3	 1 ;      NG3C51       HGP1
    2     4	 1 ;      NG3C51     CG3C51
    4     5	 1 ;      CG3C51     NG3C51
    4    37	 1 ;      CG3C51      NG321
    4    40	 1 ;      CG3C51       HGA1
    5     6	 1 ;      NG3C51     CG3RC1
    5    13	 1 ;      NG3C51      CG321
    6     7	 1 ;      CG3RC1      NG311
    6    41	 1 ;      CG3RC1       HGA1
    7     8	 1 ;       NG311     HGPAM1
    7     9	 1 ;       NG311      CG321
    9    10	 1 ;       CG321      CG312
    9    42	 1 ;       CG321       HGA2
    9    43	 1 ;       CG321       HGA2
   10    11	 1 ;       CG312       FGA2
   10    13	 1 ;       CG312      CG321
   10    12	 1 ;       CG312       FGA2
   13    44	 1 ;       CG321       HGA2
   13    45	 1 ;       CG321       HGA2
   14    20	 1 ;      CG2R61     CG2R61
   14    15	 1 ;      CG2R61     CG2R61
   15    16	 1 ;      CG2R61     CG2R61
   15    46	 1 ;      CG2R61      HGR61
   16    18	 1 ;      CG2R61     CG2R61
   16    17	 1 ;      CG2R61      CG331
   17    47	 1 ;       CG331       HGA3
   17    48	 1 ;       CG331       HGA3
   17    49	 1 ;       CG331       HGA3
   18    19	 1 ;      CG2R61     CG2R61
   18    21	 1 ;      CG2R61      OG301
   19    20	 1 ;      CG2R61     CG2R61
   19    50	 1 ;      CG2R61      HGR61
   20    51	 1 ;      CG2R61      HGR61
   21    22	 1 ;       OG301      CG331
   22    52	 1 ;       CG331       HGA3
   22    53	 1 ;       CG331       HGA3
   22    54	 1 ;       CG331       HGA3
   23    24	 1 ;      CG2R61     CG2R61
   23    29	 1 ;      CG2R61     CG2R61
   24    25	 1 ;      CG2R61     CG2R61
   24    55	 1 ;      CG2R61      HGR61
   25    26	 1 ;      CG2R61     CG2R66
   25    56	 1 ;      CG2R61      HGR62
   26    27	 1 ;      CG2R66       FGR1
   26    28	 1 ;      CG2R66     CG2R61
   28    30	 1 ;      CG2R61     CG2DC1
   28    29	 1 ;      CG2R61     CG2R61
   29    57	 1 ;      CG2R61      HGR61
   30    35	 1 ;      CG2DC1     CG2D1O
   30    31	 1 ;      CG2DC1     CG2DC2
   31    32	 1 ;      CG2DC2     CG2DC2
   31    58	 1 ;      CG2DC2       HGA4
   32    33	 1 ;      CG2DC2      CG321
   32    59	 1 ;      CG2DC2       HGA4
   33    34	 1 ;       CG321      NG311
   33    60	 1 ;       CG321       HGA2
   33    61	 1 ;       CG321       HGA2
   34    36	 1 ;       NG311     HGPAM1
   34    35	 1 ;       NG311     CG2D1O
   35    62	 1 ;      CG2D1O       HGA4
   37    39	 1 ;       NG321     HGPAM2
   37    38	 1 ;       NG321     HGPAM2

[ pairs ]
;	ai	  aj funct			  c0			c1			  c2			c3
    1    37	 1
    1    40	 1
    1    13	 1
    1     8	 1
    1     9	 1
    1    19	 1
    1    51	 1
    1    16	 1
    1    46	 1
    1    25	 1
    1    55	 1
    1    28	 1
    1    57	 1
    2    24	 1
    2    29	 1
    2     7	 1
    2    41	 1
    2    20	 1
    2    15	 1
    2    13	 1
    2    39	 1
    2    38	 1
    3    23	 1
    3     6	 1
    3    14	 1
    3     5	 1
    3    37	 1
    3    40	 1
    4    23	 1
    4    14	 1
    4     7	 1
    4    41	 1
    4    10	 1
    4    44	 1
    4    45	 1
    5    23	 1
    5    14	 1
    5    39	 1
    5    38	 1
    5     8	 1
    5     9	 1
    5    11	 1
    5    12	 1
    6    24	 1
    6    29	 1
    6    20	 1
    6    15	 1
    6    37	 1
    6    40	 1
    6    10	 1
    6    44	 1
    6    45	 1
    6    42	 1
    6    43	 1
    7    23	 1
    7    14	 1
    7    13	 1
    7    11	 1
    7    12	 1
    8    41	 1
    8    10	 1
    8    42	 1
    8    43	 1
    9    41	 1
    9    44	 1
    9    45	 1
   11    42	 1
   11    43	 1
   11    44	 1
   11    45	 1
   12    42	 1
   12    43	 1
   12    44	 1
   12    45	 1
   13    37	 1
   13    40	 1
   13    41	 1
   13    42	 1
   13    43	 1
   14    24	 1
   14    29	 1
   14    41	 1
   14    18	 1
   14    17	 1
   14    50	 1
   15    23	 1
   15    19	 1
   15    51	 1
   15    21	 1
   15    47	 1
   15    48	 1
   15    49	 1
   16    20	 1
   16    50	 1
   16    22	 1
   17    46	 1
   17    19	 1
   17    21	 1
   18    46	 1
   18    47	 1
   18    48	 1
   18    49	 1
   18    51	 1
   18    52	 1
   18    53	 1
   18    54	 1
   19    22	 1
   20    23	 1
   20    46	 1
   20    21	 1
   21    50	 1
   23    41	 1
   23    26	 1
   23    56	 1
   23    30	 1
   24    28	 1
   24    57	 1
   24    27	 1
   25    29	 1
   25    30	 1
   26    55	 1
   26    35	 1
   26    31	 1
   26    57	 1
   27    56	 1
   27    30	 1
   27    29	 1
   28    56	 1
   28    34	 1
   28    62	 1
   28    32	 1
   28    58	 1
   29    55	 1
   29    35	 1
   29    31	 1
   30    57	 1
   30    33	 1
   30    59	 1
   30    36	 1
   31    34	 1
   31    62	 1
   31    60	 1
   31    61	 1
   32    35	 1
   32    36	 1
   33    58	 1
   33    62	 1
   34    59	 1
   35    58	 1
   35    60	 1
   35    61	 1
   36    60	 1
   36    61	 1
   36    62	 1
   38    40	 1
   39    40	 1
   50    51	 1
   55    56	 1
   58    59	 1
   59    60	 1
   59    61	 1

[ angles ]
;	ai	  aj	ak funct			c0			  c1			c2			  c3
   23     1     6	5 ;     CG2R61     CG3C50     CG3RC1
   23     1     2	5 ;     CG2R61     CG3C50     NG3C51
   23     1    14	5 ;     CG2R61     CG3C50     CG2R61
    6     1     2	5 ;     CG3RC1     CG3C50     NG3C51
    6     1    14	5 ;     CG3RC1     CG3C50     CG2R61
    2     1    14	5 ;     NG3C51     CG3C50     CG2R61
    1     2     3	5 ;     CG3C50     NG3C51       HGP1
    1     2     4	5 ;     CG3C50     NG3C51     CG3C51
    3     2     4	5 ;       HGP1     NG3C51     CG3C51
    2     4     5	5 ;     NG3C51     CG3C51     NG3C51
    2     4    37	5 ;     NG3C51     CG3C51      NG321
    2     4    40	5 ;     NG3C51     CG3C51       HGA1
    5     4    37	5 ;     NG3C51     CG3C51      NG321
    5     4    40	5 ;     NG3C51     CG3C51       HGA1
   37     4    40	5 ;      NG321     CG3C51       HGA1
    6     5     4	5 ;     CG3RC1     NG3C51     CG3C51
    6     5    13	5 ;     CG3RC1     NG3C51      CG321
    4     5    13	5 ;     CG3C51     NG3C51      CG321
    1     6     7	5 ;     CG3C50     CG3RC1      NG311
    1     6     5	5 ;     CG3C50     CG3RC1     NG3C51
    1     6    41	5 ;     CG3C50     CG3RC1       HGA1
    7     6     5	5 ;      NG311     CG3RC1     NG3C51
    7     6    41	5 ;      NG311     CG3RC1       HGA1
    5     6    41	5 ;     NG3C51     CG3RC1       HGA1
    8     7     6	5 ;     HGPAM1      NG311     CG3RC1
    8     7     9	5 ;     HGPAM1      NG311      CG321
    6     7     9	5 ;     CG3RC1      NG311      CG321
    7     9    10	5 ;      NG311      CG321      CG312
    7     9    42	5 ;      NG311      CG321       HGA2
    7     9    43	5 ;      NG311      CG321       HGA2
   10     9    42	5 ;      CG312      CG321       HGA2
   10     9    43	5 ;      CG312      CG321       HGA2
   42     9    43	5 ;       HGA2      CG321       HGA2
   11    10     9	5 ;       FGA2      CG312      CG321
   11    10    13	5 ;       FGA2      CG312      CG321
   11    10    12	5 ;       FGA2      CG312       FGA2
    9    10    13	5 ;      CG321      CG312      CG321
    9    10    12	5 ;      CG321      CG312       FGA2
   13    10    12	5 ;      CG321      CG312       FGA2
   10    13     5	5 ;      CG312      CG321     NG3C51
   10    13    44	5 ;      CG312      CG321       HGA2
   10    13    45	5 ;      CG312      CG321       HGA2
    5    13    44	5 ;     NG3C51      CG321       HGA2
    5    13    45	5 ;     NG3C51      CG321       HGA2
   44    13    45	5 ;       HGA2      CG321       HGA2
    1    14    20	5 ;     CG3C50     CG2R61     CG2R61
    1    14    15	5 ;     CG3C50     CG2R61     CG2R61
   20    14    15	5 ;     CG2R61     CG2R61     CG2R61
   14    15    16	5 ;     CG2R61     CG2R61     CG2R61
   14    15    46	5 ;     CG2R61     CG2R61      HGR61
   16    15    46	5 ;     CG2R61     CG2R61      HGR61
   15    16    18	5 ;     CG2R61     CG2R61     CG2R61
   15    16    17	5 ;     CG2R61     CG2R61      CG331
   18    16    17	5 ;     CG2R61     CG2R61      CG331
   16    17    47	5 ;     CG2R61      CG331       HGA3
   16    17    48	5 ;     CG2R61      CG331       HGA3
   16    17    49	5 ;     CG2R61      CG331       HGA3
   47    17    48	5 ;       HGA3      CG331       HGA3
   47    17    49	5 ;       HGA3      CG331       HGA3
   48    17    49	5 ;       HGA3      CG331       HGA3
   19    18    16	5 ;     CG2R61     CG2R61     CG2R61
   19    18    21	5 ;     CG2R61     CG2R61      OG301
   16    18    21	5 ;     CG2R61     CG2R61      OG301
   20    19    18	5 ;     CG2R61     CG2R61     CG2R61
   20    19    50	5 ;     CG2R61     CG2R61      HGR61
   18    19    50	5 ;     CG2R61     CG2R61      HGR61
   14    20    19	5 ;     CG2R61     CG2R61     CG2R61
   14    20    51	5 ;     CG2R61     CG2R61      HGR61
   19    20    51	5 ;     CG2R61     CG2R61      HGR61
   18    21    22	5 ;     CG2R61      OG301      CG331
   21    22    52	5 ;      OG301      CG331       HGA3
   21    22    53	5 ;      OG301      CG331       HGA3
   21    22    54	5 ;      OG301      CG331       HGA3
   52    22    53	5 ;       HGA3      CG331       HGA3
   52    22    54	5 ;       HGA3      CG331       HGA3
   53    22    54	5 ;       HGA3      CG331       HGA3
   24    23    29	5 ;     CG2R61     CG2R61     CG2R61
   24    23     1	5 ;     CG2R61     CG2R61     CG3C50
   29    23     1	5 ;     CG2R61     CG2R61     CG3C50
   25    24    23	5 ;     CG2R61     CG2R61     CG2R61
   25    24    55	5 ;     CG2R61     CG2R61      HGR61
   23    24    55	5 ;     CG2R61     CG2R61      HGR61
   26    25    24	5 ;     CG2R66     CG2R61     CG2R61
   26    25    56	5 ;     CG2R66     CG2R61      HGR62
   24    25    56	5 ;     CG2R61     CG2R61      HGR62
   27    26    25	5 ;       FGR1     CG2R66     CG2R61
   27    26    28	5 ;       FGR1     CG2R66     CG2R61
   25    26    28	5 ;     CG2R61     CG2R66     CG2R61
   26    28    30	5 ;     CG2R66     CG2R61     CG2DC1
   26    28    29	5 ;     CG2R66     CG2R61     CG2R61
   30    28    29	5 ;     CG2DC1     CG2R61     CG2R61
   28    29    23	5 ;     CG2R61     CG2R61     CG2R61
   28    29    57	5 ;     CG2R61     CG2R61      HGR61
   23    29    57	5 ;     CG2R61     CG2R61      HGR61
   35    30    31	5 ;     CG2D1O     CG2DC1     CG2DC2
   35    30    28	5 ;     CG2D1O     CG2DC1     CG2R61
   31    30    28	5 ;     CG2DC2     CG2DC1     CG2R61
   32    31    30	5 ;     CG2DC2     CG2DC2     CG2DC1
   32    31    58	5 ;     CG2DC2     CG2DC2       HGA4
   30    31    58	5 ;     CG2DC1     CG2DC2       HGA4
   33    32    31	5 ;      CG321     CG2DC2     CG2DC2
   33    32    59	5 ;      CG321     CG2DC2       HGA4
   31    32    59	5 ;     CG2DC2     CG2DC2       HGA4
   34    33    32	5 ;      NG311      CG321     CG2DC2
   34    33    60	5 ;      NG311      CG321       HGA2
   34    33    61	5 ;      NG311      CG321       HGA2
   32    33    60	5 ;     CG2DC2      CG321       HGA2
   32    33    61	5 ;     CG2DC2      CG321       HGA2
   60    33    61	5 ;       HGA2      CG321       HGA2
   36    34    33	5 ;     HGPAM1      NG311      CG321
   36    34    35	5 ;     HGPAM1      NG311     CG2D1O
   33    34    35	5 ;      CG321      NG311     CG2D1O
   34    35    30	5 ;      NG311     CG2D1O     CG2DC1
   34    35    62	5 ;      NG311     CG2D1O       HGA4
   30    35    62	5 ;     CG2DC1     CG2D1O       HGA4
    4    37    39	5 ;     CG3C51      NG321     HGPAM2
    4    37    38	5 ;     CG3C51      NG321     HGPAM2
   39    37    38	5 ;     HGPAM2      NG321     HGPAM2

[ dihedrals ]
;	ai	  aj	ak	  al funct			  c0			c1			  c2			c3			  c4			c5
    6     1    23    24	 9 ;     CG3RC1     CG3C50     CG2R61     CG2R61
    6     1    23    29	 9 ;     CG3RC1     CG3C50     CG2R61     CG2R61
    2     1    23    24	 9 ;     NG3C51     CG3C50     CG2R61     CG2R61
    2     1    23    29	 9 ;     NG3C51     CG3C50     CG2R61     CG2R61
   14     1    23    24	 9 ;     CG2R61     CG3C50     CG2R61     CG2R61
   14     1    23    29	 9 ;     CG2R61     CG3C50     CG2R61     CG2R61
   23     1     6     7	 9 ;     CG2R61     CG3C50     CG3RC1      NG311
   23     1     6     5	 9 ;     CG2R61     CG3C50     CG3RC1     NG3C51
   23     1     6    41	 9 ;     CG2R61     CG3C50     CG3RC1       HGA1
    2     1     6     7	 9 ;     NG3C51     CG3C50     CG3RC1      NG311
    2     1     6     5	 9 ;     NG3C51     CG3C50     CG3RC1     NG3C51
    2     1     6    41	 9 ;     NG3C51     CG3C50     CG3RC1       HGA1
   14     1     6     7	 9 ;     CG2R61     CG3C50     CG3RC1      NG311
   14     1     6     5	 9 ;     CG2R61     CG3C50     CG3RC1     NG3C51
   14     1     6    41	 9 ;     CG2R61     CG3C50     CG3RC1       HGA1
   23     1     2     3	 9 ;     CG2R61     CG3C50     NG3C51       HGP1
   23     1     2     4	 9 ;     CG2R61     CG3C50     NG3C51     CG3C51
    6     1     2     3	 9 ;     CG3RC1     CG3C50     NG3C51       HGP1
    6     1     2     4	 9 ;     CG3RC1     CG3C50     NG3C51     CG3C51
   14     1     2     3	 9 ;     CG2R61     CG3C50     NG3C51       HGP1
   14     1     2     4	 9 ;     CG2R61     CG3C50     NG3C51     CG3C51
   23     1    14    20	 9 ;     CG2R61     CG3C50     CG2R61     CG2R61
   23     1    14    15	 9 ;     CG2R61     CG3C50     CG2R61     CG2R61
    6     1    14    20	 9 ;     CG3RC1     CG3C50     CG2R61     CG2R61
    6     1    14    15	 9 ;     CG3RC1     CG3C50     CG2R61     CG2R61
    2     1    14    20	 9 ;     NG3C51     CG3C50     CG2R61     CG2R61
    2     1    14    15	 9 ;     NG3C51     CG3C50     CG2R61     CG2R61
    1     2     4     5	 9 ;     CG3C50     NG3C51     CG3C51     NG3C51
    1     2     4    37	 9 ;     CG3C50     NG3C51     CG3C51      NG321
    1     2     4    40	 9 ;     CG3C50     NG3C51     CG3C51       HGA1
    3     2     4     5	 9 ;       HGP1     NG3C51     CG3C51     NG3C51
    3     2     4    37	 9 ;       HGP1     NG3C51     CG3C51      NG321
    3     2     4    40	 9 ;       HGP1     NG3C51     CG3C51       HGA1
    2     4     5     6	 9 ;     NG3C51     CG3C51     NG3C51     CG3RC1
    2     4     5    13	 9 ;     NG3C51     CG3C51     NG3C51      CG321
   37     4     5     6	 9 ;      NG321     CG3C51     NG3C51     CG3RC1
   37     4     5    13	 9 ;      NG321     CG3C51     NG3C51      CG321
   40     4     5     6	 9 ;       HGA1     CG3C51     NG3C51     CG3RC1
   40     4     5    13	 9 ;       HGA1     CG3C51     NG3C51      CG321
    2     4    37    39	 9 ;     NG3C51     CG3C51      NG321     HGPAM2
    2     4    37    38	 9 ;     NG3C51     CG3C51      NG321     HGPAM2
    5     4    37    39	 9 ;     NG3C51     CG3C51      NG321     HGPAM2
    5     4    37    38	 9 ;     NG3C51     CG3C51      NG321     HGPAM2
   40     4    37    39	 9 ;       HGA1     CG3C51      NG321     HGPAM2
   40     4    37    38	 9 ;       HGA1     CG3C51      NG321     HGPAM2
    4     5     6     1	 9 ;     CG3C51     NG3C51     CG3RC1     CG3C50
    4     5     6     7	 9 ;     CG3C51     NG3C51     CG3RC1      NG311
    4     5     6    41	 9 ;     CG3C51     NG3C51     CG3RC1       HGA1
   13     5     6     1	 9 ;      CG321     NG3C51     CG3RC1     CG3C50
   13     5     6     7	 9 ;      CG321     NG3C51     CG3RC1      NG311
   13     5     6    41	 9 ;      CG321     NG3C51     CG3RC1       HGA1
    6     5    13    10	 9 ;     CG3RC1     NG3C51      CG321      CG312
    6     5    13    44	 9 ;     CG3RC1     NG3C51      CG321       HGA2
    6     5    13    45	 9 ;     CG3RC1     NG3C51      CG321       HGA2
    4     5    13    10	 9 ;     CG3C51     NG3C51      CG321      CG312
    4     5    13    44	 9 ;     CG3C51     NG3C51      CG321       HGA2
    4     5    13    45	 9 ;     CG3C51     NG3C51      CG321       HGA2
    1     6     7     8	 9 ;     CG3C50     CG3RC1      NG311     HGPAM1
    1     6     7     9	 9 ;     CG3C50     CG3RC1      NG311      CG321
    5     6     7     8	 9 ;     NG3C51     CG3RC1      NG311     HGPAM1
    5     6     7     9	 9 ;     NG3C51     CG3RC1      NG311      CG321
   41     6     7     8	 9 ;       HGA1     CG3RC1      NG311     HGPAM1
   41     6     7     9	 9 ;       HGA1     CG3RC1      NG311      CG321
    8     7     9    10	 9 ;     HGPAM1      NG311      CG321      CG312
    8     7     9    42	 9 ;     HGPAM1      NG311      CG321       HGA2
    8     7     9    43	 9 ;     HGPAM1      NG311      CG321       HGA2
    6     7     9    10	 9 ;     CG3RC1      NG311      CG321      CG312
    6     7     9    42	 9 ;     CG3RC1      NG311      CG321       HGA2
    6     7     9    43	 9 ;     CG3RC1      NG311      CG321       HGA2
    7     9    10    11	 9 ;      NG311      CG321      CG312       FGA2
    7     9    10    13	 9 ;      NG311      CG321      CG312      CG321
    7     9    10    12	 9 ;      NG311      CG321      CG312       FGA2
   42     9    10    11	 9 ;       HGA2      CG321      CG312       FGA2
   42     9    10    13	 9 ;       HGA2      CG321      CG312      CG321
   42     9    10    12	 9 ;       HGA2      CG321      CG312       FGA2
   43     9    10    11	 9 ;       HGA2      CG321      CG312       FGA2
   43     9    10    13	 9 ;       HGA2      CG321      CG312      CG321
   43     9    10    12	 9 ;       HGA2      CG321      CG312       FGA2
   11    10    13     5	 9 ;       FGA2      CG312      CG321     NG3C51
   11    10    13    44	 9 ;       FGA2      CG312      CG321       HGA2
   11    10    13    45	 9 ;       FGA2      CG312      CG321       HGA2
    9    10    13     5	 9 ;      CG321      CG312      CG321     NG3C51
    9    10    13    44	 9 ;      CG321      CG312      CG321       HGA2
    9    10    13    45	 9 ;      CG321      CG312      CG321       HGA2
   12    10    13     5	 9 ;       FGA2      CG312      CG321     NG3C51
   12    10    13    44	 9 ;       FGA2      CG312      CG321       HGA2
   12    10    13    45	 9 ;       FGA2      CG312      CG321       HGA2
    1    14    20    19	 9 ;     CG3C50     CG2R61     CG2R61     CG2R61
    1    14    20    51	 9 ;     CG3C50     CG2R61     CG2R61      HGR61
   15    14    20    19	 9 ;     CG2R61     CG2R61     CG2R61     CG2R61
   15    14    20    51	 9 ;     CG2R61     CG2R61     CG2R61      HGR61
    1    14    15    16	 9 ;     CG3C50     CG2R61     CG2R61     CG2R61
    1    14    15    46	 9 ;     CG3C50     CG2R61     CG2R61      HGR61
   20    14    15    16	 9 ;     CG2R61     CG2R61     CG2R61     CG2R61
   20    14    15    46	 9 ;     CG2R61     CG2R61     CG2R61      HGR61
   14    15    16    18	 9 ;     CG2R61     CG2R61     CG2R61     CG2R61
   14    15    16    17	 9 ;     CG2R61     CG2R61     CG2R61      CG331
   46    15    16    18	 9 ;      HGR61     CG2R61     CG2R61     CG2R61
   46    15    16    17	 9 ;      HGR61     CG2R61     CG2R61      CG331
   15    16    18    19	 9 ;     CG2R61     CG2R61     CG2R61     CG2R61
   15    16    18    21	 9 ;     CG2R61     CG2R61     CG2R61      OG301
   17    16    18    19	 9 ;      CG331     CG2R61     CG2R61     CG2R61
   17    16    18    21	 9 ;      CG331     CG2R61     CG2R61      OG301
   15    16    17    47	 9 ;     CG2R61     CG2R61      CG331       HGA3
   15    16    17    48	 9 ;     CG2R61     CG2R61      CG331       HGA3
   15    16    17    49	 9 ;     CG2R61     CG2R61      CG331       HGA3
   18    16    17    47	 9 ;     CG2R61     CG2R61      CG331       HGA3
   18    16    17    48	 9 ;     CG2R61     CG2R61      CG331       HGA3
   18    16    17    49	 9 ;     CG2R61     CG2R61      CG331       HGA3
   16    18    19    20	 9 ;     CG2R61     CG2R61     CG2R61     CG2R61
   16    18    19    50	 9 ;     CG2R61     CG2R61     CG2R61      HGR61
   21    18    19    20	 9 ;      OG301     CG2R61     CG2R61     CG2R61
   21    18    19    50	 9 ;      OG301     CG2R61     CG2R61      HGR61
   19    18    21    22	 9 ;     CG2R61     CG2R61      OG301      CG331
   16    18    21    22	 9 ;     CG2R61     CG2R61      OG301      CG331
   18    19    20    14	 9 ;     CG2R61     CG2R61     CG2R61     CG2R61
   18    19    20    51	 9 ;     CG2R61     CG2R61     CG2R61      HGR61
   50    19    20    14	 9 ;      HGR61     CG2R61     CG2R61     CG2R61
   50    19    20    51	 9 ;      HGR61     CG2R61     CG2R61      HGR61
   18    21    22    52	 9 ;     CG2R61      OG301      CG331       HGA3
   18    21    22    53	 9 ;     CG2R61      OG301      CG331       HGA3
   18    21    22    54	 9 ;     CG2R61      OG301      CG331       HGA3
   29    23    24    25	 9 ;     CG2R61     CG2R61     CG2R61     CG2R61
   29    23    24    55	 9 ;     CG2R61     CG2R61     CG2R61      HGR61
    1    23    24    25	 9 ;     CG3C50     CG2R61     CG2R61     CG2R61
    1    23    24    55	 9 ;     CG3C50     CG2R61     CG2R61      HGR61
   24    23    29    28	 9 ;     CG2R61     CG2R61     CG2R61     CG2R61
   24    23    29    57	 9 ;     CG2R61     CG2R61     CG2R61      HGR61
    1    23    29    28	 9 ;     CG3C50     CG2R61     CG2R61     CG2R61
    1    23    29    57	 9 ;     CG3C50     CG2R61     CG2R61      HGR61
   23    24    25    26	 9 ;     CG2R61     CG2R61     CG2R61     CG2R66
   23    24    25    56	 9 ;     CG2R61     CG2R61     CG2R61      HGR62
   55    24    25    26	 9 ;      HGR61     CG2R61     CG2R61     CG2R66
   55    24    25    56	 9 ;      HGR61     CG2R61     CG2R61      HGR62
   24    25    26    27	 9 ;     CG2R61     CG2R61     CG2R66       FGR1
   24    25    26    28	 9 ;     CG2R61     CG2R61     CG2R66     CG2R61
   56    25    26    27	 9 ;      HGR62     CG2R61     CG2R66       FGR1
   56    25    26    28	 9 ;      HGR62     CG2R61     CG2R66     CG2R61
   27    26    28    30	 9 ;       FGR1     CG2R66     CG2R61     CG2DC1
   27    26    28    29	 9 ;       FGR1     CG2R66     CG2R61     CG2R61
   25    26    28    30	 9 ;     CG2R61     CG2R66     CG2R61     CG2DC1
   25    26    28    29	 9 ;     CG2R61     CG2R66     CG2R61     CG2R61
   26    28    30    35	 9 ;     CG2R66     CG2R61     CG2DC1     CG2D1O
   26    28    30    31	 9 ;     CG2R66     CG2R61     CG2DC1     CG2DC2
   29    28    30    35	 9 ;     CG2R61     CG2R61     CG2DC1     CG2D1O
   29    28    30    31	 9 ;     CG2R61     CG2R61     CG2DC1     CG2DC2
   26    28    29    23	 9 ;     CG2R66     CG2R61     CG2R61     CG2R61
   26    28    29    57	 9 ;     CG2R66     CG2R61     CG2R61      HGR61
   30    28    29    23	 9 ;     CG2DC1     CG2R61     CG2R61     CG2R61
   30    28    29    57	 9 ;     CG2DC1     CG2R61     CG2R61      HGR61
   31    30    35    34	 9 ;     CG2DC2     CG2DC1     CG2D1O      NG311
   31    30    35    62	 9 ;     CG2DC2     CG2DC1     CG2D1O       HGA4
   28    30    35    34	 9 ;     CG2R61     CG2DC1     CG2D1O      NG311
   28    30    35    62	 9 ;     CG2R61     CG2DC1     CG2D1O       HGA4
   35    30    31    32	 9 ;     CG2D1O     CG2DC1     CG2DC2     CG2DC2
   35    30    31    58	 9 ;     CG2D1O     CG2DC1     CG2DC2       HGA4
   28    30    31    32	 9 ;     CG2R61     CG2DC1     CG2DC2     CG2DC2
   28    30    31    58	 9 ;     CG2R61     CG2DC1     CG2DC2       HGA4
   30    31    32    33	 9 ;     CG2DC1     CG2DC2     CG2DC2      CG321
   30    31    32    59	 9 ;     CG2DC1     CG2DC2     CG2DC2       HGA4
   58    31    32    33	 9 ;       HGA4     CG2DC2     CG2DC2      CG321
   58    31    32    59	 9 ;       HGA4     CG2DC2     CG2DC2       HGA4
   31    32    33    34	 9 ;     CG2DC2     CG2DC2      CG321      NG311
   31    32    33    60	 9 ;     CG2DC2     CG2DC2      CG321       HGA2
   31    32    33    61	 9 ;     CG2DC2     CG2DC2      CG321       HGA2
   59    32    33    34	 9 ;       HGA4     CG2DC2      CG321      NG311
   59    32    33    60	 9 ;       HGA4     CG2DC2      CG321       HGA2
   59    32    33    61	 9 ;       HGA4     CG2DC2      CG321       HGA2
   32    33    34    36	 9 ;     CG2DC2      CG321      NG311     HGPAM1
   32    33    34    35	 9 ;     CG2DC2      CG321      NG311     CG2D1O
   60    33    34    36	 9 ;       HGA2      CG321      NG311     HGPAM1
   60    33    34    35	 9 ;       HGA2      CG321      NG311     CG2D1O
   61    33    34    36	 9 ;       HGA2      CG321      NG311     HGPAM1
   61    33    34    35	 9 ;       HGA2      CG321      NG311     CG2D1O
   36    34    35    30	 9 ;     HGPAM1      NG311     CG2D1O     CG2DC1
   36    34    35    62	 9 ;     HGPAM1      NG311     CG2D1O       HGA4
   33    34    35    30	 9 ;      CG321      NG311     CG2D1O     CG2DC1
   33    34    35    62	 9 ;      CG321      NG311     CG2D1O       HGA4

[ dihedrals ]
;	ai	  aj	ak	  al funct			  c0			c1			  c2			c3
   35    30    34    62	 2

