Gyas ROwers Mature At Cryogenic Speed
   62
    1LIG     C1    1  -1.308   0.316  -1.685
    1LIG     N1    2  -1.199   0.415  -1.642
    1LIG    HN1    3  -1.202   0.517  -1.647
    1LIG     C2    4  -1.101   0.342  -1.597
    1LIG     N2    5  -1.117   0.208  -1.605
    1LIG     C3    6  -1.239   0.177  -1.658
    1LIG     N3    7  -1.288   0.062  -1.684
    1LIG    HN2    8  -1.381   0.051  -1.724
    1LIG     C4    9  -1.204  -0.056  -1.653
    1LIG     C5   10  -1.059  -0.034  -1.609
    1LIG     F1   11  -0.976  -0.082  -1.707
    1LIG     F2   12  -1.034  -0.112  -1.500
    1LIG     C6   13  -1.017   0.108  -1.577
    1LIG     C7   14  -1.438   0.342  -1.602
    1LIG     C8   15  -1.434   0.430  -1.492
    1LIG     C9   16  -1.519   0.413  -1.380
    1LIG    C10   17  -1.488   0.497  -1.260
    1LIG    C11   18  -1.614   0.309  -1.383
    1LIG    C12   19  -1.628   0.231  -1.498
    1LIG    C13   20  -1.542   0.248  -1.607
    1LIG      O   21  -1.690   0.260  -1.280
    1LIG    C14   22  -1.810   0.326  -1.244
    1LIG    C15   23  -1.347   0.345  -1.833
    1LIG    C16   24  -1.385   0.234  -1.911
    1LIG    C17   25  -1.374   0.237  -2.049
    1LIG    C18   26  -1.331   0.353  -2.112
    1LIG     F3   27  -1.309   0.346  -2.244
    1LIG    C19   28  -1.307   0.472  -2.041
    1LIG    C20   29  -1.317   0.465  -1.900
    1LIG    C21   30  -1.266   0.597  -2.111
    1LIG    C22   31  -1.139   0.654  -2.098
    1LIG    C23   32  -1.105   0.770  -2.167
    1LIG    C24   33  -1.199   0.828  -2.250
    1LIG     N4   34  -1.323   0.779  -2.265
    1LIG    C25   35  -1.353   0.666  -2.196
    1LIG    HN3   36  -1.391   0.824  -2.326
    1LIG     N5   37  -0.990   0.396  -1.543
    1LIG     H1   38  -1.000   0.436  -1.450
    1LIG     H2   39  -0.913   0.331  -1.546
    1LIG     H3   40  -1.007   0.393  -1.589
    1LIG     H4   41  -1.278   0.078  -1.663
    1LIG     H5   42  -1.202  -0.117  -1.741
    1LIG     H6   43  -1.251  -0.100  -1.567
    1LIG     H7   44  -0.930   0.131  -1.635
    1LIG     H8   45  -0.998   0.112  -1.472
    1LIG     H9   46  -1.368   0.509  -1.494
    1LIG    H10   47  -1.413   0.568  -1.285
    1LIG    H11   48  -1.454   0.435  -1.181
    1LIG    H12   49  -1.577   0.549  -1.229
    1LIG    H13   50  -1.702   0.160  -1.503
    1LIG    H14   51  -1.556   0.191  -1.692
    1LIG    H15   52  -1.856   0.274  -1.163
    1LIG    H16   53  -1.876   0.327  -1.328
    1LIG    H17   54  -1.788   0.426  -1.215
    1LIG    H18   55  -1.423   0.149  -1.865
    1LIG    H19   56  -1.397   0.153  -2.105
    1LIG    H20   57  -1.301   0.551  -1.844
    1LIG    H21   58  -1.069   0.609  -2.036
    1LIG    H22   59  -1.011   0.812  -2.157
    1LIG    H23   60  -1.212   0.928  -2.214
    1LIG    H24   61  -1.157   0.810  -2.346
    1LIG    H25   62  -1.449   0.628  -2.207
   0.00000   0.00000   0.00000
