God Rules Over Mankind, Animals, Cosmos and Such
   68
    1LIG     N1    1  -1.791   0.634  -1.647
    1LIG     H1    2  -1.853   0.608  -1.725
    1LIG     H2    3  -1.696   0.618  -1.684
    1LIG     C1    4  -1.806   0.787  -1.626
    1LIG     C2    5  -1.663   0.849  -1.634
    1LIG     O1    6  -1.631   0.904  -1.504
    1LIG     H3    7  -1.623   1.001  -1.509
    1LIG     C3    8  -1.548   0.761  -1.695
    1LIG     N2    9  -1.526   0.801  -1.835
    1LIG     C4   10  -1.576   0.731  -1.943
    1LIG     O2   11  -1.658   0.643  -1.933
    1LIG     C5   12  -1.523   0.786  -2.074
    1LIG     H4   13  -1.454   0.870  -1.853
    1LIG     C6   14  -1.412   0.780  -1.616
    1LIG     C7   15  -1.307   0.672  -1.634
    1LIG     C8   16  -1.339   0.546  -1.688
    1LIG     C9   17  -1.243   0.445  -1.696
    1LIG     F1   18  -1.277   0.325  -1.747
    1LIG    C10   19  -1.113   0.465  -1.653
    1LIG    C11   20  -1.079   0.591  -1.607
    1LIG    C12   21  -1.173   0.695  -1.600
    1LIG     F2   22  -0.953   0.615  -1.566
    1LIG    C13   23  -1.813   0.535  -1.530
    1LIG    C14   24  -1.954   0.472  -1.552
    1LIG    C15   25  -1.999   0.386  -1.433
    1LIG    C16   26  -2.006   0.469  -1.305
    1LIG    C17   27  -1.878   0.547  -1.278
    1LIG    C18   28  -1.825   0.622  -1.401
    1LIG    C19   29  -1.704   0.426  -1.531
    1LIG    C20   30  -1.585   0.440  -1.454
    1LIG    C21   31  -1.492   0.335  -1.442
    1LIG    C22   32  -1.514   0.217  -1.513
    1LIG    C23   33  -1.625   0.205  -1.596
    1LIG    C24   34  -1.719   0.307  -1.604
    1LIG    C25   35  -1.378   0.343  -1.352
    1LIG    C26   36  -1.289   0.452  -1.327
    1LIG    C27   37  -1.196   0.408  -1.235
    1LIG     O3   38  -1.223   0.280  -1.200
    1LIG    C28   39  -1.334   0.242  -1.269
    1LIG    HC2   40  -1.869   0.829  -1.705
    1LIG    HC3   41  -1.850   0.807  -1.529
    1LIG     HC   42  -1.672   0.935  -1.700
    1LIG    HC1   43  -1.577   0.656  -1.692
    1LIG    HC4   44  -1.368   0.875  -1.648
    1LIG    HC5   45  -1.436   0.788  -1.510
    1LIG    HC6   46  -1.440   0.527  -1.722
    1LIG    HC7   47  -1.040   0.385  -1.655
    1LIG    HC8   48  -1.142   0.794  -1.568
    1LIG    HC9   49  -2.027   0.552  -1.567
    1LIG   HC10   50  -1.952   0.409  -1.641
    1LIG   HC11   51  -2.097   0.345  -1.453
    1LIG   HC12   52  -1.928   0.305  -1.419
    1LIG   HC13   53  -2.023   0.402  -1.221
    1LIG   HC14   54  -2.089   0.539  -1.312
    1LIG   HC15   55  -1.898   0.620  -1.199
    1LIG   HC16   56  -1.801   0.478  -1.243
    1LIG   HC17   57  -1.726   0.661  -1.378
    1LIG   HC18   58  -1.891   0.706  -1.423
    1LIG   HC19   59  -1.566   0.534  -1.404
    1LIG   HC20   60  -1.444   0.134  -1.504
    1LIG   HC21   61  -1.638   0.115  -1.656
    1LIG   HC22   62  -1.806   0.294  -1.666
    1LIG   HC23   63  -1.293   0.550  -1.372
    1LIG   HC24   64  -1.114   0.467  -1.197
    1LIG   HC25   65  -1.382   0.146  -1.260
    1LIG   HC26   66  -1.564   0.729  -2.157
    1LIG   HC27   67  -1.414   0.779  -2.075
    1LIG   HC28   68  -1.553   0.891  -2.084
   0.00000   0.00000   0.00000
