; Created by cgenff_charmm2gmx.py

[ moleculetype ]
; Name			   nrexcl
LIG				 3

[ atoms ]
;	 nr		  type	resnr residue  atom   cgnr	   charge		mass  typeB    chargeB		massB
; residue	 1 LIG rtp LIG q	qsum
     1      CG311      1    LIG     C1      1      0.047     12.011   ;
     2      NG2S1      1    LIG     N1      2     -0.412     14.007   ;
     3      CG2O1      1    LIG     C2      3      0.407     12.011   ;
     4      OG2D1      1    LIG     O1      4     -0.490     15.999   ;
     5       HGP1      1    LIG     H1      5      0.279      1.008   ;
     6     CG2DC1      1    LIG     C3      6      1.053     12.011   ;
     7      NG2P1      1    LIG     N2      7     -0.305     14.007   ;
     8      CG2O1      1    LIG     C4      8      0.755     12.011   ;
     9      OG2D1      1    LIG     O2      9     -0.474     15.999   ;
    10       HGP2      1    LIG     H2     10      0.414      1.008   ;
    11      CG314      1    LIG     C5     11      0.393     12.011   ;
    12      NG3P3      1    LIG     N3     12     -0.299     14.007   ;
    13       HGP2      1    LIG     H3     13      0.293      1.008   ;
    14       HGP2      1    LIG     H4     14      0.293      1.008   ;
    15       HGP2      1    LIG     H5     15      0.293      1.008   ;
    16      CG321      1    LIG     C6     16     -0.048     12.011   ;
    17      NG2S1      1    LIG     N4     17     -0.733     14.007   ;
    18      CG2O1      1    LIG     C7     18      0.450     12.011   ;
    19      OG2D1      1    LIG     O3     19     -0.425     15.999   ;
    20       HGP1      1    LIG     H6     20      0.450      1.008   ;
    21     CG3C51      1    LIG     C8     21      0.002     12.011   ;
    22     NG3C51      1    LIG     N5     22     -0.318     14.007   ;
    23     NG2R50      1    LIG     N6     23     -0.081     14.007   ;
    24       HGP1      1    LIG    HN1     24      0.319      1.008   ;
    25     NG2R50      1    LIG     N7     25     -0.081     14.007   ;
    26     NG3C51      1    LIG     N8     26     -0.318     14.007   ;
    27       HGP1      1    LIG    HN2     27      0.319      1.008   ;
    28      CG311      1    LIG     C9     28     -0.237     12.011   ;
    29      CG331      1    LIG    C10     29     -0.324     12.011   ;
    30      CG331      1    LIG    C11     30     -0.324     12.011   ;
    31      CG321      1    LIG    C12     31     -0.178     12.011   ;
    32      CG311      1    LIG    C13     32     -0.099     12.011   ;
    33      CG331      1    LIG    C14     33     -0.268     12.011   ;
    34      CG331      1    LIG    C15     34     -0.268     12.011   ;
    35      CG2O1      1    LIG    C16     35      0.502     12.011   ;
    36      OG2D1      1    LIG     O4     36     -0.513     15.999   ;
    37      NG2S1      1    LIG     N9     37     -0.446     14.007   ;
    38       HGP1      1    LIG     H7     38      0.297      1.008   ;
    39      CG321      1    LIG    C17     39     -0.101     12.011   ;
    40      CG301      1    LIG    C18     40      0.178     12.011   ;
    41      CG321      1    LIG    C19     41     -0.229     12.011   ;
    42      CG321      1    LIG    C20     42     -0.130     12.011   ;
    43     CG2R61      1    LIG    C21     43      0.010     12.011   ;
    44     CG2R61      1    LIG    C22     44     -0.123     12.011   ;
    45     CG2R61      1    LIG    C23     45     -0.112     12.011   ;
    46     CG2R61      1    LIG    C24     46     -0.116     12.011   ;
    47     CG2R61      1    LIG    C25     47     -0.112     12.011   ;
    48     CG2R61      1    LIG    C26     48     -0.123     12.011   ;
    49      CG2O1      1    LIG    C27     49      0.608     12.011   ;
    50      OG2D1      1    LIG     O5     50     -0.542     15.999   ;
    51      NG2S1      1    LIG    N10     51     -0.515     14.007   ;
    52       HGP1      1    LIG     H8     52      0.325      1.008   ;
    53     CG2R61      1    LIG    C28     53      0.141     12.011   ;
    54     CG2R61      1    LIG    C29     54     -0.125     12.011   ;
    55     CG2R61      1    LIG    C30     55     -0.099     12.011   ;
    56     CG2R61      1    LIG    C31     56     -0.122     12.011   ;
    57     CG2R61      1    LIG    C32     57     -0.110     12.011   ;
    58     CG2R61      1    LIG    C33     58     -0.119     12.011   ;
    59      CG2O3      1    LIG    C34     59      0.622     12.011   ;
    60      OG2D2      1    LIG     O6     60     -0.757     15.999   ;
    61      OG2D2      1    LIG     O7     61     -0.757     15.999   ;
    62      OG311      1    LIG     O8     62     -0.468     15.999   ;
    63       HGP1      1    LIG     H9     63      0.325      1.008   ;
    64       HGA1      1    LIG     HC     64      0.090      1.008   ;
    65       HGA1      1    LIG    HC1     65      0.090      1.008   ;
    66       HGA2      1    LIG    HC2     66      0.090      1.008   ;
    67       HGA2      1    LIG    HC3     67      0.090      1.008   ;
    68       HGA1      1    LIG    HC4     68      0.090      1.008   ;
    69       HGA3      1    LIG    HC5     69      0.090      1.008   ;
    70       HGA3      1    LIG    HC6     70      0.090      1.008   ;
    71       HGA3      1    LIG    HC7     71      0.090      1.008   ;
    72       HGA3      1    LIG    HC8     72      0.090      1.008   ;
    73       HGA3      1    LIG    HC9     73      0.090      1.008   ;
    74       HGA3      1    LIG   HC10     74      0.090      1.008   ;
    75       HGA2      1    LIG   HC11     75      0.090      1.008   ;
    76       HGA2      1    LIG   HC12     76      0.090      1.008   ;
    77       HGA1      1    LIG   HC13     77      0.090      1.008   ;
    78       HGA3      1    LIG   HC14     78      0.090      1.008   ;
    79       HGA3      1    LIG   HC15     79      0.090      1.008   ;
    80       HGA3      1    LIG   HC16     80      0.090      1.008   ;
    81       HGA3      1    LIG   HC17     81      0.090      1.008   ;
    82       HGA3      1    LIG   HC18     82      0.090      1.008   ;
    83       HGA3      1    LIG   HC19     83      0.090      1.008   ;
    84       HGA2      1    LIG   HC20     84      0.090      1.008   ;
    85       HGA2      1    LIG   HC21     85      0.090      1.008   ;
    86       HGA2      1    LIG   HC22     86      0.090      1.008   ;
    87       HGA2      1    LIG   HC23     87      0.090      1.008   ;
    88       HGA2      1    LIG   HC24     88      0.090      1.008   ;
    89       HGA2      1    LIG   HC25     89      0.090      1.008   ;
    90      HGR61      1    LIG   HC26     90      0.116      1.008   ;
    91      HGR61      1    LIG   HC27     91      0.116      1.008   ;
    92      HGR61      1    LIG   HC28     92      0.116      1.008   ;
    93      HGR61      1    LIG   HC29     93      0.116      1.008   ;
    94      HGR61      1    LIG   HC30     94      0.116      1.008   ;
    95      HGR61      1    LIG   HC31     95      0.116      1.008   ;
    96      HGR61      1    LIG   HC32     96      0.116      1.008   ;
    97      HGR61      1    LIG   HC33     97      0.116      1.008   ;
    98      HGR61      1    LIG   HC34     98      0.116      1.008   ;
    99       HGA1      1    LIG    H47     99      0.142      1.008   ;

[ bonds ]
;	ai	  aj funct			  c0			c1			  c2			c3
    1     2	 1 ;       CG311      NG2S1
    1    31	 1 ;       CG311      CG321
    1    35	 1 ;       CG311      CG2O1
    1    64	 1 ;       CG311       HGA1
    2     3	 1 ;       NG2S1      CG2O1
    2     5	 1 ;       NG2S1       HGP1
    3     4	 1 ;       CG2O1      OG2D1
    3     6	 1 ;       CG2O1     CG2DC1
    6    28	 1 ;      CG2DC1      CG311
    6     7	 1 ;      CG2DC1      NG2P1
    7     8	 1 ;       NG2P1      CG2O1
    7    10	 1 ;       NG2P1       HGP2
    8     9	 1 ;       CG2O1      OG2D1
    8    11	 1 ;       CG2O1      CG314
   11    12	 1 ;       CG314      NG3P3
   11    16	 1 ;       CG314      CG321
   11    65	 1 ;       CG314       HGA1
   12    15	 1 ;       NG3P3       HGP2
   12    13	 1 ;       NG3P3       HGP2
   12    14	 1 ;       NG3P3       HGP2
   16    17	 1 ;       CG321      NG2S1
   16    66	 1 ;       CG321       HGA2
   16    67	 1 ;       CG321       HGA2
   17    20	 1 ;       NG2S1       HGP1
   17    18	 1 ;       NG2S1      CG2O1
   18    21	 1 ;       CG2O1     CG3C51
   18    19	 1 ;       CG2O1      OG2D1
   21    22	 1 ;      CG3C51     NG3C51
   21    26	 1 ;      CG3C51     NG3C51
   21    99	 1 ;      CG3C51       HGA1
   22    24	 1 ;      NG3C51       HGP1
   22    23	 1 ;      NG3C51     NG2R50
   23    25	 1 ;      NG2R50     NG2R50
   25    26	 1 ;      NG2R50     NG3C51
   26    27	 1 ;      NG3C51       HGP1
   28    29	 1 ;       CG311      CG331
   28    30	 1 ;       CG311      CG331
   28    68	 1 ;       CG311       HGA1
   29    69	 1 ;       CG331       HGA3
   29    70	 1 ;       CG331       HGA3
   29    71	 1 ;       CG331       HGA3
   30    72	 1 ;       CG331       HGA3
   30    73	 1 ;       CG331       HGA3
   30    74	 1 ;       CG331       HGA3
   31    32	 1 ;       CG321      CG311
   31    75	 1 ;       CG321       HGA2
   31    76	 1 ;       CG321       HGA2
   32    34	 1 ;       CG311      CG331
   32    33	 1 ;       CG311      CG331
   32    77	 1 ;       CG311       HGA1
   33    78	 1 ;       CG331       HGA3
   33    79	 1 ;       CG331       HGA3
   33    80	 1 ;       CG331       HGA3
   34    81	 1 ;       CG331       HGA3
   34    82	 1 ;       CG331       HGA3
   34    83	 1 ;       CG331       HGA3
   35    37	 1 ;       CG2O1      NG2S1
   35    36	 1 ;       CG2O1      OG2D1
   37    38	 1 ;       NG2S1       HGP1
   37    39	 1 ;       NG2S1      CG321
   39    40	 1 ;       CG321      CG301
   39    84	 1 ;       CG321       HGA2
   39    85	 1 ;       CG321       HGA2
   40    49	 1 ;       CG301      CG2O1
   40    62	 1 ;       CG301      OG311
   40    41	 1 ;       CG301      CG321
   41    42	 1 ;       CG321      CG321
   41    86	 1 ;       CG321       HGA2
   41    87	 1 ;       CG321       HGA2
   42    43	 1 ;       CG321     CG2R61
   42    88	 1 ;       CG321       HGA2
   42    89	 1 ;       CG321       HGA2
   43    44	 1 ;      CG2R61     CG2R61
   43    48	 1 ;      CG2R61     CG2R61
   44    45	 1 ;      CG2R61     CG2R61
   44    90	 1 ;      CG2R61      HGR61
   45    46	 1 ;      CG2R61     CG2R61
   45    91	 1 ;      CG2R61      HGR61
   46    47	 1 ;      CG2R61     CG2R61
   46    92	 1 ;      CG2R61      HGR61
   47    48	 1 ;      CG2R61     CG2R61
   47    93	 1 ;      CG2R61      HGR61
   48    94	 1 ;      CG2R61      HGR61
   49    50	 1 ;       CG2O1      OG2D1
   49    51	 1 ;       CG2O1      NG2S1
   51    53	 1 ;       NG2S1     CG2R61
   51    52	 1 ;       NG2S1       HGP1
   53    58	 1 ;      CG2R61     CG2R61
   53    54	 1 ;      CG2R61     CG2R61
   54    55	 1 ;      CG2R61     CG2R61
   54    95	 1 ;      CG2R61      HGR61
   55    56	 1 ;      CG2R61     CG2R61
   55    59	 1 ;      CG2R61      CG2O3
   56    57	 1 ;      CG2R61     CG2R61
   56    96	 1 ;      CG2R61      HGR61
   57    58	 1 ;      CG2R61     CG2R61
   57    97	 1 ;      CG2R61      HGR61
   58    98	 1 ;      CG2R61      HGR61
   59    60	 1 ;       CG2O3      OG2D2
   59    61	 1 ;       CG2O3      OG2D2
   62    63	 1 ;       OG311       HGP1

[ pairs ]
;	ai	  aj funct			  c0			c1			  c2			c3
    1     4	 1
    1     6	 1
    1    34	 1
    1    33	 1
    1    77	 1
    1    38	 1
    1    39	 1
    2    32	 1
    2    75	 1
    2    76	 1
    2    37	 1
    2    36	 1
    2    28	 1
    2     7	 1
    3    31	 1
    3    35	 1
    3    64	 1
    3    29	 1
    3    30	 1
    3    68	 1
    3     8	 1
    3    10	 1
    4     5	 1
    4    28	 1
    4     7	 1
    5    31	 1
    5    35	 1
    5    64	 1
    5     6	 1
    6     9	 1
    6    11	 1
    6    69	 1
    6    70	 1
    6    71	 1
    6    72	 1
    6    73	 1
    6    74	 1
    7    29	 1
    7    30	 1
    7    68	 1
    7    12	 1
    7    16	 1
    7    65	 1
    8    28	 1
    8    15	 1
    8    13	 1
    8    14	 1
    8    17	 1
    8    66	 1
    8    67	 1
    9    10	 1
    9    12	 1
    9    16	 1
    9    65	 1
   10    28	 1
   10    11	 1
   11    20	 1
   11    18	 1
   12    17	 1
   12    66	 1
   12    67	 1
   13    16	 1
   13    65	 1
   14    16	 1
   14    65	 1
   15    16	 1
   15    65	 1
   16    21	 1
   16    19	 1
   17    65	 1
   17    22	 1
   17    26	 1
   17    99	 1
   18    66	 1
   18    67	 1
   18    24	 1
   18    23	 1
   18    25	 1
   18    27	 1
   19    20	 1
   19    22	 1
   19    26	 1
   19    99	 1
   20    66	 1
   20    67	 1
   20    21	 1
   22    27	 1
   23    99	 1
   23    27	 1
   24    26	 1
   24    99	 1
   24    25	 1
   25    99	 1
   27    99	 1
   29    72	 1
   29    73	 1
   29    74	 1
   30    69	 1
   30    70	 1
   30    71	 1
   31    37	 1
   31    36	 1
   31    81	 1
   31    82	 1
   31    83	 1
   31    78	 1
   31    79	 1
   31    80	 1
   32    35	 1
   32    64	 1
   33    75	 1
   33    76	 1
   33    81	 1
   33    82	 1
   33    83	 1
   34    75	 1
   34    76	 1
   34    78	 1
   34    79	 1
   34    80	 1
   35    75	 1
   35    76	 1
   35    40	 1
   35    84	 1
   35    85	 1
   36    64	 1
   36    38	 1
   36    39	 1
   37    64	 1
   37    49	 1
   37    62	 1
   37    41	 1
   38    40	 1
   38    84	 1
   38    85	 1
   39    50	 1
   39    51	 1
   39    63	 1
   39    42	 1
   39    86	 1
   39    87	 1
   40    43	 1
   40    88	 1
   40    89	 1
   40    53	 1
   40    52	 1
   41    84	 1
   41    85	 1
   41    50	 1
   41    51	 1
   41    63	 1
   41    44	 1
   41    48	 1
   42    49	 1
   42    62	 1
   42    45	 1
   42    90	 1
   42    47	 1
   42    94	 1
   43    86	 1
   43    87	 1
   43    46	 1
   43    91	 1
   43    93	 1
   44    88	 1
   44    89	 1
   44    47	 1
   44    94	 1
   44    92	 1
   45    48	 1
   45    93	 1
   46    90	 1
   46    94	 1
   47    91	 1
   48    88	 1
   48    89	 1
   48    90	 1
   48    92	 1
   49    84	 1
   49    85	 1
   49    63	 1
   49    86	 1
   49    87	 1
   49    58	 1
   49    54	 1
   50    62	 1
   50    53	 1
   50    52	 1
   51    62	 1
   51    57	 1
   51    98	 1
   51    55	 1
   51    95	 1
   52    58	 1
   52    54	 1
   53    56	 1
   53    59	 1
   53    97	 1
   54    57	 1
   54    98	 1
   54    96	 1
   54    60	 1
   54    61	 1
   55    58	 1
   55    97	 1
   56    95	 1
   56    60	 1
   56    61	 1
   56    98	 1
   57    59	 1
   58    95	 1
   58    96	 1
   59    95	 1
   59    96	 1
   62    84	 1
   62    85	 1
   62    86	 1
   62    87	 1
   64    75	 1
   64    76	 1
   65    66	 1
   65    67	 1
   68    69	 1
   68    70	 1
   68    71	 1
   68    72	 1
   68    73	 1
   68    74	 1
   75    77	 1
   76    77	 1
   77    81	 1
   77    82	 1
   77    83	 1
   77    78	 1
   77    79	 1
   77    80	 1
   86    88	 1
   86    89	 1
   87    88	 1
   87    89	 1
   90    91	 1
   91    92	 1
   92    93	 1
   93    94	 1
   96    97	 1
   97    98	 1

[ angles ]
;	ai	  aj	ak funct			c0			  c1			c2			  c3
    2     1    31	5 ;      NG2S1      CG311      CG321
    2     1    35	5 ;      NG2S1      CG311      CG2O1
    2     1    64	5 ;      NG2S1      CG311       HGA1
   31     1    35	5 ;      CG321      CG311      CG2O1
   31     1    64	5 ;      CG321      CG311       HGA1
   35     1    64	5 ;      CG2O1      CG311       HGA1
    3     2     5	5 ;      CG2O1      NG2S1       HGP1
    3     2     1	5 ;      CG2O1      NG2S1      CG311
    5     2     1	5 ;       HGP1      NG2S1      CG311
    4     3     6	5 ;      OG2D1      CG2O1     CG2DC1
    4     3     2	5 ;      OG2D1      CG2O1      NG2S1
    6     3     2	5 ;     CG2DC1      CG2O1      NG2S1
   28     6     3	5 ;      CG311     CG2DC1      CG2O1
   28     6     7	5 ;      CG311     CG2DC1      NG2P1
    3     6     7	5 ;      CG2O1     CG2DC1      NG2P1
    8     7     6	5 ;      CG2O1      NG2P1     CG2DC1
    8     7    10	5 ;      CG2O1      NG2P1       HGP2
    6     7    10	5 ;     CG2DC1      NG2P1       HGP2
    9     8    11	5 ;      OG2D1      CG2O1      CG314
    9     8     7	5 ;      OG2D1      CG2O1      NG2P1
   11     8     7	5 ;      CG314      CG2O1      NG2P1
   12    11     8	5 ;      NG3P3      CG314      CG2O1
   12    11    16	5 ;      NG3P3      CG314      CG321
   12    11    65	5 ;      NG3P3      CG314       HGA1
    8    11    16	5 ;      CG2O1      CG314      CG321
    8    11    65	5 ;      CG2O1      CG314       HGA1
   16    11    65	5 ;      CG321      CG314       HGA1
   15    12    13	5 ;       HGP2      NG3P3       HGP2
   15    12    14	5 ;       HGP2      NG3P3       HGP2
   15    12    11	5 ;       HGP2      NG3P3      CG314
   13    12    14	5 ;       HGP2      NG3P3       HGP2
   13    12    11	5 ;       HGP2      NG3P3      CG314
   14    12    11	5 ;       HGP2      NG3P3      CG314
   11    16    17	5 ;      CG314      CG321      NG2S1
   11    16    66	5 ;      CG314      CG321       HGA2
   11    16    67	5 ;      CG314      CG321       HGA2
   17    16    66	5 ;      NG2S1      CG321       HGA2
   17    16    67	5 ;      NG2S1      CG321       HGA2
   66    16    67	5 ;       HGA2      CG321       HGA2
   20    17    16	5 ;       HGP1      NG2S1      CG321
   20    17    18	5 ;       HGP1      NG2S1      CG2O1
   16    17    18	5 ;      CG321      NG2S1      CG2O1
   17    18    21	5 ;      NG2S1      CG2O1     CG3C51
   17    18    19	5 ;      NG2S1      CG2O1      OG2D1
   21    18    19	5 ;     CG3C51      CG2O1      OG2D1
   22    21    18	5 ;     NG3C51     CG3C51      CG2O1
   22    21    26	5 ;     NG3C51     CG3C51     NG3C51
   22    21    99	5 ;     NG3C51     CG3C51       HGA1
   18    21    26	5 ;      CG2O1     CG3C51     NG3C51
   18    21    99	5 ;      CG2O1     CG3C51       HGA1
   26    21    99	5 ;     NG3C51     CG3C51       HGA1
   24    22    23	5 ;       HGP1     NG3C51     NG2R50
   24    22    21	5 ;       HGP1     NG3C51     CG3C51
   23    22    21	5 ;     NG2R50     NG3C51     CG3C51
   22    23    25	5 ;     NG3C51     NG2R50     NG2R50
   23    25    26	5 ;     NG2R50     NG2R50     NG3C51
   21    26    25	5 ;     CG3C51     NG3C51     NG2R50
   21    26    27	5 ;     CG3C51     NG3C51       HGP1
   25    26    27	5 ;     NG2R50     NG3C51       HGP1
   29    28     6	5 ;      CG331      CG311     CG2DC1
   29    28    30	5 ;      CG331      CG311      CG331
   29    28    68	5 ;      CG331      CG311       HGA1
    6    28    30	5 ;     CG2DC1      CG311      CG331
    6    28    68	5 ;     CG2DC1      CG311       HGA1
   30    28    68	5 ;      CG331      CG311       HGA1
   28    29    69	5 ;      CG311      CG331       HGA3
   28    29    70	5 ;      CG311      CG331       HGA3
   28    29    71	5 ;      CG311      CG331       HGA3
   69    29    70	5 ;       HGA3      CG331       HGA3
   69    29    71	5 ;       HGA3      CG331       HGA3
   70    29    71	5 ;       HGA3      CG331       HGA3
   28    30    72	5 ;      CG311      CG331       HGA3
   28    30    73	5 ;      CG311      CG331       HGA3
   28    30    74	5 ;      CG311      CG331       HGA3
   72    30    73	5 ;       HGA3      CG331       HGA3
   72    30    74	5 ;       HGA3      CG331       HGA3
   73    30    74	5 ;       HGA3      CG331       HGA3
   32    31     1	5 ;      CG311      CG321      CG311
   32    31    75	5 ;      CG311      CG321       HGA2
   32    31    76	5 ;      CG311      CG321       HGA2
    1    31    75	5 ;      CG311      CG321       HGA2
    1    31    76	5 ;      CG311      CG321       HGA2
   75    31    76	5 ;       HGA2      CG321       HGA2
   34    32    31	5 ;      CG331      CG311      CG321
   34    32    33	5 ;      CG331      CG311      CG331
   34    32    77	5 ;      CG331      CG311       HGA1
   31    32    33	5 ;      CG321      CG311      CG331
   31    32    77	5 ;      CG321      CG311       HGA1
   33    32    77	5 ;      CG331      CG311       HGA1
   32    33    78	5 ;      CG311      CG331       HGA3
   32    33    79	5 ;      CG311      CG331       HGA3
   32    33    80	5 ;      CG311      CG331       HGA3
   78    33    79	5 ;       HGA3      CG331       HGA3
   78    33    80	5 ;       HGA3      CG331       HGA3
   79    33    80	5 ;       HGA3      CG331       HGA3
   32    34    81	5 ;      CG311      CG331       HGA3
   32    34    82	5 ;      CG311      CG331       HGA3
   32    34    83	5 ;      CG311      CG331       HGA3
   81    34    82	5 ;       HGA3      CG331       HGA3
   81    34    83	5 ;       HGA3      CG331       HGA3
   82    34    83	5 ;       HGA3      CG331       HGA3
    1    35    37	5 ;      CG311      CG2O1      NG2S1
    1    35    36	5 ;      CG311      CG2O1      OG2D1
   37    35    36	5 ;      NG2S1      CG2O1      OG2D1
   38    37    35	5 ;       HGP1      NG2S1      CG2O1
   38    37    39	5 ;       HGP1      NG2S1      CG321
   35    37    39	5 ;      CG2O1      NG2S1      CG321
   37    39    40	5 ;      NG2S1      CG321      CG301
   37    39    84	5 ;      NG2S1      CG321       HGA2
   37    39    85	5 ;      NG2S1      CG321       HGA2
   40    39    84	5 ;      CG301      CG321       HGA2
   40    39    85	5 ;      CG301      CG321       HGA2
   84    39    85	5 ;       HGA2      CG321       HGA2
   49    40    39	5 ;      CG2O1      CG301      CG321
   49    40    62	5 ;      CG2O1      CG301      OG311
   49    40    41	5 ;      CG2O1      CG301      CG321
   39    40    62	5 ;      CG321      CG301      OG311
   39    40    41	5 ;      CG321      CG301      CG321
   62    40    41	5 ;      OG311      CG301      CG321
   40    41    42	5 ;      CG301      CG321      CG321
   40    41    86	5 ;      CG301      CG321       HGA2
   40    41    87	5 ;      CG301      CG321       HGA2
   42    41    86	5 ;      CG321      CG321       HGA2
   42    41    87	5 ;      CG321      CG321       HGA2
   86    41    87	5 ;       HGA2      CG321       HGA2
   41    42    43	5 ;      CG321      CG321     CG2R61
   41    42    88	5 ;      CG321      CG321       HGA2
   41    42    89	5 ;      CG321      CG321       HGA2
   43    42    88	5 ;     CG2R61      CG321       HGA2
   43    42    89	5 ;     CG2R61      CG321       HGA2
   88    42    89	5 ;       HGA2      CG321       HGA2
   42    43    44	5 ;      CG321     CG2R61     CG2R61
   42    43    48	5 ;      CG321     CG2R61     CG2R61
   44    43    48	5 ;     CG2R61     CG2R61     CG2R61
   43    44    45	5 ;     CG2R61     CG2R61     CG2R61
   43    44    90	5 ;     CG2R61     CG2R61      HGR61
   45    44    90	5 ;     CG2R61     CG2R61      HGR61
   44    45    46	5 ;     CG2R61     CG2R61     CG2R61
   44    45    91	5 ;     CG2R61     CG2R61      HGR61
   46    45    91	5 ;     CG2R61     CG2R61      HGR61
   45    46    47	5 ;     CG2R61     CG2R61     CG2R61
   45    46    92	5 ;     CG2R61     CG2R61      HGR61
   47    46    92	5 ;     CG2R61     CG2R61      HGR61
   48    47    46	5 ;     CG2R61     CG2R61     CG2R61
   48    47    93	5 ;     CG2R61     CG2R61      HGR61
   46    47    93	5 ;     CG2R61     CG2R61      HGR61
   43    48    47	5 ;     CG2R61     CG2R61     CG2R61
   43    48    94	5 ;     CG2R61     CG2R61      HGR61
   47    48    94	5 ;     CG2R61     CG2R61      HGR61
   50    49    51	5 ;      OG2D1      CG2O1      NG2S1
   50    49    40	5 ;      OG2D1      CG2O1      CG301
   51    49    40	5 ;      NG2S1      CG2O1      CG301
   53    51    49	5 ;     CG2R61      NG2S1      CG2O1
   53    51    52	5 ;     CG2R61      NG2S1       HGP1
   49    51    52	5 ;      CG2O1      NG2S1       HGP1
   58    53    54	5 ;     CG2R61     CG2R61     CG2R61
   58    53    51	5 ;     CG2R61     CG2R61      NG2S1
   54    53    51	5 ;     CG2R61     CG2R61      NG2S1
   55    54    53	5 ;     CG2R61     CG2R61     CG2R61
   55    54    95	5 ;     CG2R61     CG2R61      HGR61
   53    54    95	5 ;     CG2R61     CG2R61      HGR61
   56    55    59	5 ;     CG2R61     CG2R61      CG2O3
   56    55    54	5 ;     CG2R61     CG2R61     CG2R61
   59    55    54	5 ;      CG2O3     CG2R61     CG2R61
   57    56    55	5 ;     CG2R61     CG2R61     CG2R61
   57    56    96	5 ;     CG2R61     CG2R61      HGR61
   55    56    96	5 ;     CG2R61     CG2R61      HGR61
   56    57    58	5 ;     CG2R61     CG2R61     CG2R61
   56    57    97	5 ;     CG2R61     CG2R61      HGR61
   58    57    97	5 ;     CG2R61     CG2R61      HGR61
   57    58    53	5 ;     CG2R61     CG2R61     CG2R61
   57    58    98	5 ;     CG2R61     CG2R61      HGR61
   53    58    98	5 ;     CG2R61     CG2R61      HGR61
   55    59    60	5 ;     CG2R61      CG2O3      OG2D2
   55    59    61	5 ;     CG2R61      CG2O3      OG2D2
   60    59    61	5 ;      OG2D2      CG2O3      OG2D2
   40    62    63	5 ;      CG301      OG311       HGP1

[ dihedrals ]
;	ai	  aj	ak	  al funct			  c0			c1			  c2			c3			  c4			c5
   31     1     2     3	 9 ;      CG321      CG311      NG2S1      CG2O1
   31     1     2     5	 9 ;      CG321      CG311      NG2S1       HGP1
   35     1     2     3	 9 ;      CG2O1      CG311      NG2S1      CG2O1
   35     1     2     5	 9 ;      CG2O1      CG311      NG2S1       HGP1
   64     1     2     3	 9 ;       HGA1      CG311      NG2S1      CG2O1
   64     1     2     5	 9 ;       HGA1      CG311      NG2S1       HGP1
    2     1    31    32	 9 ;      NG2S1      CG311      CG321      CG311
    2     1    31    75	 9 ;      NG2S1      CG311      CG321       HGA2
    2     1    31    76	 9 ;      NG2S1      CG311      CG321       HGA2
   35     1    31    32	 9 ;      CG2O1      CG311      CG321      CG311
   35     1    31    75	 9 ;      CG2O1      CG311      CG321       HGA2
   35     1    31    76	 9 ;      CG2O1      CG311      CG321       HGA2
   64     1    31    32	 9 ;       HGA1      CG311      CG321      CG311
   64     1    31    75	 9 ;       HGA1      CG311      CG321       HGA2
   64     1    31    76	 9 ;       HGA1      CG311      CG321       HGA2
    2     1    35    37	 9 ;      NG2S1      CG311      CG2O1      NG2S1
    2     1    35    36	 9 ;      NG2S1      CG311      CG2O1      OG2D1
   31     1    35    37	 9 ;      CG321      CG311      CG2O1      NG2S1
   31     1    35    36	 9 ;      CG321      CG311      CG2O1      OG2D1
   64     1    35    37	 9 ;       HGA1      CG311      CG2O1      NG2S1
   64     1    35    36	 9 ;       HGA1      CG311      CG2O1      OG2D1
    5     2     3     4	 9 ;       HGP1      NG2S1      CG2O1      OG2D1
    5     2     3     6	 9 ;       HGP1      NG2S1      CG2O1     CG2DC1
    1     2     3     4	 9 ;      CG311      NG2S1      CG2O1      OG2D1
    1     2     3     6	 9 ;      CG311      NG2S1      CG2O1     CG2DC1
    4     3     6    28	 9 ;      OG2D1      CG2O1     CG2DC1      CG311
    4     3     6     7	 9 ;      OG2D1      CG2O1     CG2DC1      NG2P1
    2     3     6    28	 9 ;      NG2S1      CG2O1     CG2DC1      CG311
    2     3     6     7	 9 ;      NG2S1      CG2O1     CG2DC1      NG2P1
    3     6    28    29	 9 ;      CG2O1     CG2DC1      CG311      CG331
    3     6    28    30	 9 ;      CG2O1     CG2DC1      CG311      CG331
    3     6    28    68	 9 ;      CG2O1     CG2DC1      CG311       HGA1
    7     6    28    29	 9 ;      NG2P1     CG2DC1      CG311      CG331
    7     6    28    30	 9 ;      NG2P1     CG2DC1      CG311      CG331
    7     6    28    68	 9 ;      NG2P1     CG2DC1      CG311       HGA1
   28     6     7     8	 9 ;      CG311     CG2DC1      NG2P1      CG2O1
   28     6     7    10	 9 ;      CG311     CG2DC1      NG2P1       HGP2
    3     6     7     8	 9 ;      CG2O1     CG2DC1      NG2P1      CG2O1
    3     6     7    10	 9 ;      CG2O1     CG2DC1      NG2P1       HGP2
    6     7     8     9	 9 ;     CG2DC1      NG2P1      CG2O1      OG2D1
    6     7     8    11	 9 ;     CG2DC1      NG2P1      CG2O1      CG314
   10     7     8     9	 9 ;       HGP2      NG2P1      CG2O1      OG2D1
   10     7     8    11	 9 ;       HGP2      NG2P1      CG2O1      CG314
    9     8    11    12	 9 ;      OG2D1      CG2O1      CG314      NG3P3
    9     8    11    16	 9 ;      OG2D1      CG2O1      CG314      CG321
    9     8    11    65	 9 ;      OG2D1      CG2O1      CG314       HGA1
    7     8    11    12	 9 ;      NG2P1      CG2O1      CG314      NG3P3
    7     8    11    16	 9 ;      NG2P1      CG2O1      CG314      CG321
    7     8    11    65	 9 ;      NG2P1      CG2O1      CG314       HGA1
    8    11    12    15	 9 ;      CG2O1      CG314      NG3P3       HGP2
    8    11    12    13	 9 ;      CG2O1      CG314      NG3P3       HGP2
    8    11    12    14	 9 ;      CG2O1      CG314      NG3P3       HGP2
   16    11    12    15	 9 ;      CG321      CG314      NG3P3       HGP2
   16    11    12    13	 9 ;      CG321      CG314      NG3P3       HGP2
   16    11    12    14	 9 ;      CG321      CG314      NG3P3       HGP2
   65    11    12    15	 9 ;       HGA1      CG314      NG3P3       HGP2
   65    11    12    13	 9 ;       HGA1      CG314      NG3P3       HGP2
   65    11    12    14	 9 ;       HGA1      CG314      NG3P3       HGP2
   12    11    16    17	 9 ;      NG3P3      CG314      CG321      NG2S1
   12    11    16    66	 9 ;      NG3P3      CG314      CG321       HGA2
   12    11    16    67	 9 ;      NG3P3      CG314      CG321       HGA2
    8    11    16    17	 9 ;      CG2O1      CG314      CG321      NG2S1
    8    11    16    66	 9 ;      CG2O1      CG314      CG321       HGA2
    8    11    16    67	 9 ;      CG2O1      CG314      CG321       HGA2
   65    11    16    17	 9 ;       HGA1      CG314      CG321      NG2S1
   65    11    16    66	 9 ;       HGA1      CG314      CG321       HGA2
   65    11    16    67	 9 ;       HGA1      CG314      CG321       HGA2
   11    16    17    20	 9 ;      CG314      CG321      NG2S1       HGP1
   11    16    17    18	 9 ;      CG314      CG321      NG2S1      CG2O1
   66    16    17    20	 9 ;       HGA2      CG321      NG2S1       HGP1
   66    16    17    18	 9 ;       HGA2      CG321      NG2S1      CG2O1
   67    16    17    20	 9 ;       HGA2      CG321      NG2S1       HGP1
   67    16    17    18	 9 ;       HGA2      CG321      NG2S1      CG2O1
   20    17    18    21	 9 ;       HGP1      NG2S1      CG2O1     CG3C51
   20    17    18    19	 9 ;       HGP1      NG2S1      CG2O1      OG2D1
   16    17    18    21	 9 ;      CG321      NG2S1      CG2O1     CG3C51
   16    17    18    19	 9 ;      CG321      NG2S1      CG2O1      OG2D1
   17    18    21    22	 9 ;      NG2S1      CG2O1     CG3C51     NG3C51
   17    18    21    26	 9 ;      NG2S1      CG2O1     CG3C51     NG3C51
   17    18    21    99	 9 ;      NG2S1      CG2O1     CG3C51       HGA1
   19    18    21    22	 9 ;      OG2D1      CG2O1     CG3C51     NG3C51
   19    18    21    26	 9 ;      OG2D1      CG2O1     CG3C51     NG3C51
   19    18    21    99	 9 ;      OG2D1      CG2O1     CG3C51       HGA1
   18    21    22    24	 9 ;      CG2O1     CG3C51     NG3C51       HGP1
   18    21    22    23	 9 ;      CG2O1     CG3C51     NG3C51     NG2R50
   26    21    22    24	 9 ;     NG3C51     CG3C51     NG3C51       HGP1
   26    21    22    23	 9 ;     NG3C51     CG3C51     NG3C51     NG2R50
   99    21    22    24	 9 ;       HGA1     CG3C51     NG3C51       HGP1
   99    21    22    23	 9 ;       HGA1     CG3C51     NG3C51     NG2R50
   22    21    26    25	 9 ;     NG3C51     CG3C51     NG3C51     NG2R50
   22    21    26    27	 9 ;     NG3C51     CG3C51     NG3C51       HGP1
   18    21    26    25	 9 ;      CG2O1     CG3C51     NG3C51     NG2R50
   18    21    26    27	 9 ;      CG2O1     CG3C51     NG3C51       HGP1
   99    21    26    25	 9 ;       HGA1     CG3C51     NG3C51     NG2R50
   99    21    26    27	 9 ;       HGA1     CG3C51     NG3C51       HGP1
   24    22    23    25	 9 ;       HGP1     NG3C51     NG2R50     NG2R50
   21    22    23    25	 9 ;     CG3C51     NG3C51     NG2R50     NG2R50
   22    23    25    26	 9 ;     NG3C51     NG2R50     NG2R50     NG3C51
   23    25    26    21	 9 ;     NG2R50     NG2R50     NG3C51     CG3C51
   23    25    26    27	 9 ;     NG2R50     NG2R50     NG3C51       HGP1
    6    28    29    69	 9 ;     CG2DC1      CG311      CG331       HGA3
    6    28    29    70	 9 ;     CG2DC1      CG311      CG331       HGA3
    6    28    29    71	 9 ;     CG2DC1      CG311      CG331       HGA3
   30    28    29    69	 9 ;      CG331      CG311      CG331       HGA3
   30    28    29    70	 9 ;      CG331      CG311      CG331       HGA3
   30    28    29    71	 9 ;      CG331      CG311      CG331       HGA3
   68    28    29    69	 9 ;       HGA1      CG311      CG331       HGA3
   68    28    29    70	 9 ;       HGA1      CG311      CG331       HGA3
   68    28    29    71	 9 ;       HGA1      CG311      CG331       HGA3
   29    28    30    72	 9 ;      CG331      CG311      CG331       HGA3
   29    28    30    73	 9 ;      CG331      CG311      CG331       HGA3
   29    28    30    74	 9 ;      CG331      CG311      CG331       HGA3
    6    28    30    72	 9 ;     CG2DC1      CG311      CG331       HGA3
    6    28    30    73	 9 ;     CG2DC1      CG311      CG331       HGA3
    6    28    30    74	 9 ;     CG2DC1      CG311      CG331       HGA3
   68    28    30    72	 9 ;       HGA1      CG311      CG331       HGA3
   68    28    30    73	 9 ;       HGA1      CG311      CG331       HGA3
   68    28    30    74	 9 ;       HGA1      CG311      CG331       HGA3
    1    31    32    34	 9 ;      CG311      CG321      CG311      CG331
    1    31    32    33	 9 ;      CG311      CG321      CG311      CG331
    1    31    32    77	 9 ;      CG311      CG321      CG311       HGA1
   75    31    32    34	 9 ;       HGA2      CG321      CG311      CG331
   75    31    32    33	 9 ;       HGA2      CG321      CG311      CG331
   75    31    32    77	 9 ;       HGA2      CG321      CG311       HGA1
   76    31    32    34	 9 ;       HGA2      CG321      CG311      CG331
   76    31    32    33	 9 ;       HGA2      CG321      CG311      CG331
   76    31    32    77	 9 ;       HGA2      CG321      CG311       HGA1
   31    32    34    81	 9 ;      CG321      CG311      CG331       HGA3
   31    32    34    82	 9 ;      CG321      CG311      CG331       HGA3
   31    32    34    83	 9 ;      CG321      CG311      CG331       HGA3
   33    32    34    81	 9 ;      CG331      CG311      CG331       HGA3
   33    32    34    82	 9 ;      CG331      CG311      CG331       HGA3
   33    32    34    83	 9 ;      CG331      CG311      CG331       HGA3
   77    32    34    81	 9 ;       HGA1      CG311      CG331       HGA3
   77    32    34    82	 9 ;       HGA1      CG311      CG331       HGA3
   77    32    34    83	 9 ;       HGA1      CG311      CG331       HGA3
   34    32    33    78	 9 ;      CG331      CG311      CG331       HGA3
   34    32    33    79	 9 ;      CG331      CG311      CG331       HGA3
   34    32    33    80	 9 ;      CG331      CG311      CG331       HGA3
   31    32    33    78	 9 ;      CG321      CG311      CG331       HGA3
   31    32    33    79	 9 ;      CG321      CG311      CG331       HGA3
   31    32    33    80	 9 ;      CG321      CG311      CG331       HGA3
   77    32    33    78	 9 ;       HGA1      CG311      CG331       HGA3
   77    32    33    79	 9 ;       HGA1      CG311      CG331       HGA3
   77    32    33    80	 9 ;       HGA1      CG311      CG331       HGA3
    1    35    37    38	 9 ;      CG311      CG2O1      NG2S1       HGP1
    1    35    37    39	 9 ;      CG311      CG2O1      NG2S1      CG321
   36    35    37    38	 9 ;      OG2D1      CG2O1      NG2S1       HGP1
   36    35    37    39	 9 ;      OG2D1      CG2O1      NG2S1      CG321
   38    37    39    40	 9 ;       HGP1      NG2S1      CG321      CG301
   38    37    39    84	 9 ;       HGP1      NG2S1      CG321       HGA2
   38    37    39    85	 9 ;       HGP1      NG2S1      CG321       HGA2
   35    37    39    40	 9 ;      CG2O1      NG2S1      CG321      CG301
   35    37    39    84	 9 ;      CG2O1      NG2S1      CG321       HGA2
   35    37    39    85	 9 ;      CG2O1      NG2S1      CG321       HGA2
   37    39    40    49	 9 ;      NG2S1      CG321      CG301      CG2O1
   37    39    40    62	 9 ;      NG2S1      CG321      CG301      OG311
   37    39    40    41	 9 ;      NG2S1      CG321      CG301      CG321
   84    39    40    49	 9 ;       HGA2      CG321      CG301      CG2O1
   84    39    40    62	 9 ;       HGA2      CG321      CG301      OG311
   84    39    40    41	 9 ;       HGA2      CG321      CG301      CG321
   85    39    40    49	 9 ;       HGA2      CG321      CG301      CG2O1
   85    39    40    62	 9 ;       HGA2      CG321      CG301      OG311
   85    39    40    41	 9 ;       HGA2      CG321      CG301      CG321
   39    40    49    50	 9 ;      CG321      CG301      CG2O1      OG2D1
   39    40    49    51	 9 ;      CG321      CG301      CG2O1      NG2S1
   62    40    49    50	 9 ;      OG311      CG301      CG2O1      OG2D1
   62    40    49    51	 9 ;      OG311      CG301      CG2O1      NG2S1
   41    40    49    50	 9 ;      CG321      CG301      CG2O1      OG2D1
   41    40    49    51	 9 ;      CG321      CG301      CG2O1      NG2S1
   49    40    62    63	 9 ;      CG2O1      CG301      OG311       HGP1
   39    40    62    63	 9 ;      CG321      CG301      OG311       HGP1
   41    40    62    63	 9 ;      CG321      CG301      OG311       HGP1
   49    40    41    42	 9 ;      CG2O1      CG301      CG321      CG321
   49    40    41    86	 9 ;      CG2O1      CG301      CG321       HGA2
   49    40    41    87	 9 ;      CG2O1      CG301      CG321       HGA2
   39    40    41    42	 9 ;      CG321      CG301      CG321      CG321
   39    40    41    86	 9 ;      CG321      CG301      CG321       HGA2
   39    40    41    87	 9 ;      CG321      CG301      CG321       HGA2
   62    40    41    42	 9 ;      OG311      CG301      CG321      CG321
   62    40    41    86	 9 ;      OG311      CG301      CG321       HGA2
   62    40    41    87	 9 ;      OG311      CG301      CG321       HGA2
   40    41    42    43	 9 ;      CG301      CG321      CG321     CG2R61
   40    41    42    88	 9 ;      CG301      CG321      CG321       HGA2
   40    41    42    89	 9 ;      CG301      CG321      CG321       HGA2
   86    41    42    43	 9 ;       HGA2      CG321      CG321     CG2R61
   86    41    42    88	 9 ;       HGA2      CG321      CG321       HGA2
   86    41    42    89	 9 ;       HGA2      CG321      CG321       HGA2
   87    41    42    43	 9 ;       HGA2      CG321      CG321     CG2R61
   87    41    42    88	 9 ;       HGA2      CG321      CG321       HGA2
   87    41    42    89	 9 ;       HGA2      CG321      CG321       HGA2
   41    42    43    44	 9 ;      CG321      CG321     CG2R61     CG2R61
   41    42    43    48	 9 ;      CG321      CG321     CG2R61     CG2R61
   88    42    43    44	 9 ;       HGA2      CG321     CG2R61     CG2R61
   88    42    43    48	 9 ;       HGA2      CG321     CG2R61     CG2R61
   89    42    43    44	 9 ;       HGA2      CG321     CG2R61     CG2R61
   89    42    43    48	 9 ;       HGA2      CG321     CG2R61     CG2R61
   42    43    44    45	 9 ;      CG321     CG2R61     CG2R61     CG2R61
   42    43    44    90	 9 ;      CG321     CG2R61     CG2R61      HGR61
   48    43    44    45	 9 ;     CG2R61     CG2R61     CG2R61     CG2R61
   48    43    44    90	 9 ;     CG2R61     CG2R61     CG2R61      HGR61
   42    43    48    47	 9 ;      CG321     CG2R61     CG2R61     CG2R61
   42    43    48    94	 9 ;      CG321     CG2R61     CG2R61      HGR61
   44    43    48    47	 9 ;     CG2R61     CG2R61     CG2R61     CG2R61
   44    43    48    94	 9 ;     CG2R61     CG2R61     CG2R61      HGR61
   43    44    45    46	 9 ;     CG2R61     CG2R61     CG2R61     CG2R61
   43    44    45    91	 9 ;     CG2R61     CG2R61     CG2R61      HGR61
   90    44    45    46	 9 ;      HGR61     CG2R61     CG2R61     CG2R61
   90    44    45    91	 9 ;      HGR61     CG2R61     CG2R61      HGR61
   44    45    46    47	 9 ;     CG2R61     CG2R61     CG2R61     CG2R61
   44    45    46    92	 9 ;     CG2R61     CG2R61     CG2R61      HGR61
   91    45    46    47	 9 ;      HGR61     CG2R61     CG2R61     CG2R61
   91    45    46    92	 9 ;      HGR61     CG2R61     CG2R61      HGR61
   45    46    47    48	 9 ;     CG2R61     CG2R61     CG2R61     CG2R61
   45    46    47    93	 9 ;     CG2R61     CG2R61     CG2R61      HGR61
   92    46    47    48	 9 ;      HGR61     CG2R61     CG2R61     CG2R61
   92    46    47    93	 9 ;      HGR61     CG2R61     CG2R61      HGR61
   46    47    48    43	 9 ;     CG2R61     CG2R61     CG2R61     CG2R61
   46    47    48    94	 9 ;     CG2R61     CG2R61     CG2R61      HGR61
   93    47    48    43	 9 ;      HGR61     CG2R61     CG2R61     CG2R61
   93    47    48    94	 9 ;      HGR61     CG2R61     CG2R61      HGR61
   50    49    51    53	 9 ;      OG2D1      CG2O1      NG2S1     CG2R61
   50    49    51    52	 9 ;      OG2D1      CG2O1      NG2S1       HGP1
   40    49    51    53	 9 ;      CG301      CG2O1      NG2S1     CG2R61
   40    49    51    52	 9 ;      CG301      CG2O1      NG2S1       HGP1
   49    51    53    58	 9 ;      CG2O1      NG2S1     CG2R61     CG2R61
   49    51    53    54	 9 ;      CG2O1      NG2S1     CG2R61     CG2R61
   52    51    53    58	 9 ;       HGP1      NG2S1     CG2R61     CG2R61
   52    51    53    54	 9 ;       HGP1      NG2S1     CG2R61     CG2R61
   54    53    58    57	 9 ;     CG2R61     CG2R61     CG2R61     CG2R61
   54    53    58    98	 9 ;     CG2R61     CG2R61     CG2R61      HGR61
   51    53    58    57	 9 ;      NG2S1     CG2R61     CG2R61     CG2R61
   51    53    58    98	 9 ;      NG2S1     CG2R61     CG2R61      HGR61
   58    53    54    55	 9 ;     CG2R61     CG2R61     CG2R61     CG2R61
   58    53    54    95	 9 ;     CG2R61     CG2R61     CG2R61      HGR61
   51    53    54    55	 9 ;      NG2S1     CG2R61     CG2R61     CG2R61
   51    53    54    95	 9 ;      NG2S1     CG2R61     CG2R61      HGR61
   53    54    55    56	 9 ;     CG2R61     CG2R61     CG2R61     CG2R61
   53    54    55    59	 9 ;     CG2R61     CG2R61     CG2R61      CG2O3
   95    54    55    56	 9 ;      HGR61     CG2R61     CG2R61     CG2R61
   95    54    55    59	 9 ;      HGR61     CG2R61     CG2R61      CG2O3
   59    55    56    57	 9 ;      CG2O3     CG2R61     CG2R61     CG2R61
   59    55    56    96	 9 ;      CG2O3     CG2R61     CG2R61      HGR61
   54    55    56    57	 9 ;     CG2R61     CG2R61     CG2R61     CG2R61
   54    55    56    96	 9 ;     CG2R61     CG2R61     CG2R61      HGR61
   56    55    59    60	 9 ;     CG2R61     CG2R61      CG2O3      OG2D2
   56    55    59    61	 9 ;     CG2R61     CG2R61      CG2O3      OG2D2
   54    55    59    60	 9 ;     CG2R61     CG2R61      CG2O3      OG2D2
   54    55    59    61	 9 ;     CG2R61     CG2R61      CG2O3      OG2D2
   55    56    57    58	 9 ;     CG2R61     CG2R61     CG2R61     CG2R61
   55    56    57    97	 9 ;     CG2R61     CG2R61     CG2R61      HGR61
   96    56    57    58	 9 ;      HGR61     CG2R61     CG2R61     CG2R61
   96    56    57    97	 9 ;      HGR61     CG2R61     CG2R61      HGR61
   56    57    58    53	 9 ;     CG2R61     CG2R61     CG2R61     CG2R61
   56    57    58    98	 9 ;     CG2R61     CG2R61     CG2R61      HGR61
   97    57    58    53	 9 ;      HGR61     CG2R61     CG2R61     CG2R61
   97    57    58    98	 9 ;      HGR61     CG2R61     CG2R61      HGR61

[ dihedrals ]
;	ai	  aj	ak	  al funct			  c0			c1			  c2			c3
    3     6     2     4	 2
    6     3    28     7	 2
    8    11     7     9	 2
   18    21    17    19	 2
   35     1    37    36	 2
   49    40    51    50	 2
   59    61    60    55	 2

