Great Red Owns Many ACres of Sand 
   99
    1LIG     C1    1  -1.459   0.508  -2.034
    1LIG     N1    2  -1.334   0.460  -1.973
    1LIG     C2    3  -1.235   0.544  -1.930
    1LIG     O1    4  -1.235   0.664  -1.957
    1LIG     H1    5  -1.341   0.368  -1.927
    1LIG     C3    6  -1.116   0.481  -1.847
    1LIG     N2    7  -1.091   0.534  -1.712
    1LIG     C4    8  -1.005   0.638  -1.685
    1LIG     O2    9  -0.932   0.684  -1.772
    1LIG     H2   10  -1.165   0.513  -1.647
    1LIG     C5   11  -1.000   0.698  -1.543
    1LIG     N3   12  -0.915   0.822  -1.539
    1LIG     H3   13  -0.958   0.904  -1.585
    1LIG     H4   14  -0.895   0.851  -1.443
    1LIG     H5   15  -0.817   0.812  -1.578
    1LIG     C6   16  -1.139   0.719  -1.478
    1LIG     N4   17  -1.232   0.796  -1.558
    1LIG     C7   18  -1.349   0.741  -1.610
    1LIG     O3   19  -1.366   0.619  -1.594
    1LIG     H6   20  -1.223   0.898  -1.572
    1LIG     C8   21  -1.428   0.843  -1.680
    1LIG     N5   22  -1.424   0.867  -1.813
    1LIG     N6   23  -1.503   0.976  -1.830
    1LIG    HN1   24  -1.374   0.815  -1.884
    1LIG     N7   25  -1.554   1.014  -1.711
    1LIG     N8   26  -1.512   0.929  -1.615
    1LIG    HN2   27  -1.537   0.929  -1.516
    1LIG     C9   28  -1.102   0.327  -1.859
    1LIG    C10   29  -0.988   0.289  -1.956
    1LIG    C11   30  -1.081   0.255  -1.727
    1LIG    C12   31  -1.487   0.455  -2.175
    1LIG    C13   32  -1.503   0.559  -2.288
    1LIG    C14   33  -1.642   0.623  -2.299
    1LIG    C15   34  -1.401   0.671  -2.269
    1LIG    C16   35  -1.577   0.476  -1.941
    1LIG     O4   36  -1.665   0.398  -1.975
    1LIG     N9   37  -1.578   0.538  -1.818
    1LIG     H7   38  -1.513   0.614  -1.801
    1LIG    C17   39  -1.673   0.503  -1.713
    1LIG    C18   40  -1.648   0.375  -1.627
    1LIG    C19   41  -1.716   0.380  -1.486
    1LIG    C20   42  -1.838   0.472  -1.472
    1LIG    C21   43  -1.974   0.407  -1.456
    1LIG    C22   44  -1.991   0.270  -1.471
    1LIG    C23   45  -2.112   0.209  -1.434
    1LIG    C24   46  -2.216   0.286  -1.382
    1LIG    C25   47  -2.202   0.424  -1.372
    1LIG    C26   48  -2.082   0.484  -1.409
    1LIG    C27   49  -1.497   0.331  -1.620
    1LIG     O5   50  -1.439   0.298  -1.723
    1LIG    N10   51  -1.440   0.338  -1.491
    1LIG     H8   52  -1.499   0.371  -1.417
    1LIG    C28   53  -1.316   0.279  -1.450
    1LIG    C29   54  -1.291   0.142  -1.455
    1LIG    C30   55  -1.174   0.084  -1.402
    1LIG    C31   56  -1.077   0.170  -1.349
    1LIG    C32   57  -1.097   0.308  -1.345
    1LIG    C33   58  -1.217   0.362  -1.394
    1LIG    C34   59  -1.161  -0.067  -1.398
    1LIG     O6   60  -1.204  -0.133  -1.497
    1LIG     O7   61  -1.102  -0.120  -1.295
    1LIG     O8   62  -1.716   0.269  -1.700
    1LIG     H9   63  -1.793   0.243  -1.646
    1LIG     HC   64  -1.452   0.616  -2.041
    1LIG    HC1   65  -0.949   0.624  -1.480
    1LIG    HC2   66  -1.125   0.770  -1.383
    1LIG    HC3   67  -1.184   0.621  -1.459
    1LIG    HC4   68  -1.194   0.290  -1.902
    1LIG    HC5   69  -1.002   0.340  -2.051
    1LIG    HC6   70  -0.892   0.317  -1.912
    1LIG    HC7   71  -0.989   0.181  -1.972
    1LIG    HC8   72  -1.161   0.282  -1.658
    1LIG    HC9   73  -0.985   0.284  -1.684
    1LIG   HC10   74  -1.082   0.147  -1.744
    1LIG   HC11   75  -1.578   0.396  -2.171
    1LIG   HC12   76  -1.405   0.388  -2.202
    1LIG   HC13   77  -1.482   0.510  -2.383
    1LIG   HC14   78  -1.717   0.546  -2.312
    1LIG   HC15   79  -1.644   0.692  -2.383
    1LIG   HC16   80  -1.663   0.678  -2.207
    1LIG   HC17   81  -1.388   0.725  -2.363
    1LIG   HC18   82  -1.306   0.628  -2.237
    1LIG   HC19   83  -1.437   0.740  -2.192
    1LIG   HC20   84  -1.770   0.492  -1.760
    1LIG   HC21   85  -1.678   0.588  -1.644
    1LIG   HC22   86  -1.748   0.279  -1.461
    1LIG   HC23   87  -1.641   0.411  -1.413
    1LIG   HC24   88  -1.842   0.534  -1.561
    1LIG   HC25   89  -1.821   0.537  -1.386
    1LIG   HC26   90  -1.911   0.210  -1.512
    1LIG   HC27   91  -2.124   0.102  -1.445
    1LIG   HC28   92  -2.308   0.238  -1.350
    1LIG   HC29   93  -2.284   0.484  -1.336
    1LIG   HC30   94  -2.072   0.591  -1.401
    1LIG   HC31   95  -1.365   0.078  -1.502
    1LIG   HC32   96  -0.984   0.128  -1.310
    1LIG   HC33   97  -1.021   0.373  -1.305
    1LIG   HC34   98  -1.234   0.469  -1.388
    1LIG    H47   99  -1.510   0.772  -1.694
   0.00000   0.00000   0.00000
