GRowing Old MAkes el Chrono Sweat
   42
    1LIG     CL    1  -0.932  -0.127  -1.590
    1LIG     C1    2  -1.026   0.010  -1.633
    1LIG     C2    3  -1.096   0.010  -1.753
    1LIG     C3    4  -1.173   0.123  -1.785
    1LIG     N1    5  -1.250   0.147  -1.896
    1LIG     HN    6  -1.265   0.084  -1.975
    1LIG     C4    7  -1.302   0.266  -1.878
    1LIG     N2    8  -1.260   0.322  -1.760
    1LIG     C5    9  -1.177   0.231  -1.697
    1LIG     C6   10  -1.105   0.233  -1.577
    1LIG     C7   11  -1.030   0.120  -1.546
    1LIG     C8   12  -1.281   0.459  -1.716
    1LIG     C9   13  -1.169   0.559  -1.746
    1LIG    C10   14  -1.205   0.688  -1.820
    1LIG    C11   15  -1.335   0.681  -1.897
    1LIG      O   16  -1.344   0.620  -2.003
    1LIG     N3   17  -1.447   0.741  -1.849
    1LIG     H1   18  -1.524   0.728  -1.915
    1LIG    C12   19  -1.481   0.820  -1.730
    1LIG    C13   20  -1.586   0.927  -1.754
    1LIG    C14   21  -1.513   0.735  -1.608
    1LIG     N4   22  -1.385   0.326  -1.964
    1LIG     H2   23  -1.473   0.276  -1.975
    1LIG     H3   24  -1.404   0.425  -1.950
    1LIG     H4   25  -1.092  -0.071  -1.817
    1LIG     H5   26  -1.369   0.305  -1.951
    1LIG     H6   27  -1.108   0.315  -1.515
    1LIG     H7   28  -0.976   0.117  -1.458
    1LIG     H8   29  -1.296   0.457  -1.610
    1LIG     H9   30  -1.365   0.493  -1.773
    1LIG    H10   31  -1.126   0.587  -1.652
    1LIG    H11   32  -1.104   0.507  -1.812
    1LIG    H12   33  -1.212   0.767  -1.749
    1LIG    H13   34  -1.128   0.705  -1.893
    1LIG    H14   35  -1.390   0.872  -1.708
    1LIG    H15   36  -1.680   0.881  -1.777
    1LIG    H16   37  -1.556   0.989  -1.836
    1LIG    H17   38  -1.596   0.987  -1.666
    1LIG    H18   39  -1.604   0.681  -1.625
    1LIG    H19   40  -1.526   0.798  -1.523
    1LIG    H20   41  -1.434   0.666  -1.590
    1LIG    LP1   42  -0.843  -0.259  -1.549
   0.00000   0.00000   0.00000
