Good gRace! Old Maple Actually Chews Slate
   50
    1LIG     O1    1  -1.701   0.412  -1.697
    1LIG     C1    2  -1.651   0.515  -1.611
    1LIG     C2    3  -1.524   0.568  -1.681
    1LIG     N1    4  -1.513   0.485  -1.803
    1LIG     HN    5  -1.439   0.487  -1.874
    1LIG     C3    6  -1.616   0.408  -1.801
    1LIG     N2    7  -1.651   0.320  -1.896
    1LIG     C4    8  -1.401   0.549  -1.593
    1LIG     C5    9  -1.362   0.420  -1.551
    1LIG     C6   10  -1.248   0.398  -1.471
    1LIG     C7   11  -1.173   0.511  -1.434
    1LIG     C8   12  -1.212   0.639  -1.474
    1LIG     C9   13  -1.325   0.658  -1.553
    1LIG     O2   14  -1.353   0.788  -1.587
    1LIG    C10   15  -1.457   0.812  -1.672
    1LIG    C11   16  -1.542   0.714  -1.721
    1LIG    C12   17  -1.646   0.752  -1.810
    1LIG    C13   18  -1.664   0.885  -1.847
    1LIG    C14   19  -1.577   0.982  -1.796
    1LIG    C15   20  -1.474   0.946  -1.709
    1LIG     H1   21  -1.711   0.243  -1.865
    1LIG     H2   22  -1.577   0.294  -1.960
    1LIG    C16   23  -1.210   0.261  -1.428
    1LIG    C17   24  -1.108   0.190  -1.493
    1LIG    C18   25  -1.073   0.060  -1.456
    1LIG    C19   26  -1.138  -0.003  -1.349
    1LIG    C20   27  -1.238   0.067  -1.281
    1LIG    C21   28  -1.101  -0.142  -1.307
    1LIG    C22   29  -1.274   0.196  -1.321
    1LIG     O3   30  -1.761   0.933  -1.930
    1LIG    C23   31  -1.825   1.054  -1.892
    1LIG    HC2   32  -1.626   0.474  -1.513
    1LIG    HC3   33  -1.725   0.594  -1.600
    1LIG     HC   34  -1.422   0.335  -1.580
    1LIG    HC1   35  -1.085   0.498  -1.373
    1LIG    HC4   36  -1.153   0.724  -1.443
    1LIG    HC5   37  -1.712   0.676  -1.850
    1LIG    HC6   38  -1.590   1.086  -1.824
    1LIG    HC7   39  -1.407   1.021  -1.671
    1LIG    HC8   40  -1.055   0.236  -1.575
    1LIG    HC9   41  -0.995   0.007  -1.509
    1LIG   HC10   42  -1.288   0.020  -1.198
    1LIG   HC11   43  -1.021  -0.179  -1.371
    1LIG   HC12   44  -1.188  -0.207  -1.316
    1LIG   HC13   45  -1.067  -0.141  -1.203
    1LIG   HC14   46  -1.352   0.248  -1.267
    1LIG   HC15   47  -1.921   1.062  -1.942
    1LIG   HC16   48  -1.839   1.055  -1.784
    1LIG   HC17   49  -1.762   1.138  -1.921
    1LIG    H22   50  -1.674   0.486  -1.852
   0.00000   0.00000   0.00000
