; Created by cgenff_charmm2gmx.py

[ moleculetype ]
; Name			   nrexcl
LIG				 3

[ atoms ]
;	 nr		  type	resnr residue  atom   cgnr	   charge		mass  typeB    chargeB		massB
; residue	 1 LIG rtp LIG q	qsum
     1      CG311      1    LIG     C1      1      0.238     12.011   ;
     2     CG2R51      1    LIG     C2      2     -0.242     12.011   ;
     3     NG3C51      1    LIG     N1      3     -0.368     14.007   ;
     4     CG3C51      1    LIG     C3      4      0.069     12.011   ;
     5       HGP1      1    LIG     HN      5      0.236      1.008   ;
     6     NG3C51      1    LIG     N2      6     -0.308     14.007   ;
     7     CG2R51      1    LIG     C4      7     -0.228     12.011   ;
     8       HGP1      1    LIG     H1      8      0.233      1.008   ;
     9      NG321      1    LIG     N3      9     -0.854     14.007   ;
    10     HGPAM2      1    LIG     H2     10      0.349      1.008   ;
    11     HGPAM2      1    LIG     H3     11      0.349      1.008   ;
    12     CG2R61      1    LIG     C5     12      0.028     12.011   ;
    13     CG2R61      1    LIG     C6     13     -0.109     12.011   ;
    14     CG2R61      1    LIG     C7     14     -0.119     12.011   ;
    15     CG2R61      1    LIG     C8     15      0.211     12.011   ;
    16     CG2R61      1    LIG     C9     16     -0.119     12.011   ;
    17     CG2R61      1    LIG    C10     17     -0.109     12.011   ;
    18      OG301      1    LIG     O1     18     -0.383     15.999   ;
    19      CG331      1    LIG    C11     19     -0.094     12.011   ;
    20      CG321      1    LIG    C12     20     -0.171     12.011   ;
    21     CG2R61      1    LIG    C13     21      0.008     12.011   ;
    22     CG2R61      1    LIG    C14     22     -0.229     12.011   ;
    23     CG2R61      1    LIG    C15     23      0.328     12.011   ;
    24     CG2R61      1    LIG    C16     24     -0.222     12.011   ;
    25     CG2R61      1    LIG    C17     25     -0.098     12.011   ;
    26     CG2R61      1    LIG    C18     26      0.192     12.011   ;
    27      NG2O1      1    LIG     N4     27      0.386     14.007   ;
    28      OG2N1      1    LIG     O2     28     -0.311     15.999   ;
    29      OG2N1      1    LIG     O3     29     -0.311     15.999   ;
    30      OG301      1    LIG     O4     30     -0.366     15.999   ;
    31      CG331      1    LIG    C19     31     -0.094     12.011   ;
    32       HGA1      1    LIG     HC     32      0.090      1.008   ;
    33      HGR52      1    LIG    HC1     33      0.252      1.008   ;
    34      HGR61      1    LIG    HC2     34      0.116      1.008   ;
    35      HGR61      1    LIG    HC3     35      0.116      1.008   ;
    36      HGR61      1    LIG    HC4     36      0.116      1.008   ;
    37      HGR61      1    LIG    HC5     37      0.116      1.008   ;
    38       HGA3      1    LIG    HC6     38      0.090      1.008   ;
    39       HGA3      1    LIG    HC7     39      0.090      1.008   ;
    40       HGA3      1    LIG    HC8     40      0.090      1.008   ;
    41       HGA2      1    LIG    HC9     41      0.090      1.008   ;
    42       HGA2      1    LIG   HC10     42      0.090      1.008   ;
    43      HGR61      1    LIG   HC11     43      0.162      1.008   ;
    44      HGR61      1    LIG   HC12     44      0.162      1.008   ;
    45      HGR61      1    LIG   HC13     45      0.116      1.008   ;
    46       HGA3      1    LIG   HC14     46      0.090      1.008   ;
    47       HGA3      1    LIG   HC15     47      0.090      1.008   ;
    48       HGA3      1    LIG   HC16     48      0.090      1.008   ;
    49       HGA1      1    LIG    H22     49      0.142      1.008   ;

[ bonds ]
;	ai	  aj funct			  c0			c1			  c2			c3
    1    20	 1 ;       CG311      CG321
    1     2	 1 ;       CG311     CG2R51
    1    12	 1 ;       CG311     CG2R61
    1    32	 1 ;       CG311       HGA1
    2     7	 1 ;      CG2R51     CG2R51
    2     3	 1 ;      CG2R51     NG3C51
    3     4	 1 ;      NG3C51     CG3C51
    3     5	 1 ;      NG3C51       HGP1
    4     9	 1 ;      CG3C51      NG321
    4     6	 1 ;      CG3C51     NG3C51
    4    49	 1 ;      CG3C51       HGA1
    6     8	 1 ;      NG3C51       HGP1
    6     7	 1 ;      NG3C51     CG2R51
    7    33	 1 ;      CG2R51      HGR52
    9    10	 1 ;       NG321     HGPAM2
    9    11	 1 ;       NG321     HGPAM2
   12    13	 1 ;      CG2R61     CG2R61
   12    17	 1 ;      CG2R61     CG2R61
   13    14	 1 ;      CG2R61     CG2R61
   13    34	 1 ;      CG2R61      HGR61
   14    15	 1 ;      CG2R61     CG2R61
   14    35	 1 ;      CG2R61      HGR61
   15    16	 1 ;      CG2R61     CG2R61
   15    18	 1 ;      CG2R61      OG301
   16    17	 1 ;      CG2R61     CG2R61
   16    36	 1 ;      CG2R61      HGR61
   17    37	 1 ;      CG2R61      HGR61
   18    19	 1 ;       OG301      CG331
   19    38	 1 ;       CG331       HGA3
   19    39	 1 ;       CG331       HGA3
   19    40	 1 ;       CG331       HGA3
   20    21	 1 ;       CG321     CG2R61
   20    41	 1 ;       CG321       HGA2
   20    42	 1 ;       CG321       HGA2
   21    26	 1 ;      CG2R61     CG2R61
   21    22	 1 ;      CG2R61     CG2R61
   22    23	 1 ;      CG2R61     CG2R61
   22    43	 1 ;      CG2R61      HGR61
   23    24	 1 ;      CG2R61     CG2R61
   23    27	 1 ;      CG2R61      NG2O1
   24    25	 1 ;      CG2R61     CG2R61
   24    44	 1 ;      CG2R61      HGR61
   25    26	 1 ;      CG2R61     CG2R61
   25    45	 1 ;      CG2R61      HGR61
   26    30	 1 ;      CG2R61      OG301
   27    29	 1 ;       NG2O1      OG2N1
   27    28	 1 ;       NG2O1      OG2N1
   30    31	 1 ;       OG301      CG331
   31    46	 1 ;       CG331       HGA3
   31    47	 1 ;       CG331       HGA3
   31    48	 1 ;       CG331       HGA3

[ pairs ]
;	ai	  aj funct			  c0			c1			  c2			c3
    1     6	 1
    1    33	 1
    1     4	 1
    1     5	 1
    1    14	 1
    1    34	 1
    1    16	 1
    1    37	 1
    1    26	 1
    1    22	 1
    2    21	 1
    2    41	 1
    2    42	 1
    2    13	 1
    2    17	 1
    2     9	 1
    2    49	 1
    2     8	 1
    3    20	 1
    3    12	 1
    3    32	 1
    3    33	 1
    3    10	 1
    3    11	 1
    3     8	 1
    4    33	 1
    5     7	 1
    5     9	 1
    5     6	 1
    5    49	 1
    6    10	 1
    6    11	 1
    7    20	 1
    7    12	 1
    7    32	 1
    7     9	 1
    7    49	 1
    8     9	 1
    8    49	 1
    8    33	 1
   10    49	 1
   11    49	 1
   12    21	 1
   12    41	 1
   12    42	 1
   12    15	 1
   12    35	 1
   12    36	 1
   13    20	 1
   13    32	 1
   13    16	 1
   13    37	 1
   13    18	 1
   14    17	 1
   14    36	 1
   14    19	 1
   15    34	 1
   15    37	 1
   15    38	 1
   15    39	 1
   15    40	 1
   16    35	 1
   16    19	 1
   17    20	 1
   17    32	 1
   17    34	 1
   17    18	 1
   18    35	 1
   18    36	 1
   20    25	 1
   20    30	 1
   20    23	 1
   20    43	 1
   21    32	 1
   21    24	 1
   21    27	 1
   21    45	 1
   21    31	 1
   22    41	 1
   22    42	 1
   22    25	 1
   22    30	 1
   22    44	 1
   22    29	 1
   22    28	 1
   23    26	 1
   23    45	 1
   24    43	 1
   24    29	 1
   24    28	 1
   24    30	 1
   25    27	 1
   25    31	 1
   26    41	 1
   26    42	 1
   26    43	 1
   26    44	 1
   26    46	 1
   26    47	 1
   26    48	 1
   27    43	 1
   27    44	 1
   30    45	 1
   32    41	 1
   32    42	 1
   34    35	 1
   36    37	 1
   44    45	 1

[ angles ]
;	ai	  aj	ak funct			c0			  c1			c2			  c3
   20     1     2	5 ;      CG321      CG311     CG2R51
   20     1    12	5 ;      CG321      CG311     CG2R61
   20     1    32	5 ;      CG321      CG311       HGA1
    2     1    12	5 ;     CG2R51      CG311     CG2R61
    2     1    32	5 ;     CG2R51      CG311       HGA1
   12     1    32	5 ;     CG2R61      CG311       HGA1
    7     2     3	5 ;     CG2R51     CG2R51     NG3C51
    7     2     1	5 ;     CG2R51     CG2R51      CG311
    3     2     1	5 ;     NG3C51     CG2R51      CG311
    4     3     2	5 ;     CG3C51     NG3C51     CG2R51
    4     3     5	5 ;     CG3C51     NG3C51       HGP1
    2     3     5	5 ;     CG2R51     NG3C51       HGP1
    9     4     6	5 ;      NG321     CG3C51     NG3C51
    9     4     3	5 ;      NG321     CG3C51     NG3C51
    9     4    49	5 ;      NG321     CG3C51       HGA1
    6     4     3	5 ;     NG3C51     CG3C51     NG3C51
    6     4    49	5 ;     NG3C51     CG3C51       HGA1
    3     4    49	5 ;     NG3C51     CG3C51       HGA1
    8     6     4	5 ;       HGP1     NG3C51     CG3C51
    8     6     7	5 ;       HGP1     NG3C51     CG2R51
    4     6     7	5 ;     CG3C51     NG3C51     CG2R51
    6     7     2	5 ;     NG3C51     CG2R51     CG2R51
    6     7    33	5 ;     NG3C51     CG2R51      HGR52
    2     7    33	5 ;     CG2R51     CG2R51      HGR52
   10     9     4	5 ;     HGPAM2      NG321     CG3C51
   10     9    11	5 ;     HGPAM2      NG321     HGPAM2
    4     9    11	5 ;     CG3C51      NG321     HGPAM2
    1    12    13	5 ;      CG311     CG2R61     CG2R61
    1    12    17	5 ;      CG311     CG2R61     CG2R61
   13    12    17	5 ;     CG2R61     CG2R61     CG2R61
   12    13    14	5 ;     CG2R61     CG2R61     CG2R61
   12    13    34	5 ;     CG2R61     CG2R61      HGR61
   14    13    34	5 ;     CG2R61     CG2R61      HGR61
   13    14    15	5 ;     CG2R61     CG2R61     CG2R61
   13    14    35	5 ;     CG2R61     CG2R61      HGR61
   15    14    35	5 ;     CG2R61     CG2R61      HGR61
   14    15    16	5 ;     CG2R61     CG2R61     CG2R61
   14    15    18	5 ;     CG2R61     CG2R61      OG301
   16    15    18	5 ;     CG2R61     CG2R61      OG301
   17    16    15	5 ;     CG2R61     CG2R61     CG2R61
   17    16    36	5 ;     CG2R61     CG2R61      HGR61
   15    16    36	5 ;     CG2R61     CG2R61      HGR61
   12    17    16	5 ;     CG2R61     CG2R61     CG2R61
   12    17    37	5 ;     CG2R61     CG2R61      HGR61
   16    17    37	5 ;     CG2R61     CG2R61      HGR61
   15    18    19	5 ;     CG2R61      OG301      CG331
   18    19    38	5 ;      OG301      CG331       HGA3
   18    19    39	5 ;      OG301      CG331       HGA3
   18    19    40	5 ;      OG301      CG331       HGA3
   38    19    39	5 ;       HGA3      CG331       HGA3
   38    19    40	5 ;       HGA3      CG331       HGA3
   39    19    40	5 ;       HGA3      CG331       HGA3
   21    20     1	5 ;     CG2R61      CG321      CG311
   21    20    41	5 ;     CG2R61      CG321       HGA2
   21    20    42	5 ;     CG2R61      CG321       HGA2
    1    20    41	5 ;      CG311      CG321       HGA2
    1    20    42	5 ;      CG311      CG321       HGA2
   41    20    42	5 ;       HGA2      CG321       HGA2
   26    21    20	5 ;     CG2R61     CG2R61      CG321
   26    21    22	5 ;     CG2R61     CG2R61     CG2R61
   20    21    22	5 ;      CG321     CG2R61     CG2R61
   23    22    21	5 ;     CG2R61     CG2R61     CG2R61
   23    22    43	5 ;     CG2R61     CG2R61      HGR61
   21    22    43	5 ;     CG2R61     CG2R61      HGR61
   24    23    27	5 ;     CG2R61     CG2R61      NG2O1
   24    23    22	5 ;     CG2R61     CG2R61     CG2R61
   27    23    22	5 ;      NG2O1     CG2R61     CG2R61
   25    24    23	5 ;     CG2R61     CG2R61     CG2R61
   25    24    44	5 ;     CG2R61     CG2R61      HGR61
   23    24    44	5 ;     CG2R61     CG2R61      HGR61
   24    25    26	5 ;     CG2R61     CG2R61     CG2R61
   24    25    45	5 ;     CG2R61     CG2R61      HGR61
   26    25    45	5 ;     CG2R61     CG2R61      HGR61
   25    26    30	5 ;     CG2R61     CG2R61      OG301
   25    26    21	5 ;     CG2R61     CG2R61     CG2R61
   30    26    21	5 ;      OG301     CG2R61     CG2R61
   29    27    23	5 ;      OG2N1      NG2O1     CG2R61
   29    27    28	5 ;      OG2N1      NG2O1      OG2N1
   23    27    28	5 ;     CG2R61      NG2O1      OG2N1
   31    30    26	5 ;      CG331      OG301     CG2R61
   30    31    46	5 ;      OG301      CG331       HGA3
   30    31    47	5 ;      OG301      CG331       HGA3
   30    31    48	5 ;      OG301      CG331       HGA3
   46    31    47	5 ;       HGA3      CG331       HGA3
   46    31    48	5 ;       HGA3      CG331       HGA3
   47    31    48	5 ;       HGA3      CG331       HGA3

[ dihedrals ]
;	ai	  aj	ak	  al funct			  c0			c1			  c2			c3			  c4			c5
    2     1    20    21	 9 ;     CG2R51      CG311      CG321     CG2R61
    2     1    20    41	 9 ;     CG2R51      CG311      CG321       HGA2
    2     1    20    42	 9 ;     CG2R51      CG311      CG321       HGA2
   12     1    20    21	 9 ;     CG2R61      CG311      CG321     CG2R61
   12     1    20    41	 9 ;     CG2R61      CG311      CG321       HGA2
   12     1    20    42	 9 ;     CG2R61      CG311      CG321       HGA2
   32     1    20    21	 9 ;       HGA1      CG311      CG321     CG2R61
   32     1    20    41	 9 ;       HGA1      CG311      CG321       HGA2
   32     1    20    42	 9 ;       HGA1      CG311      CG321       HGA2
   20     1     2     7	 9 ;      CG321      CG311     CG2R51     CG2R51
   20     1     2     3	 9 ;      CG321      CG311     CG2R51     NG3C51
   12     1     2     7	 9 ;     CG2R61      CG311     CG2R51     CG2R51
   12     1     2     3	 9 ;     CG2R61      CG311     CG2R51     NG3C51
   32     1     2     7	 9 ;       HGA1      CG311     CG2R51     CG2R51
   32     1     2     3	 9 ;       HGA1      CG311     CG2R51     NG3C51
   20     1    12    13	 9 ;      CG321      CG311     CG2R61     CG2R61
   20     1    12    17	 9 ;      CG321      CG311     CG2R61     CG2R61
    2     1    12    13	 9 ;     CG2R51      CG311     CG2R61     CG2R61
    2     1    12    17	 9 ;     CG2R51      CG311     CG2R61     CG2R61
   32     1    12    13	 9 ;       HGA1      CG311     CG2R61     CG2R61
   32     1    12    17	 9 ;       HGA1      CG311     CG2R61     CG2R61
    3     2     7     6	 9 ;     NG3C51     CG2R51     CG2R51     NG3C51
    3     2     7    33	 9 ;     NG3C51     CG2R51     CG2R51      HGR52
    1     2     7     6	 9 ;      CG311     CG2R51     CG2R51     NG3C51
    1     2     7    33	 9 ;      CG311     CG2R51     CG2R51      HGR52
    7     2     3     4	 9 ;     CG2R51     CG2R51     NG3C51     CG3C51
    7     2     3     5	 9 ;     CG2R51     CG2R51     NG3C51       HGP1
    1     2     3     4	 9 ;      CG311     CG2R51     NG3C51     CG3C51
    1     2     3     5	 9 ;      CG311     CG2R51     NG3C51       HGP1
    2     3     4     9	 9 ;     CG2R51     NG3C51     CG3C51      NG321
    2     3     4     6	 9 ;     CG2R51     NG3C51     CG3C51     NG3C51
    2     3     4    49	 9 ;     CG2R51     NG3C51     CG3C51       HGA1
    5     3     4     9	 9 ;       HGP1     NG3C51     CG3C51      NG321
    5     3     4     6	 9 ;       HGP1     NG3C51     CG3C51     NG3C51
    5     3     4    49	 9 ;       HGP1     NG3C51     CG3C51       HGA1
    6     4     9    10	 9 ;     NG3C51     CG3C51      NG321     HGPAM2
    6     4     9    11	 9 ;     NG3C51     CG3C51      NG321     HGPAM2
    3     4     9    10	 9 ;     NG3C51     CG3C51      NG321     HGPAM2
    3     4     9    11	 9 ;     NG3C51     CG3C51      NG321     HGPAM2
   49     4     9    10	 9 ;       HGA1     CG3C51      NG321     HGPAM2
   49     4     9    11	 9 ;       HGA1     CG3C51      NG321     HGPAM2
    9     4     6     8	 9 ;      NG321     CG3C51     NG3C51       HGP1
    9     4     6     7	 9 ;      NG321     CG3C51     NG3C51     CG2R51
    3     4     6     8	 9 ;     NG3C51     CG3C51     NG3C51       HGP1
    3     4     6     7	 9 ;     NG3C51     CG3C51     NG3C51     CG2R51
   49     4     6     8	 9 ;       HGA1     CG3C51     NG3C51       HGP1
   49     4     6     7	 9 ;       HGA1     CG3C51     NG3C51     CG2R51
    8     6     7     2	 9 ;       HGP1     NG3C51     CG2R51     CG2R51
    8     6     7    33	 9 ;       HGP1     NG3C51     CG2R51      HGR52
    4     6     7     2	 9 ;     CG3C51     NG3C51     CG2R51     CG2R51
    4     6     7    33	 9 ;     CG3C51     NG3C51     CG2R51      HGR52
    1    12    13    14	 9 ;      CG311     CG2R61     CG2R61     CG2R61
    1    12    13    34	 9 ;      CG311     CG2R61     CG2R61      HGR61
   17    12    13    14	 9 ;     CG2R61     CG2R61     CG2R61     CG2R61
   17    12    13    34	 9 ;     CG2R61     CG2R61     CG2R61      HGR61
    1    12    17    16	 9 ;      CG311     CG2R61     CG2R61     CG2R61
    1    12    17    37	 9 ;      CG311     CG2R61     CG2R61      HGR61
   13    12    17    16	 9 ;     CG2R61     CG2R61     CG2R61     CG2R61
   13    12    17    37	 9 ;     CG2R61     CG2R61     CG2R61      HGR61
   12    13    14    15	 9 ;     CG2R61     CG2R61     CG2R61     CG2R61
   12    13    14    35	 9 ;     CG2R61     CG2R61     CG2R61      HGR61
   34    13    14    15	 9 ;      HGR61     CG2R61     CG2R61     CG2R61
   34    13    14    35	 9 ;      HGR61     CG2R61     CG2R61      HGR61
   13    14    15    16	 9 ;     CG2R61     CG2R61     CG2R61     CG2R61
   13    14    15    18	 9 ;     CG2R61     CG2R61     CG2R61      OG301
   35    14    15    16	 9 ;      HGR61     CG2R61     CG2R61     CG2R61
   35    14    15    18	 9 ;      HGR61     CG2R61     CG2R61      OG301
   14    15    16    17	 9 ;     CG2R61     CG2R61     CG2R61     CG2R61
   14    15    16    36	 9 ;     CG2R61     CG2R61     CG2R61      HGR61
   18    15    16    17	 9 ;      OG301     CG2R61     CG2R61     CG2R61
   18    15    16    36	 9 ;      OG301     CG2R61     CG2R61      HGR61
   14    15    18    19	 9 ;     CG2R61     CG2R61      OG301      CG331
   16    15    18    19	 9 ;     CG2R61     CG2R61      OG301      CG331
   15    16    17    12	 9 ;     CG2R61     CG2R61     CG2R61     CG2R61
   15    16    17    37	 9 ;     CG2R61     CG2R61     CG2R61      HGR61
   36    16    17    12	 9 ;      HGR61     CG2R61     CG2R61     CG2R61
   36    16    17    37	 9 ;      HGR61     CG2R61     CG2R61      HGR61
   15    18    19    38	 9 ;     CG2R61      OG301      CG331       HGA3
   15    18    19    39	 9 ;     CG2R61      OG301      CG331       HGA3
   15    18    19    40	 9 ;     CG2R61      OG301      CG331       HGA3
    1    20    21    26	 9 ;      CG311      CG321     CG2R61     CG2R61
    1    20    21    22	 9 ;      CG311      CG321     CG2R61     CG2R61
   41    20    21    26	 9 ;       HGA2      CG321     CG2R61     CG2R61
   41    20    21    22	 9 ;       HGA2      CG321     CG2R61     CG2R61
   42    20    21    26	 9 ;       HGA2      CG321     CG2R61     CG2R61
   42    20    21    22	 9 ;       HGA2      CG321     CG2R61     CG2R61
   20    21    26    25	 9 ;      CG321     CG2R61     CG2R61     CG2R61
   20    21    26    30	 9 ;      CG321     CG2R61     CG2R61      OG301
   22    21    26    25	 9 ;     CG2R61     CG2R61     CG2R61     CG2R61
   22    21    26    30	 9 ;     CG2R61     CG2R61     CG2R61      OG301
   26    21    22    23	 9 ;     CG2R61     CG2R61     CG2R61     CG2R61
   26    21    22    43	 9 ;     CG2R61     CG2R61     CG2R61      HGR61
   20    21    22    23	 9 ;      CG321     CG2R61     CG2R61     CG2R61
   20    21    22    43	 9 ;      CG321     CG2R61     CG2R61      HGR61
   21    22    23    24	 9 ;     CG2R61     CG2R61     CG2R61     CG2R61
   21    22    23    27	 9 ;     CG2R61     CG2R61     CG2R61      NG2O1
   43    22    23    24	 9 ;      HGR61     CG2R61     CG2R61     CG2R61
   43    22    23    27	 9 ;      HGR61     CG2R61     CG2R61      NG2O1
   27    23    24    25	 9 ;      NG2O1     CG2R61     CG2R61     CG2R61
   27    23    24    44	 9 ;      NG2O1     CG2R61     CG2R61      HGR61
   22    23    24    25	 9 ;     CG2R61     CG2R61     CG2R61     CG2R61
   22    23    24    44	 9 ;     CG2R61     CG2R61     CG2R61      HGR61
   24    23    27    29	 9 ;     CG2R61     CG2R61      NG2O1      OG2N1
   24    23    27    28	 9 ;     CG2R61     CG2R61      NG2O1      OG2N1
   22    23    27    29	 9 ;     CG2R61     CG2R61      NG2O1      OG2N1
   22    23    27    28	 9 ;     CG2R61     CG2R61      NG2O1      OG2N1
   23    24    25    26	 9 ;     CG2R61     CG2R61     CG2R61     CG2R61
   23    24    25    45	 9 ;     CG2R61     CG2R61     CG2R61      HGR61
   44    24    25    26	 9 ;      HGR61     CG2R61     CG2R61     CG2R61
   44    24    25    45	 9 ;      HGR61     CG2R61     CG2R61      HGR61
   24    25    26    30	 9 ;     CG2R61     CG2R61     CG2R61      OG301
   24    25    26    21	 9 ;     CG2R61     CG2R61     CG2R61     CG2R61
   45    25    26    30	 9 ;      HGR61     CG2R61     CG2R61      OG301
   45    25    26    21	 9 ;      HGR61     CG2R61     CG2R61     CG2R61
   25    26    30    31	 9 ;     CG2R61     CG2R61      OG301      CG331
   21    26    30    31	 9 ;     CG2R61     CG2R61      OG301      CG331
   26    30    31    46	 9 ;     CG2R61      OG301      CG331       HGA3
   26    30    31    47	 9 ;     CG2R61      OG301      CG331       HGA3
   26    30    31    48	 9 ;     CG2R61      OG301      CG331       HGA3

