GRoups of Organic Molecules in ACtion for Science
   49
    1LIG     C1    1  -1.614   0.496  -1.539
    1LIG     C2    2  -1.643   0.635  -1.594
    1LIG     N1    3  -1.604   0.746  -1.520
    1LIG     C3    4  -1.639   0.851  -1.590
    1LIG     HN    5  -1.557   0.746  -1.429
    1LIG     N2    6  -1.699   0.814  -1.707
    1LIG     C4    7  -1.703   0.677  -1.712
    1LIG     H1    8  -1.737   0.878  -1.775
    1LIG     N3    9  -1.625   0.980  -1.557
    1LIG     H2   10  -1.576   1.035  -1.628
    1LIG     H3   11  -1.703   1.030  -1.518
    1LIG     C5   12  -1.745   0.417  -1.544
    1LIG     C6   13  -1.773   0.327  -1.648
    1LIG     C7   14  -1.884   0.242  -1.641
    1LIG     C8   15  -1.968   0.245  -1.531
    1LIG     C9   16  -1.943   0.336  -1.429
    1LIG    C10   17  -1.832   0.422  -1.435
    1LIG     O1   18  -2.076   0.164  -1.511
    1LIG    C11   19  -2.131   0.161  -1.380
    1LIG    C12   20  -1.503   0.412  -1.608
    1LIG    C13   21  -1.384   0.384  -1.519
    1LIG    C14   22  -1.370   0.254  -1.469
    1LIG    C15   23  -1.248   0.214  -1.413
    1LIG    C16   24  -1.144   0.306  -1.396
    1LIG    C17   25  -1.164   0.440  -1.434
    1LIG    C18   26  -1.284   0.480  -1.495
    1LIG     N4   27  -1.227   0.072  -1.383
    1LIG     O2   28  -1.220   0.040  -1.263
    1LIG     O3   29  -1.217  -0.006  -1.477
    1LIG     O4   30  -1.308   0.608  -1.537
    1LIG    C19   31  -1.211   0.705  -1.501
    1LIG     HC   32  -1.587   0.507  -1.434
    1LIG    HC1   33  -1.744   0.615  -1.791
    1LIG    HC2   34  -1.709   0.324  -1.735
    1LIG    HC3   35  -1.903   0.173  -1.722
    1LIG    HC4   36  -2.009   0.341  -1.344
    1LIG    HC5   37  -1.815   0.492  -1.355
    1LIG    HC6   38  -2.207   0.084  -1.373
    1LIG    HC7   39  -2.051   0.139  -1.308
    1LIG    HC8   40  -2.175   0.258  -1.356
    1LIG    HC9   41  -1.469   0.467  -1.696
    1LIG   HC10   42  -1.546   0.317  -1.640
    1LIG   HC11   43  -1.452   0.185  -1.473
    1LIG   HC12   44  -1.050   0.275  -1.354
    1LIG   HC13   45  -1.086   0.512  -1.417
    1LIG   HC14   46  -1.244   0.804  -1.534
    1LIG   HC15   47  -1.116   0.682  -1.548
    1LIG   HC16   48  -1.199   0.706  -1.392
    1LIG    H22   49  -1.541   0.852  -1.639
   0.00000   0.00000   0.00000
