; Created by cgenff_charmm2gmx.py

[ moleculetype ]
; Name			   nrexcl
LIG				 3

[ atoms ]
;	 nr		  type	resnr residue  atom   cgnr	   charge		mass  typeB    chargeB		massB
; residue	 1 LIG rtp LIG q	qsum
     1     CG2R61      1    LIG     C1      1      0.138     12.011   ;
     2     CG2R61      1    LIG     C2      2     -0.064     12.011   ;
     3     CG2R61      1    LIG     C3      3     -0.101     12.011   ;
     4     CG2R61      1    LIG     C4      4     -0.004     12.011   ;
     5     CG2R61      1    LIG     C5      5     -0.101     12.011   ;
     6     CG2R61      1    LIG     C6      6     -0.064     12.011   ;
     7      CG2O1      1    LIG     C7      7      0.302     12.011   ;
     8      OG2D1      1    LIG     O1      8     -0.463     15.999   ;
     9      NG2S1      1    LIG     N1      9     -0.238     14.007   ;
    10      CG311      1    LIG     C8     10     -0.001     12.011   ;
    11      CG321      1    LIG     C9     11     -0.003     12.011   ;
    12      OG301      1    LIG     O2     12     -0.303     15.999   ;
    13      CG321      1    LIG    C10     13      0.078     12.011   ;
    14      CG2D1      1    LIG    C11     14     -0.199     12.011   ;
    15      CG321      1    LIG    C12     15     -0.166     12.011   ;
    16      CG311      1    LIG    C13     16     -0.035     12.011   ;
    17      CG321      1    LIG    C14     17     -0.230     12.011   ;
    18      CG321      1    LIG    C15     18     -0.159     12.011   ;
    19      CG2D1      1    LIG    C16     19     -0.064     12.011   ;
    20      CG311      1    LIG    C17     20      0.141     12.011   ;
    21      NG2S1      1    LIG     N2     21     -0.304     14.007   ;
    22      CG2O1      1    LIG    C18     22      0.301     12.011   ;
    23      OG2D1      1    LIG     O3     23     -0.463     15.999   ;
    24       HGP1      1    LIG     H1     24      0.262      1.008   ;
    25       HGP1      1    LIG     H2     25      0.267      1.008   ;
    26      CG311      1    LIG    C19     26      0.110     12.011   ;
    27      CG321      1    LIG    C20     27     -0.155     12.011   ;
    28      CG311      1    LIG    C21     28     -0.022     12.011   ;
    29      CG311      1    LIG    C22     29     -0.108     12.011   ;
    30      CG331      1    LIG    C23     30     -0.270     12.011   ;
    31      CG331      1    LIG    C24     31     -0.270     12.011   ;
    32      CG2O1      1    LIG    C25     32      0.506     12.011   ;
    33      OG2D1      1    LIG     O4     33     -0.513     15.999   ;
    34      NG2S1      1    LIG     N3     34     -0.494     14.007   ;
    35       HGP1      1    LIG     H3     35      0.310      1.008   ;
    36      CG321      1    LIG    C26     36     -0.007     12.011   ;
    37      CG311      1    LIG    C27     37     -0.133     12.011   ;
    38      CG331      1    LIG    C28     38     -0.258     12.011   ;
    39      CG331      1    LIG    C29     39     -0.258     12.011   ;
    40      OG311      1    LIG     O5     40     -0.648     15.999   ;
    41       HGP1      1    LIG     H4     41      0.421      1.008   ;
    42      NG301      1    LIG     N4     42     -0.228     14.007   ;
    43      CG331      1    LIG    C30     43     -0.103     12.011   ;
    44      SG3O2      1    LIG      S     44      0.397     32.060   ;
    45      OG2P1      1    LIG     O6     45     -0.388     15.999   ;
    46      OG2P1      1    LIG     O7     46     -0.388     15.999   ;
    47      CG331      1    LIG    C31     47      0.036     12.011   ;
    48     CG2R61      1    LIG    C32     48     -0.138     12.011   ;
    49     CG2R61      1    LIG    C33     49     -0.082     12.011   ;
    50     CG2R61      1    LIG    C34     50     -0.119     12.011   ;
    51     CG2R61      1    LIG    C35     51      0.211     12.011   ;
    52     CG2R61      1    LIG    C36     52     -0.119     12.011   ;
    53     CG2R61      1    LIG    C37     53     -0.082     12.011   ;
    54      OG301      1    LIG     O8     54     -0.383     15.999   ;
    55      CG331      1    LIG    C38     55     -0.094     12.011   ;
    56      HGR61      1    LIG     HC     56      0.116      1.008   ;
    57      HGR61      1    LIG    HC1     57      0.116      1.008   ;
    58      HGR61      1    LIG    HC2     58      0.116      1.008   ;
    59       HGA1      1    LIG    HC3     59      0.090      1.008   ;
    60       HGA2      1    LIG    HC4     60      0.090      1.008   ;
    61       HGA2      1    LIG    HC5     61      0.090      1.008   ;
    62       HGA2      1    LIG    HC6     62      0.090      1.008   ;
    63       HGA2      1    LIG    HC7     63      0.090      1.008   ;
    64       HGA2      1    LIG    HC8     64      0.090      1.008   ;
    65       HGA2      1    LIG    HC9     65      0.090      1.008   ;
    66       HGA2      1    LIG   HC10     66      0.090      1.008   ;
    67       HGA4      1    LIG   HC11     67      0.150      1.008   ;
    68       HGA1      1    LIG   HC12     68      0.090      1.008   ;
    69       HGA1      1    LIG   HC13     69      0.090      1.008   ;
    70       HGA2      1    LIG   HC14     70      0.090      1.008   ;
    71       HGA2      1    LIG   HC15     71      0.090      1.008   ;
    72       HGA1      1    LIG   HC16     72      0.090      1.008   ;
    73       HGA1      1    LIG   HC17     73      0.090      1.008   ;
    74       HGA3      1    LIG   HC18     74      0.090      1.008   ;
    75       HGA3      1    LIG   HC19     75      0.090      1.008   ;
    76       HGA3      1    LIG   HC20     76      0.090      1.008   ;
    77       HGA3      1    LIG   HC21     77      0.090      1.008   ;
    78       HGA3      1    LIG   HC22     78      0.090      1.008   ;
    79       HGA3      1    LIG   HC23     79      0.090      1.008   ;
    80       HGA2      1    LIG   HC24     80      0.090      1.008   ;
    81       HGA2      1    LIG   HC25     81      0.090      1.008   ;
    82       HGA1      1    LIG   HC26     82      0.090      1.008   ;
    83       HGA3      1    LIG   HC27     83      0.090      1.008   ;
    84       HGA3      1    LIG   HC28     84      0.090      1.008   ;
    85       HGA3      1    LIG   HC29     85      0.090      1.008   ;
    86       HGA3      1    LIG   HC30     86      0.090      1.008   ;
    87       HGA3      1    LIG   HC31     87      0.090      1.008   ;
    88       HGA3      1    LIG   HC32     88      0.090      1.008   ;
    89       HGA3      1    LIG   HC33     89      0.090      1.008   ;
    90       HGA3      1    LIG   HC34     90      0.090      1.008   ;
    91       HGA3      1    LIG   HC35     91      0.090      1.008   ;
    92       HGA3      1    LIG   HC36     92      0.090      1.008   ;
    93       HGA3      1    LIG   HC37     93      0.090      1.008   ;
    94       HGA3      1    LIG   HC38     94      0.090      1.008   ;
    95      HGR61      1    LIG   HC39     95      0.116      1.008   ;
    96      HGR61      1    LIG   HC40     96      0.116      1.008   ;
    97      HGR61      1    LIG   HC41     97      0.116      1.008   ;
    98      HGR61      1    LIG   HC42     98      0.116      1.008   ;
    99       HGA3      1    LIG   HC43     99      0.090      1.008   ;
   100       HGA3      1    LIG   HC44    100      0.090      1.008   ;
   101       HGA3      1    LIG   HC45    101      0.090      1.008   ;
   102       HGA2      1    LIG    H51    102      0.090      1.008   ;
   103       HGA1      1    LIG    H52    103      0.090      1.008   ;
   104       HGA2      1    LIG    H53    104      0.090      1.008   ;
   105       HGA2      1    LIG    H54    105      0.090      1.008   ;

[ bonds ]
;	ai	  aj funct			  c0			c1			  c2			c3
    1    42	 1 ;      CG2R61      NG301
    1     6	 1 ;      CG2R61     CG2R61
    1     2	 1 ;      CG2R61     CG2R61
    2     3	 1 ;      CG2R61     CG2R61
    2    56	 1 ;      CG2R61      HGR61
    3     4	 1 ;      CG2R61     CG2R61
    3    22	 1 ;      CG2R61      CG2O1
    4     5	 1 ;      CG2R61     CG2R61
    4    57	 1 ;      CG2R61      HGR61
    5     6	 1 ;      CG2R61     CG2R61
    5     7	 1 ;      CG2R61      CG2O1
    6    58	 1 ;      CG2R61      HGR61
    7     8	 1 ;       CG2O1      OG2D1
    7     9	 1 ;       CG2O1      NG2S1
    9    24	 1 ;       NG2S1       HGP1
    9    10	 1 ;       NG2S1      CG311
   10    26	 1 ;       CG311      CG311
   10    11	 1 ;       CG311      CG321
   10    59	 1 ;       CG311       HGA1
   11    12	 1 ;       CG321      OG301
   11    60	 1 ;       CG321       HGA2
   11    61	 1 ;       CG321       HGA2
   12    13	 1 ;       OG301      CG321
   13    14	 1 ;       CG321      CG2D1
   13    62	 1 ;       CG321       HGA2
   13    63	 1 ;       CG321       HGA2
   14    19	 1 ;       CG2D1      CG2D1
   14    15	 1 ;       CG2D1      CG321
   15    16	 1 ;       CG321      CG311
   15    64	 1 ;       CG321       HGA2
   15   102	 1 ;       CG321       HGA2
   16    17	 1 ;       CG311      CG321
   16    20	 1 ;       CG311      CG311
   16   103	 1 ;       CG311       HGA1
   17    18	 1 ;       CG321      CG321
   17    65	 1 ;       CG321       HGA2
   17   104	 1 ;       CG321       HGA2
   18    19	 1 ;       CG321      CG2D1
   18    66	 1 ;       CG321       HGA2
   18   105	 1 ;       CG321       HGA2
   19    67	 1 ;       CG2D1       HGA4
   20    21	 1 ;       CG311      NG2S1
   20    48	 1 ;       CG311     CG2R61
   20    68	 1 ;       CG311       HGA1
   21    22	 1 ;       NG2S1      CG2O1
   21    25	 1 ;       NG2S1       HGP1
   22    23	 1 ;       CG2O1      OG2D1
   26    27	 1 ;       CG311      CG321
   26    40	 1 ;       CG311      OG311
   26    69	 1 ;       CG311       HGA1
   27    28	 1 ;       CG321      CG311
   27    70	 1 ;       CG321       HGA2
   27    71	 1 ;       CG321       HGA2
   28    32	 1 ;       CG311      CG2O1
   28    29	 1 ;       CG311      CG311
   28    72	 1 ;       CG311       HGA1
   29    30	 1 ;       CG311      CG331
   29    31	 1 ;       CG311      CG331
   29    73	 1 ;       CG311       HGA1
   30    74	 1 ;       CG331       HGA3
   30    75	 1 ;       CG331       HGA3
   30    76	 1 ;       CG331       HGA3
   31    77	 1 ;       CG331       HGA3
   31    78	 1 ;       CG331       HGA3
   31    79	 1 ;       CG331       HGA3
   32    33	 1 ;       CG2O1      OG2D1
   32    34	 1 ;       CG2O1      NG2S1
   34    36	 1 ;       NG2S1      CG321
   34    35	 1 ;       NG2S1       HGP1
   36    37	 1 ;       CG321      CG311
   36    80	 1 ;       CG321       HGA2
   36    81	 1 ;       CG321       HGA2
   37    38	 1 ;       CG311      CG331
   37    39	 1 ;       CG311      CG331
   37    82	 1 ;       CG311       HGA1
   38    83	 1 ;       CG331       HGA3
   38    84	 1 ;       CG331       HGA3
   38    85	 1 ;       CG331       HGA3
   39    86	 1 ;       CG331       HGA3
   39    87	 1 ;       CG331       HGA3
   39    88	 1 ;       CG331       HGA3
   40    41	 1 ;       OG311       HGP1
   42    44	 1 ;       NG301      SG3O2
   42    43	 1 ;       NG301      CG331
   43    89	 1 ;       CG331       HGA3
   43    90	 1 ;       CG331       HGA3
   43    91	 1 ;       CG331       HGA3
   44    47	 1 ;       SG3O2      CG331
   44    46	 1 ;       SG3O2      OG2P1
   44    45	 1 ;       SG3O2      OG2P1
   47    92	 1 ;       CG331       HGA3
   47    93	 1 ;       CG331       HGA3
   47    94	 1 ;       CG331       HGA3
   48    49	 1 ;      CG2R61     CG2R61
   48    53	 1 ;      CG2R61     CG2R61
   49    50	 1 ;      CG2R61     CG2R61
   49    95	 1 ;      CG2R61      HGR61
   50    51	 1 ;      CG2R61     CG2R61
   50    96	 1 ;      CG2R61      HGR61
   51    52	 1 ;      CG2R61     CG2R61
   51    54	 1 ;      CG2R61      OG301
   52    53	 1 ;      CG2R61     CG2R61
   52    97	 1 ;      CG2R61      HGR61
   53    98	 1 ;      CG2R61      HGR61
   54    55	 1 ;       OG301      CG331
   55    99	 1 ;       CG331       HGA3
   55   100	 1 ;       CG331       HGA3
   55   101	 1 ;       CG331       HGA3

[ pairs ]
;	ai	  aj funct			  c0			c1			  c2			c3
    1     4	 1
    1    22	 1
    1     7	 1
    1    47	 1
    1    46	 1
    1    45	 1
    1    89	 1
    1    90	 1
    1    91	 1
    2    44	 1
    2    43	 1
    2     5	 1
    2    58	 1
    2    57	 1
    2    23	 1
    2    21	 1
    3    42	 1
    3     6	 1
    3     7	 1
    3    25	 1
    3    20	 1
    4    56	 1
    4    23	 1
    4    21	 1
    4    58	 1
    4     8	 1
    4     9	 1
    5    42	 1
    5    22	 1
    5    24	 1
    5    10	 1
    6    44	 1
    6    43	 1
    6    56	 1
    6    57	 1
    6     8	 1
    6     9	 1
    7    57	 1
    7    58	 1
    7    26	 1
    7    11	 1
    7    59	 1
    8    24	 1
    8    10	 1
    9    27	 1
    9    40	 1
    9    69	 1
    9    12	 1
    9    60	 1
    9    61	 1
   10    13	 1
   10    28	 1
   10    70	 1
   10    71	 1
   10    41	 1
   11    24	 1
   11    27	 1
   11    40	 1
   11    69	 1
   11    14	 1
   11    62	 1
   11    63	 1
   12    26	 1
   12    59	 1
   12    19	 1
   12    15	 1
   13    60	 1
   13    61	 1
   13    18	 1
   13    67	 1
   13    16	 1
   13    64	 1
   13   102	 1
   14    17	 1
   14    20	 1
   14   103	 1
   14    66	 1
   14   105	 1
   15    62	 1
   15    63	 1
   15    18	 1
   15    67	 1
   15    65	 1
   15   104	 1
   15    21	 1
   15    48	 1
   15    68	 1
   16    19	 1
   16    66	 1
   16   105	 1
   16    22	 1
   16    25	 1
   16    49	 1
   16    53	 1
   17    64	 1
   17   102	 1
   17    21	 1
   17    48	 1
   17    68	 1
   17    67	 1
   18    20	 1
   18   103	 1
   19    62	 1
   19    63	 1
   19    64	 1
   19   102	 1
   19    65	 1
   19   104	 1
   20    64	 1
   20   102	 1
   20    65	 1
   20   104	 1
   20    23	 1
   20    50	 1
   20    95	 1
   20    52	 1
   20    98	 1
   21   103	 1
   21    49	 1
   21    53	 1
   22    56	 1
   22    57	 1
   22    48	 1
   22    68	 1
   23    25	 1
   24    26	 1
   24    59	 1
   25    48	 1
   25    68	 1
   26    60	 1
   26    61	 1
   26    32	 1
   26    29	 1
   26    72	 1
   27    59	 1
   27    41	 1
   27    33	 1
   27    34	 1
   27    30	 1
   27    31	 1
   27    73	 1
   28    40	 1
   28    69	 1
   28    74	 1
   28    75	 1
   28    76	 1
   28    77	 1
   28    78	 1
   28    79	 1
   28    36	 1
   28    35	 1
   29    70	 1
   29    71	 1
   29    33	 1
   29    34	 1
   30    32	 1
   30    72	 1
   30    77	 1
   30    78	 1
   30    79	 1
   31    32	 1
   31    72	 1
   31    74	 1
   31    75	 1
   31    76	 1
   32    70	 1
   32    71	 1
   32    73	 1
   32    37	 1
   32    80	 1
   32    81	 1
   33    72	 1
   33    36	 1
   33    35	 1
   34    72	 1
   34    38	 1
   34    39	 1
   34    82	 1
   35    37	 1
   35    80	 1
   35    81	 1
   36    83	 1
   36    84	 1
   36    85	 1
   36    86	 1
   36    87	 1
   36    88	 1
   38    80	 1
   38    81	 1
   38    86	 1
   38    87	 1
   38    88	 1
   39    80	 1
   39    81	 1
   39    83	 1
   39    84	 1
   39    85	 1
   40    59	 1
   40    70	 1
   40    71	 1
   41    69	 1
   42    58	 1
   42    56	 1
   42    92	 1
   42    93	 1
   42    94	 1
   43    47	 1
   43    46	 1
   43    45	 1
   44    89	 1
   44    90	 1
   44    91	 1
   45    92	 1
   45    93	 1
   45    94	 1
   46    92	 1
   46    93	 1
   46    94	 1
   48   103	 1
   48    51	 1
   48    96	 1
   48    97	 1
   49    68	 1
   49    52	 1
   49    98	 1
   49    54	 1
   50    53	 1
   50    97	 1
   50    55	 1
   51    95	 1
   51    98	 1
   51    99	 1
   51   100	 1
   51   101	 1
   52    96	 1
   52    55	 1
   53    68	 1
   53    95	 1
   53    54	 1
   54    96	 1
   54    97	 1
   59    69	 1
   59    60	 1
   59    61	 1
   64   103	 1
   65   103	 1
   65    66	 1
   65   105	 1
   66   104	 1
   66    67	 1
   67   105	 1
   68   103	 1
   69    70	 1
   69    71	 1
   70    72	 1
   71    72	 1
   72    73	 1
   73    74	 1
   73    75	 1
   73    76	 1
   73    77	 1
   73    78	 1
   73    79	 1
   80    82	 1
   81    82	 1
   82    83	 1
   82    84	 1
   82    85	 1
   82    86	 1
   82    87	 1
   82    88	 1
   95    96	 1
   97    98	 1
  102   103	 1
  103   104	 1
  104   105	 1

[ angles ]
;	ai	  aj	ak funct			c0			  c1			c2			  c3
   42     1     6	5 ;      NG301     CG2R61     CG2R61
   42     1     2	5 ;      NG301     CG2R61     CG2R61
    6     1     2	5 ;     CG2R61     CG2R61     CG2R61
    1     2     3	5 ;     CG2R61     CG2R61     CG2R61
    1     2    56	5 ;     CG2R61     CG2R61      HGR61
    3     2    56	5 ;     CG2R61     CG2R61      HGR61
    2     3     4	5 ;     CG2R61     CG2R61     CG2R61
    2     3    22	5 ;     CG2R61     CG2R61      CG2O1
    4     3    22	5 ;     CG2R61     CG2R61      CG2O1
    5     4     3	5 ;     CG2R61     CG2R61     CG2R61
    5     4    57	5 ;     CG2R61     CG2R61      HGR61
    3     4    57	5 ;     CG2R61     CG2R61      HGR61
    6     5     7	5 ;     CG2R61     CG2R61      CG2O1
    6     5     4	5 ;     CG2R61     CG2R61     CG2R61
    7     5     4	5 ;      CG2O1     CG2R61     CG2R61
    1     6     5	5 ;     CG2R61     CG2R61     CG2R61
    1     6    58	5 ;     CG2R61     CG2R61      HGR61
    5     6    58	5 ;     CG2R61     CG2R61      HGR61
    8     7     5	5 ;      OG2D1      CG2O1     CG2R61
    8     7     9	5 ;      OG2D1      CG2O1      NG2S1
    5     7     9	5 ;     CG2R61      CG2O1      NG2S1
    7     9    24	5 ;      CG2O1      NG2S1       HGP1
    7     9    10	5 ;      CG2O1      NG2S1      CG311
   24     9    10	5 ;       HGP1      NG2S1      CG311
   26    10     9	5 ;      CG311      CG311      NG2S1
   26    10    11	5 ;      CG311      CG311      CG321
   26    10    59	5 ;      CG311      CG311       HGA1
    9    10    11	5 ;      NG2S1      CG311      CG321
    9    10    59	5 ;      NG2S1      CG311       HGA1
   11    10    59	5 ;      CG321      CG311       HGA1
   10    11    12	5 ;      CG311      CG321      OG301
   10    11    60	5 ;      CG311      CG321       HGA2
   10    11    61	5 ;      CG311      CG321       HGA2
   12    11    60	5 ;      OG301      CG321       HGA2
   12    11    61	5 ;      OG301      CG321       HGA2
   60    11    61	5 ;       HGA2      CG321       HGA2
   11    12    13	5 ;      CG321      OG301      CG321
   12    13    14	5 ;      OG301      CG321      CG2D1
   12    13    62	5 ;      OG301      CG321       HGA2
   12    13    63	5 ;      OG301      CG321       HGA2
   14    13    62	5 ;      CG2D1      CG321       HGA2
   14    13    63	5 ;      CG2D1      CG321       HGA2
   62    13    63	5 ;       HGA2      CG321       HGA2
   19    14    13	5 ;      CG2D1      CG2D1      CG321
   19    14    15	5 ;      CG2D1      CG2D1      CG321
   13    14    15	5 ;      CG321      CG2D1      CG321
   14    15    16	5 ;      CG2D1      CG321      CG311
   14    15    64	5 ;      CG2D1      CG321       HGA2
   14    15   102	5 ;      CG2D1      CG321       HGA2
   16    15    64	5 ;      CG311      CG321       HGA2
   16    15   102	5 ;      CG311      CG321       HGA2
   64    15   102	5 ;       HGA2      CG321       HGA2
   17    16    15	5 ;      CG321      CG311      CG321
   17    16    20	5 ;      CG321      CG311      CG311
   17    16   103	5 ;      CG321      CG311       HGA1
   15    16    20	5 ;      CG321      CG311      CG311
   15    16   103	5 ;      CG321      CG311       HGA1
   20    16   103	5 ;      CG311      CG311       HGA1
   18    17    16	5 ;      CG321      CG321      CG311
   18    17    65	5 ;      CG321      CG321       HGA2
   18    17   104	5 ;      CG321      CG321       HGA2
   16    17    65	5 ;      CG311      CG321       HGA2
   16    17   104	5 ;      CG311      CG321       HGA2
   65    17   104	5 ;       HGA2      CG321       HGA2
   19    18    17	5 ;      CG2D1      CG321      CG321
   19    18    66	5 ;      CG2D1      CG321       HGA2
   19    18   105	5 ;      CG2D1      CG321       HGA2
   17    18    66	5 ;      CG321      CG321       HGA2
   17    18   105	5 ;      CG321      CG321       HGA2
   66    18   105	5 ;       HGA2      CG321       HGA2
   18    19    14	5 ;      CG321      CG2D1      CG2D1
   18    19    67	5 ;      CG321      CG2D1       HGA4
   14    19    67	5 ;      CG2D1      CG2D1       HGA4
   21    20    16	5 ;      NG2S1      CG311      CG311
   21    20    48	5 ;      NG2S1      CG311     CG2R61
   21    20    68	5 ;      NG2S1      CG311       HGA1
   16    20    48	5 ;      CG311      CG311     CG2R61
   16    20    68	5 ;      CG311      CG311       HGA1
   48    20    68	5 ;     CG2R61      CG311       HGA1
   22    21    25	5 ;      CG2O1      NG2S1       HGP1
   22    21    20	5 ;      CG2O1      NG2S1      CG311
   25    21    20	5 ;       HGP1      NG2S1      CG311
    3    22    23	5 ;     CG2R61      CG2O1      OG2D1
    3    22    21	5 ;     CG2R61      CG2O1      NG2S1
   23    22    21	5 ;      OG2D1      CG2O1      NG2S1
   27    26    10	5 ;      CG321      CG311      CG311
   27    26    40	5 ;      CG321      CG311      OG311
   27    26    69	5 ;      CG321      CG311       HGA1
   10    26    40	5 ;      CG311      CG311      OG311
   10    26    69	5 ;      CG311      CG311       HGA1
   40    26    69	5 ;      OG311      CG311       HGA1
   28    27    26	5 ;      CG311      CG321      CG311
   28    27    70	5 ;      CG311      CG321       HGA2
   28    27    71	5 ;      CG311      CG321       HGA2
   26    27    70	5 ;      CG311      CG321       HGA2
   26    27    71	5 ;      CG311      CG321       HGA2
   70    27    71	5 ;       HGA2      CG321       HGA2
   32    28    29	5 ;      CG2O1      CG311      CG311
   32    28    27	5 ;      CG2O1      CG311      CG321
   32    28    72	5 ;      CG2O1      CG311       HGA1
   29    28    27	5 ;      CG311      CG311      CG321
   29    28    72	5 ;      CG311      CG311       HGA1
   27    28    72	5 ;      CG321      CG311       HGA1
   30    29    28	5 ;      CG331      CG311      CG311
   30    29    31	5 ;      CG331      CG311      CG331
   30    29    73	5 ;      CG331      CG311       HGA1
   28    29    31	5 ;      CG311      CG311      CG331
   28    29    73	5 ;      CG311      CG311       HGA1
   31    29    73	5 ;      CG331      CG311       HGA1
   29    30    74	5 ;      CG311      CG331       HGA3
   29    30    75	5 ;      CG311      CG331       HGA3
   29    30    76	5 ;      CG311      CG331       HGA3
   74    30    75	5 ;       HGA3      CG331       HGA3
   74    30    76	5 ;       HGA3      CG331       HGA3
   75    30    76	5 ;       HGA3      CG331       HGA3
   29    31    77	5 ;      CG311      CG331       HGA3
   29    31    78	5 ;      CG311      CG331       HGA3
   29    31    79	5 ;      CG311      CG331       HGA3
   77    31    78	5 ;       HGA3      CG331       HGA3
   77    31    79	5 ;       HGA3      CG331       HGA3
   78    31    79	5 ;       HGA3      CG331       HGA3
   33    32    28	5 ;      OG2D1      CG2O1      CG311
   33    32    34	5 ;      OG2D1      CG2O1      NG2S1
   28    32    34	5 ;      CG311      CG2O1      NG2S1
   32    34    36	5 ;      CG2O1      NG2S1      CG321
   32    34    35	5 ;      CG2O1      NG2S1       HGP1
   36    34    35	5 ;      CG321      NG2S1       HGP1
   34    36    37	5 ;      NG2S1      CG321      CG311
   34    36    80	5 ;      NG2S1      CG321       HGA2
   34    36    81	5 ;      NG2S1      CG321       HGA2
   37    36    80	5 ;      CG311      CG321       HGA2
   37    36    81	5 ;      CG311      CG321       HGA2
   80    36    81	5 ;       HGA2      CG321       HGA2
   38    37    36	5 ;      CG331      CG311      CG321
   38    37    39	5 ;      CG331      CG311      CG331
   38    37    82	5 ;      CG331      CG311       HGA1
   36    37    39	5 ;      CG321      CG311      CG331
   36    37    82	5 ;      CG321      CG311       HGA1
   39    37    82	5 ;      CG331      CG311       HGA1
   37    38    83	5 ;      CG311      CG331       HGA3
   37    38    84	5 ;      CG311      CG331       HGA3
   37    38    85	5 ;      CG311      CG331       HGA3
   83    38    84	5 ;       HGA3      CG331       HGA3
   83    38    85	5 ;       HGA3      CG331       HGA3
   84    38    85	5 ;       HGA3      CG331       HGA3
   37    39    86	5 ;      CG311      CG331       HGA3
   37    39    87	5 ;      CG311      CG331       HGA3
   37    39    88	5 ;      CG311      CG331       HGA3
   86    39    87	5 ;       HGA3      CG331       HGA3
   86    39    88	5 ;       HGA3      CG331       HGA3
   87    39    88	5 ;       HGA3      CG331       HGA3
   26    40    41	5 ;      CG311      OG311       HGP1
   44    42    43	5 ;      SG3O2      NG301      CG331
   44    42     1	5 ;      SG3O2      NG301     CG2R61
   43    42     1	5 ;      CG331      NG301     CG2R61
   42    43    89	5 ;      NG301      CG331       HGA3
   42    43    90	5 ;      NG301      CG331       HGA3
   42    43    91	5 ;      NG301      CG331       HGA3
   89    43    90	5 ;       HGA3      CG331       HGA3
   89    43    91	5 ;       HGA3      CG331       HGA3
   90    43    91	5 ;       HGA3      CG331       HGA3
   47    44    46	5 ;      CG331      SG3O2      OG2P1
   47    44    45	5 ;      CG331      SG3O2      OG2P1
   47    44    42	5 ;      CG331      SG3O2      NG301
   46    44    45	5 ;      OG2P1      SG3O2      OG2P1
   46    44    42	5 ;      OG2P1      SG3O2      NG301
   45    44    42	5 ;      OG2P1      SG3O2      NG301
   44    47    92	5 ;      SG3O2      CG331       HGA3
   44    47    93	5 ;      SG3O2      CG331       HGA3
   44    47    94	5 ;      SG3O2      CG331       HGA3
   92    47    93	5 ;       HGA3      CG331       HGA3
   92    47    94	5 ;       HGA3      CG331       HGA3
   93    47    94	5 ;       HGA3      CG331       HGA3
   20    48    49	5 ;      CG311     CG2R61     CG2R61
   20    48    53	5 ;      CG311     CG2R61     CG2R61
   49    48    53	5 ;     CG2R61     CG2R61     CG2R61
   48    49    50	5 ;     CG2R61     CG2R61     CG2R61
   48    49    95	5 ;     CG2R61     CG2R61      HGR61
   50    49    95	5 ;     CG2R61     CG2R61      HGR61
   49    50    51	5 ;     CG2R61     CG2R61     CG2R61
   49    50    96	5 ;     CG2R61     CG2R61      HGR61
   51    50    96	5 ;     CG2R61     CG2R61      HGR61
   50    51    52	5 ;     CG2R61     CG2R61     CG2R61
   50    51    54	5 ;     CG2R61     CG2R61      OG301
   52    51    54	5 ;     CG2R61     CG2R61      OG301
   53    52    51	5 ;     CG2R61     CG2R61     CG2R61
   53    52    97	5 ;     CG2R61     CG2R61      HGR61
   51    52    97	5 ;     CG2R61     CG2R61      HGR61
   48    53    52	5 ;     CG2R61     CG2R61     CG2R61
   48    53    98	5 ;     CG2R61     CG2R61      HGR61
   52    53    98	5 ;     CG2R61     CG2R61      HGR61
   51    54    55	5 ;     CG2R61      OG301      CG331
   54    55    99	5 ;      OG301      CG331       HGA3
   54    55   100	5 ;      OG301      CG331       HGA3
   54    55   101	5 ;      OG301      CG331       HGA3
   99    55   100	5 ;       HGA3      CG331       HGA3
   99    55   101	5 ;       HGA3      CG331       HGA3
  100    55   101	5 ;       HGA3      CG331       HGA3

[ dihedrals ]
;	ai	  aj	ak	  al funct			  c0			c1			  c2			c3			  c4			c5
    6     1    42    44	 9 ;     CG2R61     CG2R61      NG301      SG3O2
    6     1    42    43	 9 ;     CG2R61     CG2R61      NG301      CG331
    2     1    42    44	 9 ;     CG2R61     CG2R61      NG301      SG3O2
    2     1    42    43	 9 ;     CG2R61     CG2R61      NG301      CG331
   42     1     6     5	 9 ;      NG301     CG2R61     CG2R61     CG2R61
   42     1     6    58	 9 ;      NG301     CG2R61     CG2R61      HGR61
    2     1     6     5	 9 ;     CG2R61     CG2R61     CG2R61     CG2R61
    2     1     6    58	 9 ;     CG2R61     CG2R61     CG2R61      HGR61
   42     1     2     3	 9 ;      NG301     CG2R61     CG2R61     CG2R61
   42     1     2    56	 9 ;      NG301     CG2R61     CG2R61      HGR61
    6     1     2     3	 9 ;     CG2R61     CG2R61     CG2R61     CG2R61
    6     1     2    56	 9 ;     CG2R61     CG2R61     CG2R61      HGR61
    1     2     3     4	 9 ;     CG2R61     CG2R61     CG2R61     CG2R61
    1     2     3    22	 9 ;     CG2R61     CG2R61     CG2R61      CG2O1
   56     2     3     4	 9 ;      HGR61     CG2R61     CG2R61     CG2R61
   56     2     3    22	 9 ;      HGR61     CG2R61     CG2R61      CG2O1
    2     3     4     5	 9 ;     CG2R61     CG2R61     CG2R61     CG2R61
    2     3     4    57	 9 ;     CG2R61     CG2R61     CG2R61      HGR61
   22     3     4     5	 9 ;      CG2O1     CG2R61     CG2R61     CG2R61
   22     3     4    57	 9 ;      CG2O1     CG2R61     CG2R61      HGR61
    2     3    22    23	 9 ;     CG2R61     CG2R61      CG2O1      OG2D1
    2     3    22    21	 9 ;     CG2R61     CG2R61      CG2O1      NG2S1
    4     3    22    23	 9 ;     CG2R61     CG2R61      CG2O1      OG2D1
    4     3    22    21	 9 ;     CG2R61     CG2R61      CG2O1      NG2S1
    3     4     5     6	 9 ;     CG2R61     CG2R61     CG2R61     CG2R61
    3     4     5     7	 9 ;     CG2R61     CG2R61     CG2R61      CG2O1
   57     4     5     6	 9 ;      HGR61     CG2R61     CG2R61     CG2R61
   57     4     5     7	 9 ;      HGR61     CG2R61     CG2R61      CG2O1
    7     5     6     1	 9 ;      CG2O1     CG2R61     CG2R61     CG2R61
    7     5     6    58	 9 ;      CG2O1     CG2R61     CG2R61      HGR61
    4     5     6     1	 9 ;     CG2R61     CG2R61     CG2R61     CG2R61
    4     5     6    58	 9 ;     CG2R61     CG2R61     CG2R61      HGR61
    6     5     7     8	 9 ;     CG2R61     CG2R61      CG2O1      OG2D1
    6     5     7     9	 9 ;     CG2R61     CG2R61      CG2O1      NG2S1
    4     5     7     8	 9 ;     CG2R61     CG2R61      CG2O1      OG2D1
    4     5     7     9	 9 ;     CG2R61     CG2R61      CG2O1      NG2S1
    8     7     9    24	 9 ;      OG2D1      CG2O1      NG2S1       HGP1
    8     7     9    10	 9 ;      OG2D1      CG2O1      NG2S1      CG311
    5     7     9    24	 9 ;     CG2R61      CG2O1      NG2S1       HGP1
    5     7     9    10	 9 ;     CG2R61      CG2O1      NG2S1      CG311
    7     9    10    26	 9 ;      CG2O1      NG2S1      CG311      CG311
    7     9    10    11	 9 ;      CG2O1      NG2S1      CG311      CG321
    7     9    10    59	 9 ;      CG2O1      NG2S1      CG311       HGA1
   24     9    10    26	 9 ;       HGP1      NG2S1      CG311      CG311
   24     9    10    11	 9 ;       HGP1      NG2S1      CG311      CG321
   24     9    10    59	 9 ;       HGP1      NG2S1      CG311       HGA1
    9    10    26    27	 9 ;      NG2S1      CG311      CG311      CG321
    9    10    26    40	 9 ;      NG2S1      CG311      CG311      OG311
    9    10    26    69	 9 ;      NG2S1      CG311      CG311       HGA1
   11    10    26    27	 9 ;      CG321      CG311      CG311      CG321
   11    10    26    40	 9 ;      CG321      CG311      CG311      OG311
   11    10    26    69	 9 ;      CG321      CG311      CG311       HGA1
   59    10    26    27	 9 ;       HGA1      CG311      CG311      CG321
   59    10    26    40	 9 ;       HGA1      CG311      CG311      OG311
   59    10    26    69	 9 ;       HGA1      CG311      CG311       HGA1
   26    10    11    12	 9 ;      CG311      CG311      CG321      OG301
   26    10    11    60	 9 ;      CG311      CG311      CG321       HGA2
   26    10    11    61	 9 ;      CG311      CG311      CG321       HGA2
    9    10    11    12	 9 ;      NG2S1      CG311      CG321      OG301
    9    10    11    60	 9 ;      NG2S1      CG311      CG321       HGA2
    9    10    11    61	 9 ;      NG2S1      CG311      CG321       HGA2
   59    10    11    12	 9 ;       HGA1      CG311      CG321      OG301
   59    10    11    60	 9 ;       HGA1      CG311      CG321       HGA2
   59    10    11    61	 9 ;       HGA1      CG311      CG321       HGA2
   10    11    12    13	 9 ;      CG311      CG321      OG301      CG321
   60    11    12    13	 9 ;       HGA2      CG321      OG301      CG321
   61    11    12    13	 9 ;       HGA2      CG321      OG301      CG321
   11    12    13    14	 9 ;      CG321      OG301      CG321      CG2D1
   11    12    13    62	 9 ;      CG321      OG301      CG321       HGA2
   11    12    13    63	 9 ;      CG321      OG301      CG321       HGA2
   12    13    14    19	 9 ;      OG301      CG321      CG2D1      CG2D1
   12    13    14    15	 9 ;      OG301      CG321      CG2D1      CG321
   62    13    14    19	 9 ;       HGA2      CG321      CG2D1      CG2D1
   62    13    14    15	 9 ;       HGA2      CG321      CG2D1      CG321
   63    13    14    19	 9 ;       HGA2      CG321      CG2D1      CG2D1
   63    13    14    15	 9 ;       HGA2      CG321      CG2D1      CG321
   13    14    19    18	 9 ;      CG321      CG2D1      CG2D1      CG321
   13    14    19    67	 9 ;      CG321      CG2D1      CG2D1       HGA4
   15    14    19    18	 9 ;      CG321      CG2D1      CG2D1      CG321
   15    14    19    67	 9 ;      CG321      CG2D1      CG2D1       HGA4
   19    14    15    16	 9 ;      CG2D1      CG2D1      CG321      CG311
   19    14    15    64	 9 ;      CG2D1      CG2D1      CG321       HGA2
   19    14    15   102	 9 ;      CG2D1      CG2D1      CG321       HGA2
   13    14    15    16	 9 ;      CG321      CG2D1      CG321      CG311
   13    14    15    64	 9 ;      CG321      CG2D1      CG321       HGA2
   13    14    15   102	 9 ;      CG321      CG2D1      CG321       HGA2
   14    15    16    17	 9 ;      CG2D1      CG321      CG311      CG321
   14    15    16    20	 9 ;      CG2D1      CG321      CG311      CG311
   14    15    16   103	 9 ;      CG2D1      CG321      CG311       HGA1
   64    15    16    17	 9 ;       HGA2      CG321      CG311      CG321
   64    15    16    20	 9 ;       HGA2      CG321      CG311      CG311
   64    15    16   103	 9 ;       HGA2      CG321      CG311       HGA1
  102    15    16    17	 9 ;       HGA2      CG321      CG311      CG321
  102    15    16    20	 9 ;       HGA2      CG321      CG311      CG311
  102    15    16   103	 9 ;       HGA2      CG321      CG311       HGA1
   15    16    17    18	 9 ;      CG321      CG311      CG321      CG321
   15    16    17    65	 9 ;      CG321      CG311      CG321       HGA2
   15    16    17   104	 9 ;      CG321      CG311      CG321       HGA2
   20    16    17    18	 9 ;      CG311      CG311      CG321      CG321
   20    16    17    65	 9 ;      CG311      CG311      CG321       HGA2
   20    16    17   104	 9 ;      CG311      CG311      CG321       HGA2
  103    16    17    18	 9 ;       HGA1      CG311      CG321      CG321
  103    16    17    65	 9 ;       HGA1      CG311      CG321       HGA2
  103    16    17   104	 9 ;       HGA1      CG311      CG321       HGA2
   17    16    20    21	 9 ;      CG321      CG311      CG311      NG2S1
   17    16    20    48	 9 ;      CG321      CG311      CG311     CG2R61
   17    16    20    68	 9 ;      CG321      CG311      CG311       HGA1
   15    16    20    21	 9 ;      CG321      CG311      CG311      NG2S1
   15    16    20    48	 9 ;      CG321      CG311      CG311     CG2R61
   15    16    20    68	 9 ;      CG321      CG311      CG311       HGA1
  103    16    20    21	 9 ;       HGA1      CG311      CG311      NG2S1
  103    16    20    48	 9 ;       HGA1      CG311      CG311     CG2R61
  103    16    20    68	 9 ;       HGA1      CG311      CG311       HGA1
   16    17    18    19	 9 ;      CG311      CG321      CG321      CG2D1
   16    17    18    66	 9 ;      CG311      CG321      CG321       HGA2
   16    17    18   105	 9 ;      CG311      CG321      CG321       HGA2
   65    17    18    19	 9 ;       HGA2      CG321      CG321      CG2D1
   65    17    18    66	 9 ;       HGA2      CG321      CG321       HGA2
   65    17    18   105	 9 ;       HGA2      CG321      CG321       HGA2
  104    17    18    19	 9 ;       HGA2      CG321      CG321      CG2D1
  104    17    18    66	 9 ;       HGA2      CG321      CG321       HGA2
  104    17    18   105	 9 ;       HGA2      CG321      CG321       HGA2
   17    18    19    14	 9 ;      CG321      CG321      CG2D1      CG2D1
   17    18    19    67	 9 ;      CG321      CG321      CG2D1       HGA4
   66    18    19    14	 9 ;       HGA2      CG321      CG2D1      CG2D1
   66    18    19    67	 9 ;       HGA2      CG321      CG2D1       HGA4
  105    18    19    14	 9 ;       HGA2      CG321      CG2D1      CG2D1
  105    18    19    67	 9 ;       HGA2      CG321      CG2D1       HGA4
   16    20    21    22	 9 ;      CG311      CG311      NG2S1      CG2O1
   16    20    21    25	 9 ;      CG311      CG311      NG2S1       HGP1
   48    20    21    22	 9 ;     CG2R61      CG311      NG2S1      CG2O1
   48    20    21    25	 9 ;     CG2R61      CG311      NG2S1       HGP1
   68    20    21    22	 9 ;       HGA1      CG311      NG2S1      CG2O1
   68    20    21    25	 9 ;       HGA1      CG311      NG2S1       HGP1
   21    20    48    49	 9 ;      NG2S1      CG311     CG2R61     CG2R61
   21    20    48    53	 9 ;      NG2S1      CG311     CG2R61     CG2R61
   16    20    48    49	 9 ;      CG311      CG311     CG2R61     CG2R61
   16    20    48    53	 9 ;      CG311      CG311     CG2R61     CG2R61
   68    20    48    49	 9 ;       HGA1      CG311     CG2R61     CG2R61
   68    20    48    53	 9 ;       HGA1      CG311     CG2R61     CG2R61
   25    21    22     3	 9 ;       HGP1      NG2S1      CG2O1     CG2R61
   25    21    22    23	 9 ;       HGP1      NG2S1      CG2O1      OG2D1
   20    21    22     3	 9 ;      CG311      NG2S1      CG2O1     CG2R61
   20    21    22    23	 9 ;      CG311      NG2S1      CG2O1      OG2D1
   10    26    27    28	 9 ;      CG311      CG311      CG321      CG311
   10    26    27    70	 9 ;      CG311      CG311      CG321       HGA2
   10    26    27    71	 9 ;      CG311      CG311      CG321       HGA2
   40    26    27    28	 9 ;      OG311      CG311      CG321      CG311
   40    26    27    70	 9 ;      OG311      CG311      CG321       HGA2
   40    26    27    71	 9 ;      OG311      CG311      CG321       HGA2
   69    26    27    28	 9 ;       HGA1      CG311      CG321      CG311
   69    26    27    70	 9 ;       HGA1      CG311      CG321       HGA2
   69    26    27    71	 9 ;       HGA1      CG311      CG321       HGA2
   27    26    40    41	 9 ;      CG321      CG311      OG311       HGP1
   10    26    40    41	 9 ;      CG311      CG311      OG311       HGP1
   69    26    40    41	 9 ;       HGA1      CG311      OG311       HGP1
   26    27    28    32	 9 ;      CG311      CG321      CG311      CG2O1
   26    27    28    29	 9 ;      CG311      CG321      CG311      CG311
   26    27    28    72	 9 ;      CG311      CG321      CG311       HGA1
   70    27    28    32	 9 ;       HGA2      CG321      CG311      CG2O1
   70    27    28    29	 9 ;       HGA2      CG321      CG311      CG311
   70    27    28    72	 9 ;       HGA2      CG321      CG311       HGA1
   71    27    28    32	 9 ;       HGA2      CG321      CG311      CG2O1
   71    27    28    29	 9 ;       HGA2      CG321      CG311      CG311
   71    27    28    72	 9 ;       HGA2      CG321      CG311       HGA1
   29    28    32    33	 9 ;      CG311      CG311      CG2O1      OG2D1
   29    28    32    34	 9 ;      CG311      CG311      CG2O1      NG2S1
   27    28    32    33	 9 ;      CG321      CG311      CG2O1      OG2D1
   27    28    32    34	 9 ;      CG321      CG311      CG2O1      NG2S1
   72    28    32    33	 9 ;       HGA1      CG311      CG2O1      OG2D1
   72    28    32    34	 9 ;       HGA1      CG311      CG2O1      NG2S1
   32    28    29    30	 9 ;      CG2O1      CG311      CG311      CG331
   32    28    29    31	 9 ;      CG2O1      CG311      CG311      CG331
   32    28    29    73	 9 ;      CG2O1      CG311      CG311       HGA1
   27    28    29    30	 9 ;      CG321      CG311      CG311      CG331
   27    28    29    31	 9 ;      CG321      CG311      CG311      CG331
   27    28    29    73	 9 ;      CG321      CG311      CG311       HGA1
   72    28    29    30	 9 ;       HGA1      CG311      CG311      CG331
   72    28    29    31	 9 ;       HGA1      CG311      CG311      CG331
   72    28    29    73	 9 ;       HGA1      CG311      CG311       HGA1
   28    29    30    74	 9 ;      CG311      CG311      CG331       HGA3
   28    29    30    75	 9 ;      CG311      CG311      CG331       HGA3
   28    29    30    76	 9 ;      CG311      CG311      CG331       HGA3
   31    29    30    74	 9 ;      CG331      CG311      CG331       HGA3
   31    29    30    75	 9 ;      CG331      CG311      CG331       HGA3
   31    29    30    76	 9 ;      CG331      CG311      CG331       HGA3
   73    29    30    74	 9 ;       HGA1      CG311      CG331       HGA3
   73    29    30    75	 9 ;       HGA1      CG311      CG331       HGA3
   73    29    30    76	 9 ;       HGA1      CG311      CG331       HGA3
   30    29    31    77	 9 ;      CG331      CG311      CG331       HGA3
   30    29    31    78	 9 ;      CG331      CG311      CG331       HGA3
   30    29    31    79	 9 ;      CG331      CG311      CG331       HGA3
   28    29    31    77	 9 ;      CG311      CG311      CG331       HGA3
   28    29    31    78	 9 ;      CG311      CG311      CG331       HGA3
   28    29    31    79	 9 ;      CG311      CG311      CG331       HGA3
   73    29    31    77	 9 ;       HGA1      CG311      CG331       HGA3
   73    29    31    78	 9 ;       HGA1      CG311      CG331       HGA3
   73    29    31    79	 9 ;       HGA1      CG311      CG331       HGA3
   33    32    34    36	 9 ;      OG2D1      CG2O1      NG2S1      CG321
   33    32    34    35	 9 ;      OG2D1      CG2O1      NG2S1       HGP1
   28    32    34    36	 9 ;      CG311      CG2O1      NG2S1      CG321
   28    32    34    35	 9 ;      CG311      CG2O1      NG2S1       HGP1
   32    34    36    37	 9 ;      CG2O1      NG2S1      CG321      CG311
   32    34    36    80	 9 ;      CG2O1      NG2S1      CG321       HGA2
   32    34    36    81	 9 ;      CG2O1      NG2S1      CG321       HGA2
   35    34    36    37	 9 ;       HGP1      NG2S1      CG321      CG311
   35    34    36    80	 9 ;       HGP1      NG2S1      CG321       HGA2
   35    34    36    81	 9 ;       HGP1      NG2S1      CG321       HGA2
   34    36    37    38	 9 ;      NG2S1      CG321      CG311      CG331
   34    36    37    39	 9 ;      NG2S1      CG321      CG311      CG331
   34    36    37    82	 9 ;      NG2S1      CG321      CG311       HGA1
   80    36    37    38	 9 ;       HGA2      CG321      CG311      CG331
   80    36    37    39	 9 ;       HGA2      CG321      CG311      CG331
   80    36    37    82	 9 ;       HGA2      CG321      CG311       HGA1
   81    36    37    38	 9 ;       HGA2      CG321      CG311      CG331
   81    36    37    39	 9 ;       HGA2      CG321      CG311      CG331
   81    36    37    82	 9 ;       HGA2      CG321      CG311       HGA1
   36    37    38    83	 9 ;      CG321      CG311      CG331       HGA3
   36    37    38    84	 9 ;      CG321      CG311      CG331       HGA3
   36    37    38    85	 9 ;      CG321      CG311      CG331       HGA3
   39    37    38    83	 9 ;      CG331      CG311      CG331       HGA3
   39    37    38    84	 9 ;      CG331      CG311      CG331       HGA3
   39    37    38    85	 9 ;      CG331      CG311      CG331       HGA3
   82    37    38    83	 9 ;       HGA1      CG311      CG331       HGA3
   82    37    38    84	 9 ;       HGA1      CG311      CG331       HGA3
   82    37    38    85	 9 ;       HGA1      CG311      CG331       HGA3
   38    37    39    86	 9 ;      CG331      CG311      CG331       HGA3
   38    37    39    87	 9 ;      CG331      CG311      CG331       HGA3
   38    37    39    88	 9 ;      CG331      CG311      CG331       HGA3
   36    37    39    86	 9 ;      CG321      CG311      CG331       HGA3
   36    37    39    87	 9 ;      CG321      CG311      CG331       HGA3
   36    37    39    88	 9 ;      CG321      CG311      CG331       HGA3
   82    37    39    86	 9 ;       HGA1      CG311      CG331       HGA3
   82    37    39    87	 9 ;       HGA1      CG311      CG331       HGA3
   82    37    39    88	 9 ;       HGA1      CG311      CG331       HGA3
   43    42    44    47	 9 ;      CG331      NG301      SG3O2      CG331
   43    42    44    46	 9 ;      CG331      NG301      SG3O2      OG2P1
   43    42    44    45	 9 ;      CG331      NG301      SG3O2      OG2P1
    1    42    44    47	 9 ;     CG2R61      NG301      SG3O2      CG331
    1    42    44    46	 9 ;     CG2R61      NG301      SG3O2      OG2P1
    1    42    44    45	 9 ;     CG2R61      NG301      SG3O2      OG2P1
   44    42    43    89	 9 ;      SG3O2      NG301      CG331       HGA3
   44    42    43    90	 9 ;      SG3O2      NG301      CG331       HGA3
   44    42    43    91	 9 ;      SG3O2      NG301      CG331       HGA3
    1    42    43    89	 9 ;     CG2R61      NG301      CG331       HGA3
    1    42    43    90	 9 ;     CG2R61      NG301      CG331       HGA3
    1    42    43    91	 9 ;     CG2R61      NG301      CG331       HGA3
   46    44    47    92	 9 ;      OG2P1      SG3O2      CG331       HGA3
   46    44    47    93	 9 ;      OG2P1      SG3O2      CG331       HGA3
   46    44    47    94	 9 ;      OG2P1      SG3O2      CG331       HGA3
   45    44    47    92	 9 ;      OG2P1      SG3O2      CG331       HGA3
   45    44    47    93	 9 ;      OG2P1      SG3O2      CG331       HGA3
   45    44    47    94	 9 ;      OG2P1      SG3O2      CG331       HGA3
   42    44    47    92	 9 ;      NG301      SG3O2      CG331       HGA3
   42    44    47    93	 9 ;      NG301      SG3O2      CG331       HGA3
   42    44    47    94	 9 ;      NG301      SG3O2      CG331       HGA3
   20    48    49    50	 9 ;      CG311     CG2R61     CG2R61     CG2R61
   20    48    49    95	 9 ;      CG311     CG2R61     CG2R61      HGR61
   53    48    49    50	 9 ;     CG2R61     CG2R61     CG2R61     CG2R61
   53    48    49    95	 9 ;     CG2R61     CG2R61     CG2R61      HGR61
   20    48    53    52	 9 ;      CG311     CG2R61     CG2R61     CG2R61
   20    48    53    98	 9 ;      CG311     CG2R61     CG2R61      HGR61
   49    48    53    52	 9 ;     CG2R61     CG2R61     CG2R61     CG2R61
   49    48    53    98	 9 ;     CG2R61     CG2R61     CG2R61      HGR61
   48    49    50    51	 9 ;     CG2R61     CG2R61     CG2R61     CG2R61
   48    49    50    96	 9 ;     CG2R61     CG2R61     CG2R61      HGR61
   95    49    50    51	 9 ;      HGR61     CG2R61     CG2R61     CG2R61
   95    49    50    96	 9 ;      HGR61     CG2R61     CG2R61      HGR61
   49    50    51    52	 9 ;     CG2R61     CG2R61     CG2R61     CG2R61
   49    50    51    54	 9 ;     CG2R61     CG2R61     CG2R61      OG301
   96    50    51    52	 9 ;      HGR61     CG2R61     CG2R61     CG2R61
   96    50    51    54	 9 ;      HGR61     CG2R61     CG2R61      OG301
   50    51    52    53	 9 ;     CG2R61     CG2R61     CG2R61     CG2R61
   50    51    52    97	 9 ;     CG2R61     CG2R61     CG2R61      HGR61
   54    51    52    53	 9 ;      OG301     CG2R61     CG2R61     CG2R61
   54    51    52    97	 9 ;      OG301     CG2R61     CG2R61      HGR61
   50    51    54    55	 9 ;     CG2R61     CG2R61      OG301      CG331
   52    51    54    55	 9 ;     CG2R61     CG2R61      OG301      CG331
   51    52    53    48	 9 ;     CG2R61     CG2R61     CG2R61     CG2R61
   51    52    53    98	 9 ;     CG2R61     CG2R61     CG2R61      HGR61
   97    52    53    48	 9 ;      HGR61     CG2R61     CG2R61     CG2R61
   97    52    53    98	 9 ;      HGR61     CG2R61     CG2R61      HGR61
   51    54    55    99	 9 ;     CG2R61      OG301      CG331       HGA3
   51    54    55   100	 9 ;     CG2R61      OG301      CG331       HGA3
   51    54    55   101	 9 ;     CG2R61      OG301      CG331       HGA3

[ dihedrals ]
;	ai	  aj	ak	  al funct			  c0			c1			  c2			c3
    7     5     9     8	 2
   22     3    21    23	 2
   32    28    34    33	 2

