Gromacs Runs On Most of All Computer Systems
  105
    1LIG     C1    1  -1.632   0.847  -1.978
    1LIG     C2    2  -1.717   0.859  -1.859
    1LIG     C3    3  -1.755   0.746  -1.778
    1LIG     C4    4  -1.662   0.647  -1.800
    1LIG     C5    5  -1.598   0.622  -1.926
    1LIG     C6    6  -1.586   0.722  -2.017
    1LIG     C7    7  -1.581   0.481  -1.963
    1LIG     O1    8  -1.588   0.446  -2.083
    1LIG     N1    9  -1.586   0.385  -1.866
    1LIG     C8   10  -1.541   0.397  -1.727
    1LIG     C9   11  -1.655   0.404  -1.623
    1LIG     O2   12  -1.740   0.292  -1.612
    1LIG    C10   13  -1.821   0.257  -1.726
    1LIG    C11   14  -1.918   0.359  -1.783
    1LIG    C12   15  -2.039   0.372  -1.723
    1LIG    C13   16  -2.091   0.502  -1.718
    1LIG    C14   17  -2.085   0.586  -1.828
    1LIG    C15   18  -1.981   0.560  -1.913
    1LIG    C16   19  -1.894   0.452  -1.885
    1LIG    C17   20  -2.072   0.570  -1.581
    1LIG     N2   21  -1.914   0.626  -1.577
    1LIG    C18   22  -1.842   0.740  -1.642
    1LIG     O3   23  -1.818   0.836  -1.567
    1LIG     H1   24  -1.600   0.292  -1.904
    1LIG     H2   25  -1.904   0.648  -1.479
    1LIG    C19   26  -1.440   0.286  -1.698
    1LIG    C20   27  -1.383   0.310  -1.558
    1LIG    C21   28  -1.233   0.329  -1.546
    1LIG    C22   29  -1.184   0.399  -1.416
    1LIG    C23   30  -1.191   0.553  -1.417
    1LIG    C24   31  -1.257   0.349  -1.290
    1LIG    C25   32  -1.170   0.189  -1.564
    1LIG     O4   33  -1.059   0.169  -1.617
    1LIG     N3   34  -1.247   0.087  -1.517
    1LIG     H3   35  -1.333   0.109  -1.467
    1LIG    C26   36  -1.207  -0.052  -1.524
    1LIG    C27   37  -1.140  -0.106  -1.395
    1LIG    C28   38  -0.988  -0.093  -1.399
    1LIG    C29   39  -1.195  -0.028  -1.275
    1LIG     O5   40  -1.502   0.157  -1.701
    1LIG     H4   41  -1.598   0.171  -1.700
    1LIG     N4   42  -1.594   0.957  -2.065
    1LIG    C30   43  -1.659   0.977  -2.195
    1LIG      S   44  -1.450   1.043  -2.034
    1LIG     O6   45  -1.370   0.973  -1.935
    1LIG     O7   46  -1.480   1.184  -2.019
    1LIG    C31   47  -1.372   1.021  -2.191
    1LIG    C32   48  -2.129   0.457  -1.476
    1LIG    C33   49  -2.056   0.350  -1.424
    1LIG    C34   50  -2.122   0.234  -1.371
    1LIG    C35   51  -2.262   0.217  -1.368
    1LIG    C36   52  -2.338   0.323  -1.414
    1LIG    C37   53  -2.273   0.441  -1.463
    1LIG     O8   54  -2.306   0.093  -1.330
    1LIG    C38   55  -2.219  -0.004  -1.270
    1LIG     HC   56  -1.754   0.956  -1.832
    1LIG    HC1   57  -1.635   0.584  -1.717
    1LIG    HC2   58  -1.542   0.706  -2.114
    1LIG    HC3   59  -1.486   0.491  -1.720
    1LIG    HC4   60  -1.609   0.421  -1.525
    1LIG    HC5   61  -1.716   0.491  -1.647
    1LIG    HC6   62  -1.880   0.169  -1.698
    1LIG    HC7   63  -1.754   0.227  -1.807
    1LIG    HC8   64  -2.092   0.287  -1.682
    1LIG    HC9   65  -2.157   0.665  -1.845
    1LIG   HC10   66  -1.965   0.621  -2.000
    1LIG   HC11   67  -1.806   0.440  -1.945
    1LIG   HC12   68  -2.138   0.656  -1.577
    1LIG   HC13   69  -1.360   0.289  -1.771
    1LIG   HC14   70  -1.410   0.224  -1.496
    1LIG   HC15   71  -1.432   0.398  -1.516
    1LIG   HC16   72  -1.201   0.391  -1.630
    1LIG   HC17   73  -1.079   0.372  -1.403
    1LIG   HC18   74  -1.140   0.590  -1.506
    1LIG   HC19   75  -1.144   0.592  -1.328
    1LIG   HC20   76  -1.296   0.584  -1.420
    1LIG   HC21   77  -1.198   0.372  -1.202
    1LIG   HC22   78  -1.273   0.242  -1.298
    1LIG   HC23   79  -1.354   0.400  -1.283
    1LIG   HC24   80  -1.136  -0.063  -1.606
    1LIG   HC25   81  -1.295  -0.113  -1.545
    1LIG   HC26   82  -1.167  -0.211  -1.384
    1LIG   HC27   83  -0.949  -0.148  -1.485
    1LIG   HC28   84  -0.960   0.012  -1.407
    1LIG   HC29   85  -0.946  -0.135  -1.307
    1LIG   HC30   86  -1.170  -0.081  -1.183
    1LIG   HC31   87  -1.303  -0.020  -1.283
    1LIG   HC32   88  -1.151   0.071  -1.273
    1LIG   HC33   89  -1.766   0.958  -2.186
    1LIG   HC34   90  -1.616   0.909  -2.268
    1LIG   HC35   91  -1.643   1.080  -2.228
    1LIG   HC36   92  -1.265   1.039  -2.181
    1LIG   HC37   93  -1.389   0.919  -2.226
    1LIG   HC38   94  -1.414   1.092  -2.262
    1LIG   HC39   95  -1.948   0.354  -1.423
    1LIG   HC40   96  -2.061   0.154  -1.330
    1LIG   HC41   97  -2.446   0.317  -1.413
    1LIG   HC42   98  -2.335   0.524  -1.493
    1LIG   HC43   99  -2.278  -0.088  -1.234
    1LIG   HC44  100  -2.147  -0.038  -1.343
    1LIG   HC45  101  -2.167   0.042  -1.186
    1LIG    H51  102  -1.990   0.388  -1.627
    1LIG    H52  103  -2.198   0.481  -1.715
    1LIG    H53  104  -2.148   0.517  -1.884
    1LIG    H54  105  -1.917   0.626  -1.854
   0.00000   0.00000   0.00000
