; Created by cgenff_charmm2gmx.py

[ moleculetype ]
; Name			   nrexcl
LIG				 3

[ atoms ]
;	 nr		  type	resnr residue  atom   cgnr	   charge		mass  typeB    chargeB		massB
; residue	 1 LIG rtp LIG q	qsum
     1     CG3C31      1    LIG     C1      1     -0.056     12.011   ;
     2     CG3C31      1    LIG     C2      2     -0.174     12.011   ;
     3     CG3C31      1    LIG     C3      3      0.064     12.011   ;
     4     CG2D1O      1    LIG     C4      4     -0.018     12.011   ;
     5      NG311      1    LIG     N1      5     -0.532     14.007   ;
     6      CG314      1    LIG     C5      6      0.649     12.011   ;
     7     HGPAM1      1    LIG     HN      7      0.321      1.008   ;
     8      NG2S0      1    LIG     N2      8     -0.343     14.007   ;
     9      CG331      1    LIG     C6      9     -0.238     12.011   ;
    10      CG2O1      1    LIG     C7     10      0.413     12.011   ;
    11      OG2D1      1    LIG      O     11     -0.540     15.999   ;
    12     CG2DC1      1    LIG     C8     12      0.094     12.011   ;
    13      NG3P3      1    LIG     N3     13     -0.425     14.007   ;
    14       HGP2      1    LIG     H1     14      0.313      1.008   ;
    15       HGP2      1    LIG     H2     15      0.313      1.008   ;
    16     CG2R61      1    LIG     C9     16     -0.041     12.011   ;
    17     CG2R61      1    LIG    C10     17     -0.112     12.011   ;
    18     CG2R61      1    LIG    C11     18     -0.117     12.011   ;
    19     CG2R61      1    LIG    C12     19     -0.013     12.011   ;
    20     CG2R61      1    LIG    C13     20     -0.117     12.011   ;
    21     CG2R61      1    LIG    C14     21     -0.112     12.011   ;
    22     CG2R51      1    LIG    C15     22      0.110     12.011   ;
    23     CG2R51      1    LIG    C16     23     -0.172     12.011   ;
    24     CG2R51      1    LIG    C17     24     -0.199     12.011   ;
    25     CG2R51      1    LIG    C18     25     -0.152     12.011   ;
    26     SG2R50      1    LIG      S     26     -0.178     32.060   ;
    27       HGA1      1    LIG     HC     27      0.090      1.008   ;
    28       HGA2      1    LIG    HC2     28      0.090      1.008   ;
    29       HGA2      1    LIG    HC3     29      0.090      1.008   ;
    30       HGA1      1    LIG    HC1     30      0.090      1.008   ;
    31       HGA1      1    LIG    HC4     31      0.115      1.008   ;
    32       HGA3      1    LIG    HC5     32      0.090      1.008   ;
    33       HGA3      1    LIG    HC6     33      0.090      1.008   ;
    34       HGA3      1    LIG    HC7     34      0.090      1.008   ;
    35       HGA4      1    LIG    HC8     35      0.136      1.008   ;
    36       HGP2      1    LIG    HN1     36      0.313      1.008   ;
    37      HGR61      1    LIG    HC9     37      0.116      1.008   ;
    38      HGR61      1    LIG   HC10     38      0.116      1.008   ;
    39      HGR61      1    LIG   HC11     39      0.116      1.008   ;
    40      HGR61      1    LIG   HC12     40      0.116      1.008   ;
    41      HGR51      1    LIG   HC13     41      0.221      1.008   ;
    42      HGR51      1    LIG   HC14     42      0.194      1.008   ;
    43      HGR52      1    LIG   HC15     43      0.189      1.008   ;

[ bonds ]
;	ai	  aj funct			  c0			c1			  c2			c3
    1     2	 1 ;      CG3C31     CG3C31
    1     3	 1 ;      CG3C31     CG3C31
    1    16	 1 ;      CG3C31     CG2R61
    1    27	 1 ;      CG3C31       HGA1
    2     3	 1 ;      CG3C31     CG3C31
    2    28	 1 ;      CG3C31       HGA2
    2    29	 1 ;      CG3C31       HGA2
    3     4	 1 ;      CG3C31     CG2D1O
    3    30	 1 ;      CG3C31       HGA1
    4    12	 1 ;      CG2D1O     CG2DC1
    4     5	 1 ;      CG2D1O      NG311
    5     7	 1 ;       NG311     HGPAM1
    5     6	 1 ;       NG311      CG314
    6     8	 1 ;       CG314      NG2S0
    6    13	 1 ;       CG314      NG3P3
    6    31	 1 ;       CG314       HGA1
    8    10	 1 ;       NG2S0      CG2O1
    8     9	 1 ;       NG2S0      CG331
    9    32	 1 ;       CG331       HGA3
    9    33	 1 ;       CG331       HGA3
    9    34	 1 ;       CG331       HGA3
   10    12	 1 ;       CG2O1     CG2DC1
   10    11	 1 ;       CG2O1      OG2D1
   12    35	 1 ;      CG2DC1       HGA4
   13    15	 1 ;       NG3P3       HGP2
   13    14	 1 ;       NG3P3       HGP2
   13    36	 1 ;       NG3P3       HGP2
   16    17	 1 ;      CG2R61     CG2R61
   16    21	 1 ;      CG2R61     CG2R61
   17    18	 1 ;      CG2R61     CG2R61
   17    37	 1 ;      CG2R61      HGR61
   18    19	 1 ;      CG2R61     CG2R61
   18    38	 1 ;      CG2R61      HGR61
   19    20	 1 ;      CG2R61     CG2R61
   19    22	 1 ;      CG2R61     CG2R51
   20    21	 1 ;      CG2R61     CG2R61
   20    39	 1 ;      CG2R61      HGR61
   21    40	 1 ;      CG2R61      HGR61
   22    26	 1 ;      CG2R51     SG2R50
   22    23	 1 ;      CG2R51     CG2R51
   23    24	 1 ;      CG2R51     CG2R51
   23    41	 1 ;      CG2R51      HGR51
   24    25	 1 ;      CG2R51     CG2R51
   24    42	 1 ;      CG2R51      HGR51
   25    26	 1 ;      CG2R51     SG2R50
   25    43	 1 ;      CG2R51      HGR52

[ pairs ]
;	ai	  aj funct			  c0			c1			  c2			c3
    1    12	 1
    1     5	 1
    1    18	 1
    1    37	 1
    1    20	 1
    1    40	 1
    2    17	 1
    2    21	 1
    2    12	 1
    2     5	 1
    3    17	 1
    3    21	 1
    3    10	 1
    3    35	 1
    3     7	 1
    3     6	 1
    4    16	 1
    4    27	 1
    4    28	 1
    4    29	 1
    4     8	 1
    4    13	 1
    4    31	 1
    4    11	 1
    5    30	 1
    5    10	 1
    5    35	 1
    5     9	 1
    5    15	 1
    5    14	 1
    5    36	 1
    6    12	 1
    6    11	 1
    6    32	 1
    6    33	 1
    6    34	 1
    7    12	 1
    7     8	 1
    7    13	 1
    7    31	 1
    8    15	 1
    8    14	 1
    8    36	 1
    8    35	 1
    9    13	 1
    9    31	 1
    9    12	 1
    9    11	 1
   10    13	 1
   10    31	 1
   10    32	 1
   10    33	 1
   10    34	 1
   11    35	 1
   12    30	 1
   14    31	 1
   15    31	 1
   16    28	 1
   16    29	 1
   16    30	 1
   16    19	 1
   16    38	 1
   16    39	 1
   17    27	 1
   17    20	 1
   17    40	 1
   17    22	 1
   18    21	 1
   18    39	 1
   18    26	 1
   18    23	 1
   19    37	 1
   19    40	 1
   19    25	 1
   19    24	 1
   19    41	 1
   20    38	 1
   20    26	 1
   20    23	 1
   21    27	 1
   21    37	 1
   21    22	 1
   22    38	 1
   22    39	 1
   22    42	 1
   22    43	 1
   23    43	 1
   25    41	 1
   26    41	 1
   26    42	 1
   27    28	 1
   27    29	 1
   27    30	 1
   28    30	 1
   29    30	 1
   31    36	 1
   37    38	 1
   39    40	 1
   41    42	 1
   42    43	 1

[ angles ]
;	ai	  aj	ak funct			c0			  c1			c2			  c3
    2     1     3	5 ;     CG3C31     CG3C31     CG3C31
    2     1    16	5 ;     CG3C31     CG3C31     CG2R61
    2     1    27	5 ;     CG3C31     CG3C31       HGA1
    3     1    16	5 ;     CG3C31     CG3C31     CG2R61
    3     1    27	5 ;     CG3C31     CG3C31       HGA1
   16     1    27	5 ;     CG2R61     CG3C31       HGA1
    1     2     3	5 ;     CG3C31     CG3C31     CG3C31
    1     2    28	5 ;     CG3C31     CG3C31       HGA2
    1     2    29	5 ;     CG3C31     CG3C31       HGA2
    3     2    28	5 ;     CG3C31     CG3C31       HGA2
    3     2    29	5 ;     CG3C31     CG3C31       HGA2
   28     2    29	5 ;       HGA2     CG3C31       HGA2
    2     3     1	5 ;     CG3C31     CG3C31     CG3C31
    2     3     4	5 ;     CG3C31     CG3C31     CG2D1O
    2     3    30	5 ;     CG3C31     CG3C31       HGA1
    1     3     4	5 ;     CG3C31     CG3C31     CG2D1O
    1     3    30	5 ;     CG3C31     CG3C31       HGA1
    4     3    30	5 ;     CG2D1O     CG3C31       HGA1
    3     4    12	5 ;     CG3C31     CG2D1O     CG2DC1
    3     4     5	5 ;     CG3C31     CG2D1O      NG311
   12     4     5	5 ;     CG2DC1     CG2D1O      NG311
    4     5     7	5 ;     CG2D1O      NG311     HGPAM1
    4     5     6	5 ;     CG2D1O      NG311      CG314
    7     5     6	5 ;     HGPAM1      NG311      CG314
    5     6     8	5 ;      NG311      CG314      NG2S0
    5     6    13	5 ;      NG311      CG314      NG3P3
    5     6    31	5 ;      NG311      CG314       HGA1
    8     6    13	5 ;      NG2S0      CG314      NG3P3
    8     6    31	5 ;      NG2S0      CG314       HGA1
   13     6    31	5 ;      NG3P3      CG314       HGA1
   10     8     6	5 ;      CG2O1      NG2S0      CG314
   10     8     9	5 ;      CG2O1      NG2S0      CG331
    6     8     9	5 ;      CG314      NG2S0      CG331
    8     9    32	5 ;      NG2S0      CG331       HGA3
    8     9    33	5 ;      NG2S0      CG331       HGA3
    8     9    34	5 ;      NG2S0      CG331       HGA3
   32     9    33	5 ;       HGA3      CG331       HGA3
   32     9    34	5 ;       HGA3      CG331       HGA3
   33     9    34	5 ;       HGA3      CG331       HGA3
   12    10    11	5 ;     CG2DC1      CG2O1      OG2D1
   12    10     8	5 ;     CG2DC1      CG2O1      NG2S0
   11    10     8	5 ;      OG2D1      CG2O1      NG2S0
    4    12    10	5 ;     CG2D1O     CG2DC1      CG2O1
    4    12    35	5 ;     CG2D1O     CG2DC1       HGA4
   10    12    35	5 ;      CG2O1     CG2DC1       HGA4
    6    13    15	5 ;      CG314      NG3P3       HGP2
    6    13    14	5 ;      CG314      NG3P3       HGP2
    6    13    36	5 ;      CG314      NG3P3       HGP2
   15    13    14	5 ;       HGP2      NG3P3       HGP2
   15    13    36	5 ;       HGP2      NG3P3       HGP2
   14    13    36	5 ;       HGP2      NG3P3       HGP2
    1    16    17	5 ;     CG3C31     CG2R61     CG2R61
    1    16    21	5 ;     CG3C31     CG2R61     CG2R61
   17    16    21	5 ;     CG2R61     CG2R61     CG2R61
   16    17    18	5 ;     CG2R61     CG2R61     CG2R61
   16    17    37	5 ;     CG2R61     CG2R61      HGR61
   18    17    37	5 ;     CG2R61     CG2R61      HGR61
   17    18    19	5 ;     CG2R61     CG2R61     CG2R61
   17    18    38	5 ;     CG2R61     CG2R61      HGR61
   19    18    38	5 ;     CG2R61     CG2R61      HGR61
   18    19    20	5 ;     CG2R61     CG2R61     CG2R61
   18    19    22	5 ;     CG2R61     CG2R61     CG2R51
   20    19    22	5 ;     CG2R61     CG2R61     CG2R51
   21    20    19	5 ;     CG2R61     CG2R61     CG2R61
   21    20    39	5 ;     CG2R61     CG2R61      HGR61
   19    20    39	5 ;     CG2R61     CG2R61      HGR61
   16    21    20	5 ;     CG2R61     CG2R61     CG2R61
   16    21    40	5 ;     CG2R61     CG2R61      HGR61
   20    21    40	5 ;     CG2R61     CG2R61      HGR61
   26    22    19	5 ;     SG2R50     CG2R51     CG2R61
   26    22    23	5 ;     SG2R50     CG2R51     CG2R51
   19    22    23	5 ;     CG2R61     CG2R51     CG2R51
   22    23    24	5 ;     CG2R51     CG2R51     CG2R51
   22    23    41	5 ;     CG2R51     CG2R51      HGR51
   24    23    41	5 ;     CG2R51     CG2R51      HGR51
   25    24    23	5 ;     CG2R51     CG2R51     CG2R51
   25    24    42	5 ;     CG2R51     CG2R51      HGR51
   23    24    42	5 ;     CG2R51     CG2R51      HGR51
   26    25    24	5 ;     SG2R50     CG2R51     CG2R51
   26    25    43	5 ;     SG2R50     CG2R51      HGR52
   24    25    43	5 ;     CG2R51     CG2R51      HGR52
   25    26    22	5 ;     CG2R51     SG2R50     CG2R51

[ dihedrals ]
;	ai	  aj	ak	  al funct			  c0			c1			  c2			c3			  c4			c5
    3     1     2    28	 9 ;     CG3C31     CG3C31     CG3C31       HGA2
    3     1     2    29	 9 ;     CG3C31     CG3C31     CG3C31       HGA2
   16     1     2     3	 9 ;     CG2R61     CG3C31     CG3C31     CG3C31
   16     1     2    28	 9 ;     CG2R61     CG3C31     CG3C31       HGA2
   16     1     2    29	 9 ;     CG2R61     CG3C31     CG3C31       HGA2
   27     1     2     3	 9 ;       HGA1     CG3C31     CG3C31     CG3C31
   27     1     2    28	 9 ;       HGA1     CG3C31     CG3C31       HGA2
   27     1     2    29	 9 ;       HGA1     CG3C31     CG3C31       HGA2
    2     1     3     4	 9 ;     CG3C31     CG3C31     CG3C31     CG2D1O
    2     1     3    30	 9 ;     CG3C31     CG3C31     CG3C31       HGA1
   16     1     3     2	 9 ;     CG2R61     CG3C31     CG3C31     CG3C31
   16     1     3     4	 9 ;     CG2R61     CG3C31     CG3C31     CG2D1O
   16     1     3    30	 9 ;     CG2R61     CG3C31     CG3C31       HGA1
   27     1     3     2	 9 ;       HGA1     CG3C31     CG3C31     CG3C31
   27     1     3     4	 9 ;       HGA1     CG3C31     CG3C31     CG2D1O
   27     1     3    30	 9 ;       HGA1     CG3C31     CG3C31       HGA1
    2     1    16    17	 9 ;     CG3C31     CG3C31     CG2R61     CG2R61
    2     1    16    21	 9 ;     CG3C31     CG3C31     CG2R61     CG2R61
    3     1    16    17	 9 ;     CG3C31     CG3C31     CG2R61     CG2R61
    3     1    16    21	 9 ;     CG3C31     CG3C31     CG2R61     CG2R61
   27     1    16    17	 9 ;       HGA1     CG3C31     CG2R61     CG2R61
   27     1    16    21	 9 ;       HGA1     CG3C31     CG2R61     CG2R61
    1     2     3     4	 9 ;     CG3C31     CG3C31     CG3C31     CG2D1O
    1     2     3    30	 9 ;     CG3C31     CG3C31     CG3C31       HGA1
   28     2     3     1	 9 ;       HGA2     CG3C31     CG3C31     CG3C31
   28     2     3     4	 9 ;       HGA2     CG3C31     CG3C31     CG2D1O
   28     2     3    30	 9 ;       HGA2     CG3C31     CG3C31       HGA1
   29     2     3     1	 9 ;       HGA2     CG3C31     CG3C31     CG3C31
   29     2     3     4	 9 ;       HGA2     CG3C31     CG3C31     CG2D1O
   29     2     3    30	 9 ;       HGA2     CG3C31     CG3C31       HGA1
    2     3     4    12	 9 ;     CG3C31     CG3C31     CG2D1O     CG2DC1
    2     3     4     5	 9 ;     CG3C31     CG3C31     CG2D1O      NG311
    1     3     4    12	 9 ;     CG3C31     CG3C31     CG2D1O     CG2DC1
    1     3     4     5	 9 ;     CG3C31     CG3C31     CG2D1O      NG311
   30     3     4    12	 9 ;       HGA1     CG3C31     CG2D1O     CG2DC1
   30     3     4     5	 9 ;       HGA1     CG3C31     CG2D1O      NG311
    3     4    12    10	 9 ;     CG3C31     CG2D1O     CG2DC1      CG2O1
    3     4    12    35	 9 ;     CG3C31     CG2D1O     CG2DC1       HGA4
    5     4    12    10	 9 ;      NG311     CG2D1O     CG2DC1      CG2O1
    5     4    12    35	 9 ;      NG311     CG2D1O     CG2DC1       HGA4
    3     4     5     7	 9 ;     CG3C31     CG2D1O      NG311     HGPAM1
    3     4     5     6	 9 ;     CG3C31     CG2D1O      NG311      CG314
   12     4     5     7	 9 ;     CG2DC1     CG2D1O      NG311     HGPAM1
   12     4     5     6	 9 ;     CG2DC1     CG2D1O      NG311      CG314
    4     5     6     8	 9 ;     CG2D1O      NG311      CG314      NG2S0
    4     5     6    13	 9 ;     CG2D1O      NG311      CG314      NG3P3
    4     5     6    31	 9 ;     CG2D1O      NG311      CG314       HGA1
    7     5     6     8	 9 ;     HGPAM1      NG311      CG314      NG2S0
    7     5     6    13	 9 ;     HGPAM1      NG311      CG314      NG3P3
    7     5     6    31	 9 ;     HGPAM1      NG311      CG314       HGA1
    5     6     8    10	 9 ;      NG311      CG314      NG2S0      CG2O1
    5     6     8     9	 9 ;      NG311      CG314      NG2S0      CG331
   13     6     8    10	 9 ;      NG3P3      CG314      NG2S0      CG2O1
   13     6     8     9	 9 ;      NG3P3      CG314      NG2S0      CG331
   31     6     8    10	 9 ;       HGA1      CG314      NG2S0      CG2O1
   31     6     8     9	 9 ;       HGA1      CG314      NG2S0      CG331
    5     6    13    15	 9 ;      NG311      CG314      NG3P3       HGP2
    5     6    13    14	 9 ;      NG311      CG314      NG3P3       HGP2
    5     6    13    36	 9 ;      NG311      CG314      NG3P3       HGP2
    8     6    13    15	 9 ;      NG2S0      CG314      NG3P3       HGP2
    8     6    13    14	 9 ;      NG2S0      CG314      NG3P3       HGP2
    8     6    13    36	 9 ;      NG2S0      CG314      NG3P3       HGP2
   31     6    13    15	 9 ;       HGA1      CG314      NG3P3       HGP2
   31     6    13    14	 9 ;       HGA1      CG314      NG3P3       HGP2
   31     6    13    36	 9 ;       HGA1      CG314      NG3P3       HGP2
    6     8    10    12	 9 ;      CG314      NG2S0      CG2O1     CG2DC1
    6     8    10    11	 9 ;      CG314      NG2S0      CG2O1      OG2D1
    9     8    10    12	 9 ;      CG331      NG2S0      CG2O1     CG2DC1
    9     8    10    11	 9 ;      CG331      NG2S0      CG2O1      OG2D1
   10     8     9    32	 9 ;      CG2O1      NG2S0      CG331       HGA3
   10     8     9    33	 9 ;      CG2O1      NG2S0      CG331       HGA3
   10     8     9    34	 9 ;      CG2O1      NG2S0      CG331       HGA3
    6     8     9    32	 9 ;      CG314      NG2S0      CG331       HGA3
    6     8     9    33	 9 ;      CG314      NG2S0      CG331       HGA3
    6     8     9    34	 9 ;      CG314      NG2S0      CG331       HGA3
   11    10    12     4	 9 ;      OG2D1      CG2O1     CG2DC1     CG2D1O
   11    10    12    35	 9 ;      OG2D1      CG2O1     CG2DC1       HGA4
    8    10    12     4	 9 ;      NG2S0      CG2O1     CG2DC1     CG2D1O
    8    10    12    35	 9 ;      NG2S0      CG2O1     CG2DC1       HGA4
    1    16    17    18	 9 ;     CG3C31     CG2R61     CG2R61     CG2R61
    1    16    17    37	 9 ;     CG3C31     CG2R61     CG2R61      HGR61
   21    16    17    18	 9 ;     CG2R61     CG2R61     CG2R61     CG2R61
   21    16    17    37	 9 ;     CG2R61     CG2R61     CG2R61      HGR61
    1    16    21    20	 9 ;     CG3C31     CG2R61     CG2R61     CG2R61
    1    16    21    40	 9 ;     CG3C31     CG2R61     CG2R61      HGR61
   17    16    21    20	 9 ;     CG2R61     CG2R61     CG2R61     CG2R61
   17    16    21    40	 9 ;     CG2R61     CG2R61     CG2R61      HGR61
   16    17    18    19	 9 ;     CG2R61     CG2R61     CG2R61     CG2R61
   16    17    18    38	 9 ;     CG2R61     CG2R61     CG2R61      HGR61
   37    17    18    19	 9 ;      HGR61     CG2R61     CG2R61     CG2R61
   37    17    18    38	 9 ;      HGR61     CG2R61     CG2R61      HGR61
   17    18    19    20	 9 ;     CG2R61     CG2R61     CG2R61     CG2R61
   17    18    19    22	 9 ;     CG2R61     CG2R61     CG2R61     CG2R51
   38    18    19    20	 9 ;      HGR61     CG2R61     CG2R61     CG2R61
   38    18    19    22	 9 ;      HGR61     CG2R61     CG2R61     CG2R51
   18    19    20    21	 9 ;     CG2R61     CG2R61     CG2R61     CG2R61
   18    19    20    39	 9 ;     CG2R61     CG2R61     CG2R61      HGR61
   22    19    20    21	 9 ;     CG2R51     CG2R61     CG2R61     CG2R61
   22    19    20    39	 9 ;     CG2R51     CG2R61     CG2R61      HGR61
   18    19    22    26	 9 ;     CG2R61     CG2R61     CG2R51     SG2R50
   18    19    22    23	 9 ;     CG2R61     CG2R61     CG2R51     CG2R51
   20    19    22    26	 9 ;     CG2R61     CG2R61     CG2R51     SG2R50
   20    19    22    23	 9 ;     CG2R61     CG2R61     CG2R51     CG2R51
   19    20    21    16	 9 ;     CG2R61     CG2R61     CG2R61     CG2R61
   19    20    21    40	 9 ;     CG2R61     CG2R61     CG2R61      HGR61
   39    20    21    16	 9 ;      HGR61     CG2R61     CG2R61     CG2R61
   39    20    21    40	 9 ;      HGR61     CG2R61     CG2R61      HGR61
   19    22    26    25	 9 ;     CG2R61     CG2R51     SG2R50     CG2R51
   23    22    26    25	 9 ;     CG2R51     CG2R51     SG2R50     CG2R51
   26    22    23    24	 9 ;     SG2R50     CG2R51     CG2R51     CG2R51
   26    22    23    41	 9 ;     SG2R50     CG2R51     CG2R51      HGR51
   19    22    23    24	 9 ;     CG2R61     CG2R51     CG2R51     CG2R51
   19    22    23    41	 9 ;     CG2R61     CG2R51     CG2R51      HGR51
   22    23    24    25	 9 ;     CG2R51     CG2R51     CG2R51     CG2R51
   22    23    24    42	 9 ;     CG2R51     CG2R51     CG2R51      HGR51
   41    23    24    25	 9 ;      HGR51     CG2R51     CG2R51     CG2R51
   41    23    24    42	 9 ;      HGR51     CG2R51     CG2R51      HGR51
   23    24    25    26	 9 ;     CG2R51     CG2R51     CG2R51     SG2R50
   23    24    25    43	 9 ;     CG2R51     CG2R51     CG2R51      HGR52
   42    24    25    26	 9 ;      HGR51     CG2R51     CG2R51     SG2R50
   42    24    25    43	 9 ;      HGR51     CG2R51     CG2R51      HGR52
   24    25    26    22	 9 ;     CG2R51     CG2R51     SG2R50     CG2R51
   43    25    26    22	 9 ;      HGR52     CG2R51     SG2R50     CG2R51

[ dihedrals ]
;	ai	  aj	ak	  al funct			  c0			c1			  c2			c3
    4    12     3     5	 2
   10    12     8    11	 2

