GROningen MAchine for Chemical Simulation
   43
    1LIG     C1    1  -1.236   0.687  -1.520
    1LIG     C2    2  -1.242   0.715  -1.667
    1LIG     C3    3  -1.335   0.786  -1.572
    1LIG     C4    4  -1.479   0.780  -1.603
    1LIG     N1    5  -1.560   0.874  -1.546
    1LIG     C5    6  -1.682   0.888  -1.590
    1LIG     HN    7  -1.526   0.933  -1.470
    1LIG     N2    8  -1.736   0.809  -1.691
    1LIG     C6    9  -1.868   0.829  -1.748
    1LIG     C7   10  -1.660   0.710  -1.750
    1LIG      O   11  -1.697   0.638  -1.842
    1LIG     C8   12  -1.523   0.697  -1.700
    1LIG     N3   13  -1.757   0.985  -1.532
    1LIG     H1   14  -1.807   0.962  -1.448
    1LIG     H2   15  -1.703   1.071  -1.522
    1LIG     C9   16  -1.250   0.546  -1.468
    1LIG    C10   17  -1.293   0.444  -1.555
    1LIG    C11   18  -1.275   0.308  -1.526
    1LIG    C12   19  -1.213   0.268  -1.408
    1LIG    C13   20  -1.176   0.368  -1.317
    1LIG    C14   21  -1.195   0.504  -1.346
    1LIG    C15   22  -1.181   0.125  -1.385
    1LIG    C16   23  -1.227   0.040  -1.286
    1LIG    C17   24  -1.175  -0.092  -1.296
    1LIG    C18   25  -1.091  -0.105  -1.404
    1LIG      S   26  -1.073   0.041  -1.490
    1LIG     HC   27  -1.151   0.737  -1.474
    1LIG    HC2   28  -1.161   0.769  -1.716
    1LIG    HC3   29  -1.288   0.637  -1.728
    1LIG    HC1   30  -1.303   0.889  -1.554
    1LIG    HC4   31  -1.647   0.959  -1.665
    1LIG    HC5   32  -1.886   0.754  -1.825
    1LIG    HC6   33  -1.873   0.929  -1.793
    1LIG    HC7   34  -1.943   0.820  -1.670
    1LIG    HC8   35  -1.457   0.622  -1.741
    1LIG    HN1   36  -1.829   1.007  -1.600
    1LIG    HC9   37  -1.343   0.472  -1.647
    1LIG   HC10   38  -1.309   0.234  -1.597
    1LIG   HC11   39  -1.133   0.340  -1.222
    1LIG   HC12   40  -1.166   0.579  -1.273
    1LIG   HC13   41  -1.295   0.072  -1.208
    1LIG   HC14   42  -1.200  -0.172  -1.228
    1LIG   HC15   43  -1.041  -0.198  -1.431
   0.00000   0.00000   0.00000
