; Created by cgenff_charmm2gmx.py

[ moleculetype ]
; Name			   nrexcl
LIG				 3

[ atoms ]
;	 nr		  type	resnr residue  atom   cgnr	   charge		mass  typeB    chargeB		massB
; residue	 1 LIG rtp LIG q	qsum
     1     CG2R51      1    LIG     C1      1     -0.211     12.011   ;
     2     NG2R51      1    LIG     N1      2     -0.191     14.007   ;
     3     CG2R51      1    LIG     C2      3     -0.211     12.011   ;
     4     CG2R51      1    LIG     C3      4     -0.231     12.011   ;
     5     CG2R51      1    LIG     C4      5     -0.231     12.011   ;
     6     CG2R61      1    LIG     C5      6      0.129     12.011   ;
     7     CG2R61      1    LIG     C6      7     -0.118     12.011   ;
     8     CG2R61      1    LIG     C7      8     -0.118     12.011   ;
     9     CG2R61      1    LIG     C8      9      0.097     12.011   ;
    10     CG2R61      1    LIG     C9     10     -0.118     12.011   ;
    11     CG2R61      1    LIG    C10     11     -0.118     12.011   ;
    12      NG2S1      1    LIG     N2     12     -0.434     14.007   ;
    13      CG2O1      1    LIG    C11     13      0.537     12.011   ;
    14      OG2D1      1    LIG     O1     14     -0.470     15.999   ;
    15       HGP1      1    LIG     H1     15      0.322      1.008   ;
    16     CG2R61      1    LIG    C12     16     -0.172     12.011   ;
    17     CG2R61      1    LIG    C13     17     -0.013     12.011   ;
    18     CG2R61      1    LIG    C14     18     -0.025     12.011   ;
    19      BRGR1      1    LIG     BR     19     -0.181     79.904   ;
    20     CG2R61      1    LIG    C15     20     -0.073     12.011   ;
    21     CG2R61      1    LIG    C16     21     -0.114     12.011   ;
    22     CG2R61      1    LIG    C17     22     -0.052     12.011   ;
    23      CG321      1    LIG    C18     23      0.219     12.011   ;
    24      CG2O1      1    LIG    C19     24      0.797     12.011   ;
    25      OG2D1      1    LIG     O2     25     -0.505     15.999   ;
    26      NG2P1      1    LIG     N3     26     -0.724     14.007   ;
    27      CG2N1      1    LIG    C20     27      0.696     12.011   ;
    28       HGP2      1    LIG     H2     28      0.476      1.008   ;
    29      NG2P1      1    LIG     N4     29     -0.703     14.007   ;
    30      NG2P1      1    LIG     N5     30     -0.703     14.007   ;
    31       HGP2      1    LIG     H3     31      0.424      1.008   ;
    32       HGP2      1    LIG     H4     32      0.424      1.008   ;
    33       HGP2      1    LIG     H5     33      0.424      1.008   ;
    34       HGP2      1    LIG     H6     34      0.424      1.008   ;
    35     CG2R61      1    LIG    C21     35      0.129     12.011   ;
    36     CG2R61      1    LIG    C22     36     -0.121     12.011   ;
    37     CG2R61      1    LIG    C23     37     -0.115     12.011   ;
    38     CG2R61      1    LIG    C24     38     -0.116     12.011   ;
    39     CG2R61      1    LIG    C25     39     -0.115     12.011   ;
    40     CG2R61      1    LIG    C26     40     -0.121     12.011   ;
    41      HGR51      1    LIG     HC     41      0.202      1.008   ;
    42      HGR51      1    LIG    HC1     42      0.202      1.008   ;
    43      HGR61      1    LIG    HC2     43      0.116      1.008   ;
    44      HGR61      1    LIG    HC3     44      0.116      1.008   ;
    45      HGR61      1    LIG    HC4     45      0.116      1.008   ;
    46      HGR61      1    LIG    HC5     46      0.116      1.008   ;
    47      HGR62      1    LIG    HC6     47      0.148      1.008   ;
    48      HGR62      1    LIG    HC7     48      0.148      1.008   ;
    49      HGR61      1    LIG    HC8     49      0.116      1.008   ;
    50      HGR61      1    LIG    HC9     50      0.116      1.008   ;
    51       HGA2      1    LIG   HC10     51      0.090      1.008   ;
    52       HGA2      1    LIG   HC11     52      0.090      1.008   ;
    53      HGR61      1    LIG   HC12     53      0.116      1.008   ;
    54      HGR61      1    LIG   HC13     54      0.116      1.008   ;
    55      HGR61      1    LIG   HC14     55      0.116      1.008   ;
    56      HGR61      1    LIG   HC15     56      0.116      1.008   ;
    57      HGR61      1    LIG   HC16     57      0.116      1.008   ;
    58        LPH      1    LIG    LP1     58      0.050      0.000   ;

[ bonds ]
;	ai	  aj funct			  c0			c1			  c2			c3
    1     6	 1 ;      CG2R51     CG2R61
    1     5	 1 ;      CG2R51     CG2R51
    1     2	 1 ;      CG2R51     NG2R51
    2    23	 1 ;      NG2R51      CG321
    2     3	 1 ;      NG2R51     CG2R51
    3     4	 1 ;      CG2R51     CG2R51
    3    35	 1 ;      CG2R51     CG2R61
    4     5	 1 ;      CG2R51     CG2R51
    4    41	 1 ;      CG2R51      HGR51
    5    42	 1 ;      CG2R51      HGR51
    6    11	 1 ;      CG2R61     CG2R61
    6     7	 1 ;      CG2R61     CG2R61
    7     8	 1 ;      CG2R61     CG2R61
    7    43	 1 ;      CG2R61      HGR61
    8     9	 1 ;      CG2R61     CG2R61
    8    44	 1 ;      CG2R61      HGR61
    9    12	 1 ;      CG2R61      NG2S1
    9    10	 1 ;      CG2R61     CG2R61
   10    11	 1 ;      CG2R61     CG2R61
   10    45	 1 ;      CG2R61      HGR61
   11    46	 1 ;      CG2R61      HGR61
   12    13	 1 ;       NG2S1      CG2O1
   12    15	 1 ;       NG2S1       HGP1
   13    16	 1 ;       CG2O1     CG2R61
   13    14	 1 ;       CG2O1      OG2D1
   16    22	 1 ;      CG2R61     CG2R61
   16    17	 1 ;      CG2R61     CG2R61
   17    18	 1 ;      CG2R61     CG2R61
   17    47	 1 ;      CG2R61      HGR62
   18    20	 1 ;      CG2R61     CG2R61
   18    19	 1 ;      CG2R61      BRGR1
   20    21	 1 ;      CG2R61     CG2R61
   20    48	 1 ;      CG2R61      HGR62
   21    22	 1 ;      CG2R61     CG2R61
   21    49	 1 ;      CG2R61      HGR61
   22    50	 1 ;      CG2R61      HGR61
   23    24	 1 ;       CG321      CG2O1
   23    51	 1 ;       CG321       HGA2
   23    52	 1 ;       CG321       HGA2
   24    26	 1 ;       CG2O1      NG2P1
   24    25	 1 ;       CG2O1      OG2D1
   26    28	 1 ;       NG2P1       HGP2
   26    27	 1 ;       NG2P1      CG2N1
   27    30	 1 ;       CG2N1      NG2P1
   27    29	 1 ;       CG2N1      NG2P1
   29    31	 1 ;       NG2P1       HGP2
   29    32	 1 ;       NG2P1       HGP2
   30    33	 1 ;       NG2P1       HGP2
   30    34	 1 ;       NG2P1       HGP2
   35    40	 1 ;      CG2R61     CG2R61
   35    36	 1 ;      CG2R61     CG2R61
   36    37	 1 ;      CG2R61     CG2R61
   36    53	 1 ;      CG2R61      HGR61
   37    38	 1 ;      CG2R61     CG2R61
   37    54	 1 ;      CG2R61      HGR61
   38    39	 1 ;      CG2R61     CG2R61
   38    55	 1 ;      CG2R61      HGR61
   39    40	 1 ;      CG2R61     CG2R61
   39    56	 1 ;      CG2R61      HGR61
   40    57	 1 ;      CG2R61      HGR61

[ pairs ]
;	ai	  aj funct			  c0			c1			  c2			c3
    1    24	 1
    1    51	 1
    1    52	 1
    1    35	 1
    1    41	 1
    1    10	 1
    1    46	 1
    1     8	 1
    1    43	 1
    2    11	 1
    2     7	 1
    2    42	 1
    2    41	 1
    2    40	 1
    2    36	 1
    2    26	 1
    2    25	 1
    3     6	 1
    3    24	 1
    3    51	 1
    3    52	 1
    3    42	 1
    3    39	 1
    3    57	 1
    3    37	 1
    3    53	 1
    4     6	 1
    4    23	 1
    4    40	 1
    4    36	 1
    5    11	 1
    5     7	 1
    5    23	 1
    5    35	 1
    6    42	 1
    6    23	 1
    6     9	 1
    6    44	 1
    6    45	 1
    7    10	 1
    7    46	 1
    7    12	 1
    8    11	 1
    8    13	 1
    8    15	 1
    8    45	 1
    9    43	 1
    9    46	 1
    9    16	 1
    9    14	 1
   10    44	 1
   10    13	 1
   10    15	 1
   11    43	 1
   11    12	 1
   12    44	 1
   12    45	 1
   12    22	 1
   12    17	 1
   13    21	 1
   13    50	 1
   13    18	 1
   13    47	 1
   14    15	 1
   14    22	 1
   14    17	 1
   15    16	 1
   16    20	 1
   16    19	 1
   58    16	 1
   16    49	 1
   17    21	 1
   17    50	 1
   17    48	 1
   18    22	 1
   18    49	 1
   19    47	 1
   58    47	 1
   19    21	 1
   58    21	 1
   19    48	 1
   58    48	 1
   20    47	 1
   20    50	 1
   22    47	 1
   22    48	 1
   23    35	 1
   23    28	 1
   23    27	 1
   24    30	 1
   24    29	 1
   25    51	 1
   25    52	 1
   25    28	 1
   25    27	 1
   26    51	 1
   26    52	 1
   26    33	 1
   26    34	 1
   26    31	 1
   26    32	 1
   28    30	 1
   28    29	 1
   29    33	 1
   29    34	 1
   30    31	 1
   30    32	 1
   35    41	 1
   35    38	 1
   35    54	 1
   35    56	 1
   36    39	 1
   36    57	 1
   36    55	 1
   37    40	 1
   37    56	 1
   38    53	 1
   38    57	 1
   39    54	 1
   40    53	 1
   40    55	 1
   41    42	 1
   43    44	 1
   45    46	 1
   48    49	 1
   49    50	 1
   53    54	 1
   54    55	 1
   55    56	 1
   56    57	 1

[ angles ]
;	ai	  aj	ak funct			c0			  c1			c2			  c3
    6     1     5	5 ;     CG2R61     CG2R51     CG2R51
    6     1     2	5 ;     CG2R61     CG2R51     NG2R51
    5     1     2	5 ;     CG2R51     CG2R51     NG2R51
    1     2    23	5 ;     CG2R51     NG2R51      CG321
    1     2     3	5 ;     CG2R51     NG2R51     CG2R51
   23     2     3	5 ;      CG321     NG2R51     CG2R51
    2     3     4	5 ;     NG2R51     CG2R51     CG2R51
    2     3    35	5 ;     NG2R51     CG2R51     CG2R61
    4     3    35	5 ;     CG2R51     CG2R51     CG2R61
    5     4     3	5 ;     CG2R51     CG2R51     CG2R51
    5     4    41	5 ;     CG2R51     CG2R51      HGR51
    3     4    41	5 ;     CG2R51     CG2R51      HGR51
    1     5     4	5 ;     CG2R51     CG2R51     CG2R51
    1     5    42	5 ;     CG2R51     CG2R51      HGR51
    4     5    42	5 ;     CG2R51     CG2R51      HGR51
   11     6     7	5 ;     CG2R61     CG2R61     CG2R61
   11     6     1	5 ;     CG2R61     CG2R61     CG2R51
    7     6     1	5 ;     CG2R61     CG2R61     CG2R51
    8     7     6	5 ;     CG2R61     CG2R61     CG2R61
    8     7    43	5 ;     CG2R61     CG2R61      HGR61
    6     7    43	5 ;     CG2R61     CG2R61      HGR61
    9     8     7	5 ;     CG2R61     CG2R61     CG2R61
    9     8    44	5 ;     CG2R61     CG2R61      HGR61
    7     8    44	5 ;     CG2R61     CG2R61      HGR61
   12     9    10	5 ;      NG2S1     CG2R61     CG2R61
   12     9     8	5 ;      NG2S1     CG2R61     CG2R61
   10     9     8	5 ;     CG2R61     CG2R61     CG2R61
    9    10    11	5 ;     CG2R61     CG2R61     CG2R61
    9    10    45	5 ;     CG2R61     CG2R61      HGR61
   11    10    45	5 ;     CG2R61     CG2R61      HGR61
   10    11     6	5 ;     CG2R61     CG2R61     CG2R61
   10    11    46	5 ;     CG2R61     CG2R61      HGR61
    6    11    46	5 ;     CG2R61     CG2R61      HGR61
   13    12    15	5 ;      CG2O1      NG2S1       HGP1
   13    12     9	5 ;      CG2O1      NG2S1     CG2R61
   15    12     9	5 ;       HGP1      NG2S1     CG2R61
   16    13    14	5 ;     CG2R61      CG2O1      OG2D1
   16    13    12	5 ;     CG2R61      CG2O1      NG2S1
   14    13    12	5 ;      OG2D1      CG2O1      NG2S1
   22    16    17	5 ;     CG2R61     CG2R61     CG2R61
   22    16    13	5 ;     CG2R61     CG2R61      CG2O1
   17    16    13	5 ;     CG2R61     CG2R61      CG2O1
   18    17    16	5 ;     CG2R61     CG2R61     CG2R61
   18    17    47	5 ;     CG2R61     CG2R61      HGR62
   16    17    47	5 ;     CG2R61     CG2R61      HGR62
   20    18    19	5 ;     CG2R61     CG2R61      BRGR1
   20    18    17	5 ;     CG2R61     CG2R61     CG2R61
   19    18    17	5 ;      BRGR1     CG2R61     CG2R61
   21    20    18	5 ;     CG2R61     CG2R61     CG2R61
   21    20    48	5 ;     CG2R61     CG2R61      HGR62
   18    20    48	5 ;     CG2R61     CG2R61      HGR62
   20    21    22	5 ;     CG2R61     CG2R61     CG2R61
   20    21    49	5 ;     CG2R61     CG2R61      HGR61
   22    21    49	5 ;     CG2R61     CG2R61      HGR61
   21    22    16	5 ;     CG2R61     CG2R61     CG2R61
   21    22    50	5 ;     CG2R61     CG2R61      HGR61
   16    22    50	5 ;     CG2R61     CG2R61      HGR61
    2    23    24	5 ;     NG2R51      CG321      CG2O1
    2    23    51	5 ;     NG2R51      CG321       HGA2
    2    23    52	5 ;     NG2R51      CG321       HGA2
   24    23    51	5 ;      CG2O1      CG321       HGA2
   24    23    52	5 ;      CG2O1      CG321       HGA2
   51    23    52	5 ;       HGA2      CG321       HGA2
   23    24    26	5 ;      CG321      CG2O1      NG2P1
   23    24    25	5 ;      CG321      CG2O1      OG2D1
   26    24    25	5 ;      NG2P1      CG2O1      OG2D1
   28    26    27	5 ;       HGP2      NG2P1      CG2N1
   28    26    24	5 ;       HGP2      NG2P1      CG2O1
   27    26    24	5 ;      CG2N1      NG2P1      CG2O1
   30    27    26	5 ;      NG2P1      CG2N1      NG2P1
   30    27    29	5 ;      NG2P1      CG2N1      NG2P1
   26    27    29	5 ;      NG2P1      CG2N1      NG2P1
   27    29    31	5 ;      CG2N1      NG2P1       HGP2
   27    29    32	5 ;      CG2N1      NG2P1       HGP2
   31    29    32	5 ;       HGP2      NG2P1       HGP2
   33    30    34	5 ;       HGP2      NG2P1       HGP2
   33    30    27	5 ;       HGP2      NG2P1      CG2N1
   34    30    27	5 ;       HGP2      NG2P1      CG2N1
    3    35    40	5 ;     CG2R51     CG2R61     CG2R61
    3    35    36	5 ;     CG2R51     CG2R61     CG2R61
   40    35    36	5 ;     CG2R61     CG2R61     CG2R61
   35    36    37	5 ;     CG2R61     CG2R61     CG2R61
   35    36    53	5 ;     CG2R61     CG2R61      HGR61
   37    36    53	5 ;     CG2R61     CG2R61      HGR61
   36    37    38	5 ;     CG2R61     CG2R61     CG2R61
   36    37    54	5 ;     CG2R61     CG2R61      HGR61
   38    37    54	5 ;     CG2R61     CG2R61      HGR61
   39    38    37	5 ;     CG2R61     CG2R61     CG2R61
   39    38    55	5 ;     CG2R61     CG2R61      HGR61
   37    38    55	5 ;     CG2R61     CG2R61      HGR61
   40    39    38	5 ;     CG2R61     CG2R61     CG2R61
   40    39    56	5 ;     CG2R61     CG2R61      HGR61
   38    39    56	5 ;     CG2R61     CG2R61      HGR61
   35    40    39	5 ;     CG2R61     CG2R61     CG2R61
   35    40    57	5 ;     CG2R61     CG2R61      HGR61
   39    40    57	5 ;     CG2R61     CG2R61      HGR61

[ dihedrals ]
;	ai	  aj	ak	  al funct			  c0			c1			  c2			c3			  c4			c5
    5     1     6    11	 9 ;     CG2R51     CG2R51     CG2R61     CG2R61
    5     1     6     7	 9 ;     CG2R51     CG2R51     CG2R61     CG2R61
    2     1     6    11	 9 ;     NG2R51     CG2R51     CG2R61     CG2R61
    2     1     6     7	 9 ;     NG2R51     CG2R51     CG2R61     CG2R61
    6     1     5     4	 9 ;     CG2R61     CG2R51     CG2R51     CG2R51
    6     1     5    42	 9 ;     CG2R61     CG2R51     CG2R51      HGR51
    2     1     5     4	 9 ;     NG2R51     CG2R51     CG2R51     CG2R51
    2     1     5    42	 9 ;     NG2R51     CG2R51     CG2R51      HGR51
    6     1     2    23	 9 ;     CG2R61     CG2R51     NG2R51      CG321
    6     1     2     3	 9 ;     CG2R61     CG2R51     NG2R51     CG2R51
    5     1     2    23	 9 ;     CG2R51     CG2R51     NG2R51      CG321
    5     1     2     3	 9 ;     CG2R51     CG2R51     NG2R51     CG2R51
    1     2    23    24	 9 ;     CG2R51     NG2R51      CG321      CG2O1
    1     2    23    51	 9 ;     CG2R51     NG2R51      CG321       HGA2
    1     2    23    52	 9 ;     CG2R51     NG2R51      CG321       HGA2
    3     2    23    24	 9 ;     CG2R51     NG2R51      CG321      CG2O1
    3     2    23    51	 9 ;     CG2R51     NG2R51      CG321       HGA2
    3     2    23    52	 9 ;     CG2R51     NG2R51      CG321       HGA2
    1     2     3     4	 9 ;     CG2R51     NG2R51     CG2R51     CG2R51
    1     2     3    35	 9 ;     CG2R51     NG2R51     CG2R51     CG2R61
   23     2     3     4	 9 ;      CG321     NG2R51     CG2R51     CG2R51
   23     2     3    35	 9 ;      CG321     NG2R51     CG2R51     CG2R61
    2     3     4     5	 9 ;     NG2R51     CG2R51     CG2R51     CG2R51
    2     3     4    41	 9 ;     NG2R51     CG2R51     CG2R51      HGR51
   35     3     4     5	 9 ;     CG2R61     CG2R51     CG2R51     CG2R51
   35     3     4    41	 9 ;     CG2R61     CG2R51     CG2R51      HGR51
    2     3    35    40	 9 ;     NG2R51     CG2R51     CG2R61     CG2R61
    2     3    35    36	 9 ;     NG2R51     CG2R51     CG2R61     CG2R61
    4     3    35    40	 9 ;     CG2R51     CG2R51     CG2R61     CG2R61
    4     3    35    36	 9 ;     CG2R51     CG2R51     CG2R61     CG2R61
    3     4     5     1	 9 ;     CG2R51     CG2R51     CG2R51     CG2R51
    3     4     5    42	 9 ;     CG2R51     CG2R51     CG2R51      HGR51
   41     4     5     1	 9 ;      HGR51     CG2R51     CG2R51     CG2R51
   41     4     5    42	 9 ;      HGR51     CG2R51     CG2R51      HGR51
    7     6    11    10	 9 ;     CG2R61     CG2R61     CG2R61     CG2R61
    7     6    11    46	 9 ;     CG2R61     CG2R61     CG2R61      HGR61
    1     6    11    10	 9 ;     CG2R51     CG2R61     CG2R61     CG2R61
    1     6    11    46	 9 ;     CG2R51     CG2R61     CG2R61      HGR61
   11     6     7     8	 9 ;     CG2R61     CG2R61     CG2R61     CG2R61
   11     6     7    43	 9 ;     CG2R61     CG2R61     CG2R61      HGR61
    1     6     7     8	 9 ;     CG2R51     CG2R61     CG2R61     CG2R61
    1     6     7    43	 9 ;     CG2R51     CG2R61     CG2R61      HGR61
    6     7     8     9	 9 ;     CG2R61     CG2R61     CG2R61     CG2R61
    6     7     8    44	 9 ;     CG2R61     CG2R61     CG2R61      HGR61
   43     7     8     9	 9 ;      HGR61     CG2R61     CG2R61     CG2R61
   43     7     8    44	 9 ;      HGR61     CG2R61     CG2R61      HGR61
    7     8     9    12	 9 ;     CG2R61     CG2R61     CG2R61      NG2S1
    7     8     9    10	 9 ;     CG2R61     CG2R61     CG2R61     CG2R61
   44     8     9    12	 9 ;      HGR61     CG2R61     CG2R61      NG2S1
   44     8     9    10	 9 ;      HGR61     CG2R61     CG2R61     CG2R61
   10     9    12    13	 9 ;     CG2R61     CG2R61      NG2S1      CG2O1
   10     9    12    15	 9 ;     CG2R61     CG2R61      NG2S1       HGP1
    8     9    12    13	 9 ;     CG2R61     CG2R61      NG2S1      CG2O1
    8     9    12    15	 9 ;     CG2R61     CG2R61      NG2S1       HGP1
   12     9    10    11	 9 ;      NG2S1     CG2R61     CG2R61     CG2R61
   12     9    10    45	 9 ;      NG2S1     CG2R61     CG2R61      HGR61
    8     9    10    11	 9 ;     CG2R61     CG2R61     CG2R61     CG2R61
    8     9    10    45	 9 ;     CG2R61     CG2R61     CG2R61      HGR61
    9    10    11     6	 9 ;     CG2R61     CG2R61     CG2R61     CG2R61
    9    10    11    46	 9 ;     CG2R61     CG2R61     CG2R61      HGR61
   45    10    11     6	 9 ;      HGR61     CG2R61     CG2R61     CG2R61
   45    10    11    46	 9 ;      HGR61     CG2R61     CG2R61      HGR61
   15    12    13    16	 9 ;       HGP1      NG2S1      CG2O1     CG2R61
   15    12    13    14	 9 ;       HGP1      NG2S1      CG2O1      OG2D1
    9    12    13    16	 9 ;     CG2R61      NG2S1      CG2O1     CG2R61
    9    12    13    14	 9 ;     CG2R61      NG2S1      CG2O1      OG2D1
   14    13    16    22	 9 ;      OG2D1      CG2O1     CG2R61     CG2R61
   14    13    16    17	 9 ;      OG2D1      CG2O1     CG2R61     CG2R61
   12    13    16    22	 9 ;      NG2S1      CG2O1     CG2R61     CG2R61
   12    13    16    17	 9 ;      NG2S1      CG2O1     CG2R61     CG2R61
   17    16    22    21	 9 ;     CG2R61     CG2R61     CG2R61     CG2R61
   17    16    22    50	 9 ;     CG2R61     CG2R61     CG2R61      HGR61
   13    16    22    21	 9 ;      CG2O1     CG2R61     CG2R61     CG2R61
   13    16    22    50	 9 ;      CG2O1     CG2R61     CG2R61      HGR61
   22    16    17    18	 9 ;     CG2R61     CG2R61     CG2R61     CG2R61
   22    16    17    47	 9 ;     CG2R61     CG2R61     CG2R61      HGR62
   13    16    17    18	 9 ;      CG2O1     CG2R61     CG2R61     CG2R61
   13    16    17    47	 9 ;      CG2O1     CG2R61     CG2R61      HGR62
   16    17    18    20	 9 ;     CG2R61     CG2R61     CG2R61     CG2R61
   16    17    18    19	 9 ;     CG2R61     CG2R61     CG2R61      BRGR1
   47    17    18    20	 9 ;      HGR62     CG2R61     CG2R61     CG2R61
   47    17    18    19	 9 ;      HGR62     CG2R61     CG2R61      BRGR1
   19    18    20    21	 9 ;      BRGR1     CG2R61     CG2R61     CG2R61
   19    18    20    48	 9 ;      BRGR1     CG2R61     CG2R61      HGR62
   17    18    20    21	 9 ;     CG2R61     CG2R61     CG2R61     CG2R61
   17    18    20    48	 9 ;     CG2R61     CG2R61     CG2R61      HGR62
   18    20    21    22	 9 ;     CG2R61     CG2R61     CG2R61     CG2R61
   18    20    21    49	 9 ;     CG2R61     CG2R61     CG2R61      HGR61
   48    20    21    22	 9 ;      HGR62     CG2R61     CG2R61     CG2R61
   48    20    21    49	 9 ;      HGR62     CG2R61     CG2R61      HGR61
   20    21    22    16	 9 ;     CG2R61     CG2R61     CG2R61     CG2R61
   20    21    22    50	 9 ;     CG2R61     CG2R61     CG2R61      HGR61
   49    21    22    16	 9 ;      HGR61     CG2R61     CG2R61     CG2R61
   49    21    22    50	 9 ;      HGR61     CG2R61     CG2R61      HGR61
    2    23    24    26	 9 ;     NG2R51      CG321      CG2O1      NG2P1
    2    23    24    25	 9 ;     NG2R51      CG321      CG2O1      OG2D1
   51    23    24    26	 9 ;       HGA2      CG321      CG2O1      NG2P1
   51    23    24    25	 9 ;       HGA2      CG321      CG2O1      OG2D1
   52    23    24    26	 9 ;       HGA2      CG321      CG2O1      NG2P1
   52    23    24    25	 9 ;       HGA2      CG321      CG2O1      OG2D1
   23    24    26    28	 9 ;      CG321      CG2O1      NG2P1       HGP2
   23    24    26    27	 9 ;      CG321      CG2O1      NG2P1      CG2N1
   25    24    26    28	 9 ;      OG2D1      CG2O1      NG2P1       HGP2
   25    24    26    27	 9 ;      OG2D1      CG2O1      NG2P1      CG2N1
   28    26    27    30	 9 ;       HGP2      NG2P1      CG2N1      NG2P1
   28    26    27    29	 9 ;       HGP2      NG2P1      CG2N1      NG2P1
   24    26    27    30	 9 ;      CG2O1      NG2P1      CG2N1      NG2P1
   24    26    27    29	 9 ;      CG2O1      NG2P1      CG2N1      NG2P1
   26    27    30    33	 9 ;      NG2P1      CG2N1      NG2P1       HGP2
   26    27    30    34	 9 ;      NG2P1      CG2N1      NG2P1       HGP2
   29    27    30    33	 9 ;      NG2P1      CG2N1      NG2P1       HGP2
   29    27    30    34	 9 ;      NG2P1      CG2N1      NG2P1       HGP2
   30    27    29    31	 9 ;      NG2P1      CG2N1      NG2P1       HGP2
   30    27    29    32	 9 ;      NG2P1      CG2N1      NG2P1       HGP2
   26    27    29    31	 9 ;      NG2P1      CG2N1      NG2P1       HGP2
   26    27    29    32	 9 ;      NG2P1      CG2N1      NG2P1       HGP2
    3    35    40    39	 9 ;     CG2R51     CG2R61     CG2R61     CG2R61
    3    35    40    57	 9 ;     CG2R51     CG2R61     CG2R61      HGR61
   36    35    40    39	 9 ;     CG2R61     CG2R61     CG2R61     CG2R61
   36    35    40    57	 9 ;     CG2R61     CG2R61     CG2R61      HGR61
    3    35    36    37	 9 ;     CG2R51     CG2R61     CG2R61     CG2R61
    3    35    36    53	 9 ;     CG2R51     CG2R61     CG2R61      HGR61
   40    35    36    37	 9 ;     CG2R61     CG2R61     CG2R61     CG2R61
   40    35    36    53	 9 ;     CG2R61     CG2R61     CG2R61      HGR61
   35    36    37    38	 9 ;     CG2R61     CG2R61     CG2R61     CG2R61
   35    36    37    54	 9 ;     CG2R61     CG2R61     CG2R61      HGR61
   53    36    37    38	 9 ;      HGR61     CG2R61     CG2R61     CG2R61
   53    36    37    54	 9 ;      HGR61     CG2R61     CG2R61      HGR61
   36    37    38    39	 9 ;     CG2R61     CG2R61     CG2R61     CG2R61
   36    37    38    55	 9 ;     CG2R61     CG2R61     CG2R61      HGR61
   54    37    38    39	 9 ;      HGR61     CG2R61     CG2R61     CG2R61
   54    37    38    55	 9 ;      HGR61     CG2R61     CG2R61      HGR61
   37    38    39    40	 9 ;     CG2R61     CG2R61     CG2R61     CG2R61
   37    38    39    56	 9 ;     CG2R61     CG2R61     CG2R61      HGR61
   55    38    39    40	 9 ;      HGR61     CG2R61     CG2R61     CG2R61
   55    38    39    56	 9 ;      HGR61     CG2R61     CG2R61      HGR61
   38    39    40    35	 9 ;     CG2R61     CG2R61     CG2R61     CG2R61
   38    39    40    57	 9 ;     CG2R61     CG2R61     CG2R61      HGR61
   56    39    40    35	 9 ;      HGR61     CG2R61     CG2R61     CG2R61
   56    39    40    57	 9 ;      HGR61     CG2R61     CG2R61      HGR61

[ dihedrals ]
;	ai	  aj	ak	  al funct			  c0			c1			  c2			c3
   13    16    12    14	 2
   24    23    26    25	 2
   27    30    26    29	 2

[ virtual_sites2 ]
; Site   from				funct a
   58    19    18     2   -0.189

[ exclusions ]
;	ai	  aj
   19    58
   58    18
   58    20
   58    17
   58    16
   58    47
   58    21
   58    48

