GROningen MAchine for Chemical Simulation
   58
    1LIG     C1    1  -1.426   0.635  -1.606
    1LIG     N1    2  -1.490   0.511  -1.606
    1LIG     C2    3  -1.627   0.528  -1.583
    1LIG     C3    4  -1.648   0.665  -1.580
    1LIG     C4    5  -1.525   0.730  -1.596
    1LIG     C5    6  -1.281   0.662  -1.621
    1LIG     C6    7  -1.205   0.689  -1.507
    1LIG     C7    8  -1.065   0.702  -1.514
    1LIG     C8    9  -0.999   0.689  -1.636
    1LIG     C9   10  -1.075   0.670  -1.752
    1LIG    C10   11  -1.214   0.653  -1.743
    1LIG     N2   12  -0.858   0.689  -1.651
    1LIG    C11   13  -0.778   0.800  -1.674
    1LIG     O1   14  -0.820   0.912  -1.699
    1LIG     H1   15  -0.813   0.600  -1.632
    1LIG    C12   16  -0.629   0.783  -1.664
    1LIG    C13   17  -0.562   0.660  -1.673
    1LIG    C14   18  -0.423   0.656  -1.655
    1LIG     BR   19  -0.334   0.489  -1.664
    1LIG    C15   20  -0.350   0.771  -1.629
    1LIG    C16   21  -0.416   0.894  -1.621
    1LIG    C17   22  -0.554   0.899  -1.638
    1LIG    C18   23  -1.425   0.383  -1.629
    1LIG    C19   24  -1.372   0.317  -1.504
    1LIG     O2   25  -1.395   0.361  -1.392
    1LIG     N3   26  -1.302   0.193  -1.515
    1LIG    C20   27  -1.248   0.123  -1.414
    1LIG     H2   28  -1.285   0.158  -1.609
    1LIG     N4   29  -1.257   0.164  -1.288
    1LIG     N5   30  -1.185   0.008  -1.438
    1LIG     H3   31  -1.217   0.115  -1.209
    1LIG     H4   32  -1.306   0.253  -1.269
    1LIG     H5   33  -1.177  -0.031  -1.531
    1LIG     H6   34  -1.142  -0.045  -1.363
    1LIG    C21   35  -1.731   0.425  -1.570
    1LIG    C22   36  -1.802   0.415  -1.449
    1LIG    C23   37  -1.912   0.330  -1.436
    1LIG    C24   38  -1.952   0.251  -1.544
    1LIG    C25   39  -1.881   0.257  -1.663
    1LIG    C26   40  -1.773   0.344  -1.677
    1LIG     HC   41  -1.744   0.713  -1.567
    1LIG    HC1   42  -1.511   0.837  -1.599
    1LIG    HC2   43  -1.254   0.700  -1.411
    1LIG    HC3   44  -1.009   0.721  -1.424
    1LIG    HC4   45  -1.027   0.668  -1.848
    1LIG    HC5   46  -1.271   0.632  -1.833
    1LIG    HC6   47  -0.617   0.570  -1.695
    1LIG    HC7   48  -0.243   0.766  -1.615
    1LIG    HC8   49  -0.360   0.984  -1.601
    1LIG    HC9   50  -0.605   0.994  -1.630
    1LIG   HC10   51  -1.497   0.315  -1.676
    1LIG   HC11   52  -1.342   0.398  -1.698
    1LIG   HC12   53  -1.770   0.474  -1.364
    1LIG   HC13   54  -1.967   0.326  -1.343
    1LIG   HC14   55  -2.037   0.186  -1.534
    1LIG   HC15   56  -1.910   0.193  -1.745
    1LIG   HC16   57  -1.721   0.350  -1.771
    1LIG    LP1   58  -0.244   0.323  -1.672
   0.00000   0.00000   0.00000
