S  C  A  M  O  R  G
   57
    1LIG     C1    1  -1.201   0.441  -1.694
    1LIG     N1    2  -1.236   0.345  -1.597
    1LIG     C2    3  -1.150   0.234  -1.606
    1LIG     C3    4  -1.060   0.264  -1.707
    1LIG     C4    5  -1.091   0.390  -1.760
    1LIG     C5    6  -1.275   0.565  -1.731
    1LIG     C6    7  -1.238   0.693  -1.690
    1LIG     C7    8  -1.325   0.802  -1.706
    1LIG     C8    9  -1.447   0.787  -1.774
    1LIG     C9   10  -1.474   0.664  -1.834
    1LIG    C10   11  -1.390   0.554  -1.811
    1LIG    C11   12  -1.544   0.901  -1.770
    1LIG      O   13  -1.655   0.887  -1.820
    1LIG     N2   14  -1.501   1.020  -1.714
    1LIG     H1   15  -1.409   1.029  -1.674
    1LIG    C12   16  -1.577   1.141  -1.727
    1LIG    C13   17  -1.637   1.171  -1.593
    1LIG    C14   18  -1.737   1.102  -1.536
    1LIG    C15   19  -1.345   0.357  -1.499
    1LIG    C16   20  -1.481   0.322  -1.554
    1LIG     N3   21  -1.588   0.384  -1.496
    1LIG    C17   22  -1.710   0.364  -1.551
    1LIG     HN   23  -1.577   0.442  -1.414
    1LIG    C18   24  -1.730   0.286  -1.664
    1LIG    C19   25  -1.622   0.218  -1.717
    1LIG    C20   26  -1.496   0.233  -1.660
    1LIG     N4   27  -1.818   0.429  -1.492
    1LIG     H2   28  -1.793   0.451  -1.396
    1LIG     H3   29  -1.903   0.373  -1.497
    1LIG    C21   30  -1.147   0.113  -1.521
    1LIG    C22   31  -1.225  -0.001  -1.545
    1LIG    C23   32  -1.223  -0.111  -1.459
    1LIG    C24   33  -1.136  -0.114  -1.351
    1LIG    C25   34  -1.052  -0.005  -1.328
    1LIG    C26   35  -1.059   0.107  -1.411
    1LIG     HC   36  -0.979   0.200  -1.740
    1LIG    HC1   37  -1.037   0.439  -1.840
    1LIG    HC2   38  -1.141   0.709  -1.645
    1LIG    HC3   39  -1.298   0.898  -1.665
    1LIG    HC4   40  -1.560   0.654  -1.898
    1LIG    HC5   41  -1.415   0.459  -1.855
    1LIG    HC6   42  -1.512   1.223  -1.757
    1LIG    HC7   43  -1.656   1.128  -1.800
    1LIG    HC8   44  -1.596   1.255  -1.538
    1LIG    HC9   45  -1.780   1.018  -1.588
    1LIG   HC10   46  -1.774   1.131  -1.439
    1LIG   HC11   47  -1.347   0.461  -1.464
    1LIG   HC12   48  -1.323   0.292  -1.414
    1LIG   HC13   49  -1.827   0.280  -1.710
    1LIG   HC14   50  -1.635   0.152  -1.803
    1LIG   HC15   51  -1.411   0.177  -1.697
    1LIG   HC16   52  -1.289  -0.004  -1.632
    1LIG   HC17   53  -1.289  -0.195  -1.477
    1LIG   HC18   54  -1.133  -0.199  -1.285
    1LIG   HC19   55  -0.982  -0.007  -1.246
    1LIG   HC20   56  -0.995   0.192  -1.390
    1LIG    H26   57  -1.489   0.240  -1.483
   0.00000   0.00000   0.00000
