Gravel Rubs Often Many Awfully Cauterized Sores
   49
    1LIG     C1    1  -1.287   0.417  -1.625
    1LIG     N1    2  -1.278   0.367  -1.766
    1LIG     HN    3  -1.352   0.324  -1.821
    1LIG     C2    4  -1.157   0.391  -1.803
    1LIG     O1    5  -1.076   0.462  -1.723
    1LIG     C3    6  -1.159   0.505  -1.616
    1LIG     N2    7  -1.099   0.353  -1.918
    1LIG     H1    8  -1.163   0.328  -1.992
    1LIG     H2    9  -1.017   0.406  -1.946
    1LIG     C4   10  -1.416   0.498  -1.607
    1LIG     C5   11  -1.538   0.430  -1.585
    1LIG     C6   12  -1.662   0.497  -1.578
    1LIG     C7   13  -1.661   0.637  -1.590
    1LIG     C8   14  -1.541   0.707  -1.604
    1LIG     C9   15  -1.420   0.638  -1.612
    1LIG    C10   16  -1.788   0.422  -1.562
    1LIG    C11   17  -1.890   0.469  -1.476
    1LIG    C12   18  -2.009   0.399  -1.460
    1LIG     CL   19  -2.131   0.460  -1.355
    1LIG    C13   20  -2.031   0.280  -1.529
    1LIG    C14   21  -1.932   0.231  -1.614
    1LIG    C15   22  -1.813   0.302  -1.630
    1LIG      F   23  -1.722   0.250  -1.715
    1LIG    C16   24  -1.275   0.301  -1.525
    1LIG    C17   25  -1.275   0.167  -1.569
    1LIG    C18   26  -1.242   0.062  -1.483
    1LIG    C19   27  -1.213   0.088  -1.349
    1LIG    C20   28  -1.221   0.219  -1.302
    1LIG    C21   29  -1.252   0.324  -1.388
    1LIG     O2   30  -1.176  -0.006  -1.257
    1LIG    C22   31  -1.123  -0.127  -1.307
    1LIG    HC2   32  -1.110   0.490  -1.520
    1LIG    HC3   33  -1.185   0.610  -1.629
    1LIG     HC   34  -1.537   0.323  -1.574
    1LIG    HC1   35  -1.755   0.691  -1.587
    1LIG    HC4   36  -1.542   0.815  -1.610
    1LIG    HC5   37  -1.328   0.694  -1.622
    1LIG    HC6   38  -1.874   0.561  -1.421
    1LIG    HC7   39  -2.123   0.225  -1.517
    1LIG    HC8   40  -1.947   0.138  -1.668
    1LIG    HC9   41  -1.300   0.146  -1.672
    1LIG   HC10   42  -1.239  -0.039  -1.520
    1LIG   HC11   43  -1.203   0.239  -1.198
    1LIG   HC12   44  -1.258   0.424  -1.350
    1LIG   HC13   45  -1.082  -0.186  -1.225
    1LIG   HC14   46  -1.044  -0.105  -1.379
    1LIG   HC15   47  -1.202  -0.184  -1.356
    1LIG    H20   48  -1.124   0.299  -1.755
    1LIG    LP1   49  -2.247   0.519  -1.255
   0.00000   0.00000   0.00000
