; Created by cgenff_charmm2gmx.py

[ moleculetype ]
; Name			   nrexcl
LIG				 3

[ atoms ]
;	 nr		  type	resnr residue  atom   cgnr	   charge		mass  typeB    chargeB		massB
; residue	 1 LIG rtp LIG q	qsum
     1     CG3C50      1    LIG     C1      1      1.057     12.011   ;
     2     NG3C51      1    LIG     N1      2     -0.874     14.007   ;
     3       HGP1      1    LIG     HN      3      0.233      1.008   ;
     4     CG3C51      1    LIG     C2      4      0.318     12.011   ;
     5     OG3C51      1    LIG     O1      5     -0.328     15.999   ;
     6     CG3C52      1    LIG     C3      6     -0.151     12.011   ;
     7      NG321      1    LIG     N2      7     -1.079     14.007   ;
     8     HGPAM2      1    LIG     H1      8      0.454      1.008   ;
     9     HGPAM2      1    LIG     H2      9      0.454      1.008   ;
    10     CG2R61      1    LIG     C4     10     -0.084     12.011   ;
    11     CG2R61      1    LIG     C5     11     -0.182     12.011   ;
    12     CG2R67      1    LIG     C6     12     -0.029     12.011   ;
    13     CG2R61      1    LIG     C7     13     -0.119     12.011   ;
    14     CG2R61      1    LIG     C8     14     -0.108     12.011   ;
    15     CG2R61      1    LIG     C9     15     -0.175     12.011   ;
    16     CG2R67      1    LIG    C10     16      0.178     12.011   ;
    17     CG2R61      1    LIG    C11     17     -0.132     12.011   ;
    18     CG2R61      1    LIG    C12     18      0.071     12.011   ;
    19      CLGR1      1    LIG     CL     19     -0.200     35.453   ;
    20     CG2R61      1    LIG    C13     20     -0.153     12.011   ;
    21     CG2R61      1    LIG    C14     21     -0.118     12.011   ;
    22     CG2R66      1    LIG    C15     22      0.105     12.011   ;
    23       FGR1      1    LIG      F     23     -0.230     18.998   ;
    24     CG2R61      1    LIG    C16     24     -0.082     12.011   ;
    25     CG2R61      1    LIG    C17     25     -0.178     12.011   ;
    26     CG2R61      1    LIG    C18     26     -0.110     12.011   ;
    27     CG2R61      1    LIG    C19     27      0.211     12.011   ;
    28     CG2R61      1    LIG    C20     28     -0.110     12.011   ;
    29     CG2R61      1    LIG    C21     29     -0.178     12.011   ;
    30      OG301      1    LIG     O2     30     -0.383     15.999   ;
    31      CG331      1    LIG    C22     31     -0.094     12.011   ;
    32       HGA2      1    LIG    HC2     32      0.090      1.008   ;
    33       HGA2      1    LIG    HC3     33      0.090      1.008   ;
    34      HGR61      1    LIG     HC     34      0.116      1.008   ;
    35      HGR61      1    LIG    HC1     35      0.116      1.008   ;
    36      HGR61      1    LIG    HC4     36      0.116      1.008   ;
    37      HGR61      1    LIG    HC5     37      0.116      1.008   ;
    38      HGR62      1    LIG    HC6     38      0.142      1.008   ;
    39      HGR62      1    LIG    HC7     39      0.140      1.008   ;
    40      HGR62      1    LIG    HC8     40      0.190      1.008   ;
    41      HGR61      1    LIG    HC9     41      0.116      1.008   ;
    42      HGR61      1    LIG   HC10     42      0.116      1.008   ;
    43      HGR61      1    LIG   HC11     43      0.116      1.008   ;
    44      HGR61      1    LIG   HC12     44      0.116      1.008   ;
    45       HGA3      1    LIG   HC13     45      0.090      1.008   ;
    46       HGA3      1    LIG   HC14     46      0.090      1.008   ;
    47       HGA3      1    LIG   HC15     47      0.090      1.008   ;
    48       HGA1      1    LIG    H20     48      0.116      1.008   ;
    49        LPH      1    LIG    LP1     49      0.050      0.000   ;

[ bonds ]
;	ai	  aj funct			  c0			c1			  c2			c3
    1     6	 1 ;      CG3C50     CG3C52
    1     2	 1 ;      CG3C50     NG3C51
    1    24	 1 ;      CG3C50     CG2R61
    1    10	 1 ;      CG3C50     CG2R61
    2     4	 1 ;      NG3C51     CG3C51
    2     3	 1 ;      NG3C51       HGP1
    4     7	 1 ;      CG3C51      NG321
    4     5	 1 ;      CG3C51     OG3C51
    4    48	 1 ;      CG3C51       HGA1
    5     6	 1 ;      OG3C51     CG3C52
    6    32	 1 ;      CG3C52       HGA2
    6    33	 1 ;      CG3C52       HGA2
    7     9	 1 ;       NG321     HGPAM2
    7     8	 1 ;       NG321     HGPAM2
   10    15	 1 ;      CG2R61     CG2R61
   10    11	 1 ;      CG2R61     CG2R61
   11    12	 1 ;      CG2R61     CG2R67
   11    34	 1 ;      CG2R61      HGR61
   12    13	 1 ;      CG2R67     CG2R61
   12    16	 1 ;      CG2R67     CG2R67
   13    14	 1 ;      CG2R61     CG2R61
   13    35	 1 ;      CG2R61      HGR61
   14    15	 1 ;      CG2R61     CG2R61
   14    36	 1 ;      CG2R61      HGR61
   15    37	 1 ;      CG2R61      HGR61
   16    22	 1 ;      CG2R67     CG2R66
   16    17	 1 ;      CG2R67     CG2R61
   17    18	 1 ;      CG2R61     CG2R61
   17    38	 1 ;      CG2R61      HGR62
   18    20	 1 ;      CG2R61     CG2R61
   18    19	 1 ;      CG2R61      CLGR1
   20    21	 1 ;      CG2R61     CG2R61
   20    39	 1 ;      CG2R61      HGR62
   21    22	 1 ;      CG2R61     CG2R66
   21    40	 1 ;      CG2R61      HGR62
   22    23	 1 ;      CG2R66       FGR1
   24    25	 1 ;      CG2R61     CG2R61
   24    29	 1 ;      CG2R61     CG2R61
   25    26	 1 ;      CG2R61     CG2R61
   25    41	 1 ;      CG2R61      HGR61
   26    27	 1 ;      CG2R61     CG2R61
   26    42	 1 ;      CG2R61      HGR61
   27    28	 1 ;      CG2R61     CG2R61
   27    30	 1 ;      CG2R61      OG301
   28    29	 1 ;      CG2R61     CG2R61
   28    43	 1 ;      CG2R61      HGR61
   29    44	 1 ;      CG2R61      HGR61
   30    31	 1 ;       OG301      CG331
   31    45	 1 ;       CG331       HGA3
   31    46	 1 ;       CG331       HGA3
   31    47	 1 ;       CG331       HGA3

[ pairs ]
;	ai	  aj funct			  c0			c1			  c2			c3
    1     7	 1
    1    48	 1
    1    14	 1
    1    37	 1
    1    12	 1
    1    34	 1
    1    26	 1
    1    41	 1
    1    28	 1
    1    44	 1
    2    32	 1
    2    33	 1
    2    25	 1
    2    29	 1
    2    15	 1
    2    11	 1
    2     9	 1
    2     8	 1
    3     6	 1
    3    24	 1
    3    10	 1
    3     7	 1
    3     5	 1
    3    48	 1
    4    24	 1
    4    10	 1
    4    32	 1
    4    33	 1
    5    24	 1
    5    10	 1
    5     9	 1
    5     8	 1
    6    25	 1
    6    29	 1
    6    15	 1
    6    11	 1
    6     7	 1
    6    48	 1
    8    48	 1
    9    48	 1
   10    32	 1
   10    33	 1
   10    25	 1
   10    29	 1
   10    13	 1
   10    16	 1
   10    36	 1
   11    24	 1
   11    14	 1
   11    37	 1
   11    35	 1
   11    22	 1
   11    17	 1
   12    15	 1
   12    36	 1
   12    23	 1
   12    21	 1
   12    18	 1
   12    38	 1
   13    34	 1
   13    22	 1
   13    17	 1
   13    37	 1
   14    16	 1
   15    24	 1
   15    34	 1
   15    35	 1
   16    34	 1
   16    35	 1
   16    20	 1
   16    19	 1
   49    16	 1
   16    40	 1
   17    23	 1
   17    21	 1
   17    39	 1
   18    22	 1
   18    40	 1
   19    38	 1
   49    38	 1
   19    21	 1
   49    21	 1
   19    39	 1
   49    39	 1
   20    38	 1
   20    23	 1
   22    38	 1
   22    39	 1
   23    40	 1
   24    32	 1
   24    33	 1
   24    27	 1
   24    42	 1
   24    43	 1
   25    28	 1
   25    44	 1
   25    30	 1
   26    29	 1
   26    43	 1
   26    31	 1
   27    41	 1
   27    44	 1
   27    45	 1
   27    46	 1
   27    47	 1
   28    42	 1
   28    31	 1
   29    41	 1
   29    30	 1
   30    42	 1
   30    43	 1
   35    36	 1
   36    37	 1
   39    40	 1
   41    42	 1
   43    44	 1

[ angles ]
;	ai	  aj	ak funct			c0			  c1			c2			  c3
    6     1     2	5 ;     CG3C52     CG3C50     NG3C51
    6     1    24	5 ;     CG3C52     CG3C50     CG2R61
    6     1    10	5 ;     CG3C52     CG3C50     CG2R61
    2     1    24	5 ;     NG3C51     CG3C50     CG2R61
    2     1    10	5 ;     NG3C51     CG3C50     CG2R61
   24     1    10	5 ;     CG2R61     CG3C50     CG2R61
    4     2     3	5 ;     CG3C51     NG3C51       HGP1
    4     2     1	5 ;     CG3C51     NG3C51     CG3C50
    3     2     1	5 ;       HGP1     NG3C51     CG3C50
    7     4     5	5 ;      NG321     CG3C51     OG3C51
    7     4     2	5 ;      NG321     CG3C51     NG3C51
    7     4    48	5 ;      NG321     CG3C51       HGA1
    5     4     2	5 ;     OG3C51     CG3C51     NG3C51
    5     4    48	5 ;     OG3C51     CG3C51       HGA1
    2     4    48	5 ;     NG3C51     CG3C51       HGA1
    4     5     6	5 ;     CG3C51     OG3C51     CG3C52
    5     6     1	5 ;     OG3C51     CG3C52     CG3C50
    5     6    32	5 ;     OG3C51     CG3C52       HGA2
    5     6    33	5 ;     OG3C51     CG3C52       HGA2
    1     6    32	5 ;     CG3C50     CG3C52       HGA2
    1     6    33	5 ;     CG3C50     CG3C52       HGA2
   32     6    33	5 ;       HGA2     CG3C52       HGA2
    9     7     8	5 ;     HGPAM2      NG321     HGPAM2
    9     7     4	5 ;     HGPAM2      NG321     CG3C51
    8     7     4	5 ;     HGPAM2      NG321     CG3C51
    1    10    15	5 ;     CG3C50     CG2R61     CG2R61
    1    10    11	5 ;     CG3C50     CG2R61     CG2R61
   15    10    11	5 ;     CG2R61     CG2R61     CG2R61
   10    11    12	5 ;     CG2R61     CG2R61     CG2R67
   10    11    34	5 ;     CG2R61     CG2R61      HGR61
   12    11    34	5 ;     CG2R67     CG2R61      HGR61
   11    12    13	5 ;     CG2R61     CG2R67     CG2R61
   11    12    16	5 ;     CG2R61     CG2R67     CG2R67
   13    12    16	5 ;     CG2R61     CG2R67     CG2R67
   14    13    12	5 ;     CG2R61     CG2R61     CG2R67
   14    13    35	5 ;     CG2R61     CG2R61      HGR61
   12    13    35	5 ;     CG2R67     CG2R61      HGR61
   15    14    13	5 ;     CG2R61     CG2R61     CG2R61
   15    14    36	5 ;     CG2R61     CG2R61      HGR61
   13    14    36	5 ;     CG2R61     CG2R61      HGR61
   10    15    14	5 ;     CG2R61     CG2R61     CG2R61
   10    15    37	5 ;     CG2R61     CG2R61      HGR61
   14    15    37	5 ;     CG2R61     CG2R61      HGR61
   12    16    22	5 ;     CG2R67     CG2R67     CG2R66
   12    16    17	5 ;     CG2R67     CG2R67     CG2R61
   22    16    17	5 ;     CG2R66     CG2R67     CG2R61
   16    17    18	5 ;     CG2R67     CG2R61     CG2R61
   16    17    38	5 ;     CG2R67     CG2R61      HGR62
   18    17    38	5 ;     CG2R61     CG2R61      HGR62
   17    18    20	5 ;     CG2R61     CG2R61     CG2R61
   17    18    19	5 ;     CG2R61     CG2R61      CLGR1
   20    18    19	5 ;     CG2R61     CG2R61      CLGR1
   21    20    18	5 ;     CG2R61     CG2R61     CG2R61
   21    20    39	5 ;     CG2R61     CG2R61      HGR62
   18    20    39	5 ;     CG2R61     CG2R61      HGR62
   22    21    20	5 ;     CG2R66     CG2R61     CG2R61
   22    21    40	5 ;     CG2R66     CG2R61      HGR62
   20    21    40	5 ;     CG2R61     CG2R61      HGR62
   23    22    16	5 ;       FGR1     CG2R66     CG2R67
   23    22    21	5 ;       FGR1     CG2R66     CG2R61
   16    22    21	5 ;     CG2R67     CG2R66     CG2R61
    1    24    25	5 ;     CG3C50     CG2R61     CG2R61
    1    24    29	5 ;     CG3C50     CG2R61     CG2R61
   25    24    29	5 ;     CG2R61     CG2R61     CG2R61
   24    25    26	5 ;     CG2R61     CG2R61     CG2R61
   24    25    41	5 ;     CG2R61     CG2R61      HGR61
   26    25    41	5 ;     CG2R61     CG2R61      HGR61
   25    26    27	5 ;     CG2R61     CG2R61     CG2R61
   25    26    42	5 ;     CG2R61     CG2R61      HGR61
   27    26    42	5 ;     CG2R61     CG2R61      HGR61
   26    27    28	5 ;     CG2R61     CG2R61     CG2R61
   26    27    30	5 ;     CG2R61     CG2R61      OG301
   28    27    30	5 ;     CG2R61     CG2R61      OG301
   29    28    27	5 ;     CG2R61     CG2R61     CG2R61
   29    28    43	5 ;     CG2R61     CG2R61      HGR61
   27    28    43	5 ;     CG2R61     CG2R61      HGR61
   24    29    28	5 ;     CG2R61     CG2R61     CG2R61
   24    29    44	5 ;     CG2R61     CG2R61      HGR61
   28    29    44	5 ;     CG2R61     CG2R61      HGR61
   31    30    27	5 ;      CG331      OG301     CG2R61
   30    31    45	5 ;      OG301      CG331       HGA3
   30    31    46	5 ;      OG301      CG331       HGA3
   30    31    47	5 ;      OG301      CG331       HGA3
   45    31    46	5 ;       HGA3      CG331       HGA3
   45    31    47	5 ;       HGA3      CG331       HGA3
   46    31    47	5 ;       HGA3      CG331       HGA3

[ dihedrals ]
;	ai	  aj	ak	  al funct			  c0			c1			  c2			c3			  c4			c5
    2     1     6     5	 9 ;     NG3C51     CG3C50     CG3C52     OG3C51
    2     1     6    32	 9 ;     NG3C51     CG3C50     CG3C52       HGA2
    2     1     6    33	 9 ;     NG3C51     CG3C50     CG3C52       HGA2
   24     1     6     5	 9 ;     CG2R61     CG3C50     CG3C52     OG3C51
   24     1     6    32	 9 ;     CG2R61     CG3C50     CG3C52       HGA2
   24     1     6    33	 9 ;     CG2R61     CG3C50     CG3C52       HGA2
   10     1     6     5	 9 ;     CG2R61     CG3C50     CG3C52     OG3C51
   10     1     6    32	 9 ;     CG2R61     CG3C50     CG3C52       HGA2
   10     1     6    33	 9 ;     CG2R61     CG3C50     CG3C52       HGA2
    6     1     2     4	 9 ;     CG3C52     CG3C50     NG3C51     CG3C51
    6     1     2     3	 9 ;     CG3C52     CG3C50     NG3C51       HGP1
   24     1     2     4	 9 ;     CG2R61     CG3C50     NG3C51     CG3C51
   24     1     2     3	 9 ;     CG2R61     CG3C50     NG3C51       HGP1
   10     1     2     4	 9 ;     CG2R61     CG3C50     NG3C51     CG3C51
   10     1     2     3	 9 ;     CG2R61     CG3C50     NG3C51       HGP1
    6     1    24    25	 9 ;     CG3C52     CG3C50     CG2R61     CG2R61
    6     1    24    29	 9 ;     CG3C52     CG3C50     CG2R61     CG2R61
    2     1    24    25	 9 ;     NG3C51     CG3C50     CG2R61     CG2R61
    2     1    24    29	 9 ;     NG3C51     CG3C50     CG2R61     CG2R61
   10     1    24    25	 9 ;     CG2R61     CG3C50     CG2R61     CG2R61
   10     1    24    29	 9 ;     CG2R61     CG3C50     CG2R61     CG2R61
    6     1    10    15	 9 ;     CG3C52     CG3C50     CG2R61     CG2R61
    6     1    10    11	 9 ;     CG3C52     CG3C50     CG2R61     CG2R61
    2     1    10    15	 9 ;     NG3C51     CG3C50     CG2R61     CG2R61
    2     1    10    11	 9 ;     NG3C51     CG3C50     CG2R61     CG2R61
   24     1    10    15	 9 ;     CG2R61     CG3C50     CG2R61     CG2R61
   24     1    10    11	 9 ;     CG2R61     CG3C50     CG2R61     CG2R61
    3     2     4     7	 9 ;       HGP1     NG3C51     CG3C51      NG321
    3     2     4     5	 9 ;       HGP1     NG3C51     CG3C51     OG3C51
    3     2     4    48	 9 ;       HGP1     NG3C51     CG3C51       HGA1
    1     2     4     7	 9 ;     CG3C50     NG3C51     CG3C51      NG321
    1     2     4     5	 9 ;     CG3C50     NG3C51     CG3C51     OG3C51
    1     2     4    48	 9 ;     CG3C50     NG3C51     CG3C51       HGA1
    5     4     7     9	 9 ;     OG3C51     CG3C51      NG321     HGPAM2
    5     4     7     8	 9 ;     OG3C51     CG3C51      NG321     HGPAM2
    2     4     7     9	 9 ;     NG3C51     CG3C51      NG321     HGPAM2
    2     4     7     8	 9 ;     NG3C51     CG3C51      NG321     HGPAM2
   48     4     7     9	 9 ;       HGA1     CG3C51      NG321     HGPAM2
   48     4     7     8	 9 ;       HGA1     CG3C51      NG321     HGPAM2
    7     4     5     6	 9 ;      NG321     CG3C51     OG3C51     CG3C52
    2     4     5     6	 9 ;     NG3C51     CG3C51     OG3C51     CG3C52
   48     4     5     6	 9 ;       HGA1     CG3C51     OG3C51     CG3C52
    4     5     6     1	 9 ;     CG3C51     OG3C51     CG3C52     CG3C50
    4     5     6    32	 9 ;     CG3C51     OG3C51     CG3C52       HGA2
    4     5     6    33	 9 ;     CG3C51     OG3C51     CG3C52       HGA2
    1    10    15    14	 9 ;     CG3C50     CG2R61     CG2R61     CG2R61
    1    10    15    37	 9 ;     CG3C50     CG2R61     CG2R61      HGR61
   11    10    15    14	 9 ;     CG2R61     CG2R61     CG2R61     CG2R61
   11    10    15    37	 9 ;     CG2R61     CG2R61     CG2R61      HGR61
    1    10    11    12	 9 ;     CG3C50     CG2R61     CG2R61     CG2R67
    1    10    11    34	 9 ;     CG3C50     CG2R61     CG2R61      HGR61
   15    10    11    12	 9 ;     CG2R61     CG2R61     CG2R61     CG2R67
   15    10    11    34	 9 ;     CG2R61     CG2R61     CG2R61      HGR61
   10    11    12    13	 9 ;     CG2R61     CG2R61     CG2R67     CG2R61
   10    11    12    16	 9 ;     CG2R61     CG2R61     CG2R67     CG2R67
   34    11    12    13	 9 ;      HGR61     CG2R61     CG2R67     CG2R61
   34    11    12    16	 9 ;      HGR61     CG2R61     CG2R67     CG2R67
   11    12    13    14	 9 ;     CG2R61     CG2R67     CG2R61     CG2R61
   11    12    13    35	 9 ;     CG2R61     CG2R67     CG2R61      HGR61
   16    12    13    14	 9 ;     CG2R67     CG2R67     CG2R61     CG2R61
   16    12    13    35	 9 ;     CG2R67     CG2R67     CG2R61      HGR61
   11    12    16    22	 9 ;     CG2R61     CG2R67     CG2R67     CG2R66
   11    12    16    17	 9 ;     CG2R61     CG2R67     CG2R67     CG2R61
   13    12    16    22	 9 ;     CG2R61     CG2R67     CG2R67     CG2R66
   13    12    16    17	 9 ;     CG2R61     CG2R67     CG2R67     CG2R61
   12    13    14    15	 9 ;     CG2R67     CG2R61     CG2R61     CG2R61
   12    13    14    36	 9 ;     CG2R67     CG2R61     CG2R61      HGR61
   35    13    14    15	 9 ;      HGR61     CG2R61     CG2R61     CG2R61
   35    13    14    36	 9 ;      HGR61     CG2R61     CG2R61      HGR61
   13    14    15    10	 9 ;     CG2R61     CG2R61     CG2R61     CG2R61
   13    14    15    37	 9 ;     CG2R61     CG2R61     CG2R61      HGR61
   36    14    15    10	 9 ;      HGR61     CG2R61     CG2R61     CG2R61
   36    14    15    37	 9 ;      HGR61     CG2R61     CG2R61      HGR61
   12    16    22    23	 9 ;     CG2R67     CG2R67     CG2R66       FGR1
   12    16    22    21	 9 ;     CG2R67     CG2R67     CG2R66     CG2R61
   17    16    22    23	 9 ;     CG2R61     CG2R67     CG2R66       FGR1
   17    16    22    21	 9 ;     CG2R61     CG2R67     CG2R66     CG2R61
   12    16    17    18	 9 ;     CG2R67     CG2R67     CG2R61     CG2R61
   12    16    17    38	 9 ;     CG2R67     CG2R67     CG2R61      HGR62
   22    16    17    18	 9 ;     CG2R66     CG2R67     CG2R61     CG2R61
   22    16    17    38	 9 ;     CG2R66     CG2R67     CG2R61      HGR62
   16    17    18    20	 9 ;     CG2R67     CG2R61     CG2R61     CG2R61
   16    17    18    19	 9 ;     CG2R67     CG2R61     CG2R61      CLGR1
   38    17    18    20	 9 ;      HGR62     CG2R61     CG2R61     CG2R61
   38    17    18    19	 9 ;      HGR62     CG2R61     CG2R61      CLGR1
   17    18    20    21	 9 ;     CG2R61     CG2R61     CG2R61     CG2R61
   17    18    20    39	 9 ;     CG2R61     CG2R61     CG2R61      HGR62
   19    18    20    21	 9 ;      CLGR1     CG2R61     CG2R61     CG2R61
   19    18    20    39	 9 ;      CLGR1     CG2R61     CG2R61      HGR62
   18    20    21    22	 9 ;     CG2R61     CG2R61     CG2R61     CG2R66
   18    20    21    40	 9 ;     CG2R61     CG2R61     CG2R61      HGR62
   39    20    21    22	 9 ;      HGR62     CG2R61     CG2R61     CG2R66
   39    20    21    40	 9 ;      HGR62     CG2R61     CG2R61      HGR62
   20    21    22    23	 9 ;     CG2R61     CG2R61     CG2R66       FGR1
   20    21    22    16	 9 ;     CG2R61     CG2R61     CG2R66     CG2R67
   40    21    22    23	 9 ;      HGR62     CG2R61     CG2R66       FGR1
   40    21    22    16	 9 ;      HGR62     CG2R61     CG2R66     CG2R67
    1    24    25    26	 9 ;     CG3C50     CG2R61     CG2R61     CG2R61
    1    24    25    41	 9 ;     CG3C50     CG2R61     CG2R61      HGR61
   29    24    25    26	 9 ;     CG2R61     CG2R61     CG2R61     CG2R61
   29    24    25    41	 9 ;     CG2R61     CG2R61     CG2R61      HGR61
    1    24    29    28	 9 ;     CG3C50     CG2R61     CG2R61     CG2R61
    1    24    29    44	 9 ;     CG3C50     CG2R61     CG2R61      HGR61
   25    24    29    28	 9 ;     CG2R61     CG2R61     CG2R61     CG2R61
   25    24    29    44	 9 ;     CG2R61     CG2R61     CG2R61      HGR61
   24    25    26    27	 9 ;     CG2R61     CG2R61     CG2R61     CG2R61
   24    25    26    42	 9 ;     CG2R61     CG2R61     CG2R61      HGR61
   41    25    26    27	 9 ;      HGR61     CG2R61     CG2R61     CG2R61
   41    25    26    42	 9 ;      HGR61     CG2R61     CG2R61      HGR61
   25    26    27    28	 9 ;     CG2R61     CG2R61     CG2R61     CG2R61
   25    26    27    30	 9 ;     CG2R61     CG2R61     CG2R61      OG301
   42    26    27    28	 9 ;      HGR61     CG2R61     CG2R61     CG2R61
   42    26    27    30	 9 ;      HGR61     CG2R61     CG2R61      OG301
   26    27    28    29	 9 ;     CG2R61     CG2R61     CG2R61     CG2R61
   26    27    28    43	 9 ;     CG2R61     CG2R61     CG2R61      HGR61
   30    27    28    29	 9 ;      OG301     CG2R61     CG2R61     CG2R61
   30    27    28    43	 9 ;      OG301     CG2R61     CG2R61      HGR61
   26    27    30    31	 9 ;     CG2R61     CG2R61      OG301      CG331
   28    27    30    31	 9 ;     CG2R61     CG2R61      OG301      CG331
   27    28    29    24	 9 ;     CG2R61     CG2R61     CG2R61     CG2R61
   27    28    29    44	 9 ;     CG2R61     CG2R61     CG2R61      HGR61
   43    28    29    24	 9 ;      HGR61     CG2R61     CG2R61     CG2R61
   43    28    29    44	 9 ;      HGR61     CG2R61     CG2R61      HGR61
   27    30    31    45	 9 ;     CG2R61      OG301      CG331       HGA3
   27    30    31    46	 9 ;     CG2R61      OG301      CG331       HGA3
   27    30    31    47	 9 ;     CG2R61      OG301      CG331       HGA3

[ virtual_sites2 ]
; Site   from				funct a
   49    19    18     2   -0.164

[ exclusions ]
;	ai	  aj
   19    49
   49    18
   49    17
   49    20
   49    16
   49    38
   49    21
   49    39

