; Created by cgenff_charmm2gmx.py

[ moleculetype ]
; Name			   nrexcl
LIG				 3

[ atoms ]
;	 nr		  type	resnr residue  atom   cgnr	   charge		mass  typeB    chargeB		massB
; residue	 1 LIG rtp LIG q	qsum
     1     CG3C50      1    LIG     C1      1      1.298     12.011   ;
     2      NG3P2      1    LIG     N1      2     -0.789     14.007   ;
     3       HGP2      1    LIG    HN5      3      0.346      1.008   ;
     4     CG3C53      1    LIG     C2      4      0.966     12.011   ;
     5      NG3P1      1    LIG     N2      5     -0.349     14.007   ;
     6     CG3RC1      1    LIG     C3      6      0.652     12.011   ;
     7      NG3P2      1    LIG     N3      7     -0.542     14.007   ;
     8       HGP2      1    LIG    HN6      8      0.352      1.008   ;
     9      CG324      1    LIG     C4      9      0.155     12.011   ;
    10      CG312      1    LIG     C5     10      0.819     12.011   ;
    11       FGA2      1    LIG     F1     11     -0.294     18.998   ;
    12       FGA2      1    LIG     F2     12     -0.294     18.998   ;
    13      CG324      1    LIG     C6     13      0.057     12.011   ;
    14     CG2R61      1    LIG     C7     14     -0.320     12.011   ;
    15     CG2R61      1    LIG     C8     15     -0.014     12.011   ;
    16     CG2R61      1    LIG     C9     16     -0.016     12.011   ;
    17      BRGR1      1    LIG     BR     17     -0.181     79.904   ;
    18     CG2R61      1    LIG    C10     18     -0.073     12.011   ;
    19     CG2R61      1    LIG    C11     19     -0.105     12.011   ;
    20     CG2R61      1    LIG    C12     20     -0.122     12.011   ;
    21     CG2R61      1    LIG    C13     21     -0.255     12.011   ;
    22     CG2R61      1    LIG    C14     22     -0.127     12.011   ;
    23     CG2R61      1    LIG    C15     23     -0.110     12.011   ;
    24     CG2R61      1    LIG    C16     24      0.211     12.011   ;
    25     CG2R61      1    LIG    C17     25     -0.110     12.011   ;
    26     CG2R61      1    LIG    C18     26     -0.127     12.011   ;
    27      OG301      1    LIG      O     27     -0.383     15.999   ;
    28      CG331      1    LIG    C19     28     -0.094     12.011   ;
    29      NG3P3      1    LIG     N4     29     -0.300     14.007   ;
    30       HGP2      1    LIG     H1     30      0.307      1.008   ;
    31       HGP2      1    LIG     H2     31      0.307      1.008   ;
    32       HGP2      1    LIG    HN2     32      0.346      1.008   ;
    33       HGA1      1    LIG     HC     33      0.090      1.008   ;
    34       HGP2      1    LIG    HN1     34      0.303      1.008   ;
    35       HGA1      1    LIG    HC1     35      0.090      1.008   ;
    36       HGP2      1    LIG    HN3     36      0.352      1.008   ;
    37       HGA2      1    LIG    HC2     37      0.090      1.008   ;
    38       HGA2      1    LIG    HC3     38      0.090      1.008   ;
    39       HGA2      1    LIG    HC4     39      0.090      1.008   ;
    40       HGA2      1    LIG    HC5     40      0.090      1.008   ;
    41      HGR62      1    LIG    HC6     41      0.123      1.008   ;
    42      HGR62      1    LIG    HC7     42      0.148      1.008   ;
    43      HGR61      1    LIG    HC8     43      0.116      1.008   ;
    44      HGR61      1    LIG    HC9     44      0.116      1.008   ;
    45      HGR61      1    LIG   HC10     45      0.116      1.008   ;
    46      HGR61      1    LIG   HC11     46      0.116      1.008   ;
    47      HGR61      1    LIG   HC12     47      0.116      1.008   ;
    48      HGR61      1    LIG   HC13     48      0.116      1.008   ;
    49       HGA3      1    LIG   HC14     49      0.090      1.008   ;
    50       HGA3      1    LIG   HC15     50      0.090      1.008   ;
    51       HGA3      1    LIG   HC16     51      0.090      1.008   ;
    52       HGP2      1    LIG    HN4     52      0.307      1.008   ;
    53        LPH      1    LIG    LP1     53      0.050      0.000   ;

[ bonds ]
;	ai	  aj funct			  c0			c1			  c2			c3
    1    14	 1 ;      CG3C50     CG2R61
    1     6	 1 ;      CG3C50     CG3RC1
    1     2	 1 ;      CG3C50      NG3P2
    1    21	 1 ;      CG3C50     CG2R61
    2     4	 1 ;       NG3P2     CG3C53
    2     3	 1 ;       NG3P2       HGP2
    2    32	 1 ;       NG3P2       HGP2
    4    29	 1 ;      CG3C53      NG3P3
    4     5	 1 ;      CG3C53      NG3P1
    4    33	 1 ;      CG3C53       HGA1
    5    13	 1 ;       NG3P1      CG324
    5     6	 1 ;       NG3P1     CG3RC1
    5    34	 1 ;       NG3P1       HGP2
    6     7	 1 ;      CG3RC1      NG3P2
    6    35	 1 ;      CG3RC1       HGA1
    7     8	 1 ;       NG3P2       HGP2
    7     9	 1 ;       NG3P2      CG324
    7    36	 1 ;       NG3P2       HGP2
    9    10	 1 ;       CG324      CG312
    9    37	 1 ;       CG324       HGA2
    9    38	 1 ;       CG324       HGA2
   10    11	 1 ;       CG312       FGA2
   10    13	 1 ;       CG312      CG324
   10    12	 1 ;       CG312       FGA2
   13    39	 1 ;       CG324       HGA2
   13    40	 1 ;       CG324       HGA2
   14    15	 1 ;      CG2R61     CG2R61
   14    20	 1 ;      CG2R61     CG2R61
   15    16	 1 ;      CG2R61     CG2R61
   15    41	 1 ;      CG2R61      HGR62
   16    17	 1 ;      CG2R61      BRGR1
   16    18	 1 ;      CG2R61     CG2R61
   18    19	 1 ;      CG2R61     CG2R61
   18    42	 1 ;      CG2R61      HGR62
   19    20	 1 ;      CG2R61     CG2R61
   19    43	 1 ;      CG2R61      HGR61
   20    44	 1 ;      CG2R61      HGR61
   21    22	 1 ;      CG2R61     CG2R61
   21    26	 1 ;      CG2R61     CG2R61
   22    23	 1 ;      CG2R61     CG2R61
   22    45	 1 ;      CG2R61      HGR61
   23    24	 1 ;      CG2R61     CG2R61
   23    46	 1 ;      CG2R61      HGR61
   24    25	 1 ;      CG2R61     CG2R61
   24    27	 1 ;      CG2R61      OG301
   25    26	 1 ;      CG2R61     CG2R61
   25    47	 1 ;      CG2R61      HGR61
   26    48	 1 ;      CG2R61      HGR61
   27    28	 1 ;       OG301      CG331
   28    49	 1 ;       CG331       HGA3
   28    50	 1 ;       CG331       HGA3
   28    51	 1 ;       CG331       HGA3
   29    31	 1 ;       NG3P3       HGP2
   29    30	 1 ;       NG3P3       HGP2
   29    52	 1 ;       NG3P3       HGP2

[ pairs ]
;	ai	  aj funct			  c0			c1			  c2			c3
    1    29	 1
    1    33	 1
    1    13	 1
    1    34	 1
    1     8	 1
    1     9	 1
    1    36	 1
    1    16	 1
    1    41	 1
    1    19	 1
    1    44	 1
    1    23	 1
    1    45	 1
    1    25	 1
    1    48	 1
    2    15	 1
    2    20	 1
    2     7	 1
    2    35	 1
    2    22	 1
    2    26	 1
    2    31	 1
    2    30	 1
    2    52	 1
    2    13	 1
    2    34	 1
    3    14	 1
    3     6	 1
    3    21	 1
    3    29	 1
    3     5	 1
    3    33	 1
    4    14	 1
    4    21	 1
    4    10	 1
    4    39	 1
    4    40	 1
    4     7	 1
    4    35	 1
    5    14	 1
    5    21	 1
    5    32	 1
    5    31	 1
    5    30	 1
    5    52	 1
    5     8	 1
    5     9	 1
    5    36	 1
    5    11	 1
    5    12	 1
    6    15	 1
    6    20	 1
    6    32	 1
    6    22	 1
    6    26	 1
    6    29	 1
    6    33	 1
    6    10	 1
    6    39	 1
    6    40	 1
    6    37	 1
    6    38	 1
    7    14	 1
    7    21	 1
    7    13	 1
    7    34	 1
    7    11	 1
    7    12	 1
    8    35	 1
    8    10	 1
    8    37	 1
    8    38	 1
    9    35	 1
    9    39	 1
    9    40	 1
   10    34	 1
   10    36	 1
   11    37	 1
   11    38	 1
   11    39	 1
   11    40	 1
   12    37	 1
   12    38	 1
   12    39	 1
   12    40	 1
   13    29	 1
   13    33	 1
   13    35	 1
   13    37	 1
   13    38	 1
   14    35	 1
   14    32	 1
   14    22	 1
   14    26	 1
   14    17	 1
   53    14	 1
   14    18	 1
   14    43	 1
   15    21	 1
   15    19	 1
   15    44	 1
   15    42	 1
   16    20	 1
   16    43	 1
   17    41	 1
   53    41	 1
   17    19	 1
   53    19	 1
   17    42	 1
   53    42	 1
   18    41	 1
   18    44	 1
   20    21	 1
   20    41	 1
   20    42	 1
   21    35	 1
   21    32	 1
   21    24	 1
   21    46	 1
   21    47	 1
   22    25	 1
   22    48	 1
   22    27	 1
   23    26	 1
   23    47	 1
   23    28	 1
   24    45	 1
   24    48	 1
   24    49	 1
   24    50	 1
   24    51	 1
   25    46	 1
   25    28	 1
   26    45	 1
   26    27	 1
   27    46	 1
   27    47	 1
   29    32	 1
   29    34	 1
   30    33	 1
   31    33	 1
   32    33	 1
   33    52	 1
   33    34	 1
   34    39	 1
   34    40	 1
   34    35	 1
   35    36	 1
   36    37	 1
   36    38	 1
   42    43	 1
   43    44	 1
   45    46	 1
   47    48	 1

[ angles ]
;	ai	  aj	ak funct			c0			  c1			c2			  c3
   14     1     6	5 ;     CG2R61     CG3C50     CG3RC1
   14     1     2	5 ;     CG2R61     CG3C50      NG3P2
   14     1    21	5 ;     CG2R61     CG3C50     CG2R61
    6     1     2	5 ;     CG3RC1     CG3C50      NG3P2
    6     1    21	5 ;     CG3RC1     CG3C50     CG2R61
    2     1    21	5 ;      NG3P2     CG3C50     CG2R61
    4     2     1	5 ;     CG3C53      NG3P2     CG3C50
    4     2     3	5 ;     CG3C53      NG3P2       HGP2
    4     2    32	5 ;     CG3C53      NG3P2       HGP2
    1     2     3	5 ;     CG3C50      NG3P2       HGP2
    1     2    32	5 ;     CG3C50      NG3P2       HGP2
    3     2    32	5 ;       HGP2      NG3P2       HGP2
   29     4     5	5 ;      NG3P3     CG3C53      NG3P1
   29     4     2	5 ;      NG3P3     CG3C53      NG3P2
   29     4    33	5 ;      NG3P3     CG3C53       HGA1
    5     4     2	5 ;      NG3P1     CG3C53      NG3P2
    5     4    33	5 ;      NG3P1     CG3C53       HGA1
    2     4    33	5 ;      NG3P2     CG3C53       HGA1
   13     5     4	5 ;      CG324      NG3P1     CG3C53
   13     5     6	5 ;      CG324      NG3P1     CG3RC1
   13     5    34	5 ;      CG324      NG3P1       HGP2
    4     5     6	5 ;     CG3C53      NG3P1     CG3RC1
    4     5    34	5 ;     CG3C53      NG3P1       HGP2
    6     5    34	5 ;     CG3RC1      NG3P1       HGP2
    5     6     1	5 ;      NG3P1     CG3RC1     CG3C50
    5     6     7	5 ;      NG3P1     CG3RC1      NG3P2
    5     6    35	5 ;      NG3P1     CG3RC1       HGA1
    1     6     7	5 ;     CG3C50     CG3RC1      NG3P2
    1     6    35	5 ;     CG3C50     CG3RC1       HGA1
    7     6    35	5 ;      NG3P2     CG3RC1       HGA1
    6     7     8	5 ;     CG3RC1      NG3P2       HGP2
    6     7     9	5 ;     CG3RC1      NG3P2      CG324
    6     7    36	5 ;     CG3RC1      NG3P2       HGP2
    8     7     9	5 ;       HGP2      NG3P2      CG324
    8     7    36	5 ;       HGP2      NG3P2       HGP2
    9     7    36	5 ;      CG324      NG3P2       HGP2
   10     9     7	5 ;      CG312      CG324      NG3P2
   10     9    37	5 ;      CG312      CG324       HGA2
   10     9    38	5 ;      CG312      CG324       HGA2
    7     9    37	5 ;      NG3P2      CG324       HGA2
    7     9    38	5 ;      NG3P2      CG324       HGA2
   37     9    38	5 ;       HGA2      CG324       HGA2
   11    10    13	5 ;       FGA2      CG312      CG324
   11    10     9	5 ;       FGA2      CG312      CG324
   11    10    12	5 ;       FGA2      CG312       FGA2
   13    10     9	5 ;      CG324      CG312      CG324
   13    10    12	5 ;      CG324      CG312       FGA2
    9    10    12	5 ;      CG324      CG312       FGA2
    5    13    10	5 ;      NG3P1      CG324      CG312
    5    13    39	5 ;      NG3P1      CG324       HGA2
    5    13    40	5 ;      NG3P1      CG324       HGA2
   10    13    39	5 ;      CG312      CG324       HGA2
   10    13    40	5 ;      CG312      CG324       HGA2
   39    13    40	5 ;       HGA2      CG324       HGA2
   15    14    20	5 ;     CG2R61     CG2R61     CG2R61
   15    14     1	5 ;     CG2R61     CG2R61     CG3C50
   20    14     1	5 ;     CG2R61     CG2R61     CG3C50
   16    15    14	5 ;     CG2R61     CG2R61     CG2R61
   16    15    41	5 ;     CG2R61     CG2R61      HGR62
   14    15    41	5 ;     CG2R61     CG2R61      HGR62
   17    16    18	5 ;      BRGR1     CG2R61     CG2R61
   17    16    15	5 ;      BRGR1     CG2R61     CG2R61
   18    16    15	5 ;     CG2R61     CG2R61     CG2R61
   16    18    19	5 ;     CG2R61     CG2R61     CG2R61
   16    18    42	5 ;     CG2R61     CG2R61      HGR62
   19    18    42	5 ;     CG2R61     CG2R61      HGR62
   18    19    20	5 ;     CG2R61     CG2R61     CG2R61
   18    19    43	5 ;     CG2R61     CG2R61      HGR61
   20    19    43	5 ;     CG2R61     CG2R61      HGR61
   19    20    14	5 ;     CG2R61     CG2R61     CG2R61
   19    20    44	5 ;     CG2R61     CG2R61      HGR61
   14    20    44	5 ;     CG2R61     CG2R61      HGR61
    1    21    22	5 ;     CG3C50     CG2R61     CG2R61
    1    21    26	5 ;     CG3C50     CG2R61     CG2R61
   22    21    26	5 ;     CG2R61     CG2R61     CG2R61
   21    22    23	5 ;     CG2R61     CG2R61     CG2R61
   21    22    45	5 ;     CG2R61     CG2R61      HGR61
   23    22    45	5 ;     CG2R61     CG2R61      HGR61
   22    23    24	5 ;     CG2R61     CG2R61     CG2R61
   22    23    46	5 ;     CG2R61     CG2R61      HGR61
   24    23    46	5 ;     CG2R61     CG2R61      HGR61
   23    24    25	5 ;     CG2R61     CG2R61     CG2R61
   23    24    27	5 ;     CG2R61     CG2R61      OG301
   25    24    27	5 ;     CG2R61     CG2R61      OG301
   26    25    24	5 ;     CG2R61     CG2R61     CG2R61
   26    25    47	5 ;     CG2R61     CG2R61      HGR61
   24    25    47	5 ;     CG2R61     CG2R61      HGR61
   21    26    25	5 ;     CG2R61     CG2R61     CG2R61
   21    26    48	5 ;     CG2R61     CG2R61      HGR61
   25    26    48	5 ;     CG2R61     CG2R61      HGR61
   24    27    28	5 ;     CG2R61      OG301      CG331
   27    28    49	5 ;      OG301      CG331       HGA3
   27    28    50	5 ;      OG301      CG331       HGA3
   27    28    51	5 ;      OG301      CG331       HGA3
   49    28    50	5 ;       HGA3      CG331       HGA3
   49    28    51	5 ;       HGA3      CG331       HGA3
   50    28    51	5 ;       HGA3      CG331       HGA3
   31    29     4	5 ;       HGP2      NG3P3     CG3C53
   31    29    30	5 ;       HGP2      NG3P3       HGP2
   31    29    52	5 ;       HGP2      NG3P3       HGP2
    4    29    30	5 ;     CG3C53      NG3P3       HGP2
    4    29    52	5 ;     CG3C53      NG3P3       HGP2
   30    29    52	5 ;       HGP2      NG3P3       HGP2

[ dihedrals ]
;	ai	  aj	ak	  al funct			  c0			c1			  c2			c3			  c4			c5
    6     1    14    15	 9 ;     CG3RC1     CG3C50     CG2R61     CG2R61
    6     1    14    20	 9 ;     CG3RC1     CG3C50     CG2R61     CG2R61
    2     1    14    15	 9 ;      NG3P2     CG3C50     CG2R61     CG2R61
    2     1    14    20	 9 ;      NG3P2     CG3C50     CG2R61     CG2R61
   21     1    14    15	 9 ;     CG2R61     CG3C50     CG2R61     CG2R61
   21     1    14    20	 9 ;     CG2R61     CG3C50     CG2R61     CG2R61
   14     1     6     5	 9 ;     CG2R61     CG3C50     CG3RC1      NG3P1
   14     1     6     7	 9 ;     CG2R61     CG3C50     CG3RC1      NG3P2
   14     1     6    35	 9 ;     CG2R61     CG3C50     CG3RC1       HGA1
    2     1     6     5	 9 ;      NG3P2     CG3C50     CG3RC1      NG3P1
    2     1     6     7	 9 ;      NG3P2     CG3C50     CG3RC1      NG3P2
    2     1     6    35	 9 ;      NG3P2     CG3C50     CG3RC1       HGA1
   21     1     6     5	 9 ;     CG2R61     CG3C50     CG3RC1      NG3P1
   21     1     6     7	 9 ;     CG2R61     CG3C50     CG3RC1      NG3P2
   21     1     6    35	 9 ;     CG2R61     CG3C50     CG3RC1       HGA1
   14     1     2     4	 9 ;     CG2R61     CG3C50      NG3P2     CG3C53
   14     1     2     3	 9 ;     CG2R61     CG3C50      NG3P2       HGP2
   14     1     2    32	 9 ;     CG2R61     CG3C50      NG3P2       HGP2
    6     1     2     4	 9 ;     CG3RC1     CG3C50      NG3P2     CG3C53
    6     1     2     3	 9 ;     CG3RC1     CG3C50      NG3P2       HGP2
    6     1     2    32	 9 ;     CG3RC1     CG3C50      NG3P2       HGP2
   21     1     2     4	 9 ;     CG2R61     CG3C50      NG3P2     CG3C53
   21     1     2     3	 9 ;     CG2R61     CG3C50      NG3P2       HGP2
   21     1     2    32	 9 ;     CG2R61     CG3C50      NG3P2       HGP2
   14     1    21    22	 9 ;     CG2R61     CG3C50     CG2R61     CG2R61
   14     1    21    26	 9 ;     CG2R61     CG3C50     CG2R61     CG2R61
    6     1    21    22	 9 ;     CG3RC1     CG3C50     CG2R61     CG2R61
    6     1    21    26	 9 ;     CG3RC1     CG3C50     CG2R61     CG2R61
    2     1    21    22	 9 ;      NG3P2     CG3C50     CG2R61     CG2R61
    2     1    21    26	 9 ;      NG3P2     CG3C50     CG2R61     CG2R61
    1     2     4    29	 9 ;     CG3C50      NG3P2     CG3C53      NG3P3
    1     2     4     5	 9 ;     CG3C50      NG3P2     CG3C53      NG3P1
    1     2     4    33	 9 ;     CG3C50      NG3P2     CG3C53       HGA1
    3     2     4    29	 9 ;       HGP2      NG3P2     CG3C53      NG3P3
    3     2     4     5	 9 ;       HGP2      NG3P2     CG3C53      NG3P1
    3     2     4    33	 9 ;       HGP2      NG3P2     CG3C53       HGA1
   32     2     4    29	 9 ;       HGP2      NG3P2     CG3C53      NG3P3
   32     2     4     5	 9 ;       HGP2      NG3P2     CG3C53      NG3P1
   32     2     4    33	 9 ;       HGP2      NG3P2     CG3C53       HGA1
    5     4    29    31	 9 ;      NG3P1     CG3C53      NG3P3       HGP2
    5     4    29    30	 9 ;      NG3P1     CG3C53      NG3P3       HGP2
    5     4    29    52	 9 ;      NG3P1     CG3C53      NG3P3       HGP2
    2     4    29    31	 9 ;      NG3P2     CG3C53      NG3P3       HGP2
    2     4    29    30	 9 ;      NG3P2     CG3C53      NG3P3       HGP2
    2     4    29    52	 9 ;      NG3P2     CG3C53      NG3P3       HGP2
   33     4    29    31	 9 ;       HGA1     CG3C53      NG3P3       HGP2
   33     4    29    30	 9 ;       HGA1     CG3C53      NG3P3       HGP2
   33     4    29    52	 9 ;       HGA1     CG3C53      NG3P3       HGP2
   29     4     5    13	 9 ;      NG3P3     CG3C53      NG3P1      CG324
   29     4     5     6	 9 ;      NG3P3     CG3C53      NG3P1     CG3RC1
   29     4     5    34	 9 ;      NG3P3     CG3C53      NG3P1       HGP2
    2     4     5    13	 9 ;      NG3P2     CG3C53      NG3P1      CG324
    2     4     5     6	 9 ;      NG3P2     CG3C53      NG3P1     CG3RC1
    2     4     5    34	 9 ;      NG3P2     CG3C53      NG3P1       HGP2
   33     4     5    13	 9 ;       HGA1     CG3C53      NG3P1      CG324
   33     4     5     6	 9 ;       HGA1     CG3C53      NG3P1     CG3RC1
   33     4     5    34	 9 ;       HGA1     CG3C53      NG3P1       HGP2
    4     5    13    10	 9 ;     CG3C53      NG3P1      CG324      CG312
    4     5    13    39	 9 ;     CG3C53      NG3P1      CG324       HGA2
    4     5    13    40	 9 ;     CG3C53      NG3P1      CG324       HGA2
    6     5    13    10	 9 ;     CG3RC1      NG3P1      CG324      CG312
    6     5    13    39	 9 ;     CG3RC1      NG3P1      CG324       HGA2
    6     5    13    40	 9 ;     CG3RC1      NG3P1      CG324       HGA2
   34     5    13    10	 9 ;       HGP2      NG3P1      CG324      CG312
   34     5    13    39	 9 ;       HGP2      NG3P1      CG324       HGA2
   34     5    13    40	 9 ;       HGP2      NG3P1      CG324       HGA2
   13     5     6     1	 9 ;      CG324      NG3P1     CG3RC1     CG3C50
   13     5     6     7	 9 ;      CG324      NG3P1     CG3RC1      NG3P2
   13     5     6    35	 9 ;      CG324      NG3P1     CG3RC1       HGA1
    4     5     6     1	 9 ;     CG3C53      NG3P1     CG3RC1     CG3C50
    4     5     6     7	 9 ;     CG3C53      NG3P1     CG3RC1      NG3P2
    4     5     6    35	 9 ;     CG3C53      NG3P1     CG3RC1       HGA1
   34     5     6     1	 9 ;       HGP2      NG3P1     CG3RC1     CG3C50
   34     5     6     7	 9 ;       HGP2      NG3P1     CG3RC1      NG3P2
   34     5     6    35	 9 ;       HGP2      NG3P1     CG3RC1       HGA1
    5     6     7     8	 9 ;      NG3P1     CG3RC1      NG3P2       HGP2
    5     6     7     9	 9 ;      NG3P1     CG3RC1      NG3P2      CG324
    5     6     7    36	 9 ;      NG3P1     CG3RC1      NG3P2       HGP2
    1     6     7     8	 9 ;     CG3C50     CG3RC1      NG3P2       HGP2
    1     6     7     9	 9 ;     CG3C50     CG3RC1      NG3P2      CG324
    1     6     7    36	 9 ;     CG3C50     CG3RC1      NG3P2       HGP2
   35     6     7     8	 9 ;       HGA1     CG3RC1      NG3P2       HGP2
   35     6     7     9	 9 ;       HGA1     CG3RC1      NG3P2      CG324
   35     6     7    36	 9 ;       HGA1     CG3RC1      NG3P2       HGP2
    6     7     9    10	 9 ;     CG3RC1      NG3P2      CG324      CG312
    6     7     9    37	 9 ;     CG3RC1      NG3P2      CG324       HGA2
    6     7     9    38	 9 ;     CG3RC1      NG3P2      CG324       HGA2
    8     7     9    10	 9 ;       HGP2      NG3P2      CG324      CG312
    8     7     9    37	 9 ;       HGP2      NG3P2      CG324       HGA2
    8     7     9    38	 9 ;       HGP2      NG3P2      CG324       HGA2
   36     7     9    10	 9 ;       HGP2      NG3P2      CG324      CG312
   36     7     9    37	 9 ;       HGP2      NG3P2      CG324       HGA2
   36     7     9    38	 9 ;       HGP2      NG3P2      CG324       HGA2
    7     9    10    11	 9 ;      NG3P2      CG324      CG312       FGA2
    7     9    10    13	 9 ;      NG3P2      CG324      CG312      CG324
    7     9    10    12	 9 ;      NG3P2      CG324      CG312       FGA2
   37     9    10    11	 9 ;       HGA2      CG324      CG312       FGA2
   37     9    10    13	 9 ;       HGA2      CG324      CG312      CG324
   37     9    10    12	 9 ;       HGA2      CG324      CG312       FGA2
   38     9    10    11	 9 ;       HGA2      CG324      CG312       FGA2
   38     9    10    13	 9 ;       HGA2      CG324      CG312      CG324
   38     9    10    12	 9 ;       HGA2      CG324      CG312       FGA2
   11    10    13     5	 9 ;       FGA2      CG312      CG324      NG3P1
   11    10    13    39	 9 ;       FGA2      CG312      CG324       HGA2
   11    10    13    40	 9 ;       FGA2      CG312      CG324       HGA2
    9    10    13     5	 9 ;      CG324      CG312      CG324      NG3P1
    9    10    13    39	 9 ;      CG324      CG312      CG324       HGA2
    9    10    13    40	 9 ;      CG324      CG312      CG324       HGA2
   12    10    13     5	 9 ;       FGA2      CG312      CG324      NG3P1
   12    10    13    39	 9 ;       FGA2      CG312      CG324       HGA2
   12    10    13    40	 9 ;       FGA2      CG312      CG324       HGA2
   20    14    15    16	 9 ;     CG2R61     CG2R61     CG2R61     CG2R61
   20    14    15    41	 9 ;     CG2R61     CG2R61     CG2R61      HGR62
    1    14    15    16	 9 ;     CG3C50     CG2R61     CG2R61     CG2R61
    1    14    15    41	 9 ;     CG3C50     CG2R61     CG2R61      HGR62
   15    14    20    19	 9 ;     CG2R61     CG2R61     CG2R61     CG2R61
   15    14    20    44	 9 ;     CG2R61     CG2R61     CG2R61      HGR61
    1    14    20    19	 9 ;     CG3C50     CG2R61     CG2R61     CG2R61
    1    14    20    44	 9 ;     CG3C50     CG2R61     CG2R61      HGR61
   14    15    16    17	 9 ;     CG2R61     CG2R61     CG2R61      BRGR1
   14    15    16    18	 9 ;     CG2R61     CG2R61     CG2R61     CG2R61
   41    15    16    17	 9 ;      HGR62     CG2R61     CG2R61      BRGR1
   41    15    16    18	 9 ;      HGR62     CG2R61     CG2R61     CG2R61
   17    16    18    19	 9 ;      BRGR1     CG2R61     CG2R61     CG2R61
   17    16    18    42	 9 ;      BRGR1     CG2R61     CG2R61      HGR62
   15    16    18    19	 9 ;     CG2R61     CG2R61     CG2R61     CG2R61
   15    16    18    42	 9 ;     CG2R61     CG2R61     CG2R61      HGR62
   16    18    19    20	 9 ;     CG2R61     CG2R61     CG2R61     CG2R61
   16    18    19    43	 9 ;     CG2R61     CG2R61     CG2R61      HGR61
   42    18    19    20	 9 ;      HGR62     CG2R61     CG2R61     CG2R61
   42    18    19    43	 9 ;      HGR62     CG2R61     CG2R61      HGR61
   18    19    20    14	 9 ;     CG2R61     CG2R61     CG2R61     CG2R61
   18    19    20    44	 9 ;     CG2R61     CG2R61     CG2R61      HGR61
   43    19    20    14	 9 ;      HGR61     CG2R61     CG2R61     CG2R61
   43    19    20    44	 9 ;      HGR61     CG2R61     CG2R61      HGR61
    1    21    22    23	 9 ;     CG3C50     CG2R61     CG2R61     CG2R61
    1    21    22    45	 9 ;     CG3C50     CG2R61     CG2R61      HGR61
   26    21    22    23	 9 ;     CG2R61     CG2R61     CG2R61     CG2R61
   26    21    22    45	 9 ;     CG2R61     CG2R61     CG2R61      HGR61
    1    21    26    25	 9 ;     CG3C50     CG2R61     CG2R61     CG2R61
    1    21    26    48	 9 ;     CG3C50     CG2R61     CG2R61      HGR61
   22    21    26    25	 9 ;     CG2R61     CG2R61     CG2R61     CG2R61
   22    21    26    48	 9 ;     CG2R61     CG2R61     CG2R61      HGR61
   21    22    23    24	 9 ;     CG2R61     CG2R61     CG2R61     CG2R61
   21    22    23    46	 9 ;     CG2R61     CG2R61     CG2R61      HGR61
   45    22    23    24	 9 ;      HGR61     CG2R61     CG2R61     CG2R61
   45    22    23    46	 9 ;      HGR61     CG2R61     CG2R61      HGR61
   22    23    24    25	 9 ;     CG2R61     CG2R61     CG2R61     CG2R61
   22    23    24    27	 9 ;     CG2R61     CG2R61     CG2R61      OG301
   46    23    24    25	 9 ;      HGR61     CG2R61     CG2R61     CG2R61
   46    23    24    27	 9 ;      HGR61     CG2R61     CG2R61      OG301
   23    24    25    26	 9 ;     CG2R61     CG2R61     CG2R61     CG2R61
   23    24    25    47	 9 ;     CG2R61     CG2R61     CG2R61      HGR61
   27    24    25    26	 9 ;      OG301     CG2R61     CG2R61     CG2R61
   27    24    25    47	 9 ;      OG301     CG2R61     CG2R61      HGR61
   23    24    27    28	 9 ;     CG2R61     CG2R61      OG301      CG331
   25    24    27    28	 9 ;     CG2R61     CG2R61      OG301      CG331
   24    25    26    21	 9 ;     CG2R61     CG2R61     CG2R61     CG2R61
   24    25    26    48	 9 ;     CG2R61     CG2R61     CG2R61      HGR61
   47    25    26    21	 9 ;      HGR61     CG2R61     CG2R61     CG2R61
   47    25    26    48	 9 ;      HGR61     CG2R61     CG2R61      HGR61
   24    27    28    49	 9 ;     CG2R61      OG301      CG331       HGA3
   24    27    28    50	 9 ;     CG2R61      OG301      CG331       HGA3
   24    27    28    51	 9 ;     CG2R61      OG301      CG331       HGA3

[ virtual_sites2 ]
; Site   from				funct a
   53    17    16     2   -0.189

[ exclusions ]
;	ai	  aj
   17    53
   53    16
   53    18
   53    15
   53    14
   53    41
   53    19
   53    42

