S  C  A  M  O  R  G
   53
    1LIG     C1    1  -1.269   0.347  -1.551
    1LIG     N1    2  -1.221   0.437  -1.435
    1LIG    HN5    3  -1.269   0.516  -1.393
    1LIG     C2    4  -1.104   0.388  -1.401
    1LIG     N2    5  -1.075   0.264  -1.446
    1LIG     C3    6  -1.173   0.222  -1.532
    1LIG     N3    7  -1.194   0.102  -1.576
    1LIG    HN6    8  -1.254   0.083  -1.656
    1LIG     C4    9  -1.125  -0.003  -1.499
    1LIG     C5   10  -0.988   0.032  -1.441
    1LIG     F1   11  -0.891  -0.007  -1.528
    1LIG     F2   12  -0.969  -0.044  -1.329
    1LIG     C6   13  -0.967   0.178  -1.404
    1LIG     C7   14  -1.238   0.424  -1.681
    1LIG     C8   15  -1.132   0.381  -1.764
    1LIG     C9   16  -1.101   0.449  -1.882
    1LIG     BR   17  -0.960   0.387  -1.991
    1LIG    C10   18  -1.174   0.561  -1.919
    1LIG    C11   19  -1.277   0.606  -1.836
    1LIG    C12   20  -1.309   0.539  -1.718
    1LIG    C13   21  -1.417   0.303  -1.538
    1LIG    C14   22  -1.474   0.216  -1.633
    1LIG    C15   23  -1.612   0.196  -1.642
    1LIG    C16   24  -1.698   0.255  -1.549
    1LIG    C17   25  -1.643   0.332  -1.447
    1LIG    C18   26  -1.504   0.355  -1.441
    1LIG      O   27  -1.834   0.244  -1.550
    1LIG    C19   28  -1.893   0.193  -1.431
    1LIG     N4   29  -1.013   0.454  -1.326
    1LIG     H1   30  -1.053   0.502  -1.246
    1LIG     H2   31  -0.941   0.389  -1.294
    1LIG    HN2   32  -1.265   0.375  -1.368
    1LIG     HC   33  -1.147   0.346  -1.311
    1LIG    HN1   34  -1.020   0.301  -1.523
    1LIG    HC1   35  -1.114   0.248  -1.619
    1LIG    HN3   36  -1.274   0.094  -1.515
    1LIG    HC2   37  -1.111  -0.088  -1.566
    1LIG    HC3   38  -1.189  -0.034  -1.418
    1LIG    HC4   39  -0.957   0.186  -1.296
    1LIG    HC5   40  -0.875   0.213  -1.451
    1LIG    HC6   41  -1.074   0.295  -1.736
    1LIG    HC7   42  -1.151   0.613  -2.010
    1LIG    HC8   43  -1.333   0.695  -1.864
    1LIG    HC9   44  -1.388   0.576  -1.655
    1LIG   HC10   45  -1.409   0.163  -1.701
    1LIG   HC11   46  -1.653   0.135  -1.721
    1LIG   HC12   47  -1.707   0.374  -1.371
    1LIG   HC13   48  -1.464   0.415  -1.360
    1LIG   HC14   49  -1.988   0.145  -1.455
    1LIG   HC15   50  -1.911   0.275  -1.361
    1LIG   HC16   51  -1.827   0.120  -1.385
    1LIG    HN4   52  -0.968   0.524  -1.385
    1LIG    LP1   53  -0.819   0.324  -2.101
   0.00000   0.00000   0.00000
