God Rules Over Mankind, Animals, Cosmos and Such
   55
    1LIG     C1    1  -1.561   0.430  -1.700
    1LIG     N1    2  -1.539   0.349  -1.825
    1LIG    HN3    3  -1.539   0.248  -1.834
    1LIG     C2    4  -1.520   0.435  -1.920
    1LIG     N2    5  -1.529   0.565  -1.886
    1LIG     C3    6  -1.482   0.678  -1.962
    1LIG     C4    7  -1.574   0.573  -1.757
    1LIG     O1    8  -1.608   0.676  -1.700
    1LIG     C5    9  -1.679   0.369  -1.623
    1LIG     C6   10  -1.704   0.417  -1.493
    1LIG     C7   11  -1.824   0.391  -1.426
    1LIG     C8   12  -1.922   0.315  -1.489
    1LIG     C9   13  -1.894   0.256  -1.612
    1LIG    C10   14  -1.773   0.282  -1.679
    1LIG     O2   15  -2.047   0.292  -1.439
    1LIG    C11   16  -2.142   0.398  -1.441
    1LIG     F1   17  -2.124   0.488  -1.539
    1LIG     F2   18  -2.266   0.345  -1.456
    1LIG     F3   19  -2.139   0.462  -1.322
    1LIG    C12   20  -1.437   0.429  -1.608
    1LIG    C13   21  -1.383   0.305  -1.566
    1LIG     F4   22  -1.446   0.193  -1.602
    1LIG    C14   23  -1.266   0.295  -1.489
    1LIG    C15   24  -1.206   0.415  -1.449
    1LIG    C16   25  -1.258   0.539  -1.487
    1LIG    C17   26  -1.372   0.546  -1.567
    1LIG    C18   27  -1.208   0.163  -1.455
    1LIG    C19   28  -1.227   0.100  -1.333
    1LIG     N3   29  -1.174  -0.019  -1.298
    1LIG    C20   30  -1.097  -0.078  -1.391
    1LIG    HN4   31  -1.191  -0.062  -1.207
    1LIG     N4   32  -1.070  -0.029  -1.512
    1LIG    C21   33  -1.126   0.091  -1.541
    1LIG    HN5   34  -1.010  -0.078  -1.579
    1LIG     N5   35  -1.496   0.397  -2.047
    1LIG     H1   36  -1.531   0.466  -2.114
    1LIG     H2   37  -1.401   0.369  -2.068
    1LIG    HN2   38  -1.440   0.348  -1.807
    1LIG     HC   39  -1.413   0.436  -1.899
    1LIG    HC1   40  -1.503   0.770  -1.908
    1LIG    HC2   41  -1.374   0.669  -1.977
    1LIG    HC3   42  -1.532   0.680  -2.059
    1LIG    HC4   43  -1.629   0.477  -1.444
    1LIG    HC5   44  -1.839   0.428  -1.326
    1LIG    HC6   45  -1.965   0.188  -1.656
    1LIG    HC7   46  -1.753   0.235  -1.775
    1LIG    HC8   47  -1.117   0.412  -1.388
    1LIG    HC9   48  -1.210   0.630  -1.454
    1LIG   HC10   49  -1.411   0.642  -1.597
    1LIG   HC11   50  -1.290   0.150  -1.261
    1LIG   HC12   51  -1.054  -0.173  -1.365
    1LIG   HC13   52  -1.105   0.133  -1.638
    1LIG    HN1   53  -1.553   0.315  -2.062
    1LIG    H22   54  -1.315   0.049  -1.374
    1LIG    H23   55  -1.010  -0.027  -1.350
   0.00000   0.00000   0.00000
