; Created by cgenff_charmm2gmx.py

[ moleculetype ]
; Name			   nrexcl
LIG				 3

[ atoms ]
;	 nr		  type	resnr residue  atom   cgnr	   charge		mass  typeB    chargeB		massB
; residue	 1 LIG rtp LIG q	qsum
     1     CG3C50      1    LIG     C1      1      1.613     12.011   ;
     2      NG3P2      1    LIG     N1      2     -0.701     14.007   ;
     3       HGP2      1    LIG    HN3      3      0.353      1.008   ;
     4     CG3C53      1    LIG     C2      4      0.784     12.011   ;
     5     NG2R53      1    LIG     N2      5     -0.171     14.007   ;
     6      CG331      1    LIG     C3      6     -0.169     12.011   ;
     7     CG2R53      1    LIG     C4      7     -0.361     12.011   ;
     8      OG2D1      1    LIG     O1      8     -0.342     15.999   ;
     9     CG2R61      1    LIG     C5      9     -0.154     12.011   ;
    10     CG2R61      1    LIG     C6     10     -0.128     12.011   ;
    11     CG2R61      1    LIG     C7     11     -0.108     12.011   ;
    12     CG2R61      1    LIG     C8     12      0.217     12.011   ;
    13     CG2R61      1    LIG     C9     13     -0.108     12.011   ;
    14     CG2R61      1    LIG    C10     14     -0.128     12.011   ;
    15      OG301      1    LIG     O2     15     -0.303     15.999   ;
    16      CG302      1    LIG    C11     16      0.464     12.011   ;
    17       FGA3      1    LIG     F1     17     -0.126     18.998   ;
    18       FGA3      1    LIG     F2     18     -0.126     18.998   ;
    19       FGA3      1    LIG     F3     19     -0.126     18.998   ;
    20     CG2R61      1    LIG    C12     20     -0.073     12.011   ;
    21     CG2R66      1    LIG    C13     21     -0.088     12.011   ;
    22       FGR1      1    LIG     F4     22     -0.095     18.998   ;
    23     CG2R61      1    LIG    C14     23      0.172     12.011   ;
    24     CG2R61      1    LIG    C15     24     -0.152     12.011   ;
    25     CG2R61      1    LIG    C16     25     -0.080     12.011   ;
    26     CG2R61      1    LIG    C17     26     -0.163     12.011   ;
    27     CG2DC1      1    LIG    C18     27     -0.127     12.011   ;
    28      CG321      1    LIG    C19     28      0.021     12.011   ;
    29      NG311      1    LIG     N3     29     -0.656     14.007   ;
    30      CG321      1    LIG    C20     30      0.131     12.011   ;
    31     HGPAM1      1    LIG    HN4     31      0.367      1.008   ;
    32      NG311      1    LIG     N4     32     -0.598     14.007   ;
    33     CG2D1O      1    LIG    C21     33     -0.097     12.011   ;
    34     HGPAM1      1    LIG    HN5     34      0.406      1.008   ;
    35      NG3P3      1    LIG     N5     35     -0.267     14.007   ;
    36       HGP2      1    LIG     H1     36      0.301      1.008   ;
    37       HGP2      1    LIG     H2     37      0.301      1.008   ;
    38       HGP2      1    LIG    HN2     38      0.353      1.008   ;
    39       HGA1      1    LIG     HC     39      0.073      1.008   ;
    40       HGA3      1    LIG    HC1     40      0.090      1.008   ;
    41       HGA3      1    LIG    HC2     41      0.090      1.008   ;
    42       HGA3      1    LIG    HC3     42      0.090      1.008   ;
    43      HGR61      1    LIG    HC4     43      0.116      1.008   ;
    44      HGR61      1    LIG    HC5     44      0.116      1.008   ;
    45      HGR61      1    LIG    HC6     45      0.116      1.008   ;
    46      HGR61      1    LIG    HC7     46      0.116      1.008   ;
    47      HGR61      1    LIG    HC8     47      0.116      1.008   ;
    48      HGR61      1    LIG    HC9     48      0.116      1.008   ;
    49      HGR61      1    LIG   HC10     49      0.116      1.008   ;
    50       HGA2      1    LIG   HC11     50      0.090      1.008   ;
    51       HGA2      1    LIG   HC12     51      0.090      1.008   ;
    52       HGA4      1    LIG   HC13     52      0.148      1.008   ;
    53       HGP2      1    LIG    HN1     53      0.301      1.008   ;
    54       HGA2      1    LIG    H22     54      0.090      1.008   ;
    55       HGA2      1    LIG    H23     55      0.090      1.008   ;

[ bonds ]
;	ai	  aj funct			  c0			c1			  c2			c3
    1     2	 1 ;      CG3C50      NG3P2
    1     7	 1 ;      CG3C50     CG2R53
    1    20	 1 ;      CG3C50     CG2R61
    1     9	 1 ;      CG3C50     CG2R61
    2     4	 1 ;       NG3P2     CG3C53
    2     3	 1 ;       NG3P2       HGP2
    2    38	 1 ;       NG3P2       HGP2
    4    35	 1 ;      CG3C53      NG3P3
    4     5	 1 ;      CG3C53     NG2R53
    4    39	 1 ;      CG3C53       HGA1
    5     6	 1 ;      NG2R53      CG331
    5     7	 1 ;      NG2R53     CG2R53
    6    40	 1 ;       CG331       HGA3
    6    41	 1 ;       CG331       HGA3
    6    42	 1 ;       CG331       HGA3
    7     8	 1 ;      CG2R53      OG2D1
    9    14	 1 ;      CG2R61     CG2R61
    9    10	 1 ;      CG2R61     CG2R61
   10    11	 1 ;      CG2R61     CG2R61
   10    43	 1 ;      CG2R61      HGR61
   11    12	 1 ;      CG2R61     CG2R61
   11    44	 1 ;      CG2R61      HGR61
   12    13	 1 ;      CG2R61     CG2R61
   12    15	 1 ;      CG2R61      OG301
   13    14	 1 ;      CG2R61     CG2R61
   13    45	 1 ;      CG2R61      HGR61
   14    46	 1 ;      CG2R61      HGR61
   15    16	 1 ;       OG301      CG302
   16    17	 1 ;       CG302       FGA3
   16    19	 1 ;       CG302       FGA3
   16    18	 1 ;       CG302       FGA3
   20    26	 1 ;      CG2R61     CG2R61
   20    21	 1 ;      CG2R61     CG2R66
   21    23	 1 ;      CG2R66     CG2R61
   21    22	 1 ;      CG2R66       FGR1
   23    24	 1 ;      CG2R61     CG2R61
   23    27	 1 ;      CG2R61     CG2DC1
   24    25	 1 ;      CG2R61     CG2R61
   24    47	 1 ;      CG2R61      HGR61
   25    26	 1 ;      CG2R61     CG2R61
   25    48	 1 ;      CG2R61      HGR61
   26    49	 1 ;      CG2R61      HGR61
   27    33	 1 ;      CG2DC1     CG2D1O
   27    28	 1 ;      CG2DC1      CG321
   28    29	 1 ;       CG321      NG311
   28    50	 1 ;       CG321       HGA2
   28    54	 1 ;       CG321       HGA2
   29    30	 1 ;       NG311      CG321
   29    31	 1 ;       NG311     HGPAM1
   30    32	 1 ;       CG321      NG311
   30    51	 1 ;       CG321       HGA2
   30    55	 1 ;       CG321       HGA2
   32    34	 1 ;       NG311     HGPAM1
   32    33	 1 ;       NG311     CG2D1O
   33    52	 1 ;      CG2D1O       HGA4
   35    37	 1 ;       NG3P3       HGP2
   35    36	 1 ;       NG3P3       HGP2
   35    53	 1 ;       NG3P3       HGP2

[ pairs ]
;	ai	  aj funct			  c0			c1			  c2			c3
    1    35	 1
    1    39	 1
    1     6	 1
    1    13	 1
    1    46	 1
    1    11	 1
    1    43	 1
    1    25	 1
    1    49	 1
    1    23	 1
    1    22	 1
    2     8	 1
    2    26	 1
    2    21	 1
    2    14	 1
    2    10	 1
    2    37	 1
    2    36	 1
    2    53	 1
    2     6	 1
    3     7	 1
    3    20	 1
    3     9	 1
    3    35	 1
    3     5	 1
    3    39	 1
    4    20	 1
    4     9	 1
    4    40	 1
    4    41	 1
    4    42	 1
    4     8	 1
    5    20	 1
    5     9	 1
    5    38	 1
    5    37	 1
    5    36	 1
    5    53	 1
    6    35	 1
    6    39	 1
    6     8	 1
    7    38	 1
    7    26	 1
    7    21	 1
    7    14	 1
    7    10	 1
    7    35	 1
    7    39	 1
    7    40	 1
    7    41	 1
    7    42	 1
    8    20	 1
    8     9	 1
    9    38	 1
    9    26	 1
    9    21	 1
    9    12	 1
    9    44	 1
    9    45	 1
   10    20	 1
   10    13	 1
   10    46	 1
   10    15	 1
   11    14	 1
   11    45	 1
   11    16	 1
   12    43	 1
   12    46	 1
   12    17	 1
   12    19	 1
   12    18	 1
   13    44	 1
   13    16	 1
   14    20	 1
   14    43	 1
   14    15	 1
   15    44	 1
   15    45	 1
   20    38	 1
   20    24	 1
   20    27	 1
   20    48	 1
   21    25	 1
   21    49	 1
   21    47	 1
   21    33	 1
   21    28	 1
   22    26	 1
   22    24	 1
   22    27	 1
   23    26	 1
   23    48	 1
   23    32	 1
   23    52	 1
   23    29	 1
   23    50	 1
   23    54	 1
   24    33	 1
   24    28	 1
   24    49	 1
   25    27	 1
   26    47	 1
   27    47	 1
   27    30	 1
   27    31	 1
   27    34	 1
   28    32	 1
   28    52	 1
   28    51	 1
   28    55	 1
   29    33	 1
   29    34	 1
   30    50	 1
   30    54	 1
   30    52	 1
   31    50	 1
   31    54	 1
   31    32	 1
   31    51	 1
   31    55	 1
   33    50	 1
   33    54	 1
   33    51	 1
   33    55	 1
   34    51	 1
   34    55	 1
   34    52	 1
   35    38	 1
   36    39	 1
   37    39	 1
   38    39	 1
   39    53	 1
   43    44	 1
   45    46	 1
   47    48	 1
   48    49	 1

[ angles ]
;	ai	  aj	ak funct			c0			  c1			c2			  c3
    2     1     7	5 ;      NG3P2     CG3C50     CG2R53
    2     1    20	5 ;      NG3P2     CG3C50     CG2R61
    2     1     9	5 ;      NG3P2     CG3C50     CG2R61
    7     1    20	5 ;     CG2R53     CG3C50     CG2R61
    7     1     9	5 ;     CG2R53     CG3C50     CG2R61
   20     1     9	5 ;     CG2R61     CG3C50     CG2R61
    4     2     3	5 ;     CG3C53      NG3P2       HGP2
    4     2     1	5 ;     CG3C53      NG3P2     CG3C50
    4     2    38	5 ;     CG3C53      NG3P2       HGP2
    3     2     1	5 ;       HGP2      NG3P2     CG3C50
    3     2    38	5 ;       HGP2      NG3P2       HGP2
    1     2    38	5 ;     CG3C50      NG3P2       HGP2
   35     4     5	5 ;      NG3P3     CG3C53     NG2R53
   35     4     2	5 ;      NG3P3     CG3C53      NG3P2
   35     4    39	5 ;      NG3P3     CG3C53       HGA1
    5     4     2	5 ;     NG2R53     CG3C53      NG3P2
    5     4    39	5 ;     NG2R53     CG3C53       HGA1
    2     4    39	5 ;      NG3P2     CG3C53       HGA1
    6     5     4	5 ;      CG331     NG2R53     CG3C53
    6     5     7	5 ;      CG331     NG2R53     CG2R53
    4     5     7	5 ;     CG3C53     NG2R53     CG2R53
    5     6    40	5 ;     NG2R53      CG331       HGA3
    5     6    41	5 ;     NG2R53      CG331       HGA3
    5     6    42	5 ;     NG2R53      CG331       HGA3
   40     6    41	5 ;       HGA3      CG331       HGA3
   40     6    42	5 ;       HGA3      CG331       HGA3
   41     6    42	5 ;       HGA3      CG331       HGA3
    5     7     8	5 ;     NG2R53     CG2R53      OG2D1
    5     7     1	5 ;     NG2R53     CG2R53     CG3C50
    8     7     1	5 ;      OG2D1     CG2R53     CG3C50
    1     9    14	5 ;     CG3C50     CG2R61     CG2R61
    1     9    10	5 ;     CG3C50     CG2R61     CG2R61
   14     9    10	5 ;     CG2R61     CG2R61     CG2R61
    9    10    11	5 ;     CG2R61     CG2R61     CG2R61
    9    10    43	5 ;     CG2R61     CG2R61      HGR61
   11    10    43	5 ;     CG2R61     CG2R61      HGR61
   10    11    12	5 ;     CG2R61     CG2R61     CG2R61
   10    11    44	5 ;     CG2R61     CG2R61      HGR61
   12    11    44	5 ;     CG2R61     CG2R61      HGR61
   13    12    11	5 ;     CG2R61     CG2R61     CG2R61
   13    12    15	5 ;     CG2R61     CG2R61      OG301
   11    12    15	5 ;     CG2R61     CG2R61      OG301
   14    13    12	5 ;     CG2R61     CG2R61     CG2R61
   14    13    45	5 ;     CG2R61     CG2R61      HGR61
   12    13    45	5 ;     CG2R61     CG2R61      HGR61
    9    14    13	5 ;     CG2R61     CG2R61     CG2R61
    9    14    46	5 ;     CG2R61     CG2R61      HGR61
   13    14    46	5 ;     CG2R61     CG2R61      HGR61
   12    15    16	5 ;     CG2R61      OG301      CG302
   17    16    15	5 ;       FGA3      CG302      OG301
   17    16    19	5 ;       FGA3      CG302       FGA3
   17    16    18	5 ;       FGA3      CG302       FGA3
   15    16    19	5 ;      OG301      CG302       FGA3
   15    16    18	5 ;      OG301      CG302       FGA3
   19    16    18	5 ;       FGA3      CG302       FGA3
   26    20    21	5 ;     CG2R61     CG2R61     CG2R66
   26    20     1	5 ;     CG2R61     CG2R61     CG3C50
   21    20     1	5 ;     CG2R66     CG2R61     CG3C50
   23    21    20	5 ;     CG2R61     CG2R66     CG2R61
   23    21    22	5 ;     CG2R61     CG2R66       FGR1
   20    21    22	5 ;     CG2R61     CG2R66       FGR1
   24    23    27	5 ;     CG2R61     CG2R61     CG2DC1
   24    23    21	5 ;     CG2R61     CG2R61     CG2R66
   27    23    21	5 ;     CG2DC1     CG2R61     CG2R66
   25    24    23	5 ;     CG2R61     CG2R61     CG2R61
   25    24    47	5 ;     CG2R61     CG2R61      HGR61
   23    24    47	5 ;     CG2R61     CG2R61      HGR61
   24    25    26	5 ;     CG2R61     CG2R61     CG2R61
   24    25    48	5 ;     CG2R61     CG2R61      HGR61
   26    25    48	5 ;     CG2R61     CG2R61      HGR61
   25    26    20	5 ;     CG2R61     CG2R61     CG2R61
   25    26    49	5 ;     CG2R61     CG2R61      HGR61
   20    26    49	5 ;     CG2R61     CG2R61      HGR61
   33    27    23	5 ;     CG2D1O     CG2DC1     CG2R61
   33    27    28	5 ;     CG2D1O     CG2DC1      CG321
   23    27    28	5 ;     CG2R61     CG2DC1      CG321
   27    28    29	5 ;     CG2DC1      CG321      NG311
   27    28    50	5 ;     CG2DC1      CG321       HGA2
   27    28    54	5 ;     CG2DC1      CG321       HGA2
   29    28    50	5 ;      NG311      CG321       HGA2
   29    28    54	5 ;      NG311      CG321       HGA2
   50    28    54	5 ;       HGA2      CG321       HGA2
   30    29    28	5 ;      CG321      NG311      CG321
   30    29    31	5 ;      CG321      NG311     HGPAM1
   28    29    31	5 ;      CG321      NG311     HGPAM1
   32    30    29	5 ;      NG311      CG321      NG311
   32    30    51	5 ;      NG311      CG321       HGA2
   32    30    55	5 ;      NG311      CG321       HGA2
   29    30    51	5 ;      NG311      CG321       HGA2
   29    30    55	5 ;      NG311      CG321       HGA2
   51    30    55	5 ;       HGA2      CG321       HGA2
   34    32    33	5 ;     HGPAM1      NG311     CG2D1O
   34    32    30	5 ;     HGPAM1      NG311      CG321
   33    32    30	5 ;     CG2D1O      NG311      CG321
   32    33    27	5 ;      NG311     CG2D1O     CG2DC1
   32    33    52	5 ;      NG311     CG2D1O       HGA4
   27    33    52	5 ;     CG2DC1     CG2D1O       HGA4
   37    35    36	5 ;       HGP2      NG3P3       HGP2
   37    35     4	5 ;       HGP2      NG3P3     CG3C53
   37    35    53	5 ;       HGP2      NG3P3       HGP2
   36    35     4	5 ;       HGP2      NG3P3     CG3C53
   36    35    53	5 ;       HGP2      NG3P3       HGP2
    4    35    53	5 ;     CG3C53      NG3P3       HGP2

[ dihedrals ]
;	ai	  aj	ak	  al funct			  c0			c1			  c2			c3			  c4			c5
    7     1     2     4	 9 ;     CG2R53     CG3C50      NG3P2     CG3C53
    7     1     2     3	 9 ;     CG2R53     CG3C50      NG3P2       HGP2
    7     1     2    38	 9 ;     CG2R53     CG3C50      NG3P2       HGP2
   20     1     2     4	 9 ;     CG2R61     CG3C50      NG3P2     CG3C53
   20     1     2     3	 9 ;     CG2R61     CG3C50      NG3P2       HGP2
   20     1     2    38	 9 ;     CG2R61     CG3C50      NG3P2       HGP2
    9     1     2     4	 9 ;     CG2R61     CG3C50      NG3P2     CG3C53
    9     1     2     3	 9 ;     CG2R61     CG3C50      NG3P2       HGP2
    9     1     2    38	 9 ;     CG2R61     CG3C50      NG3P2       HGP2
    2     1     7     5	 9 ;      NG3P2     CG3C50     CG2R53     NG2R53
    2     1     7     8	 9 ;      NG3P2     CG3C50     CG2R53      OG2D1
   20     1     7     5	 9 ;     CG2R61     CG3C50     CG2R53     NG2R53
   20     1     7     8	 9 ;     CG2R61     CG3C50     CG2R53      OG2D1
    9     1     7     5	 9 ;     CG2R61     CG3C50     CG2R53     NG2R53
    9     1     7     8	 9 ;     CG2R61     CG3C50     CG2R53      OG2D1
    2     1    20    26	 9 ;      NG3P2     CG3C50     CG2R61     CG2R61
    2     1    20    21	 9 ;      NG3P2     CG3C50     CG2R61     CG2R66
    7     1    20    26	 9 ;     CG2R53     CG3C50     CG2R61     CG2R61
    7     1    20    21	 9 ;     CG2R53     CG3C50     CG2R61     CG2R66
    9     1    20    26	 9 ;     CG2R61     CG3C50     CG2R61     CG2R61
    9     1    20    21	 9 ;     CG2R61     CG3C50     CG2R61     CG2R66
    2     1     9    14	 9 ;      NG3P2     CG3C50     CG2R61     CG2R61
    2     1     9    10	 9 ;      NG3P2     CG3C50     CG2R61     CG2R61
    7     1     9    14	 9 ;     CG2R53     CG3C50     CG2R61     CG2R61
    7     1     9    10	 9 ;     CG2R53     CG3C50     CG2R61     CG2R61
   20     1     9    14	 9 ;     CG2R61     CG3C50     CG2R61     CG2R61
   20     1     9    10	 9 ;     CG2R61     CG3C50     CG2R61     CG2R61
    3     2     4    35	 9 ;       HGP2      NG3P2     CG3C53      NG3P3
    3     2     4     5	 9 ;       HGP2      NG3P2     CG3C53     NG2R53
    3     2     4    39	 9 ;       HGP2      NG3P2     CG3C53       HGA1
    1     2     4    35	 9 ;     CG3C50      NG3P2     CG3C53      NG3P3
    1     2     4     5	 9 ;     CG3C50      NG3P2     CG3C53     NG2R53
    1     2     4    39	 9 ;     CG3C50      NG3P2     CG3C53       HGA1
   38     2     4    35	 9 ;       HGP2      NG3P2     CG3C53      NG3P3
   38     2     4     5	 9 ;       HGP2      NG3P2     CG3C53     NG2R53
   38     2     4    39	 9 ;       HGP2      NG3P2     CG3C53       HGA1
    5     4    35    37	 9 ;     NG2R53     CG3C53      NG3P3       HGP2
    5     4    35    36	 9 ;     NG2R53     CG3C53      NG3P3       HGP2
    5     4    35    53	 9 ;     NG2R53     CG3C53      NG3P3       HGP2
    2     4    35    37	 9 ;      NG3P2     CG3C53      NG3P3       HGP2
    2     4    35    36	 9 ;      NG3P2     CG3C53      NG3P3       HGP2
    2     4    35    53	 9 ;      NG3P2     CG3C53      NG3P3       HGP2
   39     4    35    37	 9 ;       HGA1     CG3C53      NG3P3       HGP2
   39     4    35    36	 9 ;       HGA1     CG3C53      NG3P3       HGP2
   39     4    35    53	 9 ;       HGA1     CG3C53      NG3P3       HGP2
   35     4     5     6	 9 ;      NG3P3     CG3C53     NG2R53      CG331
   35     4     5     7	 9 ;      NG3P3     CG3C53     NG2R53     CG2R53
    2     4     5     6	 9 ;      NG3P2     CG3C53     NG2R53      CG331
    2     4     5     7	 9 ;      NG3P2     CG3C53     NG2R53     CG2R53
   39     4     5     6	 9 ;       HGA1     CG3C53     NG2R53      CG331
   39     4     5     7	 9 ;       HGA1     CG3C53     NG2R53     CG2R53
    4     5     6    40	 9 ;     CG3C53     NG2R53      CG331       HGA3
    4     5     6    41	 9 ;     CG3C53     NG2R53      CG331       HGA3
    4     5     6    42	 9 ;     CG3C53     NG2R53      CG331       HGA3
    7     5     6    40	 9 ;     CG2R53     NG2R53      CG331       HGA3
    7     5     6    41	 9 ;     CG2R53     NG2R53      CG331       HGA3
    7     5     6    42	 9 ;     CG2R53     NG2R53      CG331       HGA3
    6     5     7     8	 9 ;      CG331     NG2R53     CG2R53      OG2D1
    6     5     7     1	 9 ;      CG331     NG2R53     CG2R53     CG3C50
    4     5     7     8	 9 ;     CG3C53     NG2R53     CG2R53      OG2D1
    4     5     7     1	 9 ;     CG3C53     NG2R53     CG2R53     CG3C50
    1     9    14    13	 9 ;     CG3C50     CG2R61     CG2R61     CG2R61
    1     9    14    46	 9 ;     CG3C50     CG2R61     CG2R61      HGR61
   10     9    14    13	 9 ;     CG2R61     CG2R61     CG2R61     CG2R61
   10     9    14    46	 9 ;     CG2R61     CG2R61     CG2R61      HGR61
    1     9    10    11	 9 ;     CG3C50     CG2R61     CG2R61     CG2R61
    1     9    10    43	 9 ;     CG3C50     CG2R61     CG2R61      HGR61
   14     9    10    11	 9 ;     CG2R61     CG2R61     CG2R61     CG2R61
   14     9    10    43	 9 ;     CG2R61     CG2R61     CG2R61      HGR61
    9    10    11    12	 9 ;     CG2R61     CG2R61     CG2R61     CG2R61
    9    10    11    44	 9 ;     CG2R61     CG2R61     CG2R61      HGR61
   43    10    11    12	 9 ;      HGR61     CG2R61     CG2R61     CG2R61
   43    10    11    44	 9 ;      HGR61     CG2R61     CG2R61      HGR61
   10    11    12    13	 9 ;     CG2R61     CG2R61     CG2R61     CG2R61
   10    11    12    15	 9 ;     CG2R61     CG2R61     CG2R61      OG301
   44    11    12    13	 9 ;      HGR61     CG2R61     CG2R61     CG2R61
   44    11    12    15	 9 ;      HGR61     CG2R61     CG2R61      OG301
   11    12    13    14	 9 ;     CG2R61     CG2R61     CG2R61     CG2R61
   11    12    13    45	 9 ;     CG2R61     CG2R61     CG2R61      HGR61
   15    12    13    14	 9 ;      OG301     CG2R61     CG2R61     CG2R61
   15    12    13    45	 9 ;      OG301     CG2R61     CG2R61      HGR61
   13    12    15    16	 9 ;     CG2R61     CG2R61      OG301      CG302
   11    12    15    16	 9 ;     CG2R61     CG2R61      OG301      CG302
   12    13    14     9	 9 ;     CG2R61     CG2R61     CG2R61     CG2R61
   12    13    14    46	 9 ;     CG2R61     CG2R61     CG2R61      HGR61
   45    13    14     9	 9 ;      HGR61     CG2R61     CG2R61     CG2R61
   45    13    14    46	 9 ;      HGR61     CG2R61     CG2R61      HGR61
   12    15    16    17	 9 ;     CG2R61      OG301      CG302       FGA3
   12    15    16    19	 9 ;     CG2R61      OG301      CG302       FGA3
   12    15    16    18	 9 ;     CG2R61      OG301      CG302       FGA3
   21    20    26    25	 9 ;     CG2R66     CG2R61     CG2R61     CG2R61
   21    20    26    49	 9 ;     CG2R66     CG2R61     CG2R61      HGR61
    1    20    26    25	 9 ;     CG3C50     CG2R61     CG2R61     CG2R61
    1    20    26    49	 9 ;     CG3C50     CG2R61     CG2R61      HGR61
   26    20    21    23	 9 ;     CG2R61     CG2R61     CG2R66     CG2R61
   26    20    21    22	 9 ;     CG2R61     CG2R61     CG2R66       FGR1
    1    20    21    23	 9 ;     CG3C50     CG2R61     CG2R66     CG2R61
    1    20    21    22	 9 ;     CG3C50     CG2R61     CG2R66       FGR1
   20    21    23    24	 9 ;     CG2R61     CG2R66     CG2R61     CG2R61
   20    21    23    27	 9 ;     CG2R61     CG2R66     CG2R61     CG2DC1
   22    21    23    24	 9 ;       FGR1     CG2R66     CG2R61     CG2R61
   22    21    23    27	 9 ;       FGR1     CG2R66     CG2R61     CG2DC1
   27    23    24    25	 9 ;     CG2DC1     CG2R61     CG2R61     CG2R61
   27    23    24    47	 9 ;     CG2DC1     CG2R61     CG2R61      HGR61
   21    23    24    25	 9 ;     CG2R66     CG2R61     CG2R61     CG2R61
   21    23    24    47	 9 ;     CG2R66     CG2R61     CG2R61      HGR61
   24    23    27    33	 9 ;     CG2R61     CG2R61     CG2DC1     CG2D1O
   24    23    27    28	 9 ;     CG2R61     CG2R61     CG2DC1      CG321
   21    23    27    33	 9 ;     CG2R66     CG2R61     CG2DC1     CG2D1O
   21    23    27    28	 9 ;     CG2R66     CG2R61     CG2DC1      CG321
   23    24    25    26	 9 ;     CG2R61     CG2R61     CG2R61     CG2R61
   23    24    25    48	 9 ;     CG2R61     CG2R61     CG2R61      HGR61
   47    24    25    26	 9 ;      HGR61     CG2R61     CG2R61     CG2R61
   47    24    25    48	 9 ;      HGR61     CG2R61     CG2R61      HGR61
   24    25    26    20	 9 ;     CG2R61     CG2R61     CG2R61     CG2R61
   24    25    26    49	 9 ;     CG2R61     CG2R61     CG2R61      HGR61
   48    25    26    20	 9 ;      HGR61     CG2R61     CG2R61     CG2R61
   48    25    26    49	 9 ;      HGR61     CG2R61     CG2R61      HGR61
   23    27    33    32	 9 ;     CG2R61     CG2DC1     CG2D1O      NG311
   23    27    33    52	 9 ;     CG2R61     CG2DC1     CG2D1O       HGA4
   28    27    33    32	 9 ;      CG321     CG2DC1     CG2D1O      NG311
   28    27    33    52	 9 ;      CG321     CG2DC1     CG2D1O       HGA4
   33    27    28    29	 9 ;     CG2D1O     CG2DC1      CG321      NG311
   33    27    28    50	 9 ;     CG2D1O     CG2DC1      CG321       HGA2
   33    27    28    54	 9 ;     CG2D1O     CG2DC1      CG321       HGA2
   23    27    28    29	 9 ;     CG2R61     CG2DC1      CG321      NG311
   23    27    28    50	 9 ;     CG2R61     CG2DC1      CG321       HGA2
   23    27    28    54	 9 ;     CG2R61     CG2DC1      CG321       HGA2
   27    28    29    30	 9 ;     CG2DC1      CG321      NG311      CG321
   27    28    29    31	 9 ;     CG2DC1      CG321      NG311     HGPAM1
   50    28    29    30	 9 ;       HGA2      CG321      NG311      CG321
   50    28    29    31	 9 ;       HGA2      CG321      NG311     HGPAM1
   54    28    29    30	 9 ;       HGA2      CG321      NG311      CG321
   54    28    29    31	 9 ;       HGA2      CG321      NG311     HGPAM1
   28    29    30    32	 9 ;      CG321      NG311      CG321      NG311
   28    29    30    51	 9 ;      CG321      NG311      CG321       HGA2
   28    29    30    55	 9 ;      CG321      NG311      CG321       HGA2
   31    29    30    32	 9 ;     HGPAM1      NG311      CG321      NG311
   31    29    30    51	 9 ;     HGPAM1      NG311      CG321       HGA2
   31    29    30    55	 9 ;     HGPAM1      NG311      CG321       HGA2
   29    30    32    34	 9 ;      NG311      CG321      NG311     HGPAM1
   29    30    32    33	 9 ;      NG311      CG321      NG311     CG2D1O
   51    30    32    34	 9 ;       HGA2      CG321      NG311     HGPAM1
   51    30    32    33	 9 ;       HGA2      CG321      NG311     CG2D1O
   55    30    32    34	 9 ;       HGA2      CG321      NG311     HGPAM1
   55    30    32    33	 9 ;       HGA2      CG321      NG311     CG2D1O
   34    32    33    27	 9 ;     HGPAM1      NG311     CG2D1O     CG2DC1
   34    32    33    52	 9 ;     HGPAM1      NG311     CG2D1O       HGA4
   30    32    33    27	 9 ;      CG321      NG311     CG2D1O     CG2DC1
   30    32    33    52	 9 ;      CG321      NG311     CG2D1O       HGA4

[ dihedrals ]
;	ai	  aj	ak	  al funct			  c0			c1			  c2			c3
    7     1     5     8	 2
   33    27    32    52	 2

