GROningen MAchine for Chemical Simulation
   29
    1M4-B    O2    1  -1.130  -0.096  -1.641
    1M4-B    C2    2  -1.030   0.116  -1.600
    1M4-B    C3    3  -1.034  -0.031  -1.606
    1M4-B    O3    4  -0.987   0.388  -1.595
    1M4-B    C4    5  -1.177   0.434  -1.728
    1M4-B    C5    6  -1.288   0.382  -1.797
    1M4-B    C6    7  -1.160   0.572  -1.717
    1M4-B    C7    8  -1.383   0.470  -1.852
    1M4-B    C8    9  -1.254   0.659  -1.774
    1M4-B    C9   10  -1.365   0.608  -1.842
    1M4-B   C10   11  -1.094   0.197  -1.687
    1M4-B   C11   12  -1.176   0.158  -1.807
    1M4-B   C12   13  -1.078   0.344  -1.664
    1M4-B   C13   14  -1.310   0.233  -1.806
    1M4-B    C1   15  -1.500   0.800  -1.800
    1M4-B    O1   16  -1.449   0.704  -1.892
    1M4-B    O4   17  -0.917  -0.085  -1.566
    1M4-B   H12   18  -0.920  -0.181  -1.549
    1M4-B    H1   19  -0.974   0.161  -1.525
    1M4-B    H2   20  -1.079   0.610  -1.667
    1M4-B    H3   21  -1.465   0.432  -1.901
    1M4-B    H4   22  -1.241   0.761  -1.766
    1M4-B    H5   23  -1.195   0.053  -1.804
    1M4-B    H6   24  -1.123   0.184  -1.896
    1M4-B    H7   25  -1.362   0.211  -1.897
    1M4-B    H8   26  -1.366   0.201  -1.721
    1M4-B    H9   27  -1.564   0.868  -1.852
    1M4-B   H10   28  -1.419   0.853  -1.756
    1M4-B   H11   29  -1.556   0.750  -1.724
   0.00000   0.00000   0.00000
