Guyana Rwanda Oman Macau Angola Cameroon Senegal
   29
    1LIG     O2    1  -1.130  -0.096  -1.641
    1LIG     C2    2  -1.030   0.116  -1.600
    1LIG     C3    3  -1.034  -0.031  -1.606
    1LIG     O3    4  -0.987   0.388  -1.595
    1LIG     C4    5  -1.177   0.434  -1.728
    1LIG     C5    6  -1.288   0.382  -1.797
    1LIG     C6    7  -1.160   0.572  -1.717
    1LIG     C7    8  -1.383   0.470  -1.852
    1LIG     C8    9  -1.254   0.659  -1.774
    1LIG     C9   10  -1.365   0.608  -1.842
    1LIG    C10   11  -1.094   0.197  -1.687
    1LIG    C11   12  -1.176   0.158  -1.807
    1LIG    C12   13  -1.078   0.344  -1.664
    1LIG    C13   14  -1.310   0.233  -1.806
    1LIG     C1   15  -1.500   0.800  -1.800
    1LIG     O1   16  -1.449   0.704  -1.892
    1LIG     O4   17  -0.917  -0.085  -1.566
    1LIG    H12   18  -0.920  -0.181  -1.549
    1LIG     H1   19  -0.974   0.161  -1.525
    1LIG     H2   20  -1.079   0.610  -1.667
    1LIG     H3   21  -1.465   0.432  -1.901
    1LIG     H4   22  -1.241   0.761  -1.766
    1LIG     H5   23  -1.123   0.182  -1.896
    1LIG     H6   24  -1.196   0.053  -1.803
    1LIG     H7   25  -1.368   0.200  -1.723
    1LIG     H8   26  -1.361   0.212  -1.898
    1LIG     H9   27  -1.564   0.868  -1.852
    1LIG    H10   28  -1.419   0.853  -1.756
    1LIG    H11   29  -1.556   0.750  -1.724
   0.00000   0.00000   0.00000
