Gromacs Runs One Microsecond At Cannonball Speeds
   45
    1LIG     C1    1   8.445   1.345   9.123
    1LIG     O5    2   8.538   1.405   9.375
    1LIG     C3    3   8.454   1.625   9.371
    1LIG     C4    4   8.377   1.720   9.303
    1LIG     C5    5   8.502   1.651   9.500
    1LIG     C6    6   8.347   1.842   9.366
    1LIG     C7    7   8.473   1.773   9.560
    1LIG     C8    8   8.396   1.868   9.494
    1LIG     C9    9   8.445   1.473   9.166
    1LIG    C10   10   8.415   1.598   9.088
    1LIG    C11   11   8.484   1.493   9.309
    1LIG    C12   12   8.322   1.691   9.166
    1LIG     N1   13   8.290   1.238   8.979
    1LIG     O4   14   8.486   1.314   8.890
    1LIG     C2   15   8.412   1.299   8.986
    1LIG     H2   16   8.246   1.207   9.065
    1LIG    C13   17   8.248   1.167   8.857
    1LIG    C15   18   8.159   1.258   8.769
    1LIG    C16   19   8.219   1.275   8.628
    1LIG    C17   20   8.017   1.203   8.755
    1LIG     O2   21   8.153   0.943   8.834
    1LIG    C14   22   8.170   1.043   8.903
    1LIG     O3   23   8.128   1.058   9.032
    1LIG    C18   24   8.087   0.936   9.094
    1LIG     O1   25   8.517   1.803   9.685
    1LIG     H1   26   8.443   1.838   9.738
    1LIG     H3   27   8.469   1.273   9.192
    1LIG     H4   28   8.559   1.581   9.550
    1LIG     H5   29   8.289   1.912   9.318
    1LIG     H6   30   8.374   1.958   9.540
    1LIG     H7   31   8.368   1.571   8.996
    1LIG     H8   32   8.507   1.650   9.070
    1LIG     H9   33   8.226   1.643   9.177
    1LIG    H10   34   8.313   1.783   9.113
    1LIG    H11   35   8.332   1.140   8.797
    1LIG    H12   36   8.155   1.353   8.818
    1LIG    H13   37   8.224   1.180   8.580
    1LIG    H14   38   8.318   1.315   8.637
    1LIG    H15   39   8.158   1.342   8.571
    1LIG    H16   40   8.020   1.107   8.706
    1LIG    H17   41   7.957   1.270   8.697
    1LIG    H18   42   7.973   1.191   8.852
    1LIG    H19   43   8.056   0.955   9.194
    1LIG    H20   44   8.170   0.867   9.095
    1LIG    H21   45   8.006   0.893   9.038
   0.00000   0.00000   0.00000
