; Created by cgenff_charmm2gmx.py

[ moleculetype ]
; Name			   nrexcl
LIG				 3

[ atoms ]
;	 nr		  type	resnr residue  atom   cgnr	   charge		mass  typeB    chargeB		massB
; residue	 1 LIG rtp LIG q	qsum
     1     CG2R61      1    LIG     C1      1      0.141     12.011   ;
     2     CG2R61      1    LIG     C2      2     -0.105     12.011   ;
     3     CG2R61      1    LIG     C3      3      0.001     12.011   ;
     4     CG2R61      1    LIG     C4      4     -0.102     12.011   ;
     5     CG2R61      1    LIG     C5      5     -0.110     12.011   ;
     6     CG2R61      1    LIG     C6      6     -0.119     12.011   ;
     7      CG301      1    LIG     C7      7      0.295     12.011   ;
     8      NG311      1    LIG     N1      8     -1.124     14.007   ;
     9      CG311      1    LIG     C8      9      0.451     12.011   ;
    10     HGPAM1      1    LIG     H1     10      0.368      1.008   ;
    11      NG321      1    LIG     N2     11     -1.069     14.007   ;
    12      CG321      1    LIG     C9     12     -0.034     12.011   ;
    13     HGPAM2      1    LIG     H2     13      0.406      1.008   ;
    14     HGPAM2      1    LIG     H3     14      0.406      1.008   ;
    15      NG2S0      1    LIG     N3     15     -0.171     14.007   ;
    16      CG331      1    LIG    C10     16     -0.297     12.011   ;
    17      CG2O1      1    LIG    C11     17      0.637     12.011   ;
    18      OG2D1      1    LIG     O1     18     -0.471     15.999   ;
    19      CG331      1    LIG    C12     19     -0.239     12.011   ;
    20      NG2S1      1    LIG     N4     20     -0.504     14.007   ;
    21      CG2O1      1    LIG    C13     21      0.362     12.011   ;
    22      OG2D1      1    LIG     O2     22     -0.480     15.999   ;
    23       HGP1      1    LIG     H4     23      0.329      1.008   ;
    24      CG311      1    LIG    C14     24      0.436     12.011   ;
    25     CG2DC1      1    LIG    C15     25     -0.316     12.011   ;
    26     CG2DC1      1    LIG    C16     26     -0.198     12.011   ;
    27     CG2DC2      1    LIG    C17     27      0.029     12.011   ;
    28      CLGA1      1    LIG     CL     28     -0.066     35.453   ;
    29     CG2D2O      1    LIG    C18     29     -0.138     12.011   ;
    30      NG311      1    LIG     N5     30     -0.573     14.007   ;
    31     HGPAM1      1    LIG     HN     31      0.375      1.008   ;
    32      HGR61      1    LIG     H5     32      0.116      1.008   ;
    33      HGR61      1    LIG     H6     33      0.116      1.008   ;
    34      HGR61      1    LIG     H7     34      0.116      1.008   ;
    35      HGR61      1    LIG     H8     35      0.116      1.008   ;
    36       HGA1      1    LIG     H9     36      0.090      1.008   ;
    37       HGA2      1    LIG    H10     37      0.090      1.008   ;
    38       HGA2      1    LIG    H11     38      0.090      1.008   ;
    39       HGA3      1    LIG    H12     39      0.090      1.008   ;
    40       HGA3      1    LIG    H13     40      0.090      1.008   ;
    41       HGA3      1    LIG    H14     41      0.090      1.008   ;
    42       HGA3      1    LIG    H15     42      0.090      1.008   ;
    43       HGA3      1    LIG    H16     43      0.090      1.008   ;
    44       HGA3      1    LIG    H17     44      0.090      1.008   ;
    45       HGA1      1    LIG    H18     45      0.090      1.008   ;
    46       HGA4      1    LIG    H19     46      0.154      1.008   ;
    47       HGA4      1    LIG    H20     47      0.150      1.008   ;
    48       HGA4      1    LIG    H21     48      0.162      1.008   ;
    49        LPH      1    LIG    LP1     49      0.050      0.000   ;

[ bonds ]
;	ai	  aj funct			  c0			c1			  c2			c3
    1     6	 1 ;      CG2R61     CG2R61
    1    20	 1 ;      CG2R61      NG2S1
    1     2	 1 ;      CG2R61     CG2R61
    2     3	 1 ;      CG2R61     CG2R61
    2    32	 1 ;      CG2R61      HGR61
    3     4	 1 ;      CG2R61     CG2R61
    3     7	 1 ;      CG2R61      CG301
    4     5	 1 ;      CG2R61     CG2R61
    4    33	 1 ;      CG2R61      HGR61
    5     6	 1 ;      CG2R61     CG2R61
    5    34	 1 ;      CG2R61      HGR61
    6    35	 1 ;      CG2R61      HGR61
    7    17	 1 ;       CG301      CG2O1
    7     8	 1 ;       CG301      NG311
    7    19	 1 ;       CG301      CG331
    8     9	 1 ;       NG311      CG311
    8    10	 1 ;       NG311     HGPAM1
    9    12	 1 ;       CG311      CG321
    9    11	 1 ;       CG311      NG321
    9    36	 1 ;       CG311       HGA1
   11    14	 1 ;       NG321     HGPAM2
   11    13	 1 ;       NG321     HGPAM2
   12    15	 1 ;       CG321      NG2S0
   12    37	 1 ;       CG321       HGA2
   12    38	 1 ;       CG321       HGA2
   15    16	 1 ;       NG2S0      CG331
   15    17	 1 ;       NG2S0      CG2O1
   16    39	 1 ;       CG331       HGA3
   16    40	 1 ;       CG331       HGA3
   16    41	 1 ;       CG331       HGA3
   17    18	 1 ;       CG2O1      OG2D1
   19    42	 1 ;       CG331       HGA3
   19    43	 1 ;       CG331       HGA3
   19    44	 1 ;       CG331       HGA3
   20    23	 1 ;       NG2S1       HGP1
   20    21	 1 ;       NG2S1      CG2O1
   21    24	 1 ;       CG2O1      CG311
   21    22	 1 ;       CG2O1      OG2D1
   24    30	 1 ;       CG311      NG311
   24    25	 1 ;       CG311     CG2DC1
   24    45	 1 ;       CG311       HGA1
   25    26	 1 ;      CG2DC1     CG2DC1
   25    46	 1 ;      CG2DC1       HGA4
   26    27	 1 ;      CG2DC1     CG2DC2
   26    47	 1 ;      CG2DC1       HGA4
   27    29	 1 ;      CG2DC2     CG2D2O
   27    28	 1 ;      CG2DC2      CLGA1
   29    30	 1 ;      CG2D2O      NG311
   29    48	 1 ;      CG2D2O       HGA4
   30    31	 1 ;       NG311     HGPAM1

[ pairs ]
;	ai	  aj funct			  c0			c1			  c2			c3
    1     4	 1
    1     7	 1
    1    34	 1
    1    24	 1
    1    22	 1
    2     5	 1
    2    35	 1
    2    23	 1
    2    21	 1
    2    33	 1
    2    17	 1
    2     8	 1
    2    19	 1
    3     6	 1
    3    20	 1
    3    34	 1
    3    15	 1
    3    18	 1
    3     9	 1
    3    10	 1
    3    42	 1
    3    43	 1
    3    44	 1
    4    32	 1
    4    17	 1
    4     8	 1
    4    19	 1
    4    35	 1
    5    20	 1
    5     7	 1
    6    23	 1
    6    21	 1
    6    32	 1
    6    33	 1
    7    32	 1
    7    33	 1
    7    12	 1
    7    11	 1
    7    36	 1
    7    16	 1
    8    15	 1
    8    18	 1
    8    42	 1
    8    43	 1
    8    44	 1
    8    37	 1
    8    38	 1
    8    14	 1
    8    13	 1
    9    17	 1
    9    19	 1
    9    16	 1
   10    17	 1
   10    19	 1
   10    12	 1
   10    11	 1
   10    36	 1
   11    15	 1
   11    37	 1
   11    38	 1
   12    14	 1
   12    13	 1
   12    39	 1
   12    40	 1
   12    41	 1
   12    18	 1
   13    36	 1
   14    36	 1
   15    19	 1
   15    36	 1
   16    37	 1
   16    38	 1
   16    18	 1
   17    42	 1
   17    43	 1
   17    44	 1
   17    37	 1
   17    38	 1
   17    39	 1
   17    40	 1
   17    41	 1
   18    19	 1
   20    35	 1
   20    32	 1
   20    30	 1
   20    25	 1
   20    45	 1
   21    31	 1
   21    29	 1
   21    26	 1
   21    46	 1
   22    23	 1
   22    30	 1
   22    25	 1
   22    45	 1
   23    24	 1
   24    27	 1
   24    47	 1
   24    48	 1
   25    31	 1
   25    29	 1
   25    28	 1
   49    25	 1
   26    30	 1
   26    45	 1
   26    48	 1
   27    46	 1
   27    31	 1
   28    47	 1
   49    47	 1
   28    30	 1
   49    30	 1
   28    48	 1
   49    48	 1
   29    45	 1
   29    47	 1
   30    46	 1
   31    45	 1
   31    48	 1
   33    34	 1
   34    35	 1
   36    37	 1
   36    38	 1
   45    46	 1
   46    47	 1

[ angles ]
;	ai	  aj	ak funct			c0			  c1			c2			  c3
    6     1    20	5 ;     CG2R61     CG2R61      NG2S1
    6     1     2	5 ;     CG2R61     CG2R61     CG2R61
   20     1     2	5 ;      NG2S1     CG2R61     CG2R61
    1     2     3	5 ;     CG2R61     CG2R61     CG2R61
    1     2    32	5 ;     CG2R61     CG2R61      HGR61
    3     2    32	5 ;     CG2R61     CG2R61      HGR61
    4     3     2	5 ;     CG2R61     CG2R61     CG2R61
    4     3     7	5 ;     CG2R61     CG2R61      CG301
    2     3     7	5 ;     CG2R61     CG2R61      CG301
    5     4     3	5 ;     CG2R61     CG2R61     CG2R61
    5     4    33	5 ;     CG2R61     CG2R61      HGR61
    3     4    33	5 ;     CG2R61     CG2R61      HGR61
    6     5     4	5 ;     CG2R61     CG2R61     CG2R61
    6     5    34	5 ;     CG2R61     CG2R61      HGR61
    4     5    34	5 ;     CG2R61     CG2R61      HGR61
    5     6     1	5 ;     CG2R61     CG2R61     CG2R61
    5     6    35	5 ;     CG2R61     CG2R61      HGR61
    1     6    35	5 ;     CG2R61     CG2R61      HGR61
    3     7    17	5 ;     CG2R61      CG301      CG2O1
    3     7     8	5 ;     CG2R61      CG301      NG311
    3     7    19	5 ;     CG2R61      CG301      CG331
   17     7     8	5 ;      CG2O1      CG301      NG311
   17     7    19	5 ;      CG2O1      CG301      CG331
    8     7    19	5 ;      NG311      CG301      CG331
    9     8     7	5 ;      CG311      NG311      CG301
    9     8    10	5 ;      CG311      NG311     HGPAM1
    7     8    10	5 ;      CG301      NG311     HGPAM1
   12     9    11	5 ;      CG321      CG311      NG321
   12     9     8	5 ;      CG321      CG311      NG311
   12     9    36	5 ;      CG321      CG311       HGA1
   11     9     8	5 ;      NG321      CG311      NG311
   11     9    36	5 ;      NG321      CG311       HGA1
    8     9    36	5 ;      NG311      CG311       HGA1
   14    11     9	5 ;     HGPAM2      NG321      CG311
   14    11    13	5 ;     HGPAM2      NG321     HGPAM2
    9    11    13	5 ;      CG311      NG321     HGPAM2
   15    12     9	5 ;      NG2S0      CG321      CG311
   15    12    37	5 ;      NG2S0      CG321       HGA2
   15    12    38	5 ;      NG2S0      CG321       HGA2
    9    12    37	5 ;      CG311      CG321       HGA2
    9    12    38	5 ;      CG311      CG321       HGA2
   37    12    38	5 ;       HGA2      CG321       HGA2
   16    15    12	5 ;      CG331      NG2S0      CG321
   16    15    17	5 ;      CG331      NG2S0      CG2O1
   12    15    17	5 ;      CG321      NG2S0      CG2O1
   15    16    39	5 ;      NG2S0      CG331       HGA3
   15    16    40	5 ;      NG2S0      CG331       HGA3
   15    16    41	5 ;      NG2S0      CG331       HGA3
   39    16    40	5 ;       HGA3      CG331       HGA3
   39    16    41	5 ;       HGA3      CG331       HGA3
   40    16    41	5 ;       HGA3      CG331       HGA3
   15    17     7	5 ;      NG2S0      CG2O1      CG301
   15    17    18	5 ;      NG2S0      CG2O1      OG2D1
    7    17    18	5 ;      CG301      CG2O1      OG2D1
    7    19    42	5 ;      CG301      CG331       HGA3
    7    19    43	5 ;      CG301      CG331       HGA3
    7    19    44	5 ;      CG301      CG331       HGA3
   42    19    43	5 ;       HGA3      CG331       HGA3
   42    19    44	5 ;       HGA3      CG331       HGA3
   43    19    44	5 ;       HGA3      CG331       HGA3
    1    20    23	5 ;     CG2R61      NG2S1       HGP1
    1    20    21	5 ;     CG2R61      NG2S1      CG2O1
   23    20    21	5 ;       HGP1      NG2S1      CG2O1
   20    21    24	5 ;      NG2S1      CG2O1      CG311
   20    21    22	5 ;      NG2S1      CG2O1      OG2D1
   24    21    22	5 ;      CG311      CG2O1      OG2D1
   30    24    21	5 ;      NG311      CG311      CG2O1
   30    24    25	5 ;      NG311      CG311     CG2DC1
   30    24    45	5 ;      NG311      CG311       HGA1
   21    24    25	5 ;      CG2O1      CG311     CG2DC1
   21    24    45	5 ;      CG2O1      CG311       HGA1
   25    24    45	5 ;     CG2DC1      CG311       HGA1
   24    25    26	5 ;      CG311     CG2DC1     CG2DC1
   24    25    46	5 ;      CG311     CG2DC1       HGA4
   26    25    46	5 ;     CG2DC1     CG2DC1       HGA4
   27    26    25	5 ;     CG2DC2     CG2DC1     CG2DC1
   27    26    47	5 ;     CG2DC2     CG2DC1       HGA4
   25    26    47	5 ;     CG2DC1     CG2DC1       HGA4
   29    27    28	5 ;     CG2D2O     CG2DC2      CLGA1
   29    27    26	5 ;     CG2D2O     CG2DC2     CG2DC1
   28    27    26	5 ;      CLGA1     CG2DC2     CG2DC1
   30    29    27	5 ;      NG311     CG2D2O     CG2DC2
   30    29    48	5 ;      NG311     CG2D2O       HGA4
   27    29    48	5 ;     CG2DC2     CG2D2O       HGA4
   31    30    29	5 ;     HGPAM1      NG311     CG2D2O
   31    30    24	5 ;     HGPAM1      NG311      CG311
   29    30    24	5 ;     CG2D2O      NG311      CG311

[ dihedrals ]
;	ai	  aj	ak	  al funct			  c0			c1			  c2			c3			  c4			c5
   20     1     6     5	 9 ;      NG2S1     CG2R61     CG2R61     CG2R61
   20     1     6    35	 9 ;      NG2S1     CG2R61     CG2R61      HGR61
    2     1     6     5	 9 ;     CG2R61     CG2R61     CG2R61     CG2R61
    2     1     6    35	 9 ;     CG2R61     CG2R61     CG2R61      HGR61
    6     1    20    23	 9 ;     CG2R61     CG2R61      NG2S1       HGP1
    6     1    20    21	 9 ;     CG2R61     CG2R61      NG2S1      CG2O1
    2     1    20    23	 9 ;     CG2R61     CG2R61      NG2S1       HGP1
    2     1    20    21	 9 ;     CG2R61     CG2R61      NG2S1      CG2O1
    6     1     2     3	 9 ;     CG2R61     CG2R61     CG2R61     CG2R61
    6     1     2    32	 9 ;     CG2R61     CG2R61     CG2R61      HGR61
   20     1     2     3	 9 ;      NG2S1     CG2R61     CG2R61     CG2R61
   20     1     2    32	 9 ;      NG2S1     CG2R61     CG2R61      HGR61
    1     2     3     4	 9 ;     CG2R61     CG2R61     CG2R61     CG2R61
    1     2     3     7	 9 ;     CG2R61     CG2R61     CG2R61      CG301
   32     2     3     4	 9 ;      HGR61     CG2R61     CG2R61     CG2R61
   32     2     3     7	 9 ;      HGR61     CG2R61     CG2R61      CG301
    2     3     4     5	 9 ;     CG2R61     CG2R61     CG2R61     CG2R61
    2     3     4    33	 9 ;     CG2R61     CG2R61     CG2R61      HGR61
    7     3     4     5	 9 ;      CG301     CG2R61     CG2R61     CG2R61
    7     3     4    33	 9 ;      CG301     CG2R61     CG2R61      HGR61
    4     3     7    17	 9 ;     CG2R61     CG2R61      CG301      CG2O1
    4     3     7     8	 9 ;     CG2R61     CG2R61      CG301      NG311
    4     3     7    19	 9 ;     CG2R61     CG2R61      CG301      CG331
    2     3     7    17	 9 ;     CG2R61     CG2R61      CG301      CG2O1
    2     3     7     8	 9 ;     CG2R61     CG2R61      CG301      NG311
    2     3     7    19	 9 ;     CG2R61     CG2R61      CG301      CG331
    3     4     5     6	 9 ;     CG2R61     CG2R61     CG2R61     CG2R61
    3     4     5    34	 9 ;     CG2R61     CG2R61     CG2R61      HGR61
   33     4     5     6	 9 ;      HGR61     CG2R61     CG2R61     CG2R61
   33     4     5    34	 9 ;      HGR61     CG2R61     CG2R61      HGR61
    4     5     6     1	 9 ;     CG2R61     CG2R61     CG2R61     CG2R61
    4     5     6    35	 9 ;     CG2R61     CG2R61     CG2R61      HGR61
   34     5     6     1	 9 ;      HGR61     CG2R61     CG2R61     CG2R61
   34     5     6    35	 9 ;      HGR61     CG2R61     CG2R61      HGR61
    3     7    17    15	 9 ;     CG2R61      CG301      CG2O1      NG2S0
    3     7    17    18	 9 ;     CG2R61      CG301      CG2O1      OG2D1
    8     7    17    15	 9 ;      NG311      CG301      CG2O1      NG2S0
    8     7    17    18	 9 ;      NG311      CG301      CG2O1      OG2D1
   19     7    17    15	 9 ;      CG331      CG301      CG2O1      NG2S0
   19     7    17    18	 9 ;      CG331      CG301      CG2O1      OG2D1
    3     7     8     9	 9 ;     CG2R61      CG301      NG311      CG311
    3     7     8    10	 9 ;     CG2R61      CG301      NG311     HGPAM1
   17     7     8     9	 9 ;      CG2O1      CG301      NG311      CG311
   17     7     8    10	 9 ;      CG2O1      CG301      NG311     HGPAM1
   19     7     8     9	 9 ;      CG331      CG301      NG311      CG311
   19     7     8    10	 9 ;      CG331      CG301      NG311     HGPAM1
    3     7    19    42	 9 ;     CG2R61      CG301      CG331       HGA3
    3     7    19    43	 9 ;     CG2R61      CG301      CG331       HGA3
    3     7    19    44	 9 ;     CG2R61      CG301      CG331       HGA3
   17     7    19    42	 9 ;      CG2O1      CG301      CG331       HGA3
   17     7    19    43	 9 ;      CG2O1      CG301      CG331       HGA3
   17     7    19    44	 9 ;      CG2O1      CG301      CG331       HGA3
    8     7    19    42	 9 ;      NG311      CG301      CG331       HGA3
    8     7    19    43	 9 ;      NG311      CG301      CG331       HGA3
    8     7    19    44	 9 ;      NG311      CG301      CG331       HGA3
    7     8     9    12	 9 ;      CG301      NG311      CG311      CG321
    7     8     9    11	 9 ;      CG301      NG311      CG311      NG321
    7     8     9    36	 9 ;      CG301      NG311      CG311       HGA1
   10     8     9    12	 9 ;     HGPAM1      NG311      CG311      CG321
   10     8     9    11	 9 ;     HGPAM1      NG311      CG311      NG321
   10     8     9    36	 9 ;     HGPAM1      NG311      CG311       HGA1
   11     9    12    15	 9 ;      NG321      CG311      CG321      NG2S0
   11     9    12    37	 9 ;      NG321      CG311      CG321       HGA2
   11     9    12    38	 9 ;      NG321      CG311      CG321       HGA2
    8     9    12    15	 9 ;      NG311      CG311      CG321      NG2S0
    8     9    12    37	 9 ;      NG311      CG311      CG321       HGA2
    8     9    12    38	 9 ;      NG311      CG311      CG321       HGA2
   36     9    12    15	 9 ;       HGA1      CG311      CG321      NG2S0
   36     9    12    37	 9 ;       HGA1      CG311      CG321       HGA2
   36     9    12    38	 9 ;       HGA1      CG311      CG321       HGA2
   12     9    11    14	 9 ;      CG321      CG311      NG321     HGPAM2
   12     9    11    13	 9 ;      CG321      CG311      NG321     HGPAM2
    8     9    11    14	 9 ;      NG311      CG311      NG321     HGPAM2
    8     9    11    13	 9 ;      NG311      CG311      NG321     HGPAM2
   36     9    11    14	 9 ;       HGA1      CG311      NG321     HGPAM2
   36     9    11    13	 9 ;       HGA1      CG311      NG321     HGPAM2
    9    12    15    16	 9 ;      CG311      CG321      NG2S0      CG331
    9    12    15    17	 9 ;      CG311      CG321      NG2S0      CG2O1
   37    12    15    16	 9 ;       HGA2      CG321      NG2S0      CG331
   37    12    15    17	 9 ;       HGA2      CG321      NG2S0      CG2O1
   38    12    15    16	 9 ;       HGA2      CG321      NG2S0      CG331
   38    12    15    17	 9 ;       HGA2      CG321      NG2S0      CG2O1
   12    15    16    39	 9 ;      CG321      NG2S0      CG331       HGA3
   12    15    16    40	 9 ;      CG321      NG2S0      CG331       HGA3
   12    15    16    41	 9 ;      CG321      NG2S0      CG331       HGA3
   17    15    16    39	 9 ;      CG2O1      NG2S0      CG331       HGA3
   17    15    16    40	 9 ;      CG2O1      NG2S0      CG331       HGA3
   17    15    16    41	 9 ;      CG2O1      NG2S0      CG331       HGA3
   16    15    17     7	 9 ;      CG331      NG2S0      CG2O1      CG301
   16    15    17    18	 9 ;      CG331      NG2S0      CG2O1      OG2D1
   12    15    17     7	 9 ;      CG321      NG2S0      CG2O1      CG301
   12    15    17    18	 9 ;      CG321      NG2S0      CG2O1      OG2D1
    1    20    21    24	 9 ;     CG2R61      NG2S1      CG2O1      CG311
    1    20    21    22	 9 ;     CG2R61      NG2S1      CG2O1      OG2D1
   23    20    21    24	 9 ;       HGP1      NG2S1      CG2O1      CG311
   23    20    21    22	 9 ;       HGP1      NG2S1      CG2O1      OG2D1
   20    21    24    30	 9 ;      NG2S1      CG2O1      CG311      NG311
   20    21    24    25	 9 ;      NG2S1      CG2O1      CG311     CG2DC1
   20    21    24    45	 9 ;      NG2S1      CG2O1      CG311       HGA1
   22    21    24    30	 9 ;      OG2D1      CG2O1      CG311      NG311
   22    21    24    25	 9 ;      OG2D1      CG2O1      CG311     CG2DC1
   22    21    24    45	 9 ;      OG2D1      CG2O1      CG311       HGA1
   21    24    30    31	 9 ;      CG2O1      CG311      NG311     HGPAM1
   21    24    30    29	 9 ;      CG2O1      CG311      NG311     CG2D2O
   25    24    30    31	 9 ;     CG2DC1      CG311      NG311     HGPAM1
   25    24    30    29	 9 ;     CG2DC1      CG311      NG311     CG2D2O
   45    24    30    31	 9 ;       HGA1      CG311      NG311     HGPAM1
   45    24    30    29	 9 ;       HGA1      CG311      NG311     CG2D2O
   30    24    25    26	 9 ;      NG311      CG311     CG2DC1     CG2DC1
   30    24    25    46	 9 ;      NG311      CG311     CG2DC1       HGA4
   21    24    25    26	 9 ;      CG2O1      CG311     CG2DC1     CG2DC1
   21    24    25    46	 9 ;      CG2O1      CG311     CG2DC1       HGA4
   45    24    25    26	 9 ;       HGA1      CG311     CG2DC1     CG2DC1
   45    24    25    46	 9 ;       HGA1      CG311     CG2DC1       HGA4
   24    25    26    27	 9 ;      CG311     CG2DC1     CG2DC1     CG2DC2
   24    25    26    47	 9 ;      CG311     CG2DC1     CG2DC1       HGA4
   46    25    26    27	 9 ;       HGA4     CG2DC1     CG2DC1     CG2DC2
   46    25    26    47	 9 ;       HGA4     CG2DC1     CG2DC1       HGA4
   25    26    27    29	 9 ;     CG2DC1     CG2DC1     CG2DC2     CG2D2O
   25    26    27    28	 9 ;     CG2DC1     CG2DC1     CG2DC2      CLGA1
   47    26    27    29	 9 ;       HGA4     CG2DC1     CG2DC2     CG2D2O
   47    26    27    28	 9 ;       HGA4     CG2DC1     CG2DC2      CLGA1
   28    27    29    30	 9 ;      CLGA1     CG2DC2     CG2D2O      NG311
   28    27    29    48	 9 ;      CLGA1     CG2DC2     CG2D2O       HGA4
   26    27    29    30	 9 ;     CG2DC1     CG2DC2     CG2D2O      NG311
   26    27    29    48	 9 ;     CG2DC1     CG2DC2     CG2D2O       HGA4
   27    29    30    31	 9 ;     CG2DC2     CG2D2O      NG311     HGPAM1
   27    29    30    24	 9 ;     CG2DC2     CG2D2O      NG311      CG311
   48    29    30    31	 9 ;       HGA4     CG2D2O      NG311     HGPAM1
   48    29    30    24	 9 ;       HGA4     CG2D2O      NG311      CG311

[ dihedrals ]
;	ai	  aj	ak	  al funct			  c0			c1			  c2			c3
   17     7    15    18	 2
   21    24    20    22	 2
   29    27    30    48	 2

[ virtual_sites2 ]
; Site   from				funct a
   49    28    27     2   -0.164

[ exclusions ]
;	ai	  aj
   28    49
   49    27
   49    29
   49    26
   49    25
   49    47
   49    30
   49    48

