GRowing Old MAkes el Chrono Sweat
   49
    1LIG     C1    1  -1.383   0.578  -1.748
    1LIG     C2    2  -1.447   0.641  -1.640
    1LIG     C3    3  -1.521   0.759  -1.658
    1LIG     C4    4  -1.524   0.815  -1.787
    1LIG     C5    5  -1.454   0.757  -1.893
    1LIG     C6    6  -1.383   0.639  -1.873
    1LIG     C7    7  -1.590   0.832  -1.541
    1LIG     N1    8  -1.553   0.977  -1.540
    1LIG     C8    9  -1.632   1.076  -1.578
    1LIG     H1   10  -1.459   0.998  -1.508
    1LIG     N2   11  -1.594   1.201  -1.567
    1LIG     C9   12  -1.770   1.050  -1.633
    1LIG     H2   13  -1.503   1.227  -1.530
    1LIG     H3   14  -1.655   1.278  -1.594
    1LIG     N3   15  -1.789   0.909  -1.658
    1LIG    C10   16  -1.896   0.867  -1.747
    1LIG    C11   17  -1.743   0.818  -1.563
    1LIG     O1   18  -1.810   0.726  -1.518
    1LIG    C12   19  -1.546   0.775  -1.407
    1LIG     N4   20  -1.319   0.452  -1.736
    1LIG    C13   21  -1.187   0.432  -1.702
    1LIG     O2   22  -1.102   0.520  -1.684
    1LIG     H4   23  -1.376   0.368  -1.737
    1LIG    C14   24  -1.146   0.289  -1.688
    1LIG    C15   25  -1.074   0.250  -1.575
    1LIG    C16   26  -1.026   0.120  -1.569
    1LIG    C17   27  -1.053   0.032  -1.673
    1LIG     CL   28  -0.990  -0.127  -1.671
    1LIG    C18   29  -1.131   0.078  -1.779
    1LIG     N5   30  -1.179   0.205  -1.790
    1LIG     HN   31  -1.235   0.235  -1.870
    1LIG     H5   32  -1.441   0.599  -1.546
    1LIG     H6   33  -1.580   0.900  -1.804
    1LIG     H7   34  -1.455   0.802  -1.986
    1LIG     H8   35  -1.330   0.597  -1.951
    1LIG     H9   36  -1.576   0.986  -1.596
    1LIG    H10   37  -1.843   1.084  -1.562
    1LIG    H11   38  -1.781   1.104  -1.725
    1LIG    H12   39  -1.921   0.947  -1.814
    1LIG    H13   40  -1.982   0.841  -1.689
    1LIG    H14   41  -1.864   0.782  -1.803
    1LIG    H15   42  -1.570   0.671  -1.402
    1LIG    H16   43  -1.596   0.826  -1.328
    1LIG    H17   44  -1.440   0.787  -1.395
    1LIG    H18   45  -1.167   0.199  -1.633
    1LIG    H19   46  -1.056   0.317  -1.499
    1LIG    H20   47  -0.971   0.089  -1.487
    1LIG    H21   48  -1.153   0.011  -1.855
    1LIG    LP1   49  -0.930  -0.280  -1.669
   0.00000   0.00000   0.00000
