Good gRace! Old Maple Actually Chews Slate
   49
    1LIG     O1    1  -1.591   0.554  -1.903
    1LIG     C1    2  -1.632   0.569  -1.768
    1LIG     C2    3  -1.611   0.431  -1.701
    1LIG     N1    4  -1.593   0.342  -1.819
    1LIG    HN1    5  -1.588   0.240  -1.819
    1LIG     C3    6  -1.585   0.420  -1.920
    1LIG     N2    7  -1.569   0.384  -2.049
    1LIG     H1    8  -1.535   0.289  -2.061
    1LIG     H2    9  -1.528   0.454  -2.109
    1LIG     C4   10  -1.487   0.429  -1.609
    1LIG     C5   11  -1.444   0.308  -1.551
    1LIG     C6   12  -1.319   0.295  -1.485
    1LIG     C7   13  -1.242   0.411  -1.472
    1LIG     C8   14  -1.285   0.533  -1.523
    1LIG     C9   15  -1.406   0.542  -1.592
    1LIG    C10   16  -1.270   0.162  -1.441
    1LIG    C11   17  -1.227   0.065  -1.533
    1LIG    C12   18  -1.178  -0.058  -1.490
    1LIG    C13   19  -1.172  -0.082  -1.354
    1LIG     N3   20  -1.212   0.007  -1.261
    1LIG    C14   21  -1.260   0.126  -1.307
    1LIG    HN2   22  -1.207  -0.013  -1.161
    1LIG    C15   23  -1.733   0.382  -1.620
    1LIG    C16   24  -1.759   0.440  -1.494
    1LIG    C17   25  -1.868   0.399  -1.416
    1LIG    C18   26  -1.954   0.300  -1.462
    1LIG    C19   27  -1.932   0.245  -1.589
    1LIG    C20   28  -1.824   0.286  -1.667
    1LIG     O2   29  -2.062   0.249  -1.395
    1LIG    C21   30  -2.106   0.119  -1.435
    1LIG    HC2   31  -1.571   0.645  -1.718
    1LIG    HC3   32  -1.737   0.597  -1.763
    1LIG     HC   33  -1.508   0.221  -1.556
    1LIG    HC1   34  -1.146   0.405  -1.421
    1LIG    HC4   35  -1.225   0.622  -1.508
    1LIG    HC5   36  -1.437   0.637  -1.633
    1LIG    HC6   37  -1.232   0.086  -1.639
    1LIG    HC7   38  -1.145  -0.133  -1.560
    1LIG    HC8   39  -1.133  -0.177  -1.320
    1LIG    HC9   40  -1.293   0.198  -1.233
    1LIG   HC10   41  -1.694   0.517  -1.457
    1LIG   HC11   42  -1.885   0.444  -1.319
    1LIG   HC12   43  -2.000   0.169  -1.627
    1LIG   HC13   44  -1.810   0.244  -1.766
    1LIG   HC14   45  -2.177   0.081  -1.362
    1LIG   HC15   46  -2.154   0.126  -1.532
    1LIG   HC16   47  -2.020   0.052  -1.441
    1LIG    H22   48  -1.693   0.417  -1.932
    1LIG    H23   49  -1.272  -0.124  -1.357
   0.00000   0.00000   0.00000
