; Created by cgenff_charmm2gmx.py

[ moleculetype ]
; Name			   nrexcl
LIG				 3

[ atoms ]
;	 nr		  type	resnr residue  atom   cgnr	   charge		mass  typeB    chargeB		massB
; residue	 1 LIG rtp LIG q	qsum
     1     OG3C51      1    LIG     O1      1     -0.328     15.999   ;
     2     CG3C52      1    LIG     C1      2     -0.151     12.011   ;
     3     CG3C50      1    LIG     C2      3      1.057     12.011   ;
     4     NG3C51      1    LIG     N1      4     -0.874     14.007   ;
     5       HGP1      1    LIG    HN1      5      0.233      1.008   ;
     6     CG3C51      1    LIG     C3      6      0.318     12.011   ;
     7      NG321      1    LIG     N2      7     -1.079     14.007   ;
     8     HGPAM2      1    LIG     H1      8      0.454      1.008   ;
     9     HGPAM2      1    LIG     H2      9      0.454      1.008   ;
    10     CG2R61      1    LIG     C4     10     -0.079     12.011   ;
    11     CG2R61      1    LIG     C5     11     -0.182     12.011   ;
    12     CG2R61      1    LIG     C6     12     -0.139     12.011   ;
    13     CG2R61      1    LIG     C7     13     -0.117     12.011   ;
    14     CG2R61      1    LIG     C8     14     -0.102     12.011   ;
    15     CG2R61      1    LIG     C9     15     -0.181     12.011   ;
    16     CG2DC1      1    LIG    C10     16      0.175     12.011   ;
    17     CG2DC2      1    LIG    C11     17     -0.254     12.011   ;
    18     CG2DC2      1    LIG    C12     18     -0.181     12.011   ;
    19      CG321      1    LIG    C13     19     -0.038     12.011   ;
    20      NG311      1    LIG     N3     20     -0.536     14.007   ;
    21     CG2D1O      1    LIG    C14     21     -0.044     12.011   ;
    22     HGPAM1      1    LIG    HN2     22      0.389      1.008   ;
    23     CG2R61      1    LIG    C15     23     -0.082     12.011   ;
    24     CG2R61      1    LIG    C16     24     -0.178     12.011   ;
    25     CG2R61      1    LIG    C17     25     -0.110     12.011   ;
    26     CG2R61      1    LIG    C18     26      0.211     12.011   ;
    27     CG2R61      1    LIG    C19     27     -0.110     12.011   ;
    28     CG2R61      1    LIG    C20     28     -0.178     12.011   ;
    29      OG301      1    LIG     O2     29     -0.383     15.999   ;
    30      CG331      1    LIG    C21     30     -0.094     12.011   ;
    31       HGA2      1    LIG    HC2     31      0.090      1.008   ;
    32       HGA2      1    LIG    HC3     32      0.090      1.008   ;
    33      HGR61      1    LIG     HC     33      0.116      1.008   ;
    34      HGR61      1    LIG    HC1     34      0.116      1.008   ;
    35      HGR61      1    LIG    HC4     35      0.116      1.008   ;
    36      HGR61      1    LIG    HC5     36      0.116      1.008   ;
    37       HGA4      1    LIG    HC6     37      0.153      1.008   ;
    38       HGA4      1    LIG    HC7     38      0.150      1.008   ;
    39       HGA2      1    LIG    HC8     39      0.090      1.008   ;
    40       HGA4      1    LIG    HC9     40      0.152      1.008   ;
    41      HGR61      1    LIG   HC10     41      0.116      1.008   ;
    42      HGR61      1    LIG   HC11     42      0.116      1.008   ;
    43      HGR61      1    LIG   HC12     43      0.116      1.008   ;
    44      HGR61      1    LIG   HC13     44      0.116      1.008   ;
    45       HGA3      1    LIG   HC14     45      0.090      1.008   ;
    46       HGA3      1    LIG   HC15     46      0.090      1.008   ;
    47       HGA3      1    LIG   HC16     47      0.090      1.008   ;
    48       HGA1      1    LIG    H22     48      0.116      1.008   ;
    49       HGA2      1    LIG    H23     49      0.090      1.008   ;

[ bonds ]
;	ai	  aj funct			  c0			c1			  c2			c3
    1     6	 1 ;      OG3C51     CG3C51
    1     2	 1 ;      OG3C51     CG3C52
    2     3	 1 ;      CG3C52     CG3C50
    2    31	 1 ;      CG3C52       HGA2
    2    32	 1 ;      CG3C52       HGA2
    3     4	 1 ;      CG3C50     NG3C51
    3    10	 1 ;      CG3C50     CG2R61
    3    23	 1 ;      CG3C50     CG2R61
    4     6	 1 ;      NG3C51     CG3C51
    4     5	 1 ;      NG3C51       HGP1
    6     7	 1 ;      CG3C51      NG321
    6    48	 1 ;      CG3C51       HGA1
    7     9	 1 ;       NG321     HGPAM2
    7     8	 1 ;       NG321     HGPAM2
   10    15	 1 ;      CG2R61     CG2R61
   10    11	 1 ;      CG2R61     CG2R61
   11    12	 1 ;      CG2R61     CG2R61
   11    33	 1 ;      CG2R61      HGR61
   12    13	 1 ;      CG2R61     CG2R61
   12    16	 1 ;      CG2R61     CG2DC1
   13    14	 1 ;      CG2R61     CG2R61
   13    34	 1 ;      CG2R61      HGR61
   14    15	 1 ;      CG2R61     CG2R61
   14    35	 1 ;      CG2R61      HGR61
   15    36	 1 ;      CG2R61      HGR61
   16    17	 1 ;      CG2DC1     CG2DC2
   16    21	 1 ;      CG2DC1     CG2D1O
   17    18	 1 ;      CG2DC2     CG2DC2
   17    37	 1 ;      CG2DC2       HGA4
   18    19	 1 ;      CG2DC2      CG321
   18    38	 1 ;      CG2DC2       HGA4
   19    20	 1 ;       CG321      NG311
   19    39	 1 ;       CG321       HGA2
   19    49	 1 ;       CG321       HGA2
   20    21	 1 ;       NG311     CG2D1O
   20    22	 1 ;       NG311     HGPAM1
   21    40	 1 ;      CG2D1O       HGA4
   23    28	 1 ;      CG2R61     CG2R61
   23    24	 1 ;      CG2R61     CG2R61
   24    25	 1 ;      CG2R61     CG2R61
   24    41	 1 ;      CG2R61      HGR61
   25    26	 1 ;      CG2R61     CG2R61
   25    42	 1 ;      CG2R61      HGR61
   26    27	 1 ;      CG2R61     CG2R61
   26    29	 1 ;      CG2R61      OG301
   27    28	 1 ;      CG2R61     CG2R61
   27    43	 1 ;      CG2R61      HGR61
   28    44	 1 ;      CG2R61      HGR61
   29    30	 1 ;       OG301      CG331
   30    45	 1 ;       CG331       HGA3
   30    46	 1 ;       CG331       HGA3
   30    47	 1 ;       CG331       HGA3

[ pairs ]
;	ai	  aj funct			  c0			c1			  c2			c3
    1    10	 1
    1    23	 1
    1     5	 1
    1     9	 1
    1     8	 1
    2     7	 1
    2    48	 1
    2     5	 1
    2    15	 1
    2    11	 1
    2    28	 1
    2    24	 1
    3     7	 1
    3    48	 1
    3    14	 1
    3    36	 1
    3    12	 1
    3    33	 1
    3    27	 1
    3    44	 1
    3    25	 1
    3    41	 1
    4    31	 1
    4    32	 1
    4    15	 1
    4    11	 1
    4    28	 1
    4    24	 1
    4     9	 1
    4     8	 1
    5    10	 1
    5    23	 1
    5     7	 1
    5    48	 1
    6    31	 1
    6    32	 1
    6    10	 1
    6    23	 1
    8    48	 1
    9    48	 1
   10    31	 1
   10    32	 1
   10    28	 1
   10    24	 1
   10    13	 1
   10    16	 1
   10    35	 1
   11    23	 1
   11    14	 1
   11    36	 1
   11    34	 1
   11    17	 1
   11    21	 1
   12    15	 1
   12    35	 1
   12    18	 1
   12    37	 1
   12    20	 1
   12    40	 1
   13    33	 1
   13    17	 1
   13    21	 1
   13    36	 1
   14    16	 1
   15    23	 1
   15    33	 1
   15    34	 1
   16    33	 1
   16    34	 1
   16    19	 1
   16    38	 1
   16    22	 1
   17    20	 1
   17    40	 1
   17    39	 1
   17    49	 1
   18    21	 1
   18    22	 1
   19    37	 1
   19    40	 1
   20    38	 1
   21    37	 1
   21    39	 1
   21    49	 1
   22    39	 1
   22    49	 1
   22    40	 1
   23    31	 1
   23    32	 1
   23    26	 1
   23    42	 1
   23    43	 1
   24    27	 1
   24    44	 1
   24    29	 1
   25    28	 1
   25    43	 1
   25    30	 1
   26    41	 1
   26    44	 1
   26    45	 1
   26    46	 1
   26    47	 1
   27    42	 1
   27    30	 1
   28    41	 1
   28    29	 1
   29    42	 1
   29    43	 1
   34    35	 1
   35    36	 1
   37    38	 1
   38    39	 1
   38    49	 1
   41    42	 1
   43    44	 1

[ angles ]
;	ai	  aj	ak funct			c0			  c1			c2			  c3
    6     1     2	5 ;     CG3C51     OG3C51     CG3C52
    1     2     3	5 ;     OG3C51     CG3C52     CG3C50
    1     2    31	5 ;     OG3C51     CG3C52       HGA2
    1     2    32	5 ;     OG3C51     CG3C52       HGA2
    3     2    31	5 ;     CG3C50     CG3C52       HGA2
    3     2    32	5 ;     CG3C50     CG3C52       HGA2
   31     2    32	5 ;       HGA2     CG3C52       HGA2
    4     3    10	5 ;     NG3C51     CG3C50     CG2R61
    4     3     2	5 ;     NG3C51     CG3C50     CG3C52
    4     3    23	5 ;     NG3C51     CG3C50     CG2R61
   10     3     2	5 ;     CG2R61     CG3C50     CG3C52
   10     3    23	5 ;     CG2R61     CG3C50     CG2R61
    2     3    23	5 ;     CG3C52     CG3C50     CG2R61
    6     4     5	5 ;     CG3C51     NG3C51       HGP1
    6     4     3	5 ;     CG3C51     NG3C51     CG3C50
    5     4     3	5 ;       HGP1     NG3C51     CG3C50
    7     6     1	5 ;      NG321     CG3C51     OG3C51
    7     6     4	5 ;      NG321     CG3C51     NG3C51
    7     6    48	5 ;      NG321     CG3C51       HGA1
    1     6     4	5 ;     OG3C51     CG3C51     NG3C51
    1     6    48	5 ;     OG3C51     CG3C51       HGA1
    4     6    48	5 ;     NG3C51     CG3C51       HGA1
    9     7     8	5 ;     HGPAM2      NG321     HGPAM2
    9     7     6	5 ;     HGPAM2      NG321     CG3C51
    8     7     6	5 ;     HGPAM2      NG321     CG3C51
   15    10    11	5 ;     CG2R61     CG2R61     CG2R61
   15    10     3	5 ;     CG2R61     CG2R61     CG3C50
   11    10     3	5 ;     CG2R61     CG2R61     CG3C50
   12    11    10	5 ;     CG2R61     CG2R61     CG2R61
   12    11    33	5 ;     CG2R61     CG2R61      HGR61
   10    11    33	5 ;     CG2R61     CG2R61      HGR61
   13    12    16	5 ;     CG2R61     CG2R61     CG2DC1
   13    12    11	5 ;     CG2R61     CG2R61     CG2R61
   16    12    11	5 ;     CG2DC1     CG2R61     CG2R61
   14    13    12	5 ;     CG2R61     CG2R61     CG2R61
   14    13    34	5 ;     CG2R61     CG2R61      HGR61
   12    13    34	5 ;     CG2R61     CG2R61      HGR61
   13    14    15	5 ;     CG2R61     CG2R61     CG2R61
   13    14    35	5 ;     CG2R61     CG2R61      HGR61
   15    14    35	5 ;     CG2R61     CG2R61      HGR61
   14    15    10	5 ;     CG2R61     CG2R61     CG2R61
   14    15    36	5 ;     CG2R61     CG2R61      HGR61
   10    15    36	5 ;     CG2R61     CG2R61      HGR61
   17    16    12	5 ;     CG2DC2     CG2DC1     CG2R61
   17    16    21	5 ;     CG2DC2     CG2DC1     CG2D1O
   12    16    21	5 ;     CG2R61     CG2DC1     CG2D1O
   18    17    16	5 ;     CG2DC2     CG2DC2     CG2DC1
   18    17    37	5 ;     CG2DC2     CG2DC2       HGA4
   16    17    37	5 ;     CG2DC1     CG2DC2       HGA4
   17    18    19	5 ;     CG2DC2     CG2DC2      CG321
   17    18    38	5 ;     CG2DC2     CG2DC2       HGA4
   19    18    38	5 ;      CG321     CG2DC2       HGA4
   18    19    20	5 ;     CG2DC2      CG321      NG311
   18    19    39	5 ;     CG2DC2      CG321       HGA2
   18    19    49	5 ;     CG2DC2      CG321       HGA2
   20    19    39	5 ;      NG311      CG321       HGA2
   20    19    49	5 ;      NG311      CG321       HGA2
   39    19    49	5 ;       HGA2      CG321       HGA2
   19    20    21	5 ;      CG321      NG311     CG2D1O
   19    20    22	5 ;      CG321      NG311     HGPAM1
   21    20    22	5 ;     CG2D1O      NG311     HGPAM1
   16    21    20	5 ;     CG2DC1     CG2D1O      NG311
   16    21    40	5 ;     CG2DC1     CG2D1O       HGA4
   20    21    40	5 ;      NG311     CG2D1O       HGA4
    3    23    28	5 ;     CG3C50     CG2R61     CG2R61
    3    23    24	5 ;     CG3C50     CG2R61     CG2R61
   28    23    24	5 ;     CG2R61     CG2R61     CG2R61
   23    24    25	5 ;     CG2R61     CG2R61     CG2R61
   23    24    41	5 ;     CG2R61     CG2R61      HGR61
   25    24    41	5 ;     CG2R61     CG2R61      HGR61
   24    25    26	5 ;     CG2R61     CG2R61     CG2R61
   24    25    42	5 ;     CG2R61     CG2R61      HGR61
   26    25    42	5 ;     CG2R61     CG2R61      HGR61
   27    26    25	5 ;     CG2R61     CG2R61     CG2R61
   27    26    29	5 ;     CG2R61     CG2R61      OG301
   25    26    29	5 ;     CG2R61     CG2R61      OG301
   28    27    26	5 ;     CG2R61     CG2R61     CG2R61
   28    27    43	5 ;     CG2R61     CG2R61      HGR61
   26    27    43	5 ;     CG2R61     CG2R61      HGR61
   23    28    27	5 ;     CG2R61     CG2R61     CG2R61
   23    28    44	5 ;     CG2R61     CG2R61      HGR61
   27    28    44	5 ;     CG2R61     CG2R61      HGR61
   26    29    30	5 ;     CG2R61      OG301      CG331
   29    30    45	5 ;      OG301      CG331       HGA3
   29    30    46	5 ;      OG301      CG331       HGA3
   29    30    47	5 ;      OG301      CG331       HGA3
   45    30    46	5 ;       HGA3      CG331       HGA3
   45    30    47	5 ;       HGA3      CG331       HGA3
   46    30    47	5 ;       HGA3      CG331       HGA3

[ dihedrals ]
;	ai	  aj	ak	  al funct			  c0			c1			  c2			c3			  c4			c5
    2     1     6     7	 9 ;     CG3C52     OG3C51     CG3C51      NG321
    2     1     6     4	 9 ;     CG3C52     OG3C51     CG3C51     NG3C51
    2     1     6    48	 9 ;     CG3C52     OG3C51     CG3C51       HGA1
    6     1     2     3	 9 ;     CG3C51     OG3C51     CG3C52     CG3C50
    6     1     2    31	 9 ;     CG3C51     OG3C51     CG3C52       HGA2
    6     1     2    32	 9 ;     CG3C51     OG3C51     CG3C52       HGA2
    1     2     3     4	 9 ;     OG3C51     CG3C52     CG3C50     NG3C51
    1     2     3    10	 9 ;     OG3C51     CG3C52     CG3C50     CG2R61
    1     2     3    23	 9 ;     OG3C51     CG3C52     CG3C50     CG2R61
   31     2     3     4	 9 ;       HGA2     CG3C52     CG3C50     NG3C51
   31     2     3    10	 9 ;       HGA2     CG3C52     CG3C50     CG2R61
   31     2     3    23	 9 ;       HGA2     CG3C52     CG3C50     CG2R61
   32     2     3     4	 9 ;       HGA2     CG3C52     CG3C50     NG3C51
   32     2     3    10	 9 ;       HGA2     CG3C52     CG3C50     CG2R61
   32     2     3    23	 9 ;       HGA2     CG3C52     CG3C50     CG2R61
   10     3     4     6	 9 ;     CG2R61     CG3C50     NG3C51     CG3C51
   10     3     4     5	 9 ;     CG2R61     CG3C50     NG3C51       HGP1
    2     3     4     6	 9 ;     CG3C52     CG3C50     NG3C51     CG3C51
    2     3     4     5	 9 ;     CG3C52     CG3C50     NG3C51       HGP1
   23     3     4     6	 9 ;     CG2R61     CG3C50     NG3C51     CG3C51
   23     3     4     5	 9 ;     CG2R61     CG3C50     NG3C51       HGP1
    4     3    10    15	 9 ;     NG3C51     CG3C50     CG2R61     CG2R61
    4     3    10    11	 9 ;     NG3C51     CG3C50     CG2R61     CG2R61
    2     3    10    15	 9 ;     CG3C52     CG3C50     CG2R61     CG2R61
    2     3    10    11	 9 ;     CG3C52     CG3C50     CG2R61     CG2R61
   23     3    10    15	 9 ;     CG2R61     CG3C50     CG2R61     CG2R61
   23     3    10    11	 9 ;     CG2R61     CG3C50     CG2R61     CG2R61
    4     3    23    28	 9 ;     NG3C51     CG3C50     CG2R61     CG2R61
    4     3    23    24	 9 ;     NG3C51     CG3C50     CG2R61     CG2R61
   10     3    23    28	 9 ;     CG2R61     CG3C50     CG2R61     CG2R61
   10     3    23    24	 9 ;     CG2R61     CG3C50     CG2R61     CG2R61
    2     3    23    28	 9 ;     CG3C52     CG3C50     CG2R61     CG2R61
    2     3    23    24	 9 ;     CG3C52     CG3C50     CG2R61     CG2R61
    5     4     6     7	 9 ;       HGP1     NG3C51     CG3C51      NG321
    5     4     6     1	 9 ;       HGP1     NG3C51     CG3C51     OG3C51
    5     4     6    48	 9 ;       HGP1     NG3C51     CG3C51       HGA1
    3     4     6     7	 9 ;     CG3C50     NG3C51     CG3C51      NG321
    3     4     6     1	 9 ;     CG3C50     NG3C51     CG3C51     OG3C51
    3     4     6    48	 9 ;     CG3C50     NG3C51     CG3C51       HGA1
    1     6     7     9	 9 ;     OG3C51     CG3C51      NG321     HGPAM2
    1     6     7     8	 9 ;     OG3C51     CG3C51      NG321     HGPAM2
    4     6     7     9	 9 ;     NG3C51     CG3C51      NG321     HGPAM2
    4     6     7     8	 9 ;     NG3C51     CG3C51      NG321     HGPAM2
   48     6     7     9	 9 ;       HGA1     CG3C51      NG321     HGPAM2
   48     6     7     8	 9 ;       HGA1     CG3C51      NG321     HGPAM2
   11    10    15    14	 9 ;     CG2R61     CG2R61     CG2R61     CG2R61
   11    10    15    36	 9 ;     CG2R61     CG2R61     CG2R61      HGR61
    3    10    15    14	 9 ;     CG3C50     CG2R61     CG2R61     CG2R61
    3    10    15    36	 9 ;     CG3C50     CG2R61     CG2R61      HGR61
   15    10    11    12	 9 ;     CG2R61     CG2R61     CG2R61     CG2R61
   15    10    11    33	 9 ;     CG2R61     CG2R61     CG2R61      HGR61
    3    10    11    12	 9 ;     CG3C50     CG2R61     CG2R61     CG2R61
    3    10    11    33	 9 ;     CG3C50     CG2R61     CG2R61      HGR61
   10    11    12    13	 9 ;     CG2R61     CG2R61     CG2R61     CG2R61
   10    11    12    16	 9 ;     CG2R61     CG2R61     CG2R61     CG2DC1
   33    11    12    13	 9 ;      HGR61     CG2R61     CG2R61     CG2R61
   33    11    12    16	 9 ;      HGR61     CG2R61     CG2R61     CG2DC1
   16    12    13    14	 9 ;     CG2DC1     CG2R61     CG2R61     CG2R61
   16    12    13    34	 9 ;     CG2DC1     CG2R61     CG2R61      HGR61
   11    12    13    14	 9 ;     CG2R61     CG2R61     CG2R61     CG2R61
   11    12    13    34	 9 ;     CG2R61     CG2R61     CG2R61      HGR61
   13    12    16    17	 9 ;     CG2R61     CG2R61     CG2DC1     CG2DC2
   13    12    16    21	 9 ;     CG2R61     CG2R61     CG2DC1     CG2D1O
   11    12    16    17	 9 ;     CG2R61     CG2R61     CG2DC1     CG2DC2
   11    12    16    21	 9 ;     CG2R61     CG2R61     CG2DC1     CG2D1O
   12    13    14    15	 9 ;     CG2R61     CG2R61     CG2R61     CG2R61
   12    13    14    35	 9 ;     CG2R61     CG2R61     CG2R61      HGR61
   34    13    14    15	 9 ;      HGR61     CG2R61     CG2R61     CG2R61
   34    13    14    35	 9 ;      HGR61     CG2R61     CG2R61      HGR61
   13    14    15    10	 9 ;     CG2R61     CG2R61     CG2R61     CG2R61
   13    14    15    36	 9 ;     CG2R61     CG2R61     CG2R61      HGR61
   35    14    15    10	 9 ;      HGR61     CG2R61     CG2R61     CG2R61
   35    14    15    36	 9 ;      HGR61     CG2R61     CG2R61      HGR61
   12    16    17    18	 9 ;     CG2R61     CG2DC1     CG2DC2     CG2DC2
   12    16    17    37	 9 ;     CG2R61     CG2DC1     CG2DC2       HGA4
   21    16    17    18	 9 ;     CG2D1O     CG2DC1     CG2DC2     CG2DC2
   21    16    17    37	 9 ;     CG2D1O     CG2DC1     CG2DC2       HGA4
   17    16    21    20	 9 ;     CG2DC2     CG2DC1     CG2D1O      NG311
   17    16    21    40	 9 ;     CG2DC2     CG2DC1     CG2D1O       HGA4
   12    16    21    20	 9 ;     CG2R61     CG2DC1     CG2D1O      NG311
   12    16    21    40	 9 ;     CG2R61     CG2DC1     CG2D1O       HGA4
   16    17    18    19	 9 ;     CG2DC1     CG2DC2     CG2DC2      CG321
   16    17    18    38	 9 ;     CG2DC1     CG2DC2     CG2DC2       HGA4
   37    17    18    19	 9 ;       HGA4     CG2DC2     CG2DC2      CG321
   37    17    18    38	 9 ;       HGA4     CG2DC2     CG2DC2       HGA4
   17    18    19    20	 9 ;     CG2DC2     CG2DC2      CG321      NG311
   17    18    19    39	 9 ;     CG2DC2     CG2DC2      CG321       HGA2
   17    18    19    49	 9 ;     CG2DC2     CG2DC2      CG321       HGA2
   38    18    19    20	 9 ;       HGA4     CG2DC2      CG321      NG311
   38    18    19    39	 9 ;       HGA4     CG2DC2      CG321       HGA2
   38    18    19    49	 9 ;       HGA4     CG2DC2      CG321       HGA2
   18    19    20    21	 9 ;     CG2DC2      CG321      NG311     CG2D1O
   18    19    20    22	 9 ;     CG2DC2      CG321      NG311     HGPAM1
   39    19    20    21	 9 ;       HGA2      CG321      NG311     CG2D1O
   39    19    20    22	 9 ;       HGA2      CG321      NG311     HGPAM1
   49    19    20    21	 9 ;       HGA2      CG321      NG311     CG2D1O
   49    19    20    22	 9 ;       HGA2      CG321      NG311     HGPAM1
   19    20    21    16	 9 ;      CG321      NG311     CG2D1O     CG2DC1
   19    20    21    40	 9 ;      CG321      NG311     CG2D1O       HGA4
   22    20    21    16	 9 ;     HGPAM1      NG311     CG2D1O     CG2DC1
   22    20    21    40	 9 ;     HGPAM1      NG311     CG2D1O       HGA4
    3    23    28    27	 9 ;     CG3C50     CG2R61     CG2R61     CG2R61
    3    23    28    44	 9 ;     CG3C50     CG2R61     CG2R61      HGR61
   24    23    28    27	 9 ;     CG2R61     CG2R61     CG2R61     CG2R61
   24    23    28    44	 9 ;     CG2R61     CG2R61     CG2R61      HGR61
    3    23    24    25	 9 ;     CG3C50     CG2R61     CG2R61     CG2R61
    3    23    24    41	 9 ;     CG3C50     CG2R61     CG2R61      HGR61
   28    23    24    25	 9 ;     CG2R61     CG2R61     CG2R61     CG2R61
   28    23    24    41	 9 ;     CG2R61     CG2R61     CG2R61      HGR61
   23    24    25    26	 9 ;     CG2R61     CG2R61     CG2R61     CG2R61
   23    24    25    42	 9 ;     CG2R61     CG2R61     CG2R61      HGR61
   41    24    25    26	 9 ;      HGR61     CG2R61     CG2R61     CG2R61
   41    24    25    42	 9 ;      HGR61     CG2R61     CG2R61      HGR61
   24    25    26    27	 9 ;     CG2R61     CG2R61     CG2R61     CG2R61
   24    25    26    29	 9 ;     CG2R61     CG2R61     CG2R61      OG301
   42    25    26    27	 9 ;      HGR61     CG2R61     CG2R61     CG2R61
   42    25    26    29	 9 ;      HGR61     CG2R61     CG2R61      OG301
   25    26    27    28	 9 ;     CG2R61     CG2R61     CG2R61     CG2R61
   25    26    27    43	 9 ;     CG2R61     CG2R61     CG2R61      HGR61
   29    26    27    28	 9 ;      OG301     CG2R61     CG2R61     CG2R61
   29    26    27    43	 9 ;      OG301     CG2R61     CG2R61      HGR61
   27    26    29    30	 9 ;     CG2R61     CG2R61      OG301      CG331
   25    26    29    30	 9 ;     CG2R61     CG2R61      OG301      CG331
   26    27    28    23	 9 ;     CG2R61     CG2R61     CG2R61     CG2R61
   26    27    28    44	 9 ;     CG2R61     CG2R61     CG2R61      HGR61
   43    27    28    23	 9 ;      HGR61     CG2R61     CG2R61     CG2R61
   43    27    28    44	 9 ;      HGR61     CG2R61     CG2R61      HGR61
   26    29    30    45	 9 ;     CG2R61      OG301      CG331       HGA3
   26    29    30    46	 9 ;     CG2R61      OG301      CG331       HGA3
   26    29    30    47	 9 ;     CG2R61      OG301      CG331       HGA3

[ dihedrals ]
;	ai	  aj	ak	  al funct			  c0			c1			  c2			c3
   21    16    20    40	 2

