; Created by cgenff_charmm2gmx.py

[ moleculetype ]
; Name			   nrexcl
LIG				 3

[ atoms ]
;	 nr		  type	resnr residue  atom   cgnr	   charge		mass  typeB    chargeB		massB
; residue	 1 LIG rtp LIG q	qsum
     1     CG2R61      1    LIG     C1      1      0.140     12.011   ;
     2     CG2R61      1    LIG     C2      2     -0.226     12.011   ;
     3     CG2R61      1    LIG     C3      3      0.320     12.011   ;
     4     CG2R61      1    LIG     C4      4     -0.166     12.011   ;
     5     CG2R61      1    LIG     C5      5     -0.099     12.011   ;
     6     CG2R61      1    LIG     C6      6     -0.064     12.011   ;
     7     CG3C51      1    LIG     C7      7      0.059     12.011   ;
     8     NG3C51      1    LIG     N1      8     -0.468     14.007   ;
     9     CG3C51      1    LIG     C8      9      0.157     12.011   ;
    10       HGP1      1    LIG    HN1     10      0.203      1.008   ;
    11     NG3C51      1    LIG     N2     11     -0.506     14.007   ;
    12     NG3C51      1    LIG     N3     12     -0.408     14.007   ;
    13       HGP1      1    LIG     H1     13      0.291      1.008   ;
    14       HGP1      1    LIG    HN2     14      0.264      1.008   ;
    15      CG301      1    LIG     C9     15      0.569     12.011   ;
    16      CG331      1    LIG    C10     16     -0.212     12.011   ;
    17      NG3P3      1    LIG     N4     17     -0.629     14.007   ;
    18       HGP2      1    LIG     H2     18      0.348      1.008   ;
    19       HGP2      1    LIG     H3     19      0.348      1.008   ;
    20       HGP2      1    LIG     H4     20      0.348      1.008   ;
    21      CG321      1    LIG    C11     21     -0.153     12.011   ;
    22     CG2R61      1    LIG    C12     22     -0.057     12.011   ;
    23     CG2R61      1    LIG    C13     23     -0.123     12.011   ;
    24     CG2R61      1    LIG    C14     24     -0.112     12.011   ;
    25     CG2R61      1    LIG    C15     25     -0.116     12.011   ;
    26     CG2R61      1    LIG    C16     26     -0.112     12.011   ;
    27     CG2R61      1    LIG    C17     27     -0.123     12.011   ;
    28      NG301      1    LIG     N5     28     -0.228     14.007   ;
    29      CG331      1    LIG    C18     29     -0.103     12.011   ;
    30      SG3O2      1    LIG      S     30      0.397     32.060   ;
    31      OG2P1      1    LIG     O1     31     -0.388     15.999   ;
    32      OG2P1      1    LIG     O2     32     -0.388     15.999   ;
    33      CG331      1    LIG    C19     33      0.036     12.011   ;
    34      CG2O1      1    LIG    C20     34      0.320     12.011   ;
    35      OG2D1      1    LIG     O3     35     -0.463     15.999   ;
    36      NG2S1      1    LIG     N6     36     -0.366     14.007   ;
    37       HGP1      1    LIG     H5     37      0.314      1.008   ;
    38      CG311      1    LIG    C21     38      0.138     12.011   ;
    39      CG331      1    LIG    C22     39     -0.265     12.011   ;
    40     CG2R61      1    LIG    C23     40     -0.081     12.011   ;
    41     CG2R61      1    LIG    C24     41     -0.121     12.011   ;
    42     CG2R61      1    LIG    C25     42     -0.105     12.011   ;
    43     CG2R66      1    LIG    C26     43      0.107     12.011   ;
    44       FGR1      1    LIG      F     44     -0.211     18.998   ;
    45     CG2R61      1    LIG    C27     45     -0.105     12.011   ;
    46     CG2R61      1    LIG    C28     46     -0.121     12.011   ;
    47      HGR61      1    LIG     H6     47      0.116      1.008   ;
    48      HGR61      1    LIG     H7     48      0.116      1.008   ;
    49      HGR61      1    LIG     H8     49      0.116      1.008   ;
    50       HGA1      1    LIG     H9     50      0.142      1.008   ;
    51       HGA1      1    LIG    H10     51      0.150      1.008   ;
    52       HGA3      1    LIG    H11     52      0.090      1.008   ;
    53       HGA3      1    LIG    H12     53      0.090      1.008   ;
    54       HGA3      1    LIG    H13     54      0.090      1.008   ;
    55       HGA2      1    LIG    H14     55      0.090      1.008   ;
    56       HGA2      1    LIG    H15     56      0.090      1.008   ;
    57      HGR61      1    LIG    H16     57      0.116      1.008   ;
    58      HGR61      1    LIG    H17     58      0.116      1.008   ;
    59      HGR61      1    LIG    H18     59      0.116      1.008   ;
    60      HGR61      1    LIG    H19     60      0.116      1.008   ;
    61      HGR61      1    LIG    H20     61      0.116      1.008   ;
    62       HGA3      1    LIG    H21     62      0.090      1.008   ;
    63       HGA3      1    LIG    H22     63      0.090      1.008   ;
    64       HGA3      1    LIG    H23     64      0.090      1.008   ;
    65       HGA3      1    LIG    H24     65      0.090      1.008   ;
    66       HGA3      1    LIG    H25     66      0.090      1.008   ;
    67       HGA3      1    LIG    H26     67      0.090      1.008   ;
    68       HGA1      1    LIG    H27     68      0.090      1.008   ;
    69       HGA3      1    LIG    H28     69      0.090      1.008   ;
    70       HGA3      1    LIG    H29     70      0.090      1.008   ;
    71       HGA3      1    LIG    H30     71      0.090      1.008   ;
    72      HGR61      1    LIG    H31     72      0.116      1.008   ;
    73      HGR62      1    LIG    H32     73      0.179      1.008   ;
    74      HGR62      1    LIG    H33     74      0.179      1.008   ;
    75      HGR61      1    LIG    H34     75      0.116      1.008   ;

[ bonds ]
;	ai	  aj funct			  c0			c1			  c2			c3
    1     6	 1 ;      CG2R61     CG2R61
    1    28	 1 ;      CG2R61      NG301
    1     2	 1 ;      CG2R61     CG2R61
    2     3	 1 ;      CG2R61     CG2R61
    2    47	 1 ;      CG2R61      HGR61
    3     4	 1 ;      CG2R61     CG2R61
    3     7	 1 ;      CG2R61     CG3C51
    4     5	 1 ;      CG2R61     CG2R61
    4    48	 1 ;      CG2R61      HGR61
    5    34	 1 ;      CG2R61      CG2O1
    5     6	 1 ;      CG2R61     CG2R61
    6    49	 1 ;      CG2R61      HGR61
    7     8	 1 ;      CG3C51     NG3C51
    7    12	 1 ;      CG3C51     NG3C51
    7    50	 1 ;      CG3C51       HGA1
    8    10	 1 ;      NG3C51       HGP1
    8     9	 1 ;      NG3C51     CG3C51
    9    11	 1 ;      CG3C51     NG3C51
    9    15	 1 ;      CG3C51      CG301
    9    51	 1 ;      CG3C51       HGA1
   11    12	 1 ;      NG3C51     NG3C51
   11    13	 1 ;      NG3C51       HGP1
   12    14	 1 ;      NG3C51       HGP1
   15    17	 1 ;       CG301      NG3P3
   15    21	 1 ;       CG301      CG321
   15    16	 1 ;       CG301      CG331
   16    52	 1 ;       CG331       HGA3
   16    53	 1 ;       CG331       HGA3
   16    54	 1 ;       CG331       HGA3
   17    18	 1 ;       NG3P3       HGP2
   17    19	 1 ;       NG3P3       HGP2
   17    20	 1 ;       NG3P3       HGP2
   21    22	 1 ;       CG321     CG2R61
   21    55	 1 ;       CG321       HGA2
   21    56	 1 ;       CG321       HGA2
   22    27	 1 ;      CG2R61     CG2R61
   22    23	 1 ;      CG2R61     CG2R61
   23    24	 1 ;      CG2R61     CG2R61
   23    57	 1 ;      CG2R61      HGR61
   24    25	 1 ;      CG2R61     CG2R61
   24    58	 1 ;      CG2R61      HGR61
   25    26	 1 ;      CG2R61     CG2R61
   25    59	 1 ;      CG2R61      HGR61
   26    27	 1 ;      CG2R61     CG2R61
   26    60	 1 ;      CG2R61      HGR61
   27    61	 1 ;      CG2R61      HGR61
   28    29	 1 ;       NG301      CG331
   28    30	 1 ;       NG301      SG3O2
   29    62	 1 ;       CG331       HGA3
   29    63	 1 ;       CG331       HGA3
   29    64	 1 ;       CG331       HGA3
   30    33	 1 ;       SG3O2      CG331
   30    31	 1 ;       SG3O2      OG2P1
   30    32	 1 ;       SG3O2      OG2P1
   33    65	 1 ;       CG331       HGA3
   33    66	 1 ;       CG331       HGA3
   33    67	 1 ;       CG331       HGA3
   34    36	 1 ;       CG2O1      NG2S1
   34    35	 1 ;       CG2O1      OG2D1
   36    38	 1 ;       NG2S1      CG311
   36    37	 1 ;       NG2S1       HGP1
   38    39	 1 ;       CG311      CG331
   38    40	 1 ;       CG311     CG2R61
   38    68	 1 ;       CG311       HGA1
   39    69	 1 ;       CG331       HGA3
   39    70	 1 ;       CG331       HGA3
   39    71	 1 ;       CG331       HGA3
   40    41	 1 ;      CG2R61     CG2R61
   40    46	 1 ;      CG2R61     CG2R61
   41    42	 1 ;      CG2R61     CG2R61
   41    72	 1 ;      CG2R61      HGR61
   42    43	 1 ;      CG2R61     CG2R66
   42    73	 1 ;      CG2R61      HGR62
   43    44	 1 ;      CG2R66       FGR1
   43    45	 1 ;      CG2R66     CG2R61
   45    46	 1 ;      CG2R61     CG2R61
   45    74	 1 ;      CG2R61      HGR62
   46    75	 1 ;      CG2R61      HGR61

[ pairs ]
;	ai	  aj funct			  c0			c1			  c2			c3
    1     4	 1
    1     7	 1
    1    34	 1
    1    62	 1
    1    63	 1
    1    64	 1
    1    33	 1
    1    31	 1
    1    32	 1
    2     5	 1
    2    49	 1
    2    29	 1
    2    30	 1
    2    48	 1
    2     8	 1
    2    12	 1
    2    50	 1
    3     6	 1
    3    28	 1
    3    34	 1
    3    10	 1
    3     9	 1
    3    14	 1
    3    11	 1
    4    47	 1
    4     8	 1
    4    12	 1
    4    50	 1
    4    36	 1
    4    35	 1
    4    49	 1
    5    28	 1
    5     7	 1
    5    38	 1
    5    37	 1
    6    29	 1
    6    30	 1
    6    47	 1
    6    48	 1
    6    36	 1
    6    35	 1
    7    47	 1
    7    48	 1
    7    15	 1
    7    51	 1
    7    13	 1
    8    14	 1
    8    13	 1
    8    17	 1
    8    21	 1
    8    16	 1
    9    50	 1
    9    14	 1
    9    18	 1
    9    19	 1
    9    20	 1
    9    22	 1
    9    55	 1
    9    56	 1
    9    52	 1
    9    53	 1
    9    54	 1
   10    12	 1
   10    50	 1
   10    11	 1
   10    15	 1
   10    51	 1
   11    50	 1
   11    17	 1
   11    21	 1
   11    16	 1
   12    15	 1
   12    51	 1
   13    15	 1
   13    51	 1
   13    14	 1
   14    50	 1
   15    27	 1
   15    23	 1
   16    51	 1
   16    18	 1
   16    19	 1
   16    20	 1
   16    22	 1
   16    55	 1
   16    56	 1
   17    51	 1
   17    22	 1
   17    55	 1
   17    56	 1
   17    52	 1
   17    53	 1
   17    54	 1
   18    21	 1
   19    21	 1
   20    21	 1
   21    51	 1
   21    52	 1
   21    53	 1
   21    54	 1
   21    26	 1
   21    61	 1
   21    24	 1
   21    57	 1
   22    25	 1
   22    58	 1
   22    60	 1
   23    55	 1
   23    56	 1
   23    26	 1
   23    61	 1
   23    59	 1
   24    27	 1
   24    60	 1
   25    57	 1
   25    61	 1
   26    58	 1
   27    55	 1
   27    56	 1
   27    57	 1
   27    59	 1
   28    49	 1
   28    47	 1
   28    65	 1
   28    66	 1
   28    67	 1
   29    33	 1
   29    31	 1
   29    32	 1
   30    62	 1
   30    63	 1
   30    64	 1
   31    65	 1
   31    66	 1
   31    67	 1
   32    65	 1
   32    66	 1
   32    67	 1
   34    48	 1
   34    49	 1
   34    39	 1
   34    40	 1
   34    68	 1
   35    38	 1
   35    37	 1
   36    69	 1
   36    70	 1
   36    71	 1
   36    41	 1
   36    46	 1
   37    39	 1
   37    40	 1
   37    68	 1
   38    42	 1
   38    72	 1
   38    45	 1
   38    75	 1
   39    41	 1
   39    46	 1
   40    69	 1
   40    70	 1
   40    71	 1
   40    43	 1
   40    73	 1
   40    74	 1
   41    68	 1
   41    45	 1
   41    75	 1
   41    44	 1
   42    46	 1
   42    74	 1
   43    72	 1
   43    75	 1
   44    73	 1
   44    46	 1
   44    74	 1
   45    73	 1
   46    68	 1
   46    72	 1
   57    58	 1
   58    59	 1
   59    60	 1
   60    61	 1
   68    69	 1
   68    70	 1
   68    71	 1
   72    73	 1
   74    75	 1

[ angles ]
;	ai	  aj	ak funct			c0			  c1			c2			  c3
    6     1    28	5 ;     CG2R61     CG2R61      NG301
    6     1     2	5 ;     CG2R61     CG2R61     CG2R61
   28     1     2	5 ;      NG301     CG2R61     CG2R61
    1     2     3	5 ;     CG2R61     CG2R61     CG2R61
    1     2    47	5 ;     CG2R61     CG2R61      HGR61
    3     2    47	5 ;     CG2R61     CG2R61      HGR61
    4     3     2	5 ;     CG2R61     CG2R61     CG2R61
    4     3     7	5 ;     CG2R61     CG2R61     CG3C51
    2     3     7	5 ;     CG2R61     CG2R61     CG3C51
    5     4     3	5 ;     CG2R61     CG2R61     CG2R61
    5     4    48	5 ;     CG2R61     CG2R61      HGR61
    3     4    48	5 ;     CG2R61     CG2R61      HGR61
   34     5     6	5 ;      CG2O1     CG2R61     CG2R61
   34     5     4	5 ;      CG2O1     CG2R61     CG2R61
    6     5     4	5 ;     CG2R61     CG2R61     CG2R61
    5     6     1	5 ;     CG2R61     CG2R61     CG2R61
    5     6    49	5 ;     CG2R61     CG2R61      HGR61
    1     6    49	5 ;     CG2R61     CG2R61      HGR61
    3     7     8	5 ;     CG2R61     CG3C51     NG3C51
    3     7    12	5 ;     CG2R61     CG3C51     NG3C51
    3     7    50	5 ;     CG2R61     CG3C51       HGA1
    8     7    12	5 ;     NG3C51     CG3C51     NG3C51
    8     7    50	5 ;     NG3C51     CG3C51       HGA1
   12     7    50	5 ;     NG3C51     CG3C51       HGA1
   10     8     7	5 ;       HGP1     NG3C51     CG3C51
   10     8     9	5 ;       HGP1     NG3C51     CG3C51
    7     8     9	5 ;     CG3C51     NG3C51     CG3C51
    8     9    11	5 ;     NG3C51     CG3C51     NG3C51
    8     9    15	5 ;     NG3C51     CG3C51      CG301
    8     9    51	5 ;     NG3C51     CG3C51       HGA1
   11     9    15	5 ;     NG3C51     CG3C51      CG301
   11     9    51	5 ;     NG3C51     CG3C51       HGA1
   15     9    51	5 ;      CG301     CG3C51       HGA1
   12    11     9	5 ;     NG3C51     NG3C51     CG3C51
   12    11    13	5 ;     NG3C51     NG3C51       HGP1
    9    11    13	5 ;     CG3C51     NG3C51       HGP1
    7    12    14	5 ;     CG3C51     NG3C51       HGP1
    7    12    11	5 ;     CG3C51     NG3C51     NG3C51
   14    12    11	5 ;       HGP1     NG3C51     NG3C51
    9    15    17	5 ;     CG3C51      CG301      NG3P3
    9    15    21	5 ;     CG3C51      CG301      CG321
    9    15    16	5 ;     CG3C51      CG301      CG331
   17    15    21	5 ;      NG3P3      CG301      CG321
   17    15    16	5 ;      NG3P3      CG301      CG331
   21    15    16	5 ;      CG321      CG301      CG331
   15    16    52	5 ;      CG301      CG331       HGA3
   15    16    53	5 ;      CG301      CG331       HGA3
   15    16    54	5 ;      CG301      CG331       HGA3
   52    16    53	5 ;       HGA3      CG331       HGA3
   52    16    54	5 ;       HGA3      CG331       HGA3
   53    16    54	5 ;       HGA3      CG331       HGA3
   18    17    19	5 ;       HGP2      NG3P3       HGP2
   18    17    20	5 ;       HGP2      NG3P3       HGP2
   18    17    15	5 ;       HGP2      NG3P3      CG301
   19    17    20	5 ;       HGP2      NG3P3       HGP2
   19    17    15	5 ;       HGP2      NG3P3      CG301
   20    17    15	5 ;       HGP2      NG3P3      CG301
   15    21    22	5 ;      CG301      CG321     CG2R61
   15    21    55	5 ;      CG301      CG321       HGA2
   15    21    56	5 ;      CG301      CG321       HGA2
   22    21    55	5 ;     CG2R61      CG321       HGA2
   22    21    56	5 ;     CG2R61      CG321       HGA2
   55    21    56	5 ;       HGA2      CG321       HGA2
   21    22    27	5 ;      CG321     CG2R61     CG2R61
   21    22    23	5 ;      CG321     CG2R61     CG2R61
   27    22    23	5 ;     CG2R61     CG2R61     CG2R61
   22    23    24	5 ;     CG2R61     CG2R61     CG2R61
   22    23    57	5 ;     CG2R61     CG2R61      HGR61
   24    23    57	5 ;     CG2R61     CG2R61      HGR61
   23    24    25	5 ;     CG2R61     CG2R61     CG2R61
   23    24    58	5 ;     CG2R61     CG2R61      HGR61
   25    24    58	5 ;     CG2R61     CG2R61      HGR61
   26    25    24	5 ;     CG2R61     CG2R61     CG2R61
   26    25    59	5 ;     CG2R61     CG2R61      HGR61
   24    25    59	5 ;     CG2R61     CG2R61      HGR61
   27    26    25	5 ;     CG2R61     CG2R61     CG2R61
   27    26    60	5 ;     CG2R61     CG2R61      HGR61
   25    26    60	5 ;     CG2R61     CG2R61      HGR61
   22    27    26	5 ;     CG2R61     CG2R61     CG2R61
   22    27    61	5 ;     CG2R61     CG2R61      HGR61
   26    27    61	5 ;     CG2R61     CG2R61      HGR61
   29    28    30	5 ;      CG331      NG301      SG3O2
   29    28     1	5 ;      CG331      NG301     CG2R61
   30    28     1	5 ;      SG3O2      NG301     CG2R61
   28    29    62	5 ;      NG301      CG331       HGA3
   28    29    63	5 ;      NG301      CG331       HGA3
   28    29    64	5 ;      NG301      CG331       HGA3
   62    29    63	5 ;       HGA3      CG331       HGA3
   62    29    64	5 ;       HGA3      CG331       HGA3
   63    29    64	5 ;       HGA3      CG331       HGA3
   33    30    31	5 ;      CG331      SG3O2      OG2P1
   33    30    28	5 ;      CG331      SG3O2      NG301
   33    30    32	5 ;      CG331      SG3O2      OG2P1
   31    30    28	5 ;      OG2P1      SG3O2      NG301
   31    30    32	5 ;      OG2P1      SG3O2      OG2P1
   28    30    32	5 ;      NG301      SG3O2      OG2P1
   30    33    65	5 ;      SG3O2      CG331       HGA3
   30    33    66	5 ;      SG3O2      CG331       HGA3
   30    33    67	5 ;      SG3O2      CG331       HGA3
   65    33    66	5 ;       HGA3      CG331       HGA3
   65    33    67	5 ;       HGA3      CG331       HGA3
   66    33    67	5 ;       HGA3      CG331       HGA3
   36    34    35	5 ;      NG2S1      CG2O1      OG2D1
   36    34     5	5 ;      NG2S1      CG2O1     CG2R61
   35    34     5	5 ;      OG2D1      CG2O1     CG2R61
   38    36    37	5 ;      CG311      NG2S1       HGP1
   38    36    34	5 ;      CG311      NG2S1      CG2O1
   37    36    34	5 ;       HGP1      NG2S1      CG2O1
   39    38    40	5 ;      CG331      CG311     CG2R61
   39    38    36	5 ;      CG331      CG311      NG2S1
   39    38    68	5 ;      CG331      CG311       HGA1
   40    38    36	5 ;     CG2R61      CG311      NG2S1
   40    38    68	5 ;     CG2R61      CG311       HGA1
   36    38    68	5 ;      NG2S1      CG311       HGA1
   38    39    69	5 ;      CG311      CG331       HGA3
   38    39    70	5 ;      CG311      CG331       HGA3
   38    39    71	5 ;      CG311      CG331       HGA3
   69    39    70	5 ;       HGA3      CG331       HGA3
   69    39    71	5 ;       HGA3      CG331       HGA3
   70    39    71	5 ;       HGA3      CG331       HGA3
   38    40    41	5 ;      CG311     CG2R61     CG2R61
   38    40    46	5 ;      CG311     CG2R61     CG2R61
   41    40    46	5 ;     CG2R61     CG2R61     CG2R61
   40    41    42	5 ;     CG2R61     CG2R61     CG2R61
   40    41    72	5 ;     CG2R61     CG2R61      HGR61
   42    41    72	5 ;     CG2R61     CG2R61      HGR61
   41    42    43	5 ;     CG2R61     CG2R61     CG2R66
   41    42    73	5 ;     CG2R61     CG2R61      HGR62
   43    42    73	5 ;     CG2R66     CG2R61      HGR62
   42    43    44	5 ;     CG2R61     CG2R66       FGR1
   42    43    45	5 ;     CG2R61     CG2R66     CG2R61
   44    43    45	5 ;       FGR1     CG2R66     CG2R61
   46    45    43	5 ;     CG2R61     CG2R61     CG2R66
   46    45    74	5 ;     CG2R61     CG2R61      HGR62
   43    45    74	5 ;     CG2R66     CG2R61      HGR62
   40    46    45	5 ;     CG2R61     CG2R61     CG2R61
   40    46    75	5 ;     CG2R61     CG2R61      HGR61
   45    46    75	5 ;     CG2R61     CG2R61      HGR61

[ dihedrals ]
;	ai	  aj	ak	  al funct			  c0			c1			  c2			c3			  c4			c5
   28     1     6     5	 9 ;      NG301     CG2R61     CG2R61     CG2R61
   28     1     6    49	 9 ;      NG301     CG2R61     CG2R61      HGR61
    2     1     6     5	 9 ;     CG2R61     CG2R61     CG2R61     CG2R61
    2     1     6    49	 9 ;     CG2R61     CG2R61     CG2R61      HGR61
    6     1    28    29	 9 ;     CG2R61     CG2R61      NG301      CG331
    6     1    28    30	 9 ;     CG2R61     CG2R61      NG301      SG3O2
    2     1    28    29	 9 ;     CG2R61     CG2R61      NG301      CG331
    2     1    28    30	 9 ;     CG2R61     CG2R61      NG301      SG3O2
    6     1     2     3	 9 ;     CG2R61     CG2R61     CG2R61     CG2R61
    6     1     2    47	 9 ;     CG2R61     CG2R61     CG2R61      HGR61
   28     1     2     3	 9 ;      NG301     CG2R61     CG2R61     CG2R61
   28     1     2    47	 9 ;      NG301     CG2R61     CG2R61      HGR61
    1     2     3     4	 9 ;     CG2R61     CG2R61     CG2R61     CG2R61
    1     2     3     7	 9 ;     CG2R61     CG2R61     CG2R61     CG3C51
   47     2     3     4	 9 ;      HGR61     CG2R61     CG2R61     CG2R61
   47     2     3     7	 9 ;      HGR61     CG2R61     CG2R61     CG3C51
    2     3     4     5	 9 ;     CG2R61     CG2R61     CG2R61     CG2R61
    2     3     4    48	 9 ;     CG2R61     CG2R61     CG2R61      HGR61
    7     3     4     5	 9 ;     CG3C51     CG2R61     CG2R61     CG2R61
    7     3     4    48	 9 ;     CG3C51     CG2R61     CG2R61      HGR61
    4     3     7     8	 9 ;     CG2R61     CG2R61     CG3C51     NG3C51
    4     3     7    12	 9 ;     CG2R61     CG2R61     CG3C51     NG3C51
    4     3     7    50	 9 ;     CG2R61     CG2R61     CG3C51       HGA1
    2     3     7     8	 9 ;     CG2R61     CG2R61     CG3C51     NG3C51
    2     3     7    12	 9 ;     CG2R61     CG2R61     CG3C51     NG3C51
    2     3     7    50	 9 ;     CG2R61     CG2R61     CG3C51       HGA1
    3     4     5    34	 9 ;     CG2R61     CG2R61     CG2R61      CG2O1
    3     4     5     6	 9 ;     CG2R61     CG2R61     CG2R61     CG2R61
   48     4     5    34	 9 ;      HGR61     CG2R61     CG2R61      CG2O1
   48     4     5     6	 9 ;      HGR61     CG2R61     CG2R61     CG2R61
    6     5    34    36	 9 ;     CG2R61     CG2R61      CG2O1      NG2S1
    6     5    34    35	 9 ;     CG2R61     CG2R61      CG2O1      OG2D1
    4     5    34    36	 9 ;     CG2R61     CG2R61      CG2O1      NG2S1
    4     5    34    35	 9 ;     CG2R61     CG2R61      CG2O1      OG2D1
   34     5     6     1	 9 ;      CG2O1     CG2R61     CG2R61     CG2R61
   34     5     6    49	 9 ;      CG2O1     CG2R61     CG2R61      HGR61
    4     5     6     1	 9 ;     CG2R61     CG2R61     CG2R61     CG2R61
    4     5     6    49	 9 ;     CG2R61     CG2R61     CG2R61      HGR61
    3     7     8    10	 9 ;     CG2R61     CG3C51     NG3C51       HGP1
    3     7     8     9	 9 ;     CG2R61     CG3C51     NG3C51     CG3C51
   12     7     8    10	 9 ;     NG3C51     CG3C51     NG3C51       HGP1
   12     7     8     9	 9 ;     NG3C51     CG3C51     NG3C51     CG3C51
   50     7     8    10	 9 ;       HGA1     CG3C51     NG3C51       HGP1
   50     7     8     9	 9 ;       HGA1     CG3C51     NG3C51     CG3C51
    3     7    12    14	 9 ;     CG2R61     CG3C51     NG3C51       HGP1
    3     7    12    11	 9 ;     CG2R61     CG3C51     NG3C51     NG3C51
    8     7    12    14	 9 ;     NG3C51     CG3C51     NG3C51       HGP1
    8     7    12    11	 9 ;     NG3C51     CG3C51     NG3C51     NG3C51
   50     7    12    14	 9 ;       HGA1     CG3C51     NG3C51       HGP1
   50     7    12    11	 9 ;       HGA1     CG3C51     NG3C51     NG3C51
   10     8     9    11	 9 ;       HGP1     NG3C51     CG3C51     NG3C51
   10     8     9    15	 9 ;       HGP1     NG3C51     CG3C51      CG301
   10     8     9    51	 9 ;       HGP1     NG3C51     CG3C51       HGA1
    7     8     9    11	 9 ;     CG3C51     NG3C51     CG3C51     NG3C51
    7     8     9    15	 9 ;     CG3C51     NG3C51     CG3C51      CG301
    7     8     9    51	 9 ;     CG3C51     NG3C51     CG3C51       HGA1
    8     9    11    12	 9 ;     NG3C51     CG3C51     NG3C51     NG3C51
    8     9    11    13	 9 ;     NG3C51     CG3C51     NG3C51       HGP1
   15     9    11    12	 9 ;      CG301     CG3C51     NG3C51     NG3C51
   15     9    11    13	 9 ;      CG301     CG3C51     NG3C51       HGP1
   51     9    11    12	 9 ;       HGA1     CG3C51     NG3C51     NG3C51
   51     9    11    13	 9 ;       HGA1     CG3C51     NG3C51       HGP1
    8     9    15    17	 9 ;     NG3C51     CG3C51      CG301      NG3P3
    8     9    15    21	 9 ;     NG3C51     CG3C51      CG301      CG321
    8     9    15    16	 9 ;     NG3C51     CG3C51      CG301      CG331
   11     9    15    17	 9 ;     NG3C51     CG3C51      CG301      NG3P3
   11     9    15    21	 9 ;     NG3C51     CG3C51      CG301      CG321
   11     9    15    16	 9 ;     NG3C51     CG3C51      CG301      CG331
   51     9    15    17	 9 ;       HGA1     CG3C51      CG301      NG3P3
   51     9    15    21	 9 ;       HGA1     CG3C51      CG301      CG321
   51     9    15    16	 9 ;       HGA1     CG3C51      CG301      CG331
    9    11    12     7	 9 ;     CG3C51     NG3C51     NG3C51     CG3C51
    9    11    12    14	 9 ;     CG3C51     NG3C51     NG3C51       HGP1
   13    11    12     7	 9 ;       HGP1     NG3C51     NG3C51     CG3C51
   13    11    12    14	 9 ;       HGP1     NG3C51     NG3C51       HGP1
    9    15    17    18	 9 ;     CG3C51      CG301      NG3P3       HGP2
    9    15    17    19	 9 ;     CG3C51      CG301      NG3P3       HGP2
    9    15    17    20	 9 ;     CG3C51      CG301      NG3P3       HGP2
   21    15    17    18	 9 ;      CG321      CG301      NG3P3       HGP2
   21    15    17    19	 9 ;      CG321      CG301      NG3P3       HGP2
   21    15    17    20	 9 ;      CG321      CG301      NG3P3       HGP2
   16    15    17    18	 9 ;      CG331      CG301      NG3P3       HGP2
   16    15    17    19	 9 ;      CG331      CG301      NG3P3       HGP2
   16    15    17    20	 9 ;      CG331      CG301      NG3P3       HGP2
    9    15    21    22	 9 ;     CG3C51      CG301      CG321     CG2R61
    9    15    21    55	 9 ;     CG3C51      CG301      CG321       HGA2
    9    15    21    56	 9 ;     CG3C51      CG301      CG321       HGA2
   17    15    21    22	 9 ;      NG3P3      CG301      CG321     CG2R61
   17    15    21    55	 9 ;      NG3P3      CG301      CG321       HGA2
   17    15    21    56	 9 ;      NG3P3      CG301      CG321       HGA2
   16    15    21    22	 9 ;      CG331      CG301      CG321     CG2R61
   16    15    21    55	 9 ;      CG331      CG301      CG321       HGA2
   16    15    21    56	 9 ;      CG331      CG301      CG321       HGA2
    9    15    16    52	 9 ;     CG3C51      CG301      CG331       HGA3
    9    15    16    53	 9 ;     CG3C51      CG301      CG331       HGA3
    9    15    16    54	 9 ;     CG3C51      CG301      CG331       HGA3
   17    15    16    52	 9 ;      NG3P3      CG301      CG331       HGA3
   17    15    16    53	 9 ;      NG3P3      CG301      CG331       HGA3
   17    15    16    54	 9 ;      NG3P3      CG301      CG331       HGA3
   21    15    16    52	 9 ;      CG321      CG301      CG331       HGA3
   21    15    16    53	 9 ;      CG321      CG301      CG331       HGA3
   21    15    16    54	 9 ;      CG321      CG301      CG331       HGA3
   15    21    22    27	 9 ;      CG301      CG321     CG2R61     CG2R61
   15    21    22    23	 9 ;      CG301      CG321     CG2R61     CG2R61
   55    21    22    27	 9 ;       HGA2      CG321     CG2R61     CG2R61
   55    21    22    23	 9 ;       HGA2      CG321     CG2R61     CG2R61
   56    21    22    27	 9 ;       HGA2      CG321     CG2R61     CG2R61
   56    21    22    23	 9 ;       HGA2      CG321     CG2R61     CG2R61
   21    22    27    26	 9 ;      CG321     CG2R61     CG2R61     CG2R61
   21    22    27    61	 9 ;      CG321     CG2R61     CG2R61      HGR61
   23    22    27    26	 9 ;     CG2R61     CG2R61     CG2R61     CG2R61
   23    22    27    61	 9 ;     CG2R61     CG2R61     CG2R61      HGR61
   21    22    23    24	 9 ;      CG321     CG2R61     CG2R61     CG2R61
   21    22    23    57	 9 ;      CG321     CG2R61     CG2R61      HGR61
   27    22    23    24	 9 ;     CG2R61     CG2R61     CG2R61     CG2R61
   27    22    23    57	 9 ;     CG2R61     CG2R61     CG2R61      HGR61
   22    23    24    25	 9 ;     CG2R61     CG2R61     CG2R61     CG2R61
   22    23    24    58	 9 ;     CG2R61     CG2R61     CG2R61      HGR61
   57    23    24    25	 9 ;      HGR61     CG2R61     CG2R61     CG2R61
   57    23    24    58	 9 ;      HGR61     CG2R61     CG2R61      HGR61
   23    24    25    26	 9 ;     CG2R61     CG2R61     CG2R61     CG2R61
   23    24    25    59	 9 ;     CG2R61     CG2R61     CG2R61      HGR61
   58    24    25    26	 9 ;      HGR61     CG2R61     CG2R61     CG2R61
   58    24    25    59	 9 ;      HGR61     CG2R61     CG2R61      HGR61
   24    25    26    27	 9 ;     CG2R61     CG2R61     CG2R61     CG2R61
   24    25    26    60	 9 ;     CG2R61     CG2R61     CG2R61      HGR61
   59    25    26    27	 9 ;      HGR61     CG2R61     CG2R61     CG2R61
   59    25    26    60	 9 ;      HGR61     CG2R61     CG2R61      HGR61
   25    26    27    22	 9 ;     CG2R61     CG2R61     CG2R61     CG2R61
   25    26    27    61	 9 ;     CG2R61     CG2R61     CG2R61      HGR61
   60    26    27    22	 9 ;      HGR61     CG2R61     CG2R61     CG2R61
   60    26    27    61	 9 ;      HGR61     CG2R61     CG2R61      HGR61
   30    28    29    62	 9 ;      SG3O2      NG301      CG331       HGA3
   30    28    29    63	 9 ;      SG3O2      NG301      CG331       HGA3
   30    28    29    64	 9 ;      SG3O2      NG301      CG331       HGA3
    1    28    29    62	 9 ;     CG2R61      NG301      CG331       HGA3
    1    28    29    63	 9 ;     CG2R61      NG301      CG331       HGA3
    1    28    29    64	 9 ;     CG2R61      NG301      CG331       HGA3
   29    28    30    33	 9 ;      CG331      NG301      SG3O2      CG331
   29    28    30    31	 9 ;      CG331      NG301      SG3O2      OG2P1
   29    28    30    32	 9 ;      CG331      NG301      SG3O2      OG2P1
    1    28    30    33	 9 ;     CG2R61      NG301      SG3O2      CG331
    1    28    30    31	 9 ;     CG2R61      NG301      SG3O2      OG2P1
    1    28    30    32	 9 ;     CG2R61      NG301      SG3O2      OG2P1
   31    30    33    65	 9 ;      OG2P1      SG3O2      CG331       HGA3
   31    30    33    66	 9 ;      OG2P1      SG3O2      CG331       HGA3
   31    30    33    67	 9 ;      OG2P1      SG3O2      CG331       HGA3
   28    30    33    65	 9 ;      NG301      SG3O2      CG331       HGA3
   28    30    33    66	 9 ;      NG301      SG3O2      CG331       HGA3
   28    30    33    67	 9 ;      NG301      SG3O2      CG331       HGA3
   32    30    33    65	 9 ;      OG2P1      SG3O2      CG331       HGA3
   32    30    33    66	 9 ;      OG2P1      SG3O2      CG331       HGA3
   32    30    33    67	 9 ;      OG2P1      SG3O2      CG331       HGA3
   35    34    36    38	 9 ;      OG2D1      CG2O1      NG2S1      CG311
   35    34    36    37	 9 ;      OG2D1      CG2O1      NG2S1       HGP1
    5    34    36    38	 9 ;     CG2R61      CG2O1      NG2S1      CG311
    5    34    36    37	 9 ;     CG2R61      CG2O1      NG2S1       HGP1
   37    36    38    39	 9 ;       HGP1      NG2S1      CG311      CG331
   37    36    38    40	 9 ;       HGP1      NG2S1      CG311     CG2R61
   37    36    38    68	 9 ;       HGP1      NG2S1      CG311       HGA1
   34    36    38    39	 9 ;      CG2O1      NG2S1      CG311      CG331
   34    36    38    40	 9 ;      CG2O1      NG2S1      CG311     CG2R61
   34    36    38    68	 9 ;      CG2O1      NG2S1      CG311       HGA1
   40    38    39    69	 9 ;     CG2R61      CG311      CG331       HGA3
   40    38    39    70	 9 ;     CG2R61      CG311      CG331       HGA3
   40    38    39    71	 9 ;     CG2R61      CG311      CG331       HGA3
   36    38    39    69	 9 ;      NG2S1      CG311      CG331       HGA3
   36    38    39    70	 9 ;      NG2S1      CG311      CG331       HGA3
   36    38    39    71	 9 ;      NG2S1      CG311      CG331       HGA3
   68    38    39    69	 9 ;       HGA1      CG311      CG331       HGA3
   68    38    39    70	 9 ;       HGA1      CG311      CG331       HGA3
   68    38    39    71	 9 ;       HGA1      CG311      CG331       HGA3
   39    38    40    41	 9 ;      CG331      CG311     CG2R61     CG2R61
   39    38    40    46	 9 ;      CG331      CG311     CG2R61     CG2R61
   36    38    40    41	 9 ;      NG2S1      CG311     CG2R61     CG2R61
   36    38    40    46	 9 ;      NG2S1      CG311     CG2R61     CG2R61
   68    38    40    41	 9 ;       HGA1      CG311     CG2R61     CG2R61
   68    38    40    46	 9 ;       HGA1      CG311     CG2R61     CG2R61
   38    40    41    42	 9 ;      CG311     CG2R61     CG2R61     CG2R61
   38    40    41    72	 9 ;      CG311     CG2R61     CG2R61      HGR61
   46    40    41    42	 9 ;     CG2R61     CG2R61     CG2R61     CG2R61
   46    40    41    72	 9 ;     CG2R61     CG2R61     CG2R61      HGR61
   38    40    46    45	 9 ;      CG311     CG2R61     CG2R61     CG2R61
   38    40    46    75	 9 ;      CG311     CG2R61     CG2R61      HGR61
   41    40    46    45	 9 ;     CG2R61     CG2R61     CG2R61     CG2R61
   41    40    46    75	 9 ;     CG2R61     CG2R61     CG2R61      HGR61
   40    41    42    43	 9 ;     CG2R61     CG2R61     CG2R61     CG2R66
   40    41    42    73	 9 ;     CG2R61     CG2R61     CG2R61      HGR62
   72    41    42    43	 9 ;      HGR61     CG2R61     CG2R61     CG2R66
   72    41    42    73	 9 ;      HGR61     CG2R61     CG2R61      HGR62
   41    42    43    44	 9 ;     CG2R61     CG2R61     CG2R66       FGR1
   41    42    43    45	 9 ;     CG2R61     CG2R61     CG2R66     CG2R61
   73    42    43    44	 9 ;      HGR62     CG2R61     CG2R66       FGR1
   73    42    43    45	 9 ;      HGR62     CG2R61     CG2R66     CG2R61
   42    43    45    46	 9 ;     CG2R61     CG2R66     CG2R61     CG2R61
   42    43    45    74	 9 ;     CG2R61     CG2R66     CG2R61      HGR62
   44    43    45    46	 9 ;       FGR1     CG2R66     CG2R61     CG2R61
   44    43    45    74	 9 ;       FGR1     CG2R66     CG2R61      HGR62
   43    45    46    40	 9 ;     CG2R66     CG2R61     CG2R61     CG2R61
   43    45    46    75	 9 ;     CG2R66     CG2R61     CG2R61      HGR61
   74    45    46    40	 9 ;      HGR62     CG2R61     CG2R61     CG2R61
   74    45    46    75	 9 ;      HGR62     CG2R61     CG2R61      HGR61

[ dihedrals ]
;	ai	  aj	ak	  al funct			  c0			c1			  c2			c3
   34     5    36    35	 2

