GROwing Monsters And Cloning Shrimps
   75
    1LIG     C1    1  -1.626   0.607  -1.495
    1LIG     C2    2  -1.635   0.570  -1.361
    1LIG     C3    3  -1.572   0.454  -1.315
    1LIG     C4    4  -1.500   0.374  -1.406
    1LIG     C5    5  -1.492   0.410  -1.541
    1LIG     C6    6  -1.555   0.528  -1.585
    1LIG     C7    7  -1.585   0.414  -1.176
    1LIG     N1    8  -1.683   0.328  -1.132
    1LIG     C8    9  -1.670   0.331  -1.000
    1LIG    HN1   10  -1.750   0.274  -1.187
    1LIG     N2   11  -1.562   0.409  -0.969
    1LIG     N3   12  -1.508   0.462  -1.078
    1LIG     H1   13  -1.520   0.431  -0.879
    1LIG    HN2   14  -1.428   0.525  -1.085
    1LIG     C9   15  -1.759   0.258  -0.905
    1LIG    C10   16  -1.746   0.324  -0.766
    1LIG     N4   17  -1.901   0.283  -0.947
    1LIG     H2   18  -1.908   0.295  -1.049
    1LIG     H3   19  -1.968   0.212  -0.915
    1LIG     H4   20  -1.930   0.375  -0.909
    1LIG    C11   21  -1.732   0.105  -0.891
    1LIG    C12   22  -1.620   0.062  -0.799
    1LIG    C13   23  -1.620  -0.067  -0.742
    1LIG    C14   24  -1.518  -0.108  -0.657
    1LIG    C15   25  -1.412  -0.022  -0.628
    1LIG    C16   26  -1.408   0.104  -0.686
    1LIG    C17   27  -1.510   0.145  -0.772
    1LIG     N5   28  -1.694   0.724  -1.540
    1LIG    C18   29  -1.837   0.716  -1.572
    1LIG      S   30  -1.614   0.872  -1.537
    1LIG     O1   31  -1.482   0.851  -1.594
    1LIG     O2   32  -1.631   0.932  -1.407
    1LIG    C19   33  -1.707   0.968  -1.655
    1LIG    C20   34  -1.420   0.318  -1.634
    1LIG     O3   35  -1.462   0.206  -1.656
    1LIG     N6   36  -1.310   0.373  -1.695
    1LIG     H5   37  -1.290   0.471  -1.681
    1LIG    C21   38  -1.224   0.303  -1.791
    1LIG    C22   39  -1.304   0.256  -1.912
    1LIG    C23   40  -1.158   0.186  -1.719
    1LIG    C24   41  -1.168   0.056  -1.771
    1LIG    C25   42  -1.099  -0.050  -1.711
    1LIG    C26   43  -1.020  -0.025  -1.599
    1LIG      F   44  -0.951  -0.126  -1.543
    1LIG    C27   45  -1.012   0.102  -1.543
    1LIG    C28   46  -1.082   0.207  -1.602
    1LIG     H6   47  -1.689   0.628  -1.295
    1LIG     H7   48  -1.452   0.289  -1.373
    1LIG     H8   49  -1.548   0.556  -1.684
    1LIG     H9   50  -1.546   0.408  -1.275
    1LIG    H10   51  -1.727   0.289  -0.921
    1LIG    H11   52  -1.765   0.429  -0.774
    1LIG    H12   53  -1.648   0.309  -0.728
    1LIG    H13   54  -1.817   0.280  -0.699
    1LIG    H14   55  -1.708   0.068  -0.989
    1LIG    H15   56  -1.820   0.066  -0.846
    1LIG    H16   57  -1.697  -0.132  -0.764
    1LIG    H17   58  -1.521  -0.202  -0.615
    1LIG    H18   59  -1.337  -0.052  -0.564
    1LIG    H19   60  -1.329   0.168  -0.666
    1LIG    H20   61  -1.505   0.238  -0.817
    1LIG    H21   62  -1.871   0.812  -1.605
    1LIG    H22   63  -1.891   0.687  -1.485
    1LIG    H23   64  -1.853   0.645  -1.650
    1LIG    H24   65  -1.696   0.926  -1.752
    1LIG    H25   66  -1.671   1.069  -1.655
    1LIG    H26   67  -1.811   0.968  -1.627
    1LIG    H27   68  -1.148   0.370  -1.827
    1LIG    H28   69  -1.381   0.189  -1.880
    1LIG    H29   70  -1.239   0.206  -1.980
    1LIG    H30   71  -1.348   0.340  -1.961
    1LIG    H31   72  -1.226   0.038  -1.855
    1LIG    H32   73  -1.106  -0.145  -1.749
    1LIG    H33   74  -0.954   0.118  -1.459
    1LIG    H34   75  -1.078   0.301  -1.560
   0.00000   0.00000   0.00000
