Great Red Owns Many ACres of Sand 
   73
    1LIG     N1    1  -1.378   0.567  -1.693
    1LIG     H1    2  -1.345   0.557  -1.789
    1LIG     H2    3  -1.383   0.470  -1.657
    1LIG     C1    4  -1.268   0.631  -1.615
    1LIG     C2    5  -1.189   0.523  -1.536
    1LIG     O1    6  -1.158   0.580  -1.408
    1LIG     H3    7  -1.063   0.604  -1.408
    1LIG     C3    8  -1.260   0.384  -1.520
    1LIG     N2    9  -1.179   0.280  -1.585
    1LIG     C4   10  -1.196   0.244  -1.717
    1LIG     O2   11  -1.281   0.295  -1.788
    1LIG     C5   12  -1.090   0.149  -1.766
    1LIG     H4   13  -1.106   0.234  -1.532
    1LIG     C6   14  -1.283   0.347  -1.371
    1LIG     C7   15  -1.257   0.201  -1.338
    1LIG     C8   16  -1.348   0.102  -1.377
    1LIG     C9   17  -1.329  -0.031  -1.337
    1LIG     F1   18  -1.419  -0.123  -1.372
    1LIG    C10   19  -1.219  -0.068  -1.261
    1LIG    C11   20  -1.127   0.030  -1.227
    1LIG    C12   21  -1.144   0.163  -1.265
    1LIG     F2   22  -1.019  -0.004  -1.156
    1LIG    C13   23  -1.520   0.622  -1.702
    1LIG    C14   24  -1.559   0.647  -1.850
    1LIG    C15   25  -1.512   0.779  -1.912
    1LIG    C16   26  -1.537   0.899  -1.821
    1LIG     N3   27  -1.476   0.876  -1.689
    1LIG    C17   28  -1.537   0.758  -1.625
    1LIG     O3   29  -1.524   0.988  -1.609
    1LIG     H5   30  -1.619   0.968  -1.598
    1LIG    C18   31  -1.607   0.512  -1.637
    1LIG    C19   32  -1.720   0.545  -1.558
    1LIG    C20   33  -1.807   0.449  -1.504
    1LIG    C21   34  -1.781   0.314  -1.534
    1LIG    C22   35  -1.672   0.278  -1.613
    1LIG    C23   36  -1.586   0.375  -1.664
    1LIG    C24   37  -1.930   0.490  -1.421
    1LIG    C25   38  -1.881   0.533  -1.282
    1LIG    C26   39  -2.010   0.605  -1.485
    1LIG    C27   40  -2.031   0.373  -1.403
    1LIG    HC2   41  -1.311   0.703  -1.544
    1LIG    HC3   42  -1.201   0.683  -1.683
    1LIG     HC   43  -1.095   0.506  -1.588
    1LIG    HC1   44  -1.356   0.388  -1.571
    1LIG    HC4   45  -1.217   0.408  -1.309
    1LIG    HC5   46  -1.387   0.371  -1.345
    1LIG    HC6   47  -1.434   0.128  -1.437
    1LIG    HC7   48  -1.206  -0.170  -1.229
    1LIG    HC8   49  -1.070   0.237  -1.239
    1LIG    HC9   50  -1.518   0.566  -1.910
    1LIG   HC10   51  -1.668   0.643  -1.859
    1LIG   HC11   52  -1.564   0.795  -2.006
    1LIG   HC12   53  -1.405   0.772  -1.932
    1LIG   HC13   54  -1.493   0.988  -1.866
    1LIG   HC14   55  -1.644   0.913  -1.810
    1LIG   HC15   56  -1.644   0.777  -1.613
    1LIG   HC16   57  -1.494   0.747  -1.525
    1LIG   HC17   58  -1.740   0.650  -1.539
    1LIG   HC18   59  -1.846   0.237  -1.495
    1LIG   HC19   60  -1.653   0.174  -1.634
    1LIG   HC20   61  -1.502   0.345  -1.725
    1LIG   HC21   62  -1.110   0.124  -1.870
    1LIG   HC22   63  -0.992   0.195  -1.757
    1LIG   HC23   64  -1.093   0.058  -1.706
    1LIG   HC24   65  -1.810   0.615  -1.293
    1LIG   HC25   66  -1.966   0.566  -1.222
    1LIG   HC26   67  -1.832   0.449  -1.233
    1LIG   HC27   68  -1.944   0.691  -1.501
    1LIG   HC28   69  -2.050   0.573  -1.581
    1LIG   HC29   70  -2.092   0.634  -1.420
    1LIG   HC30   71  -1.980   0.288  -1.357
    1LIG   HC31   72  -2.071   0.344  -1.500
    1LIG   HC32   73  -2.113   0.405  -1.338
   0.00000   0.00000   0.00000
