; Created by cgenff_charmm2gmx.py

[ moleculetype ]
; Name			   nrexcl
LIG				 3

[ atoms ]
;	 nr		  type	resnr residue  atom   cgnr	   charge		mass  typeB    chargeB		massB
; residue	 1 LIG rtp LIG q	qsum
     1      NG3P2      1    LIG     N1      1     -0.450     14.007   ;
     2       HGP2      1    LIG     H1      2      0.341      1.008   ;
     3       HGP2      1    LIG     H2      3      0.341      1.008   ;
     4      CG324      1    LIG     C1      4      0.208     12.011   ;
     5      CG311      1    LIG     C2      5      0.089     12.011   ;
     6      OG311      1    LIG     O1      6     -0.625     15.999   ;
     7       HGP1      1    LIG     H3      7      0.415      1.008   ;
     8      CG311      1    LIG     C3      8     -0.007     12.011   ;
     9      NG2S1      1    LIG     N2      9     -0.339     14.007   ;
    10      CG2O1      1    LIG     C4     10      0.488     12.011   ;
    11      OG2D1      1    LIG     O2     11     -0.509     15.999   ;
    12      CG331      1    LIG     C5     12     -0.270     12.011   ;
    13       HGP1      1    LIG     H4     13      0.261      1.008   ;
    14      CG321      1    LIG     C6     14     -0.153     12.011   ;
    15     CG2R61      1    LIG     C7     15      0.057     12.011   ;
    16     CG2R61      1    LIG     C8     16     -0.218     12.011   ;
    17     CG2R66      1    LIG     C9     17      0.261     12.011   ;
    18       FGR1      1    LIG     F1     18     -0.210     18.998   ;
    19     CG2R61      1    LIG    C10     19     -0.240     12.011   ;
    20     CG2R66      1    LIG    C11     20      0.261     12.011   ;
    21     CG2R61      1    LIG    C12     21     -0.218     12.011   ;
    22       FGR1      1    LIG     F2     22     -0.210     18.998   ;
    23      CG301      1    LIG    C13     23      0.502     12.011   ;
    24      CG321      1    LIG    C14     24     -0.146     12.011   ;
    25      CG321      1    LIG    C15     25      0.048     12.011   ;
    26      CG321      1    LIG    C16     26     -0.047     12.011   ;
    27      NG301      1    LIG     N3     27     -0.566     14.007   ;
    28      CG321      1    LIG    C17     28     -0.134     12.011   ;
    29      OG311      1    LIG     O3     29     -0.520     15.999   ;
    30       HGP1      1    LIG     H5     30      0.457      1.008   ;
    31     CG2R61      1    LIG    C18     31      0.092     12.011   ;
    32     CG2R61      1    LIG    C19     32     -0.134     12.011   ;
    33     CG2R61      1    LIG    C20     33      0.082     12.011   ;
    34     CG2R61      1    LIG    C21     34     -0.121     12.011   ;
    35     CG2R61      1    LIG    C22     35     -0.110     12.011   ;
    36     CG2R61      1    LIG    C23     36     -0.129     12.011   ;
    37      CG301      1    LIG    C24     37     -0.018     12.011   ;
    38      CG331      1    LIG    C25     38     -0.289     12.011   ;
    39      CG331      1    LIG    C26     39     -0.289     12.011   ;
    40      CG331      1    LIG    C27     40     -0.289     12.011   ;
    41       HGA2      1    LIG    HC2     41      0.090      1.008   ;
    42       HGA2      1    LIG    HC3     42      0.090      1.008   ;
    43       HGA1      1    LIG     HC     43      0.090      1.008   ;
    44       HGA1      1    LIG    HC1     44      0.090      1.008   ;
    45       HGA2      1    LIG    HC4     45      0.090      1.008   ;
    46       HGA2      1    LIG    HC5     46      0.090      1.008   ;
    47      HGR62      1    LIG    HC6     47      0.174      1.008   ;
    48      HGR62      1    LIG    HC7     48      0.186      1.008   ;
    49      HGR62      1    LIG    HC8     49      0.174      1.008   ;
    50       HGA2      1    LIG    HC9     50      0.090      1.008   ;
    51       HGA2      1    LIG   HC10     51      0.090      1.008   ;
    52       HGA2      1    LIG   HC11     52      0.090      1.008   ;
    53       HGA2      1    LIG   HC12     53      0.090      1.008   ;
    54       HGA2      1    LIG   HC13     54      0.090      1.008   ;
    55       HGA2      1    LIG   HC14     55      0.090      1.008   ;
    56       HGA2      1    LIG   HC15     56      0.090      1.008   ;
    57       HGA2      1    LIG   HC16     57      0.090      1.008   ;
    58      HGR61      1    LIG   HC17     58      0.116      1.008   ;
    59      HGR61      1    LIG   HC18     59      0.116      1.008   ;
    60      HGR61      1    LIG   HC19     60      0.116      1.008   ;
    61      HGR61      1    LIG   HC20     61      0.116      1.008   ;
    62       HGA3      1    LIG   HC21     62      0.090      1.008   ;
    63       HGA3      1    LIG   HC22     63      0.090      1.008   ;
    64       HGA3      1    LIG   HC23     64      0.090      1.008   ;
    65       HGA3      1    LIG   HC24     65      0.090      1.008   ;
    66       HGA3      1    LIG   HC25     66      0.090      1.008   ;
    67       HGA3      1    LIG   HC26     67      0.090      1.008   ;
    68       HGA3      1    LIG   HC27     68      0.090      1.008   ;
    69       HGA3      1    LIG   HC28     69      0.090      1.008   ;
    70       HGA3      1    LIG   HC29     70      0.090      1.008   ;
    71       HGA3      1    LIG   HC30     71      0.090      1.008   ;
    72       HGA3      1    LIG   HC31     72      0.090      1.008   ;
    73       HGA3      1    LIG   HC32     73      0.090      1.008   ;

[ bonds ]
;	ai	  aj funct			  c0			c1			  c2			c3
    1     2	 1 ;       NG3P2       HGP2
    1     4	 1 ;       NG3P2      CG324
    1     3	 1 ;       NG3P2       HGP2
    1    23	 1 ;       NG3P2      CG301
    4     5	 1 ;       CG324      CG311
    4    41	 1 ;       CG324       HGA2
    4    42	 1 ;       CG324       HGA2
    5     8	 1 ;       CG311      CG311
    5     6	 1 ;       CG311      OG311
    5    43	 1 ;       CG311       HGA1
    6     7	 1 ;       OG311       HGP1
    8     9	 1 ;       CG311      NG2S1
    8    14	 1 ;       CG311      CG321
    8    44	 1 ;       CG311       HGA1
    9    10	 1 ;       NG2S1      CG2O1
    9    13	 1 ;       NG2S1       HGP1
   10    12	 1 ;       CG2O1      CG331
   10    11	 1 ;       CG2O1      OG2D1
   12    62	 1 ;       CG331       HGA3
   12    63	 1 ;       CG331       HGA3
   12    64	 1 ;       CG331       HGA3
   14    15	 1 ;       CG321     CG2R61
   14    45	 1 ;       CG321       HGA2
   14    46	 1 ;       CG321       HGA2
   15    21	 1 ;      CG2R61     CG2R61
   15    16	 1 ;      CG2R61     CG2R61
   16    17	 1 ;      CG2R61     CG2R66
   16    47	 1 ;      CG2R61      HGR62
   17    19	 1 ;      CG2R66     CG2R61
   17    18	 1 ;      CG2R66       FGR1
   19    20	 1 ;      CG2R61     CG2R66
   19    48	 1 ;      CG2R61      HGR62
   20    22	 1 ;      CG2R66       FGR1
   20    21	 1 ;      CG2R66     CG2R61
   21    49	 1 ;      CG2R61      HGR62
   23    24	 1 ;       CG301      CG321
   23    28	 1 ;       CG301      CG321
   23    31	 1 ;       CG301     CG2R61
   24    25	 1 ;       CG321      CG321
   24    50	 1 ;       CG321       HGA2
   24    51	 1 ;       CG321       HGA2
   25    26	 1 ;       CG321      CG321
   25    52	 1 ;       CG321       HGA2
   25    53	 1 ;       CG321       HGA2
   26    27	 1 ;       CG321      NG301
   26    54	 1 ;       CG321       HGA2
   26    55	 1 ;       CG321       HGA2
   27    28	 1 ;       NG301      CG321
   27    29	 1 ;       NG301      OG311
   28    56	 1 ;       CG321       HGA2
   28    57	 1 ;       CG321       HGA2
   29    30	 1 ;       OG311       HGP1
   31    36	 1 ;      CG2R61     CG2R61
   31    32	 1 ;      CG2R61     CG2R61
   32    33	 1 ;      CG2R61     CG2R61
   32    58	 1 ;      CG2R61      HGR61
   33    34	 1 ;      CG2R61     CG2R61
   33    37	 1 ;      CG2R61      CG301
   34    35	 1 ;      CG2R61     CG2R61
   34    59	 1 ;      CG2R61      HGR61
   35    36	 1 ;      CG2R61     CG2R61
   35    60	 1 ;      CG2R61      HGR61
   36    61	 1 ;      CG2R61      HGR61
   37    39	 1 ;       CG301      CG331
   37    38	 1 ;       CG301      CG331
   37    40	 1 ;       CG301      CG331
   38    65	 1 ;       CG331       HGA3
   38    66	 1 ;       CG331       HGA3
   38    67	 1 ;       CG331       HGA3
   39    68	 1 ;       CG331       HGA3
   39    69	 1 ;       CG331       HGA3
   39    70	 1 ;       CG331       HGA3
   40    71	 1 ;       CG331       HGA3
   40    72	 1 ;       CG331       HGA3
   40    73	 1 ;       CG331       HGA3

[ pairs ]
;	ai	  aj funct			  c0			c1			  c2			c3
    1     8	 1
    1     6	 1
    1    43	 1
    1    25	 1
    1    50	 1
    1    51	 1
    1    27	 1
    1    56	 1
    1    57	 1
    1    36	 1
    1    32	 1
    2     5	 1
    2    41	 1
    2    42	 1
    2    24	 1
    2    28	 1
    2    31	 1
    3     5	 1
    3    41	 1
    3    42	 1
    3    24	 1
    3    28	 1
    3    31	 1
    4    24	 1
    4    28	 1
    4    31	 1
    4     9	 1
    4    14	 1
    4    44	 1
    4     7	 1
    5    23	 1
    5    10	 1
    5    13	 1
    5    15	 1
    5    45	 1
    5    46	 1
    6    41	 1
    6    42	 1
    6     9	 1
    6    14	 1
    6    44	 1
    7     8	 1
    7    43	 1
    8    41	 1
    8    42	 1
    8    12	 1
    8    11	 1
    8    21	 1
    8    16	 1
    9    43	 1
    9    15	 1
    9    45	 1
    9    46	 1
    9    62	 1
    9    63	 1
    9    64	 1
   10    14	 1
   10    44	 1
   11    13	 1
   11    62	 1
   11    63	 1
   11    64	 1
   12    13	 1
   13    14	 1
   13    44	 1
   14    43	 1
   14    20	 1
   14    49	 1
   14    17	 1
   14    47	 1
   15    44	 1
   15    19	 1
   15    18	 1
   15    22	 1
   16    45	 1
   16    46	 1
   16    20	 1
   16    49	 1
   16    48	 1
   17    21	 1
   17    22	 1
   18    47	 1
   18    20	 1
   18    48	 1
   19    47	 1
   19    49	 1
   21    45	 1
   21    46	 1
   21    47	 1
   21    48	 1
   22    48	 1
   22    49	 1
   23    41	 1
   23    42	 1
   23    26	 1
   23    52	 1
   23    53	 1
   23    29	 1
   23    35	 1
   23    61	 1
   23    33	 1
   23    58	 1
   24    27	 1
   24    56	 1
   24    57	 1
   24    36	 1
   24    32	 1
   24    54	 1
   24    55	 1
   25    28	 1
   25    31	 1
   25    29	 1
   26    50	 1
   26    51	 1
   26    56	 1
   26    57	 1
   26    30	 1
   27    31	 1
   27    52	 1
   27    53	 1
   28    50	 1
   28    51	 1
   28    36	 1
   28    32	 1
   28    54	 1
   28    55	 1
   28    30	 1
   29    54	 1
   29    55	 1
   29    56	 1
   29    57	 1
   31    50	 1
   31    51	 1
   31    56	 1
   31    57	 1
   31    34	 1
   31    37	 1
   31    60	 1
   32    35	 1
   32    61	 1
   32    59	 1
   32    39	 1
   32    38	 1
   32    40	 1
   33    36	 1
   33    60	 1
   33    68	 1
   33    69	 1
   33    70	 1
   33    65	 1
   33    66	 1
   33    67	 1
   33    71	 1
   33    72	 1
   33    73	 1
   34    58	 1
   34    39	 1
   34    38	 1
   34    40	 1
   34    61	 1
   35    37	 1
   36    58	 1
   36    59	 1
   37    58	 1
   37    59	 1
   38    68	 1
   38    69	 1
   38    70	 1
   38    71	 1
   38    72	 1
   38    73	 1
   39    65	 1
   39    66	 1
   39    67	 1
   39    71	 1
   39    72	 1
   39    73	 1
   40    68	 1
   40    69	 1
   40    70	 1
   40    65	 1
   40    66	 1
   40    67	 1
   41    43	 1
   42    43	 1
   43    44	 1
   44    45	 1
   44    46	 1
   50    52	 1
   50    53	 1
   51    52	 1
   51    53	 1
   52    54	 1
   52    55	 1
   53    54	 1
   53    55	 1
   59    60	 1
   60    61	 1

[ angles ]
;	ai	  aj	ak funct			c0			  c1			c2			  c3
    2     1     4	5 ;       HGP2      NG3P2      CG324
    2     1     3	5 ;       HGP2      NG3P2       HGP2
    2     1    23	5 ;       HGP2      NG3P2      CG301
    4     1     3	5 ;      CG324      NG3P2       HGP2
    4     1    23	5 ;      CG324      NG3P2      CG301
    3     1    23	5 ;       HGP2      NG3P2      CG301
    5     4     1	5 ;      CG311      CG324      NG3P2
    5     4    41	5 ;      CG311      CG324       HGA2
    5     4    42	5 ;      CG311      CG324       HGA2
    1     4    41	5 ;      NG3P2      CG324       HGA2
    1     4    42	5 ;      NG3P2      CG324       HGA2
   41     4    42	5 ;       HGA2      CG324       HGA2
    4     5     8	5 ;      CG324      CG311      CG311
    4     5     6	5 ;      CG324      CG311      OG311
    4     5    43	5 ;      CG324      CG311       HGA1
    8     5     6	5 ;      CG311      CG311      OG311
    8     5    43	5 ;      CG311      CG311       HGA1
    6     5    43	5 ;      OG311      CG311       HGA1
    7     6     5	5 ;       HGP1      OG311      CG311
    9     8     5	5 ;      NG2S1      CG311      CG311
    9     8    14	5 ;      NG2S1      CG311      CG321
    9     8    44	5 ;      NG2S1      CG311       HGA1
    5     8    14	5 ;      CG311      CG311      CG321
    5     8    44	5 ;      CG311      CG311       HGA1
   14     8    44	5 ;      CG321      CG311       HGA1
   10     9    13	5 ;      CG2O1      NG2S1       HGP1
   10     9     8	5 ;      CG2O1      NG2S1      CG311
   13     9     8	5 ;       HGP1      NG2S1      CG311
   12    10    11	5 ;      CG331      CG2O1      OG2D1
   12    10     9	5 ;      CG331      CG2O1      NG2S1
   11    10     9	5 ;      OG2D1      CG2O1      NG2S1
   10    12    62	5 ;      CG2O1      CG331       HGA3
   10    12    63	5 ;      CG2O1      CG331       HGA3
   10    12    64	5 ;      CG2O1      CG331       HGA3
   62    12    63	5 ;       HGA3      CG331       HGA3
   62    12    64	5 ;       HGA3      CG331       HGA3
   63    12    64	5 ;       HGA3      CG331       HGA3
    8    14    15	5 ;      CG311      CG321     CG2R61
    8    14    45	5 ;      CG311      CG321       HGA2
    8    14    46	5 ;      CG311      CG321       HGA2
   15    14    45	5 ;     CG2R61      CG321       HGA2
   15    14    46	5 ;     CG2R61      CG321       HGA2
   45    14    46	5 ;       HGA2      CG321       HGA2
   21    15    14	5 ;     CG2R61     CG2R61      CG321
   21    15    16	5 ;     CG2R61     CG2R61     CG2R61
   14    15    16	5 ;      CG321     CG2R61     CG2R61
   15    16    17	5 ;     CG2R61     CG2R61     CG2R66
   15    16    47	5 ;     CG2R61     CG2R61      HGR62
   17    16    47	5 ;     CG2R66     CG2R61      HGR62
   19    17    16	5 ;     CG2R61     CG2R66     CG2R61
   19    17    18	5 ;     CG2R61     CG2R66       FGR1
   16    17    18	5 ;     CG2R61     CG2R66       FGR1
   20    19    17	5 ;     CG2R66     CG2R61     CG2R66
   20    19    48	5 ;     CG2R66     CG2R61      HGR62
   17    19    48	5 ;     CG2R66     CG2R61      HGR62
   22    20    21	5 ;       FGR1     CG2R66     CG2R61
   22    20    19	5 ;       FGR1     CG2R66     CG2R61
   21    20    19	5 ;     CG2R61     CG2R66     CG2R61
   20    21    15	5 ;     CG2R66     CG2R61     CG2R61
   20    21    49	5 ;     CG2R66     CG2R61      HGR62
   15    21    49	5 ;     CG2R61     CG2R61      HGR62
    1    23    24	5 ;      NG3P2      CG301      CG321
    1    23    28	5 ;      NG3P2      CG301      CG321
    1    23    31	5 ;      NG3P2      CG301     CG2R61
   24    23    28	5 ;      CG321      CG301      CG321
   24    23    31	5 ;      CG321      CG301     CG2R61
   28    23    31	5 ;      CG321      CG301     CG2R61
   25    24    23	5 ;      CG321      CG321      CG301
   25    24    50	5 ;      CG321      CG321       HGA2
   25    24    51	5 ;      CG321      CG321       HGA2
   23    24    50	5 ;      CG301      CG321       HGA2
   23    24    51	5 ;      CG301      CG321       HGA2
   50    24    51	5 ;       HGA2      CG321       HGA2
   24    25    26	5 ;      CG321      CG321      CG321
   24    25    52	5 ;      CG321      CG321       HGA2
   24    25    53	5 ;      CG321      CG321       HGA2
   26    25    52	5 ;      CG321      CG321       HGA2
   26    25    53	5 ;      CG321      CG321       HGA2
   52    25    53	5 ;       HGA2      CG321       HGA2
   25    26    27	5 ;      CG321      CG321      NG301
   25    26    54	5 ;      CG321      CG321       HGA2
   25    26    55	5 ;      CG321      CG321       HGA2
   27    26    54	5 ;      NG301      CG321       HGA2
   27    26    55	5 ;      NG301      CG321       HGA2
   54    26    55	5 ;       HGA2      CG321       HGA2
   26    27    28	5 ;      CG321      NG301      CG321
   26    27    29	5 ;      CG321      NG301      OG311
   28    27    29	5 ;      CG321      NG301      OG311
   23    28    27	5 ;      CG301      CG321      NG301
   23    28    56	5 ;      CG301      CG321       HGA2
   23    28    57	5 ;      CG301      CG321       HGA2
   27    28    56	5 ;      NG301      CG321       HGA2
   27    28    57	5 ;      NG301      CG321       HGA2
   56    28    57	5 ;       HGA2      CG321       HGA2
   27    29    30	5 ;      NG301      OG311       HGP1
   23    31    36	5 ;      CG301     CG2R61     CG2R61
   23    31    32	5 ;      CG301     CG2R61     CG2R61
   36    31    32	5 ;     CG2R61     CG2R61     CG2R61
   31    32    33	5 ;     CG2R61     CG2R61     CG2R61
   31    32    58	5 ;     CG2R61     CG2R61      HGR61
   33    32    58	5 ;     CG2R61     CG2R61      HGR61
   32    33    34	5 ;     CG2R61     CG2R61     CG2R61
   32    33    37	5 ;     CG2R61     CG2R61      CG301
   34    33    37	5 ;     CG2R61     CG2R61      CG301
   35    34    33	5 ;     CG2R61     CG2R61     CG2R61
   35    34    59	5 ;     CG2R61     CG2R61      HGR61
   33    34    59	5 ;     CG2R61     CG2R61      HGR61
   36    35    34	5 ;     CG2R61     CG2R61     CG2R61
   36    35    60	5 ;     CG2R61     CG2R61      HGR61
   34    35    60	5 ;     CG2R61     CG2R61      HGR61
   31    36    35	5 ;     CG2R61     CG2R61     CG2R61
   31    36    61	5 ;     CG2R61     CG2R61      HGR61
   35    36    61	5 ;     CG2R61     CG2R61      HGR61
   33    37    39	5 ;     CG2R61      CG301      CG331
   33    37    38	5 ;     CG2R61      CG301      CG331
   33    37    40	5 ;     CG2R61      CG301      CG331
   39    37    38	5 ;      CG331      CG301      CG331
   39    37    40	5 ;      CG331      CG301      CG331
   38    37    40	5 ;      CG331      CG301      CG331
   37    38    65	5 ;      CG301      CG331       HGA3
   37    38    66	5 ;      CG301      CG331       HGA3
   37    38    67	5 ;      CG301      CG331       HGA3
   65    38    66	5 ;       HGA3      CG331       HGA3
   65    38    67	5 ;       HGA3      CG331       HGA3
   66    38    67	5 ;       HGA3      CG331       HGA3
   37    39    68	5 ;      CG301      CG331       HGA3
   37    39    69	5 ;      CG301      CG331       HGA3
   37    39    70	5 ;      CG301      CG331       HGA3
   68    39    69	5 ;       HGA3      CG331       HGA3
   68    39    70	5 ;       HGA3      CG331       HGA3
   69    39    70	5 ;       HGA3      CG331       HGA3
   37    40    71	5 ;      CG301      CG331       HGA3
   37    40    72	5 ;      CG301      CG331       HGA3
   37    40    73	5 ;      CG301      CG331       HGA3
   71    40    72	5 ;       HGA3      CG331       HGA3
   71    40    73	5 ;       HGA3      CG331       HGA3
   72    40    73	5 ;       HGA3      CG331       HGA3

[ dihedrals ]
;	ai	  aj	ak	  al funct			  c0			c1			  c2			c3			  c4			c5
    2     1     4     5	 9 ;       HGP2      NG3P2      CG324      CG311
    2     1     4    41	 9 ;       HGP2      NG3P2      CG324       HGA2
    2     1     4    42	 9 ;       HGP2      NG3P2      CG324       HGA2
    3     1     4     5	 9 ;       HGP2      NG3P2      CG324      CG311
    3     1     4    41	 9 ;       HGP2      NG3P2      CG324       HGA2
    3     1     4    42	 9 ;       HGP2      NG3P2      CG324       HGA2
   23     1     4     5	 9 ;      CG301      NG3P2      CG324      CG311
   23     1     4    41	 9 ;      CG301      NG3P2      CG324       HGA2
   23     1     4    42	 9 ;      CG301      NG3P2      CG324       HGA2
    2     1    23    24	 9 ;       HGP2      NG3P2      CG301      CG321
    2     1    23    28	 9 ;       HGP2      NG3P2      CG301      CG321
    2     1    23    31	 9 ;       HGP2      NG3P2      CG301     CG2R61
    4     1    23    24	 9 ;      CG324      NG3P2      CG301      CG321
    4     1    23    28	 9 ;      CG324      NG3P2      CG301      CG321
    4     1    23    31	 9 ;      CG324      NG3P2      CG301     CG2R61
    3     1    23    24	 9 ;       HGP2      NG3P2      CG301      CG321
    3     1    23    28	 9 ;       HGP2      NG3P2      CG301      CG321
    3     1    23    31	 9 ;       HGP2      NG3P2      CG301     CG2R61
    1     4     5     8	 9 ;      NG3P2      CG324      CG311      CG311
    1     4     5     6	 9 ;      NG3P2      CG324      CG311      OG311
    1     4     5    43	 9 ;      NG3P2      CG324      CG311       HGA1
   41     4     5     8	 9 ;       HGA2      CG324      CG311      CG311
   41     4     5     6	 9 ;       HGA2      CG324      CG311      OG311
   41     4     5    43	 9 ;       HGA2      CG324      CG311       HGA1
   42     4     5     8	 9 ;       HGA2      CG324      CG311      CG311
   42     4     5     6	 9 ;       HGA2      CG324      CG311      OG311
   42     4     5    43	 9 ;       HGA2      CG324      CG311       HGA1
    4     5     8     9	 9 ;      CG324      CG311      CG311      NG2S1
    4     5     8    14	 9 ;      CG324      CG311      CG311      CG321
    4     5     8    44	 9 ;      CG324      CG311      CG311       HGA1
    6     5     8     9	 9 ;      OG311      CG311      CG311      NG2S1
    6     5     8    14	 9 ;      OG311      CG311      CG311      CG321
    6     5     8    44	 9 ;      OG311      CG311      CG311       HGA1
   43     5     8     9	 9 ;       HGA1      CG311      CG311      NG2S1
   43     5     8    14	 9 ;       HGA1      CG311      CG311      CG321
   43     5     8    44	 9 ;       HGA1      CG311      CG311       HGA1
    4     5     6     7	 9 ;      CG324      CG311      OG311       HGP1
    8     5     6     7	 9 ;      CG311      CG311      OG311       HGP1
   43     5     6     7	 9 ;       HGA1      CG311      OG311       HGP1
    5     8     9    10	 9 ;      CG311      CG311      NG2S1      CG2O1
    5     8     9    13	 9 ;      CG311      CG311      NG2S1       HGP1
   14     8     9    10	 9 ;      CG321      CG311      NG2S1      CG2O1
   14     8     9    13	 9 ;      CG321      CG311      NG2S1       HGP1
   44     8     9    10	 9 ;       HGA1      CG311      NG2S1      CG2O1
   44     8     9    13	 9 ;       HGA1      CG311      NG2S1       HGP1
    9     8    14    15	 9 ;      NG2S1      CG311      CG321     CG2R61
    9     8    14    45	 9 ;      NG2S1      CG311      CG321       HGA2
    9     8    14    46	 9 ;      NG2S1      CG311      CG321       HGA2
    5     8    14    15	 9 ;      CG311      CG311      CG321     CG2R61
    5     8    14    45	 9 ;      CG311      CG311      CG321       HGA2
    5     8    14    46	 9 ;      CG311      CG311      CG321       HGA2
   44     8    14    15	 9 ;       HGA1      CG311      CG321     CG2R61
   44     8    14    45	 9 ;       HGA1      CG311      CG321       HGA2
   44     8    14    46	 9 ;       HGA1      CG311      CG321       HGA2
   13     9    10    12	 9 ;       HGP1      NG2S1      CG2O1      CG331
   13     9    10    11	 9 ;       HGP1      NG2S1      CG2O1      OG2D1
    8     9    10    12	 9 ;      CG311      NG2S1      CG2O1      CG331
    8     9    10    11	 9 ;      CG311      NG2S1      CG2O1      OG2D1
   11    10    12    62	 9 ;      OG2D1      CG2O1      CG331       HGA3
   11    10    12    63	 9 ;      OG2D1      CG2O1      CG331       HGA3
   11    10    12    64	 9 ;      OG2D1      CG2O1      CG331       HGA3
    9    10    12    62	 9 ;      NG2S1      CG2O1      CG331       HGA3
    9    10    12    63	 9 ;      NG2S1      CG2O1      CG331       HGA3
    9    10    12    64	 9 ;      NG2S1      CG2O1      CG331       HGA3
    8    14    15    21	 9 ;      CG311      CG321     CG2R61     CG2R61
    8    14    15    16	 9 ;      CG311      CG321     CG2R61     CG2R61
   45    14    15    21	 9 ;       HGA2      CG321     CG2R61     CG2R61
   45    14    15    16	 9 ;       HGA2      CG321     CG2R61     CG2R61
   46    14    15    21	 9 ;       HGA2      CG321     CG2R61     CG2R61
   46    14    15    16	 9 ;       HGA2      CG321     CG2R61     CG2R61
   14    15    21    20	 9 ;      CG321     CG2R61     CG2R61     CG2R66
   14    15    21    49	 9 ;      CG321     CG2R61     CG2R61      HGR62
   16    15    21    20	 9 ;     CG2R61     CG2R61     CG2R61     CG2R66
   16    15    21    49	 9 ;     CG2R61     CG2R61     CG2R61      HGR62
   21    15    16    17	 9 ;     CG2R61     CG2R61     CG2R61     CG2R66
   21    15    16    47	 9 ;     CG2R61     CG2R61     CG2R61      HGR62
   14    15    16    17	 9 ;      CG321     CG2R61     CG2R61     CG2R66
   14    15    16    47	 9 ;      CG321     CG2R61     CG2R61      HGR62
   15    16    17    19	 9 ;     CG2R61     CG2R61     CG2R66     CG2R61
   15    16    17    18	 9 ;     CG2R61     CG2R61     CG2R66       FGR1
   47    16    17    19	 9 ;      HGR62     CG2R61     CG2R66     CG2R61
   47    16    17    18	 9 ;      HGR62     CG2R61     CG2R66       FGR1
   16    17    19    20	 9 ;     CG2R61     CG2R66     CG2R61     CG2R66
   16    17    19    48	 9 ;     CG2R61     CG2R66     CG2R61      HGR62
   18    17    19    20	 9 ;       FGR1     CG2R66     CG2R61     CG2R66
   18    17    19    48	 9 ;       FGR1     CG2R66     CG2R61      HGR62
   17    19    20    22	 9 ;     CG2R66     CG2R61     CG2R66       FGR1
   17    19    20    21	 9 ;     CG2R66     CG2R61     CG2R66     CG2R61
   48    19    20    22	 9 ;      HGR62     CG2R61     CG2R66       FGR1
   48    19    20    21	 9 ;      HGR62     CG2R61     CG2R66     CG2R61
   22    20    21    15	 9 ;       FGR1     CG2R66     CG2R61     CG2R61
   22    20    21    49	 9 ;       FGR1     CG2R66     CG2R61      HGR62
   19    20    21    15	 9 ;     CG2R61     CG2R66     CG2R61     CG2R61
   19    20    21    49	 9 ;     CG2R61     CG2R66     CG2R61      HGR62
    1    23    24    25	 9 ;      NG3P2      CG301      CG321      CG321
    1    23    24    50	 9 ;      NG3P2      CG301      CG321       HGA2
    1    23    24    51	 9 ;      NG3P2      CG301      CG321       HGA2
   28    23    24    25	 9 ;      CG321      CG301      CG321      CG321
   28    23    24    50	 9 ;      CG321      CG301      CG321       HGA2
   28    23    24    51	 9 ;      CG321      CG301      CG321       HGA2
   31    23    24    25	 9 ;     CG2R61      CG301      CG321      CG321
   31    23    24    50	 9 ;     CG2R61      CG301      CG321       HGA2
   31    23    24    51	 9 ;     CG2R61      CG301      CG321       HGA2
    1    23    28    27	 9 ;      NG3P2      CG301      CG321      NG301
    1    23    28    56	 9 ;      NG3P2      CG301      CG321       HGA2
    1    23    28    57	 9 ;      NG3P2      CG301      CG321       HGA2
   24    23    28    27	 9 ;      CG321      CG301      CG321      NG301
   24    23    28    56	 9 ;      CG321      CG301      CG321       HGA2
   24    23    28    57	 9 ;      CG321      CG301      CG321       HGA2
   31    23    28    27	 9 ;     CG2R61      CG301      CG321      NG301
   31    23    28    56	 9 ;     CG2R61      CG301      CG321       HGA2
   31    23    28    57	 9 ;     CG2R61      CG301      CG321       HGA2
    1    23    31    36	 9 ;      NG3P2      CG301     CG2R61     CG2R61
    1    23    31    32	 9 ;      NG3P2      CG301     CG2R61     CG2R61
   24    23    31    36	 9 ;      CG321      CG301     CG2R61     CG2R61
   24    23    31    32	 9 ;      CG321      CG301     CG2R61     CG2R61
   28    23    31    36	 9 ;      CG321      CG301     CG2R61     CG2R61
   28    23    31    32	 9 ;      CG321      CG301     CG2R61     CG2R61
   23    24    25    26	 9 ;      CG301      CG321      CG321      CG321
   23    24    25    52	 9 ;      CG301      CG321      CG321       HGA2
   23    24    25    53	 9 ;      CG301      CG321      CG321       HGA2
   50    24    25    26	 9 ;       HGA2      CG321      CG321      CG321
   50    24    25    52	 9 ;       HGA2      CG321      CG321       HGA2
   50    24    25    53	 9 ;       HGA2      CG321      CG321       HGA2
   51    24    25    26	 9 ;       HGA2      CG321      CG321      CG321
   51    24    25    52	 9 ;       HGA2      CG321      CG321       HGA2
   51    24    25    53	 9 ;       HGA2      CG321      CG321       HGA2
   24    25    26    27	 9 ;      CG321      CG321      CG321      NG301
   24    25    26    54	 9 ;      CG321      CG321      CG321       HGA2
   24    25    26    55	 9 ;      CG321      CG321      CG321       HGA2
   52    25    26    27	 9 ;       HGA2      CG321      CG321      NG301
   52    25    26    54	 9 ;       HGA2      CG321      CG321       HGA2
   52    25    26    55	 9 ;       HGA2      CG321      CG321       HGA2
   53    25    26    27	 9 ;       HGA2      CG321      CG321      NG301
   53    25    26    54	 9 ;       HGA2      CG321      CG321       HGA2
   53    25    26    55	 9 ;       HGA2      CG321      CG321       HGA2
   25    26    27    28	 9 ;      CG321      CG321      NG301      CG321
   25    26    27    29	 9 ;      CG321      CG321      NG301      OG311
   54    26    27    28	 9 ;       HGA2      CG321      NG301      CG321
   54    26    27    29	 9 ;       HGA2      CG321      NG301      OG311
   55    26    27    28	 9 ;       HGA2      CG321      NG301      CG321
   55    26    27    29	 9 ;       HGA2      CG321      NG301      OG311
   26    27    28    23	 9 ;      CG321      NG301      CG321      CG301
   26    27    28    56	 9 ;      CG321      NG301      CG321       HGA2
   26    27    28    57	 9 ;      CG321      NG301      CG321       HGA2
   29    27    28    23	 9 ;      OG311      NG301      CG321      CG301
   29    27    28    56	 9 ;      OG311      NG301      CG321       HGA2
   29    27    28    57	 9 ;      OG311      NG301      CG321       HGA2
   26    27    29    30	 9 ;      CG321      NG301      OG311       HGP1
   28    27    29    30	 9 ;      CG321      NG301      OG311       HGP1
   23    31    36    35	 9 ;      CG301     CG2R61     CG2R61     CG2R61
   23    31    36    61	 9 ;      CG301     CG2R61     CG2R61      HGR61
   32    31    36    35	 9 ;     CG2R61     CG2R61     CG2R61     CG2R61
   32    31    36    61	 9 ;     CG2R61     CG2R61     CG2R61      HGR61
   23    31    32    33	 9 ;      CG301     CG2R61     CG2R61     CG2R61
   23    31    32    58	 9 ;      CG301     CG2R61     CG2R61      HGR61
   36    31    32    33	 9 ;     CG2R61     CG2R61     CG2R61     CG2R61
   36    31    32    58	 9 ;     CG2R61     CG2R61     CG2R61      HGR61
   31    32    33    34	 9 ;     CG2R61     CG2R61     CG2R61     CG2R61
   31    32    33    37	 9 ;     CG2R61     CG2R61     CG2R61      CG301
   58    32    33    34	 9 ;      HGR61     CG2R61     CG2R61     CG2R61
   58    32    33    37	 9 ;      HGR61     CG2R61     CG2R61      CG301
   32    33    34    35	 9 ;     CG2R61     CG2R61     CG2R61     CG2R61
   32    33    34    59	 9 ;     CG2R61     CG2R61     CG2R61      HGR61
   37    33    34    35	 9 ;      CG301     CG2R61     CG2R61     CG2R61
   37    33    34    59	 9 ;      CG301     CG2R61     CG2R61      HGR61
   32    33    37    39	 9 ;     CG2R61     CG2R61      CG301      CG331
   32    33    37    38	 9 ;     CG2R61     CG2R61      CG301      CG331
   32    33    37    40	 9 ;     CG2R61     CG2R61      CG301      CG331
   34    33    37    39	 9 ;     CG2R61     CG2R61      CG301      CG331
   34    33    37    38	 9 ;     CG2R61     CG2R61      CG301      CG331
   34    33    37    40	 9 ;     CG2R61     CG2R61      CG301      CG331
   33    34    35    36	 9 ;     CG2R61     CG2R61     CG2R61     CG2R61
   33    34    35    60	 9 ;     CG2R61     CG2R61     CG2R61      HGR61
   59    34    35    36	 9 ;      HGR61     CG2R61     CG2R61     CG2R61
   59    34    35    60	 9 ;      HGR61     CG2R61     CG2R61      HGR61
   34    35    36    31	 9 ;     CG2R61     CG2R61     CG2R61     CG2R61
   34    35    36    61	 9 ;     CG2R61     CG2R61     CG2R61      HGR61
   60    35    36    31	 9 ;      HGR61     CG2R61     CG2R61     CG2R61
   60    35    36    61	 9 ;      HGR61     CG2R61     CG2R61      HGR61
   33    37    39    68	 9 ;     CG2R61      CG301      CG331       HGA3
   33    37    39    69	 9 ;     CG2R61      CG301      CG331       HGA3
   33    37    39    70	 9 ;     CG2R61      CG301      CG331       HGA3
   38    37    39    68	 9 ;      CG331      CG301      CG331       HGA3
   38    37    39    69	 9 ;      CG331      CG301      CG331       HGA3
   38    37    39    70	 9 ;      CG331      CG301      CG331       HGA3
   40    37    39    68	 9 ;      CG331      CG301      CG331       HGA3
   40    37    39    69	 9 ;      CG331      CG301      CG331       HGA3
   40    37    39    70	 9 ;      CG331      CG301      CG331       HGA3
   33    37    38    65	 9 ;     CG2R61      CG301      CG331       HGA3
   33    37    38    66	 9 ;     CG2R61      CG301      CG331       HGA3
   33    37    38    67	 9 ;     CG2R61      CG301      CG331       HGA3
   39    37    38    65	 9 ;      CG331      CG301      CG331       HGA3
   39    37    38    66	 9 ;      CG331      CG301      CG331       HGA3
   39    37    38    67	 9 ;      CG331      CG301      CG331       HGA3
   40    37    38    65	 9 ;      CG331      CG301      CG331       HGA3
   40    37    38    66	 9 ;      CG331      CG301      CG331       HGA3
   40    37    38    67	 9 ;      CG331      CG301      CG331       HGA3
   33    37    40    71	 9 ;     CG2R61      CG301      CG331       HGA3
   33    37    40    72	 9 ;     CG2R61      CG301      CG331       HGA3
   33    37    40    73	 9 ;     CG2R61      CG301      CG331       HGA3
   39    37    40    71	 9 ;      CG331      CG301      CG331       HGA3
   39    37    40    72	 9 ;      CG331      CG301      CG331       HGA3
   39    37    40    73	 9 ;      CG331      CG301      CG331       HGA3
   38    37    40    71	 9 ;      CG331      CG301      CG331       HGA3
   38    37    40    72	 9 ;      CG331      CG301      CG331       HGA3
   38    37    40    73	 9 ;      CG331      CG301      CG331       HGA3

[ dihedrals ]
;	ai	  aj	ak	  al funct			  c0			c1			  c2			c3
   10    12     9    11	 2

