; Created by cgenff_charmm2gmx.py

[ moleculetype ]
; Name			   nrexcl
LIG				 3

[ atoms ]
;	 nr		  type	resnr residue  atom   cgnr	   charge		mass  typeB    chargeB		massB
; residue	 1 LIG rtp LIG q	qsum
     1     CG3C50      1    LIG     C1      1      1.380     12.011   ;
     2     NG3C51      1    LIG     N1      2     -0.855     14.007   ;
     3       HGP1      1    LIG    HN1      3      0.253      1.008   ;
     4     CG2R51      1    LIG     C2      4     -0.134     12.011   ;
     5     CG2R51      1    LIG     C3      5     -0.031     12.011   ;
     6     NG3C51      1    LIG     N2      6     -0.780     14.007   ;
     7       HGP1      1    LIG    HN2      7      0.253      1.008   ;
     8      NG321      1    LIG     N3      8     -0.622     14.007   ;
     9     HGPAM2      1    LIG     H1      9      0.371      1.008   ;
    10     HGPAM2      1    LIG     H2     10      0.371      1.008   ;
    11     CG2R61      1    LIG     C4     11      0.028     12.011   ;
    12     CG2R61      1    LIG     C5     12     -0.236     12.011   ;
    13     CG2R61      1    LIG     C6     13      0.025     12.011   ;
    14     CG2R61      1    LIG     C7     14     -0.120     12.011   ;
    15     CG2R61      1    LIG     C8     15     -0.102     12.011   ;
    16     CG2R61      1    LIG     C9     16     -0.232     12.011   ;
    17     CG2DC1      1    LIG    C10     17     -0.086     12.011   ;
    18      CG321      1    LIG    C11     18      0.013     12.011   ;
    19      NG311      1    LIG     N4     19     -0.656     14.007   ;
    20      CG321      1    LIG    C12     20      0.131     12.011   ;
    21     HGPAM1      1    LIG    HN3     21      0.367      1.008   ;
    22      NG311      1    LIG     N5     22     -0.598     14.007   ;
    23     CG2D1O      1    LIG    C13     23     -0.097     12.011   ;
    24     HGPAM1      1    LIG    HN4     24      0.406      1.008   ;
    25     CG2R61      1    LIG    C14     25      0.025     12.011   ;
    26     CG2R61      1    LIG    C15     26     -0.229     12.011   ;
    27     CG2R61      1    LIG    C16     27     -0.110     12.011   ;
    28     CG2R61      1    LIG    C17     28      0.211     12.011   ;
    29     CG2R61      1    LIG    C18     29     -0.110     12.011   ;
    30     CG2R61      1    LIG    C19     30     -0.229     12.011   ;
    31      OG301      1    LIG      O     31     -0.383     15.999   ;
    32      CG331      1    LIG    C20     32     -0.094     12.011   ;
    33      CG311      1    LIG    C21     33      0.024     12.011   ;
    34      CG331      1    LIG    C22     34     -0.245     12.011   ;
    35      CG331      1    LIG    C23     35     -0.245     12.011   ;
    36      HGR61      1    LIG     HC     36      0.116      1.008   ;
    37      HGR61      1    LIG    HC1     37      0.116      1.008   ;
    38      HGR61      1    LIG    HC2     38      0.116      1.008   ;
    39      HGR61      1    LIG    HC3     39      0.116      1.008   ;
    40       HGA2      1    LIG    HC4     40      0.090      1.008   ;
    41       HGA2      1    LIG    HC5     41      0.090      1.008   ;
    42       HGA4      1    LIG    HC6     42      0.148      1.008   ;
    43      HGR61      1    LIG    HC7     43      0.116      1.008   ;
    44      HGR61      1    LIG    HC8     44      0.116      1.008   ;
    45      HGR61      1    LIG    HC9     45      0.116      1.008   ;
    46      HGR61      1    LIG   HC10     46      0.116      1.008   ;
    47       HGA3      1    LIG   HC11     47      0.090      1.008   ;
    48       HGA3      1    LIG   HC12     48      0.090      1.008   ;
    49       HGA3      1    LIG   HC13     49      0.090      1.008   ;
    50       HGA1      1    LIG   HC14     50      0.090      1.008   ;
    51       HGA3      1    LIG   HC15     51      0.090      1.008   ;
    52       HGA3      1    LIG   HC16     52      0.090      1.008   ;
    53       HGA3      1    LIG   HC17     53      0.090      1.008   ;
    54       HGA3      1    LIG   HC18     54      0.090      1.008   ;
    55       HGA3      1    LIG   HC19     55      0.090      1.008   ;
    56       HGA3      1    LIG   HC20     56      0.090      1.008   ;
    57       HGA2      1    LIG    H28     57      0.090      1.008   ;
    58       HGA2      1    LIG    H29     58      0.090      1.008   ;

[ bonds ]
;	ai	  aj funct			  c0			c1			  c2			c3
    1     6	 1 ;      CG3C50     NG3C51
    1     2	 1 ;      CG3C50     NG3C51
    1    25	 1 ;      CG3C50     CG2R61
    1    11	 1 ;      CG3C50     CG2R61
    2     4	 1 ;      NG3C51     CG2R51
    2     3	 1 ;      NG3C51       HGP1
    4    33	 1 ;      CG2R51      CG311
    4     5	 1 ;      CG2R51     CG2R51
    5     8	 1 ;      CG2R51      NG321
    5     6	 1 ;      CG2R51     NG3C51
    6     7	 1 ;      NG3C51       HGP1
    8    10	 1 ;       NG321     HGPAM2
    8     9	 1 ;       NG321     HGPAM2
   11    12	 1 ;      CG2R61     CG2R61
   11    16	 1 ;      CG2R61     CG2R61
   12    13	 1 ;      CG2R61     CG2R61
   12    36	 1 ;      CG2R61      HGR61
   13    17	 1 ;      CG2R61     CG2DC1
   13    14	 1 ;      CG2R61     CG2R61
   14    15	 1 ;      CG2R61     CG2R61
   14    37	 1 ;      CG2R61      HGR61
   15    16	 1 ;      CG2R61     CG2R61
   15    38	 1 ;      CG2R61      HGR61
   16    39	 1 ;      CG2R61      HGR61
   17    23	 1 ;      CG2DC1     CG2D1O
   17    18	 1 ;      CG2DC1      CG321
   18    19	 1 ;       CG321      NG311
   18    40	 1 ;       CG321       HGA2
   18    57	 1 ;       CG321       HGA2
   19    20	 1 ;       NG311      CG321
   19    21	 1 ;       NG311     HGPAM1
   20    22	 1 ;       CG321      NG311
   20    41	 1 ;       CG321       HGA2
   20    58	 1 ;       CG321       HGA2
   22    24	 1 ;       NG311     HGPAM1
   22    23	 1 ;       NG311     CG2D1O
   23    42	 1 ;      CG2D1O       HGA4
   25    30	 1 ;      CG2R61     CG2R61
   25    26	 1 ;      CG2R61     CG2R61
   26    27	 1 ;      CG2R61     CG2R61
   26    43	 1 ;      CG2R61      HGR61
   27    28	 1 ;      CG2R61     CG2R61
   27    44	 1 ;      CG2R61      HGR61
   28    29	 1 ;      CG2R61     CG2R61
   28    31	 1 ;      CG2R61      OG301
   29    30	 1 ;      CG2R61     CG2R61
   29    45	 1 ;      CG2R61      HGR61
   30    46	 1 ;      CG2R61      HGR61
   31    32	 1 ;       OG301      CG331
   32    47	 1 ;       CG331       HGA3
   32    48	 1 ;       CG331       HGA3
   32    49	 1 ;       CG331       HGA3
   33    34	 1 ;       CG311      CG331
   33    35	 1 ;       CG311      CG331
   33    50	 1 ;       CG311       HGA1
   34    51	 1 ;       CG331       HGA3
   34    52	 1 ;       CG331       HGA3
   34    53	 1 ;       CG331       HGA3
   35    54	 1 ;       CG331       HGA3
   35    55	 1 ;       CG331       HGA3
   35    56	 1 ;       CG331       HGA3

[ pairs ]
;	ai	  aj funct			  c0			c1			  c2			c3
    1    33	 1
    1     8	 1
    1    13	 1
    1    36	 1
    1    15	 1
    1    39	 1
    1    29	 1
    1    46	 1
    1    27	 1
    1    43	 1
    2     7	 1
    2    30	 1
    2    26	 1
    2    12	 1
    2    16	 1
    2    34	 1
    2    35	 1
    2    50	 1
    2     8	 1
    3     6	 1
    3    25	 1
    3    11	 1
    3    33	 1
    3     5	 1
    4    25	 1
    4    11	 1
    4    10	 1
    4     9	 1
    4     7	 1
    4    51	 1
    4    52	 1
    4    53	 1
    4    54	 1
    4    55	 1
    4    56	 1
    5    25	 1
    5    11	 1
    5    34	 1
    5    35	 1
    5    50	 1
    6    30	 1
    6    26	 1
    6    12	 1
    6    16	 1
    6    33	 1
    6    10	 1
    6     9	 1
    7    25	 1
    7    11	 1
    7     8	 1
    8    33	 1
   11    30	 1
   11    26	 1
   11    17	 1
   11    14	 1
   11    38	 1
   12    25	 1
   12    15	 1
   12    39	 1
   12    23	 1
   12    18	 1
   12    37	 1
   13    16	 1
   13    38	 1
   13    22	 1
   13    42	 1
   13    19	 1
   13    40	 1
   13    57	 1
   14    36	 1
   14    23	 1
   14    18	 1
   14    39	 1
   15    17	 1
   16    25	 1
   16    36	 1
   16    37	 1
   17    36	 1
   17    37	 1
   17    20	 1
   17    21	 1
   17    24	 1
   18    22	 1
   18    42	 1
   18    41	 1
   18    58	 1
   19    23	 1
   19    24	 1
   20    40	 1
   20    57	 1
   20    42	 1
   21    40	 1
   21    57	 1
   21    22	 1
   21    41	 1
   21    58	 1
   23    40	 1
   23    57	 1
   23    41	 1
   23    58	 1
   24    41	 1
   24    58	 1
   24    42	 1
   25    28	 1
   25    44	 1
   25    45	 1
   26    29	 1
   26    46	 1
   26    31	 1
   27    30	 1
   27    45	 1
   27    32	 1
   28    43	 1
   28    46	 1
   28    47	 1
   28    48	 1
   28    49	 1
   29    44	 1
   29    32	 1
   30    43	 1
   30    31	 1
   31    44	 1
   31    45	 1
   34    54	 1
   34    55	 1
   34    56	 1
   35    51	 1
   35    52	 1
   35    53	 1
   37    38	 1
   38    39	 1
   43    44	 1
   45    46	 1
   50    51	 1
   50    52	 1
   50    53	 1
   50    54	 1
   50    55	 1
   50    56	 1

[ angles ]
;	ai	  aj	ak funct			c0			  c1			c2			  c3
    6     1     2	5 ;     NG3C51     CG3C50     NG3C51
    6     1    25	5 ;     NG3C51     CG3C50     CG2R61
    6     1    11	5 ;     NG3C51     CG3C50     CG2R61
    2     1    25	5 ;     NG3C51     CG3C50     CG2R61
    2     1    11	5 ;     NG3C51     CG3C50     CG2R61
   25     1    11	5 ;     CG2R61     CG3C50     CG2R61
    4     2     3	5 ;     CG2R51     NG3C51       HGP1
    4     2     1	5 ;     CG2R51     NG3C51     CG3C50
    3     2     1	5 ;       HGP1     NG3C51     CG3C50
   33     4     5	5 ;      CG311     CG2R51     CG2R51
   33     4     2	5 ;      CG311     CG2R51     NG3C51
    5     4     2	5 ;     CG2R51     CG2R51     NG3C51
    8     5     4	5 ;      NG321     CG2R51     CG2R51
    8     5     6	5 ;      NG321     CG2R51     NG3C51
    4     5     6	5 ;     CG2R51     CG2R51     NG3C51
    5     6     7	5 ;     CG2R51     NG3C51       HGP1
    5     6     1	5 ;     CG2R51     NG3C51     CG3C50
    7     6     1	5 ;       HGP1     NG3C51     CG3C50
   10     8     9	5 ;     HGPAM2      NG321     HGPAM2
   10     8     5	5 ;     HGPAM2      NG321     CG2R51
    9     8     5	5 ;     HGPAM2      NG321     CG2R51
    1    11    12	5 ;     CG3C50     CG2R61     CG2R61
    1    11    16	5 ;     CG3C50     CG2R61     CG2R61
   12    11    16	5 ;     CG2R61     CG2R61     CG2R61
   11    12    13	5 ;     CG2R61     CG2R61     CG2R61
   11    12    36	5 ;     CG2R61     CG2R61      HGR61
   13    12    36	5 ;     CG2R61     CG2R61      HGR61
   12    13    17	5 ;     CG2R61     CG2R61     CG2DC1
   12    13    14	5 ;     CG2R61     CG2R61     CG2R61
   17    13    14	5 ;     CG2DC1     CG2R61     CG2R61
   13    14    15	5 ;     CG2R61     CG2R61     CG2R61
   13    14    37	5 ;     CG2R61     CG2R61      HGR61
   15    14    37	5 ;     CG2R61     CG2R61      HGR61
   16    15    14	5 ;     CG2R61     CG2R61     CG2R61
   16    15    38	5 ;     CG2R61     CG2R61      HGR61
   14    15    38	5 ;     CG2R61     CG2R61      HGR61
   11    16    15	5 ;     CG2R61     CG2R61     CG2R61
   11    16    39	5 ;     CG2R61     CG2R61      HGR61
   15    16    39	5 ;     CG2R61     CG2R61      HGR61
   23    17    13	5 ;     CG2D1O     CG2DC1     CG2R61
   23    17    18	5 ;     CG2D1O     CG2DC1      CG321
   13    17    18	5 ;     CG2R61     CG2DC1      CG321
   17    18    19	5 ;     CG2DC1      CG321      NG311
   17    18    40	5 ;     CG2DC1      CG321       HGA2
   17    18    57	5 ;     CG2DC1      CG321       HGA2
   19    18    40	5 ;      NG311      CG321       HGA2
   19    18    57	5 ;      NG311      CG321       HGA2
   40    18    57	5 ;       HGA2      CG321       HGA2
   20    19    18	5 ;      CG321      NG311      CG321
   20    19    21	5 ;      CG321      NG311     HGPAM1
   18    19    21	5 ;      CG321      NG311     HGPAM1
   22    20    19	5 ;      NG311      CG321      NG311
   22    20    41	5 ;      NG311      CG321       HGA2
   22    20    58	5 ;      NG311      CG321       HGA2
   19    20    41	5 ;      NG311      CG321       HGA2
   19    20    58	5 ;      NG311      CG321       HGA2
   41    20    58	5 ;       HGA2      CG321       HGA2
   24    22    23	5 ;     HGPAM1      NG311     CG2D1O
   24    22    20	5 ;     HGPAM1      NG311      CG321
   23    22    20	5 ;     CG2D1O      NG311      CG321
   22    23    17	5 ;      NG311     CG2D1O     CG2DC1
   22    23    42	5 ;      NG311     CG2D1O       HGA4
   17    23    42	5 ;     CG2DC1     CG2D1O       HGA4
    1    25    30	5 ;     CG3C50     CG2R61     CG2R61
    1    25    26	5 ;     CG3C50     CG2R61     CG2R61
   30    25    26	5 ;     CG2R61     CG2R61     CG2R61
   25    26    27	5 ;     CG2R61     CG2R61     CG2R61
   25    26    43	5 ;     CG2R61     CG2R61      HGR61
   27    26    43	5 ;     CG2R61     CG2R61      HGR61
   26    27    28	5 ;     CG2R61     CG2R61     CG2R61
   26    27    44	5 ;     CG2R61     CG2R61      HGR61
   28    27    44	5 ;     CG2R61     CG2R61      HGR61
   29    28    27	5 ;     CG2R61     CG2R61     CG2R61
   29    28    31	5 ;     CG2R61     CG2R61      OG301
   27    28    31	5 ;     CG2R61     CG2R61      OG301
   30    29    28	5 ;     CG2R61     CG2R61     CG2R61
   30    29    45	5 ;     CG2R61     CG2R61      HGR61
   28    29    45	5 ;     CG2R61     CG2R61      HGR61
   25    30    29	5 ;     CG2R61     CG2R61     CG2R61
   25    30    46	5 ;     CG2R61     CG2R61      HGR61
   29    30    46	5 ;     CG2R61     CG2R61      HGR61
   32    31    28	5 ;      CG331      OG301     CG2R61
   31    32    47	5 ;      OG301      CG331       HGA3
   31    32    48	5 ;      OG301      CG331       HGA3
   31    32    49	5 ;      OG301      CG331       HGA3
   47    32    48	5 ;       HGA3      CG331       HGA3
   47    32    49	5 ;       HGA3      CG331       HGA3
   48    32    49	5 ;       HGA3      CG331       HGA3
   34    33    35	5 ;      CG331      CG311      CG331
   34    33     4	5 ;      CG331      CG311     CG2R51
   34    33    50	5 ;      CG331      CG311       HGA1
   35    33     4	5 ;      CG331      CG311     CG2R51
   35    33    50	5 ;      CG331      CG311       HGA1
    4    33    50	5 ;     CG2R51      CG311       HGA1
   33    34    51	5 ;      CG311      CG331       HGA3
   33    34    52	5 ;      CG311      CG331       HGA3
   33    34    53	5 ;      CG311      CG331       HGA3
   51    34    52	5 ;       HGA3      CG331       HGA3
   51    34    53	5 ;       HGA3      CG331       HGA3
   52    34    53	5 ;       HGA3      CG331       HGA3
   33    35    54	5 ;      CG311      CG331       HGA3
   33    35    55	5 ;      CG311      CG331       HGA3
   33    35    56	5 ;      CG311      CG331       HGA3
   54    35    55	5 ;       HGA3      CG331       HGA3
   54    35    56	5 ;       HGA3      CG331       HGA3
   55    35    56	5 ;       HGA3      CG331       HGA3

[ dihedrals ]
;	ai	  aj	ak	  al funct			  c0			c1			  c2			c3			  c4			c5
    2     1     6     5	 9 ;     NG3C51     CG3C50     NG3C51     CG2R51
    2     1     6     7	 9 ;     NG3C51     CG3C50     NG3C51       HGP1
   25     1     6     5	 9 ;     CG2R61     CG3C50     NG3C51     CG2R51
   25     1     6     7	 9 ;     CG2R61     CG3C50     NG3C51       HGP1
   11     1     6     5	 9 ;     CG2R61     CG3C50     NG3C51     CG2R51
   11     1     6     7	 9 ;     CG2R61     CG3C50     NG3C51       HGP1
    6     1     2     4	 9 ;     NG3C51     CG3C50     NG3C51     CG2R51
    6     1     2     3	 9 ;     NG3C51     CG3C50     NG3C51       HGP1
   25     1     2     4	 9 ;     CG2R61     CG3C50     NG3C51     CG2R51
   25     1     2     3	 9 ;     CG2R61     CG3C50     NG3C51       HGP1
   11     1     2     4	 9 ;     CG2R61     CG3C50     NG3C51     CG2R51
   11     1     2     3	 9 ;     CG2R61     CG3C50     NG3C51       HGP1
    6     1    25    30	 9 ;     NG3C51     CG3C50     CG2R61     CG2R61
    6     1    25    26	 9 ;     NG3C51     CG3C50     CG2R61     CG2R61
    2     1    25    30	 9 ;     NG3C51     CG3C50     CG2R61     CG2R61
    2     1    25    26	 9 ;     NG3C51     CG3C50     CG2R61     CG2R61
   11     1    25    30	 9 ;     CG2R61     CG3C50     CG2R61     CG2R61
   11     1    25    26	 9 ;     CG2R61     CG3C50     CG2R61     CG2R61
    6     1    11    12	 9 ;     NG3C51     CG3C50     CG2R61     CG2R61
    6     1    11    16	 9 ;     NG3C51     CG3C50     CG2R61     CG2R61
    2     1    11    12	 9 ;     NG3C51     CG3C50     CG2R61     CG2R61
    2     1    11    16	 9 ;     NG3C51     CG3C50     CG2R61     CG2R61
   25     1    11    12	 9 ;     CG2R61     CG3C50     CG2R61     CG2R61
   25     1    11    16	 9 ;     CG2R61     CG3C50     CG2R61     CG2R61
    3     2     4    33	 9 ;       HGP1     NG3C51     CG2R51      CG311
    3     2     4     5	 9 ;       HGP1     NG3C51     CG2R51     CG2R51
    1     2     4    33	 9 ;     CG3C50     NG3C51     CG2R51      CG311
    1     2     4     5	 9 ;     CG3C50     NG3C51     CG2R51     CG2R51
    5     4    33    34	 9 ;     CG2R51     CG2R51      CG311      CG331
    5     4    33    35	 9 ;     CG2R51     CG2R51      CG311      CG331
    5     4    33    50	 9 ;     CG2R51     CG2R51      CG311       HGA1
    2     4    33    34	 9 ;     NG3C51     CG2R51      CG311      CG331
    2     4    33    35	 9 ;     NG3C51     CG2R51      CG311      CG331
    2     4    33    50	 9 ;     NG3C51     CG2R51      CG311       HGA1
   33     4     5     8	 9 ;      CG311     CG2R51     CG2R51      NG321
   33     4     5     6	 9 ;      CG311     CG2R51     CG2R51     NG3C51
    2     4     5     8	 9 ;     NG3C51     CG2R51     CG2R51      NG321
    2     4     5     6	 9 ;     NG3C51     CG2R51     CG2R51     NG3C51
    4     5     8    10	 9 ;     CG2R51     CG2R51      NG321     HGPAM2
    4     5     8     9	 9 ;     CG2R51     CG2R51      NG321     HGPAM2
    6     5     8    10	 9 ;     NG3C51     CG2R51      NG321     HGPAM2
    6     5     8     9	 9 ;     NG3C51     CG2R51      NG321     HGPAM2
    8     5     6     7	 9 ;      NG321     CG2R51     NG3C51       HGP1
    8     5     6     1	 9 ;      NG321     CG2R51     NG3C51     CG3C50
    4     5     6     7	 9 ;     CG2R51     CG2R51     NG3C51       HGP1
    4     5     6     1	 9 ;     CG2R51     CG2R51     NG3C51     CG3C50
    1    11    12    13	 9 ;     CG3C50     CG2R61     CG2R61     CG2R61
    1    11    12    36	 9 ;     CG3C50     CG2R61     CG2R61      HGR61
   16    11    12    13	 9 ;     CG2R61     CG2R61     CG2R61     CG2R61
   16    11    12    36	 9 ;     CG2R61     CG2R61     CG2R61      HGR61
    1    11    16    15	 9 ;     CG3C50     CG2R61     CG2R61     CG2R61
    1    11    16    39	 9 ;     CG3C50     CG2R61     CG2R61      HGR61
   12    11    16    15	 9 ;     CG2R61     CG2R61     CG2R61     CG2R61
   12    11    16    39	 9 ;     CG2R61     CG2R61     CG2R61      HGR61
   11    12    13    17	 9 ;     CG2R61     CG2R61     CG2R61     CG2DC1
   11    12    13    14	 9 ;     CG2R61     CG2R61     CG2R61     CG2R61
   36    12    13    17	 9 ;      HGR61     CG2R61     CG2R61     CG2DC1
   36    12    13    14	 9 ;      HGR61     CG2R61     CG2R61     CG2R61
   12    13    17    23	 9 ;     CG2R61     CG2R61     CG2DC1     CG2D1O
   12    13    17    18	 9 ;     CG2R61     CG2R61     CG2DC1      CG321
   14    13    17    23	 9 ;     CG2R61     CG2R61     CG2DC1     CG2D1O
   14    13    17    18	 9 ;     CG2R61     CG2R61     CG2DC1      CG321
   12    13    14    15	 9 ;     CG2R61     CG2R61     CG2R61     CG2R61
   12    13    14    37	 9 ;     CG2R61     CG2R61     CG2R61      HGR61
   17    13    14    15	 9 ;     CG2DC1     CG2R61     CG2R61     CG2R61
   17    13    14    37	 9 ;     CG2DC1     CG2R61     CG2R61      HGR61
   13    14    15    16	 9 ;     CG2R61     CG2R61     CG2R61     CG2R61
   13    14    15    38	 9 ;     CG2R61     CG2R61     CG2R61      HGR61
   37    14    15    16	 9 ;      HGR61     CG2R61     CG2R61     CG2R61
   37    14    15    38	 9 ;      HGR61     CG2R61     CG2R61      HGR61
   14    15    16    11	 9 ;     CG2R61     CG2R61     CG2R61     CG2R61
   14    15    16    39	 9 ;     CG2R61     CG2R61     CG2R61      HGR61
   38    15    16    11	 9 ;      HGR61     CG2R61     CG2R61     CG2R61
   38    15    16    39	 9 ;      HGR61     CG2R61     CG2R61      HGR61
   13    17    23    22	 9 ;     CG2R61     CG2DC1     CG2D1O      NG311
   13    17    23    42	 9 ;     CG2R61     CG2DC1     CG2D1O       HGA4
   18    17    23    22	 9 ;      CG321     CG2DC1     CG2D1O      NG311
   18    17    23    42	 9 ;      CG321     CG2DC1     CG2D1O       HGA4
   23    17    18    19	 9 ;     CG2D1O     CG2DC1      CG321      NG311
   23    17    18    40	 9 ;     CG2D1O     CG2DC1      CG321       HGA2
   23    17    18    57	 9 ;     CG2D1O     CG2DC1      CG321       HGA2
   13    17    18    19	 9 ;     CG2R61     CG2DC1      CG321      NG311
   13    17    18    40	 9 ;     CG2R61     CG2DC1      CG321       HGA2
   13    17    18    57	 9 ;     CG2R61     CG2DC1      CG321       HGA2
   17    18    19    20	 9 ;     CG2DC1      CG321      NG311      CG321
   17    18    19    21	 9 ;     CG2DC1      CG321      NG311     HGPAM1
   40    18    19    20	 9 ;       HGA2      CG321      NG311      CG321
   40    18    19    21	 9 ;       HGA2      CG321      NG311     HGPAM1
   57    18    19    20	 9 ;       HGA2      CG321      NG311      CG321
   57    18    19    21	 9 ;       HGA2      CG321      NG311     HGPAM1
   18    19    20    22	 9 ;      CG321      NG311      CG321      NG311
   18    19    20    41	 9 ;      CG321      NG311      CG321       HGA2
   18    19    20    58	 9 ;      CG321      NG311      CG321       HGA2
   21    19    20    22	 9 ;     HGPAM1      NG311      CG321      NG311
   21    19    20    41	 9 ;     HGPAM1      NG311      CG321       HGA2
   21    19    20    58	 9 ;     HGPAM1      NG311      CG321       HGA2
   19    20    22    24	 9 ;      NG311      CG321      NG311     HGPAM1
   19    20    22    23	 9 ;      NG311      CG321      NG311     CG2D1O
   41    20    22    24	 9 ;       HGA2      CG321      NG311     HGPAM1
   41    20    22    23	 9 ;       HGA2      CG321      NG311     CG2D1O
   58    20    22    24	 9 ;       HGA2      CG321      NG311     HGPAM1
   58    20    22    23	 9 ;       HGA2      CG321      NG311     CG2D1O
   24    22    23    17	 9 ;     HGPAM1      NG311     CG2D1O     CG2DC1
   24    22    23    42	 9 ;     HGPAM1      NG311     CG2D1O       HGA4
   20    22    23    17	 9 ;      CG321      NG311     CG2D1O     CG2DC1
   20    22    23    42	 9 ;      CG321      NG311     CG2D1O       HGA4
    1    25    30    29	 9 ;     CG3C50     CG2R61     CG2R61     CG2R61
    1    25    30    46	 9 ;     CG3C50     CG2R61     CG2R61      HGR61
   26    25    30    29	 9 ;     CG2R61     CG2R61     CG2R61     CG2R61
   26    25    30    46	 9 ;     CG2R61     CG2R61     CG2R61      HGR61
    1    25    26    27	 9 ;     CG3C50     CG2R61     CG2R61     CG2R61
    1    25    26    43	 9 ;     CG3C50     CG2R61     CG2R61      HGR61
   30    25    26    27	 9 ;     CG2R61     CG2R61     CG2R61     CG2R61
   30    25    26    43	 9 ;     CG2R61     CG2R61     CG2R61      HGR61
   25    26    27    28	 9 ;     CG2R61     CG2R61     CG2R61     CG2R61
   25    26    27    44	 9 ;     CG2R61     CG2R61     CG2R61      HGR61
   43    26    27    28	 9 ;      HGR61     CG2R61     CG2R61     CG2R61
   43    26    27    44	 9 ;      HGR61     CG2R61     CG2R61      HGR61
   26    27    28    29	 9 ;     CG2R61     CG2R61     CG2R61     CG2R61
   26    27    28    31	 9 ;     CG2R61     CG2R61     CG2R61      OG301
   44    27    28    29	 9 ;      HGR61     CG2R61     CG2R61     CG2R61
   44    27    28    31	 9 ;      HGR61     CG2R61     CG2R61      OG301
   27    28    29    30	 9 ;     CG2R61     CG2R61     CG2R61     CG2R61
   27    28    29    45	 9 ;     CG2R61     CG2R61     CG2R61      HGR61
   31    28    29    30	 9 ;      OG301     CG2R61     CG2R61     CG2R61
   31    28    29    45	 9 ;      OG301     CG2R61     CG2R61      HGR61
   29    28    31    32	 9 ;     CG2R61     CG2R61      OG301      CG331
   27    28    31    32	 9 ;     CG2R61     CG2R61      OG301      CG331
   28    29    30    25	 9 ;     CG2R61     CG2R61     CG2R61     CG2R61
   28    29    30    46	 9 ;     CG2R61     CG2R61     CG2R61      HGR61
   45    29    30    25	 9 ;      HGR61     CG2R61     CG2R61     CG2R61
   45    29    30    46	 9 ;      HGR61     CG2R61     CG2R61      HGR61
   28    31    32    47	 9 ;     CG2R61      OG301      CG331       HGA3
   28    31    32    48	 9 ;     CG2R61      OG301      CG331       HGA3
   28    31    32    49	 9 ;     CG2R61      OG301      CG331       HGA3
   35    33    34    51	 9 ;      CG331      CG311      CG331       HGA3
   35    33    34    52	 9 ;      CG331      CG311      CG331       HGA3
   35    33    34    53	 9 ;      CG331      CG311      CG331       HGA3
    4    33    34    51	 9 ;     CG2R51      CG311      CG331       HGA3
    4    33    34    52	 9 ;     CG2R51      CG311      CG331       HGA3
    4    33    34    53	 9 ;     CG2R51      CG311      CG331       HGA3
   50    33    34    51	 9 ;       HGA1      CG311      CG331       HGA3
   50    33    34    52	 9 ;       HGA1      CG311      CG331       HGA3
   50    33    34    53	 9 ;       HGA1      CG311      CG331       HGA3
   34    33    35    54	 9 ;      CG331      CG311      CG331       HGA3
   34    33    35    55	 9 ;      CG331      CG311      CG331       HGA3
   34    33    35    56	 9 ;      CG331      CG311      CG331       HGA3
    4    33    35    54	 9 ;     CG2R51      CG311      CG331       HGA3
    4    33    35    55	 9 ;     CG2R51      CG311      CG331       HGA3
    4    33    35    56	 9 ;     CG2R51      CG311      CG331       HGA3
   50    33    35    54	 9 ;       HGA1      CG311      CG331       HGA3
   50    33    35    55	 9 ;       HGA1      CG311      CG331       HGA3
   50    33    35    56	 9 ;       HGA1      CG311      CG331       HGA3

[ dihedrals ]
;	ai	  aj	ak	  al funct			  c0			c1			  c2			c3
   23    17    22    42	 2

