GROningen Mixture of Alchemy and Childrens' Stories
   58
    1LIG     C1    1  -1.316   0.399  -1.623
    1LIG     N1    2  -1.235   0.523  -1.601
    1LIG    HN1    3  -1.235   0.584  -1.520
    1LIG     C2    4  -1.165   0.534  -1.709
    1LIG     C3    5  -1.200   0.430  -1.809
    1LIG     N2    6  -1.290   0.350  -1.763
    1LIG    HN2    7  -1.334   0.272  -1.811
    1LIG     N3    8  -1.148   0.420  -1.935
    1LIG     H1    9  -1.202   0.359  -1.996
    1LIG     H2   10  -1.113   0.503  -1.980
    1LIG     C4   11  -1.465   0.435  -1.604
    1LIG     C5   12  -1.505   0.570  -1.614
    1LIG     C6   13  -1.639   0.612  -1.602
    1LIG     C7   14  -1.735   0.513  -1.577
    1LIG     C8   15  -1.698   0.378  -1.566
    1LIG     C9   16  -1.565   0.340  -1.579
    1LIG    C10   17  -1.674   0.755  -1.614
    1LIG    C11   18  -1.775   0.801  -1.697
    1LIG     N4   19  -1.809   0.931  -1.714
    1LIG    C12   20  -1.737   1.018  -1.642
    1LIG    HN3   21  -1.883   0.960  -1.777
    1LIG     N5   22  -1.639   0.988  -1.557
    1LIG    C13   23  -1.610   0.856  -1.545
    1LIG    HN4   24  -1.589   1.060  -1.504
    1LIG    C14   25  -1.275   0.289  -1.522
    1LIG    C15   26  -1.266   0.317  -1.385
    1LIG    C16   27  -1.240   0.217  -1.291
    1LIG    C17   28  -1.217   0.086  -1.334
    1LIG    C18   29  -1.221   0.058  -1.470
    1LIG    C19   30  -1.250   0.158  -1.564
    1LIG      O   31  -1.191  -0.021  -1.253
    1LIG    C20   32  -1.112  -0.125  -1.308
    1LIG    C21   33  -1.064   0.641  -1.737
    1LIG    C22   34  -1.132   0.761  -1.803
    1LIG    C23   35  -0.992   0.683  -1.609
    1LIG     HC   36  -1.430   0.645  -1.633
    1LIG    HC1   37  -1.839   0.540  -1.567
    1LIG    HC2   38  -1.774   0.303  -1.547
    1LIG    HC3   39  -1.538   0.236  -1.571
    1LIG    HC4   40  -1.831   0.728  -1.753
    1LIG    HC5   41  -1.762   1.123  -1.654
    1LIG    HC6   42  -1.530   0.828  -1.477
    1LIG    HC7   43  -1.281   0.419  -1.350
    1LIG    HC8   44  -1.236   0.241  -1.186
    1LIG    HC9   45  -1.202  -0.043  -1.504
    1LIG   HC10   46  -1.254   0.133  -1.669
    1LIG   HC11   47  -1.075  -0.190  -1.228
    1LIG   HC12   48  -1.171  -0.184  -1.378
    1LIG   HC13   49  -1.027  -0.081  -1.361
    1LIG   HC14   50  -0.990   0.601  -1.807
    1LIG   HC15   51  -1.182   0.729  -1.894
    1LIG   HC16   52  -1.205   0.803  -1.734
    1LIG   HC17   53  -1.057   0.836  -1.827
    1LIG   HC18   54  -0.945   0.596  -1.564
    1LIG   HC19   55  -0.916   0.758  -1.632
    1LIG   HC20   56  -1.064   0.725  -1.539
    1LIG    H28   57  -1.704   0.809  -1.779
    1LIG    H29   58  -1.665   1.026  -1.723
   0.00000   0.00000   0.00000
