Getting the Right Output Means no Artefacts in Calculating Stuff
   63
    1LIG     C1    1  -1.384   0.437  -1.826
    1LIG     C2    2  -1.500   0.470  -1.728
    1LIG     C3    3  -1.525   0.362  -1.621
    1LIG     C4    4  -1.670   0.345  -1.587
    1LIG     C5    5  -1.759   0.298  -1.684
    1LIG     C6    6  -1.897   0.296  -1.660
    1LIG     F1    7  -1.979   0.257  -1.758
    1LIG     C7    8  -1.948   0.338  -1.539
    1LIG     C8    9  -1.859   0.377  -1.439
    1LIG     C9   10  -1.721   0.380  -1.462
    1LIG     F2   11  -1.906   0.414  -1.320
    1LIG     N1   12  -1.477   0.601  -1.664
    1LIG    C10   13  -1.574   0.698  -1.666
    1LIG     O1   14  -1.677   0.684  -1.732
    1LIG    C11   15  -1.546   0.824  -1.589
    1LIG     H1   16  -1.392   0.618  -1.611
    1LIG     O2   17  -1.434   0.408  -1.956
    1LIG     H2   18  -1.463   0.314  -1.953
    1LIG    C12   19  -1.259   0.530  -1.834
    1LIG     N2   20  -1.140   0.508  -1.742
    1LIG     H3   21  -1.140   0.406  -1.727
    1LIG     H4   22  -1.052   0.526  -1.794
    1LIG    C13   23  -1.131   0.558  -1.600
    1LIG    C14   24  -1.151   0.706  -1.578
    1LIG    C15   25  -1.013   0.651  -1.571
    1LIG    C16   26  -1.164   0.460  -1.488
    1LIG    C17   27  -1.172   0.324  -1.516
    1LIG    C18   28  -1.199   0.226  -1.419
    1LIG    C19   29  -1.225   0.267  -1.288
    1LIG    C20   30  -1.224   0.403  -1.256
    1LIG    C21   31  -1.193   0.497  -1.355
    1LIG    C22   32  -1.207   0.080  -1.457
    1LIG     O3   33  -1.238   0.003  -1.340
    1LIG    C23   34  -1.131  -0.090  -1.316
    1LIG    C24   35  -1.010  -0.034  -1.388
    1LIG    C25   36  -1.073   0.029  -1.510
    1LIG     HC   37  -1.344   0.341  -1.790
    1LIG    HC1   38  -1.591   0.478  -1.788
    1LIG    HC2   39  -1.470   0.389  -1.531
    1LIG    HC3   40  -1.486   0.267  -1.658
    1LIG    HC4   41  -1.721   0.261  -1.778
    1LIG    HC5   42  -2.054   0.339  -1.521
    1LIG    HC6   43  -1.654   0.410  -1.383
    1LIG    HC7   44  -1.630   0.892  -1.599
    1LIG    HC8   45  -1.456   0.871  -1.629
    1LIG    HC9   46  -1.531   0.800  -1.484
    1LIG   HC10   47  -1.221   0.523  -1.936
    1LIG   HC11   48  -1.293   0.632  -1.818
    1LIG   HC12   49  -1.179   0.770  -1.662
    1LIG   HC13   50  -1.195   0.734  -1.483
    1LIG   HC14   51  -0.941   0.674  -1.649
    1LIG   HC15   52  -0.971   0.644  -1.470
    1LIG   HC16   53  -1.156   0.291  -1.618
    1LIG   HC17   54  -1.246   0.194  -1.212
    1LIG   HC18   55  -1.247   0.435  -1.155
    1LIG   HC19   56  -1.192   0.602  -1.328
    1LIG   HC20   57  -1.284   0.066  -1.533
    1LIG   HC21   58  -1.111  -0.099  -1.209
    1LIG   HC22   59  -1.157  -0.188  -1.357
    1LIG   HC23   60  -0.940  -0.113  -1.416
    1LIG   HC24   61  -0.960   0.041  -1.327
    1LIG   HC25   62  -1.012   0.111  -1.548
    1LIG   HC26   63  -1.089  -0.046  -1.588
   0.00000   0.00000   0.00000
