; Created by cgenff_charmm2gmx.py

[ moleculetype ]
; Name			   nrexcl
LIG				 3

[ atoms ]
;	 nr		  type	resnr residue  atom   cgnr	   charge		mass  typeB    chargeB		massB
; residue	 1 LIG rtp LIG q	qsum
     1      CG311      1    LIG     C1      1      0.093     12.011   ;
     2      CG311      1    LIG     C2      2     -0.007     12.011   ;
     3      CG321      1    LIG     C3      3     -0.153     12.011   ;
     4     CG2R61      1    LIG     C4      4      0.057     12.011   ;
     5     CG2R61      1    LIG     C5      5     -0.218     12.011   ;
     6     CG2R66      1    LIG     C6      6      0.261     12.011   ;
     7       FGR1      1    LIG     F1      7     -0.210     18.998   ;
     8     CG2R61      1    LIG     C7      8     -0.240     12.011   ;
     9     CG2R66      1    LIG     C8      9      0.261     12.011   ;
    10     CG2R61      1    LIG     C9     10     -0.218     12.011   ;
    11       FGR1      1    LIG     F2     11     -0.210     18.998   ;
    12      NG2S1      1    LIG     N1     12     -0.339     14.007   ;
    13      CG2O1      1    LIG    C10     13      0.488     12.011   ;
    14      OG2D1      1    LIG     O1     14     -0.509     15.999   ;
    15      CG331      1    LIG    C11     15     -0.270     12.011   ;
    16       HGP1      1    LIG     H1     16      0.261      1.008   ;
    17      OG311      1    LIG     O2     17     -0.625     15.999   ;
    18       HGP1      1    LIG     H2     18      0.415      1.008   ;
    19      CG324      1    LIG    C12     19      0.186     12.011   ;
    20      NG3P2      1    LIG     N2     20     -0.483     14.007   ;
    21       HGP2      1    LIG     H3     21      0.343      1.008   ;
    22       HGP2      1    LIG     H4     22      0.343      1.008   ;
    23     CG3C31      1    LIG    C13     23      0.393     12.011   ;
    24     CG3C31      1    LIG    C14     24     -0.149     12.011   ;
    25     CG3C31      1    LIG    C15     25     -0.149     12.011   ;
    26     CG2R61      1    LIG    C16     26     -0.099     12.011   ;
    27     CG2R61      1    LIG    C17     27     -0.084     12.011   ;
    28     CG2R61      1    LIG    C18     28      0.154     12.011   ;
    29     CG2R61      1    LIG    C19     29     -0.123     12.011   ;
    30     CG2R61      1    LIG    C20     30     -0.112     12.011   ;
    31     CG2R61      1    LIG    C21     31     -0.077     12.011   ;
    32     CG3C51      1    LIG    C22     32      0.025     12.011   ;
    33     OG3C51      1    LIG     O3     33     -0.391     15.999   ;
    34     CG3C52      1    LIG    C23     34     -0.072     12.011   ;
    35     CG3C52      1    LIG    C24     35     -0.158     12.011   ;
    36     CG3C52      1    LIG    C25     36     -0.182     12.011   ;
    37       HGA1      1    LIG     HC     37      0.090      1.008   ;
    38       HGA1      1    LIG    HC1     38      0.090      1.008   ;
    39       HGA2      1    LIG    HC2     39      0.090      1.008   ;
    40       HGA2      1    LIG    HC3     40      0.090      1.008   ;
    41      HGR62      1    LIG    HC4     41      0.174      1.008   ;
    42      HGR62      1    LIG    HC5     42      0.186      1.008   ;
    43      HGR62      1    LIG    HC6     43      0.174      1.008   ;
    44       HGA3      1    LIG    HC7     44      0.090      1.008   ;
    45       HGA3      1    LIG    HC8     45      0.090      1.008   ;
    46       HGA3      1    LIG    HC9     46      0.090      1.008   ;
    47       HGA2      1    LIG   HC10     47      0.090      1.008   ;
    48       HGA2      1    LIG   HC11     48      0.090      1.008   ;
    49       HGA2      1    LIG   HC12     49      0.090      1.008   ;
    50       HGA2      1    LIG   HC13     50      0.090      1.008   ;
    51       HGA2      1    LIG   HC14     51      0.090      1.008   ;
    52       HGA2      1    LIG   HC15     52      0.090      1.008   ;
    53      HGR61      1    LIG   HC16     53      0.116      1.008   ;
    54      HGR61      1    LIG   HC17     54      0.116      1.008   ;
    55      HGR61      1    LIG   HC18     55      0.116      1.008   ;
    56      HGR61      1    LIG   HC19     56      0.116      1.008   ;
    57       HGA1      1    LIG   HC20     57      0.090      1.008   ;
    58       HGA2      1    LIG   HC21     58      0.090      1.008   ;
    59       HGA2      1    LIG   HC22     59      0.090      1.008   ;
    60       HGA2      1    LIG   HC23     60      0.090      1.008   ;
    61       HGA2      1    LIG   HC24     61      0.090      1.008   ;
    62       HGA2      1    LIG   HC25     62      0.090      1.008   ;
    63       HGA2      1    LIG   HC26     63      0.090      1.008   ;

[ bonds ]
;	ai	  aj funct			  c0			c1			  c2			c3
    1    19	 1 ;       CG311      CG324
    1    17	 1 ;       CG311      OG311
    1     2	 1 ;       CG311      CG311
    1    37	 1 ;       CG311       HGA1
    2    12	 1 ;       CG311      NG2S1
    2     3	 1 ;       CG311      CG321
    2    38	 1 ;       CG311       HGA1
    3     4	 1 ;       CG321     CG2R61
    3    39	 1 ;       CG321       HGA2
    3    40	 1 ;       CG321       HGA2
    4     5	 1 ;      CG2R61     CG2R61
    4    10	 1 ;      CG2R61     CG2R61
    5     6	 1 ;      CG2R61     CG2R66
    5    41	 1 ;      CG2R61      HGR62
    6     7	 1 ;      CG2R66       FGR1
    6     8	 1 ;      CG2R66     CG2R61
    8     9	 1 ;      CG2R61     CG2R66
    8    42	 1 ;      CG2R61      HGR62
    9    10	 1 ;      CG2R66     CG2R61
    9    11	 1 ;      CG2R66       FGR1
   10    43	 1 ;      CG2R61      HGR62
   12    16	 1 ;       NG2S1       HGP1
   12    13	 1 ;       NG2S1      CG2O1
   13    15	 1 ;       CG2O1      CG331
   13    14	 1 ;       CG2O1      OG2D1
   15    44	 1 ;       CG331       HGA3
   15    45	 1 ;       CG331       HGA3
   15    46	 1 ;       CG331       HGA3
   17    18	 1 ;       OG311       HGP1
   19    20	 1 ;       CG324      NG3P2
   19    47	 1 ;       CG324       HGA2
   19    48	 1 ;       CG324       HGA2
   20    22	 1 ;       NG3P2       HGP2
   20    21	 1 ;       NG3P2       HGP2
   20    23	 1 ;       NG3P2     CG3C31
   23    25	 1 ;      CG3C31     CG3C31
   23    24	 1 ;      CG3C31     CG3C31
   23    26	 1 ;      CG3C31     CG2R61
   24    25	 1 ;      CG3C31     CG3C31
   24    49	 1 ;      CG3C31       HGA2
   24    50	 1 ;      CG3C31       HGA2
   25    51	 1 ;      CG3C31       HGA2
   25    52	 1 ;      CG3C31       HGA2
   26    27	 1 ;      CG2R61     CG2R61
   26    31	 1 ;      CG2R61     CG2R61
   27    28	 1 ;      CG2R61     CG2R61
   27    53	 1 ;      CG2R61      HGR61
   28    32	 1 ;      CG2R61     CG3C51
   28    29	 1 ;      CG2R61     CG2R61
   29    30	 1 ;      CG2R61     CG2R61
   29    54	 1 ;      CG2R61      HGR61
   30    31	 1 ;      CG2R61     CG2R61
   30    55	 1 ;      CG2R61      HGR61
   31    56	 1 ;      CG2R61      HGR61
   32    36	 1 ;      CG3C51     CG3C52
   32    33	 1 ;      CG3C51     OG3C51
   32    57	 1 ;      CG3C51       HGA1
   33    34	 1 ;      OG3C51     CG3C52
   34    35	 1 ;      CG3C52     CG3C52
   34    58	 1 ;      CG3C52       HGA2
   34    59	 1 ;      CG3C52       HGA2
   35    36	 1 ;      CG3C52     CG3C52
   35    60	 1 ;      CG3C52       HGA2
   35    61	 1 ;      CG3C52       HGA2
   36    62	 1 ;      CG3C52       HGA2
   36    63	 1 ;      CG3C52       HGA2

[ pairs ]
;	ai	  aj funct			  c0			c1			  c2			c3
    1    16	 1
    1    13	 1
    1     4	 1
    1    39	 1
    1    40	 1
    1    22	 1
    1    21	 1
    1    23	 1
    2    20	 1
    2    47	 1
    2    48	 1
    2    18	 1
    2     5	 1
    2    10	 1
    2    15	 1
    2    14	 1
    3    19	 1
    3    17	 1
    3    37	 1
    3    16	 1
    3    13	 1
    3     6	 1
    3    41	 1
    3     9	 1
    3    43	 1
    4    12	 1
    4    38	 1
    4     7	 1
    4     8	 1
    4    11	 1
    5    39	 1
    5    40	 1
    5     9	 1
    5    43	 1
    5    42	 1
    6    10	 1
    6    11	 1
    7    41	 1
    7     9	 1
    7    42	 1
    8    41	 1
    8    43	 1
   10    39	 1
   10    40	 1
   10    41	 1
   10    42	 1
   11    42	 1
   11    43	 1
   12    19	 1
   12    17	 1
   12    37	 1
   12    39	 1
   12    40	 1
   12    44	 1
   12    45	 1
   12    46	 1
   13    38	 1
   14    16	 1
   14    44	 1
   14    45	 1
   14    46	 1
   15    16	 1
   16    38	 1
   17    20	 1
   17    47	 1
   17    48	 1
   17    38	 1
   18    19	 1
   18    37	 1
   19    38	 1
   19    25	 1
   19    24	 1
   19    26	 1
   20    37	 1
   20    51	 1
   20    52	 1
   20    49	 1
   20    50	 1
   20    27	 1
   20    31	 1
   21    47	 1
   21    48	 1
   21    25	 1
   21    24	 1
   21    26	 1
   22    47	 1
   22    48	 1
   22    25	 1
   22    24	 1
   22    26	 1
   23    47	 1
   23    48	 1
   23    28	 1
   23    53	 1
   23    30	 1
   23    56	 1
   24    27	 1
   24    31	 1
   25    27	 1
   25    31	 1
   26    51	 1
   26    52	 1
   26    49	 1
   26    50	 1
   26    32	 1
   26    29	 1
   26    55	 1
   27    30	 1
   27    56	 1
   27    36	 1
   27    33	 1
   27    57	 1
   27    54	 1
   28    31	 1
   28    55	 1
   28    35	 1
   28    62	 1
   28    63	 1
   28    34	 1
   29    53	 1
   29    36	 1
   29    33	 1
   29    57	 1
   29    56	 1
   30    32	 1
   31    53	 1
   31    54	 1
   32    53	 1
   32    54	 1
   32    58	 1
   32    59	 1
   32    60	 1
   32    61	 1
   33    62	 1
   33    63	 1
   33    60	 1
   33    61	 1
   34    57	 1
   34    62	 1
   34    63	 1
   35    57	 1
   36    58	 1
   36    59	 1
   37    47	 1
   37    48	 1
   37    38	 1
   38    39	 1
   38    40	 1
   49    51	 1
   49    52	 1
   50    51	 1
   50    52	 1
   54    55	 1
   55    56	 1
   57    62	 1
   57    63	 1
   58    60	 1
   58    61	 1
   59    60	 1
   59    61	 1
   60    62	 1
   60    63	 1
   61    62	 1
   61    63	 1

[ angles ]
;	ai	  aj	ak funct			c0			  c1			c2			  c3
   19     1    17	5 ;      CG324      CG311      OG311
   19     1     2	5 ;      CG324      CG311      CG311
   19     1    37	5 ;      CG324      CG311       HGA1
   17     1     2	5 ;      OG311      CG311      CG311
   17     1    37	5 ;      OG311      CG311       HGA1
    2     1    37	5 ;      CG311      CG311       HGA1
    1     2    12	5 ;      CG311      CG311      NG2S1
    1     2     3	5 ;      CG311      CG311      CG321
    1     2    38	5 ;      CG311      CG311       HGA1
   12     2     3	5 ;      NG2S1      CG311      CG321
   12     2    38	5 ;      NG2S1      CG311       HGA1
    3     2    38	5 ;      CG321      CG311       HGA1
    2     3     4	5 ;      CG311      CG321     CG2R61
    2     3    39	5 ;      CG311      CG321       HGA2
    2     3    40	5 ;      CG311      CG321       HGA2
    4     3    39	5 ;     CG2R61      CG321       HGA2
    4     3    40	5 ;     CG2R61      CG321       HGA2
   39     3    40	5 ;       HGA2      CG321       HGA2
    3     4     5	5 ;      CG321     CG2R61     CG2R61
    3     4    10	5 ;      CG321     CG2R61     CG2R61
    5     4    10	5 ;     CG2R61     CG2R61     CG2R61
    4     5     6	5 ;     CG2R61     CG2R61     CG2R66
    4     5    41	5 ;     CG2R61     CG2R61      HGR62
    6     5    41	5 ;     CG2R66     CG2R61      HGR62
    5     6     7	5 ;     CG2R61     CG2R66       FGR1
    5     6     8	5 ;     CG2R61     CG2R66     CG2R61
    7     6     8	5 ;       FGR1     CG2R66     CG2R61
    6     8     9	5 ;     CG2R66     CG2R61     CG2R66
    6     8    42	5 ;     CG2R66     CG2R61      HGR62
    9     8    42	5 ;     CG2R66     CG2R61      HGR62
   10     9     8	5 ;     CG2R61     CG2R66     CG2R61
   10     9    11	5 ;     CG2R61     CG2R66       FGR1
    8     9    11	5 ;     CG2R61     CG2R66       FGR1
    4    10     9	5 ;     CG2R61     CG2R61     CG2R66
    4    10    43	5 ;     CG2R61     CG2R61      HGR62
    9    10    43	5 ;     CG2R66     CG2R61      HGR62
   16    12     2	5 ;       HGP1      NG2S1      CG311
   16    12    13	5 ;       HGP1      NG2S1      CG2O1
    2    12    13	5 ;      CG311      NG2S1      CG2O1
   12    13    15	5 ;      NG2S1      CG2O1      CG331
   12    13    14	5 ;      NG2S1      CG2O1      OG2D1
   15    13    14	5 ;      CG331      CG2O1      OG2D1
   13    15    44	5 ;      CG2O1      CG331       HGA3
   13    15    45	5 ;      CG2O1      CG331       HGA3
   13    15    46	5 ;      CG2O1      CG331       HGA3
   44    15    45	5 ;       HGA3      CG331       HGA3
   44    15    46	5 ;       HGA3      CG331       HGA3
   45    15    46	5 ;       HGA3      CG331       HGA3
    1    17    18	5 ;      CG311      OG311       HGP1
   20    19     1	5 ;      NG3P2      CG324      CG311
   20    19    47	5 ;      NG3P2      CG324       HGA2
   20    19    48	5 ;      NG3P2      CG324       HGA2
    1    19    47	5 ;      CG311      CG324       HGA2
    1    19    48	5 ;      CG311      CG324       HGA2
   47    19    48	5 ;       HGA2      CG324       HGA2
   22    20    21	5 ;       HGP2      NG3P2       HGP2
   22    20    19	5 ;       HGP2      NG3P2      CG324
   22    20    23	5 ;       HGP2      NG3P2     CG3C31
   21    20    19	5 ;       HGP2      NG3P2      CG324
   21    20    23	5 ;       HGP2      NG3P2     CG3C31
   19    20    23	5 ;      CG324      NG3P2     CG3C31
   25    23    20	5 ;     CG3C31     CG3C31      NG3P2
   25    23    24	5 ;     CG3C31     CG3C31     CG3C31
   25    23    26	5 ;     CG3C31     CG3C31     CG2R61
   20    23    24	5 ;      NG3P2     CG3C31     CG3C31
   20    23    26	5 ;      NG3P2     CG3C31     CG2R61
   24    23    26	5 ;     CG3C31     CG3C31     CG2R61
   25    24    23	5 ;     CG3C31     CG3C31     CG3C31
   25    24    49	5 ;     CG3C31     CG3C31       HGA2
   25    24    50	5 ;     CG3C31     CG3C31       HGA2
   23    24    49	5 ;     CG3C31     CG3C31       HGA2
   23    24    50	5 ;     CG3C31     CG3C31       HGA2
   49    24    50	5 ;       HGA2     CG3C31       HGA2
   24    25    23	5 ;     CG3C31     CG3C31     CG3C31
   24    25    51	5 ;     CG3C31     CG3C31       HGA2
   24    25    52	5 ;     CG3C31     CG3C31       HGA2
   23    25    51	5 ;     CG3C31     CG3C31       HGA2
   23    25    52	5 ;     CG3C31     CG3C31       HGA2
   51    25    52	5 ;       HGA2     CG3C31       HGA2
   23    26    27	5 ;     CG3C31     CG2R61     CG2R61
   23    26    31	5 ;     CG3C31     CG2R61     CG2R61
   27    26    31	5 ;     CG2R61     CG2R61     CG2R61
   26    27    28	5 ;     CG2R61     CG2R61     CG2R61
   26    27    53	5 ;     CG2R61     CG2R61      HGR61
   28    27    53	5 ;     CG2R61     CG2R61      HGR61
   27    28    32	5 ;     CG2R61     CG2R61     CG3C51
   27    28    29	5 ;     CG2R61     CG2R61     CG2R61
   32    28    29	5 ;     CG3C51     CG2R61     CG2R61
   28    29    30	5 ;     CG2R61     CG2R61     CG2R61
   28    29    54	5 ;     CG2R61     CG2R61      HGR61
   30    29    54	5 ;     CG2R61     CG2R61      HGR61
   31    30    29	5 ;     CG2R61     CG2R61     CG2R61
   31    30    55	5 ;     CG2R61     CG2R61      HGR61
   29    30    55	5 ;     CG2R61     CG2R61      HGR61
   26    31    30	5 ;     CG2R61     CG2R61     CG2R61
   26    31    56	5 ;     CG2R61     CG2R61      HGR61
   30    31    56	5 ;     CG2R61     CG2R61      HGR61
   36    32    28	5 ;     CG3C52     CG3C51     CG2R61
   36    32    33	5 ;     CG3C52     CG3C51     OG3C51
   36    32    57	5 ;     CG3C52     CG3C51       HGA1
   28    32    33	5 ;     CG2R61     CG3C51     OG3C51
   28    32    57	5 ;     CG2R61     CG3C51       HGA1
   33    32    57	5 ;     OG3C51     CG3C51       HGA1
   32    33    34	5 ;     CG3C51     OG3C51     CG3C52
   35    34    33	5 ;     CG3C52     CG3C52     OG3C51
   35    34    58	5 ;     CG3C52     CG3C52       HGA2
   35    34    59	5 ;     CG3C52     CG3C52       HGA2
   33    34    58	5 ;     OG3C51     CG3C52       HGA2
   33    34    59	5 ;     OG3C51     CG3C52       HGA2
   58    34    59	5 ;       HGA2     CG3C52       HGA2
   36    35    34	5 ;     CG3C52     CG3C52     CG3C52
   36    35    60	5 ;     CG3C52     CG3C52       HGA2
   36    35    61	5 ;     CG3C52     CG3C52       HGA2
   34    35    60	5 ;     CG3C52     CG3C52       HGA2
   34    35    61	5 ;     CG3C52     CG3C52       HGA2
   60    35    61	5 ;       HGA2     CG3C52       HGA2
   35    36    32	5 ;     CG3C52     CG3C52     CG3C51
   35    36    62	5 ;     CG3C52     CG3C52       HGA2
   35    36    63	5 ;     CG3C52     CG3C52       HGA2
   32    36    62	5 ;     CG3C51     CG3C52       HGA2
   32    36    63	5 ;     CG3C51     CG3C52       HGA2
   62    36    63	5 ;       HGA2     CG3C52       HGA2

[ dihedrals ]
;	ai	  aj	ak	  al funct			  c0			c1			  c2			c3			  c4			c5
   17     1    19    20	 9 ;      OG311      CG311      CG324      NG3P2
   17     1    19    47	 9 ;      OG311      CG311      CG324       HGA2
   17     1    19    48	 9 ;      OG311      CG311      CG324       HGA2
    2     1    19    20	 9 ;      CG311      CG311      CG324      NG3P2
    2     1    19    47	 9 ;      CG311      CG311      CG324       HGA2
    2     1    19    48	 9 ;      CG311      CG311      CG324       HGA2
   37     1    19    20	 9 ;       HGA1      CG311      CG324      NG3P2
   37     1    19    47	 9 ;       HGA1      CG311      CG324       HGA2
   37     1    19    48	 9 ;       HGA1      CG311      CG324       HGA2
   19     1    17    18	 9 ;      CG324      CG311      OG311       HGP1
    2     1    17    18	 9 ;      CG311      CG311      OG311       HGP1
   37     1    17    18	 9 ;       HGA1      CG311      OG311       HGP1
   19     1     2    12	 9 ;      CG324      CG311      CG311      NG2S1
   19     1     2     3	 9 ;      CG324      CG311      CG311      CG321
   19     1     2    38	 9 ;      CG324      CG311      CG311       HGA1
   17     1     2    12	 9 ;      OG311      CG311      CG311      NG2S1
   17     1     2     3	 9 ;      OG311      CG311      CG311      CG321
   17     1     2    38	 9 ;      OG311      CG311      CG311       HGA1
   37     1     2    12	 9 ;       HGA1      CG311      CG311      NG2S1
   37     1     2     3	 9 ;       HGA1      CG311      CG311      CG321
   37     1     2    38	 9 ;       HGA1      CG311      CG311       HGA1
    1     2    12    16	 9 ;      CG311      CG311      NG2S1       HGP1
    1     2    12    13	 9 ;      CG311      CG311      NG2S1      CG2O1
    3     2    12    16	 9 ;      CG321      CG311      NG2S1       HGP1
    3     2    12    13	 9 ;      CG321      CG311      NG2S1      CG2O1
   38     2    12    16	 9 ;       HGA1      CG311      NG2S1       HGP1
   38     2    12    13	 9 ;       HGA1      CG311      NG2S1      CG2O1
    1     2     3     4	 9 ;      CG311      CG311      CG321     CG2R61
    1     2     3    39	 9 ;      CG311      CG311      CG321       HGA2
    1     2     3    40	 9 ;      CG311      CG311      CG321       HGA2
   12     2     3     4	 9 ;      NG2S1      CG311      CG321     CG2R61
   12     2     3    39	 9 ;      NG2S1      CG311      CG321       HGA2
   12     2     3    40	 9 ;      NG2S1      CG311      CG321       HGA2
   38     2     3     4	 9 ;       HGA1      CG311      CG321     CG2R61
   38     2     3    39	 9 ;       HGA1      CG311      CG321       HGA2
   38     2     3    40	 9 ;       HGA1      CG311      CG321       HGA2
    2     3     4     5	 9 ;      CG311      CG321     CG2R61     CG2R61
    2     3     4    10	 9 ;      CG311      CG321     CG2R61     CG2R61
   39     3     4     5	 9 ;       HGA2      CG321     CG2R61     CG2R61
   39     3     4    10	 9 ;       HGA2      CG321     CG2R61     CG2R61
   40     3     4     5	 9 ;       HGA2      CG321     CG2R61     CG2R61
   40     3     4    10	 9 ;       HGA2      CG321     CG2R61     CG2R61
    3     4     5     6	 9 ;      CG321     CG2R61     CG2R61     CG2R66
    3     4     5    41	 9 ;      CG321     CG2R61     CG2R61      HGR62
   10     4     5     6	 9 ;     CG2R61     CG2R61     CG2R61     CG2R66
   10     4     5    41	 9 ;     CG2R61     CG2R61     CG2R61      HGR62
    3     4    10     9	 9 ;      CG321     CG2R61     CG2R61     CG2R66
    3     4    10    43	 9 ;      CG321     CG2R61     CG2R61      HGR62
    5     4    10     9	 9 ;     CG2R61     CG2R61     CG2R61     CG2R66
    5     4    10    43	 9 ;     CG2R61     CG2R61     CG2R61      HGR62
    4     5     6     7	 9 ;     CG2R61     CG2R61     CG2R66       FGR1
    4     5     6     8	 9 ;     CG2R61     CG2R61     CG2R66     CG2R61
   41     5     6     7	 9 ;      HGR62     CG2R61     CG2R66       FGR1
   41     5     6     8	 9 ;      HGR62     CG2R61     CG2R66     CG2R61
    5     6     8     9	 9 ;     CG2R61     CG2R66     CG2R61     CG2R66
    5     6     8    42	 9 ;     CG2R61     CG2R66     CG2R61      HGR62
    7     6     8     9	 9 ;       FGR1     CG2R66     CG2R61     CG2R66
    7     6     8    42	 9 ;       FGR1     CG2R66     CG2R61      HGR62
    6     8     9    10	 9 ;     CG2R66     CG2R61     CG2R66     CG2R61
    6     8     9    11	 9 ;     CG2R66     CG2R61     CG2R66       FGR1
   42     8     9    10	 9 ;      HGR62     CG2R61     CG2R66     CG2R61
   42     8     9    11	 9 ;      HGR62     CG2R61     CG2R66       FGR1
    8     9    10     4	 9 ;     CG2R61     CG2R66     CG2R61     CG2R61
    8     9    10    43	 9 ;     CG2R61     CG2R66     CG2R61      HGR62
   11     9    10     4	 9 ;       FGR1     CG2R66     CG2R61     CG2R61
   11     9    10    43	 9 ;       FGR1     CG2R66     CG2R61      HGR62
   16    12    13    15	 9 ;       HGP1      NG2S1      CG2O1      CG331
   16    12    13    14	 9 ;       HGP1      NG2S1      CG2O1      OG2D1
    2    12    13    15	 9 ;      CG311      NG2S1      CG2O1      CG331
    2    12    13    14	 9 ;      CG311      NG2S1      CG2O1      OG2D1
   12    13    15    44	 9 ;      NG2S1      CG2O1      CG331       HGA3
   12    13    15    45	 9 ;      NG2S1      CG2O1      CG331       HGA3
   12    13    15    46	 9 ;      NG2S1      CG2O1      CG331       HGA3
   14    13    15    44	 9 ;      OG2D1      CG2O1      CG331       HGA3
   14    13    15    45	 9 ;      OG2D1      CG2O1      CG331       HGA3
   14    13    15    46	 9 ;      OG2D1      CG2O1      CG331       HGA3
    1    19    20    22	 9 ;      CG311      CG324      NG3P2       HGP2
    1    19    20    21	 9 ;      CG311      CG324      NG3P2       HGP2
    1    19    20    23	 9 ;      CG311      CG324      NG3P2     CG3C31
   47    19    20    22	 9 ;       HGA2      CG324      NG3P2       HGP2
   47    19    20    21	 9 ;       HGA2      CG324      NG3P2       HGP2
   47    19    20    23	 9 ;       HGA2      CG324      NG3P2     CG3C31
   48    19    20    22	 9 ;       HGA2      CG324      NG3P2       HGP2
   48    19    20    21	 9 ;       HGA2      CG324      NG3P2       HGP2
   48    19    20    23	 9 ;       HGA2      CG324      NG3P2     CG3C31
   22    20    23    25	 9 ;       HGP2      NG3P2     CG3C31     CG3C31
   22    20    23    24	 9 ;       HGP2      NG3P2     CG3C31     CG3C31
   22    20    23    26	 9 ;       HGP2      NG3P2     CG3C31     CG2R61
   21    20    23    25	 9 ;       HGP2      NG3P2     CG3C31     CG3C31
   21    20    23    24	 9 ;       HGP2      NG3P2     CG3C31     CG3C31
   21    20    23    26	 9 ;       HGP2      NG3P2     CG3C31     CG2R61
   19    20    23    25	 9 ;      CG324      NG3P2     CG3C31     CG3C31
   19    20    23    24	 9 ;      CG324      NG3P2     CG3C31     CG3C31
   19    20    23    26	 9 ;      CG324      NG3P2     CG3C31     CG2R61
   20    23    25    24	 9 ;      NG3P2     CG3C31     CG3C31     CG3C31
   20    23    25    51	 9 ;      NG3P2     CG3C31     CG3C31       HGA2
   20    23    25    52	 9 ;      NG3P2     CG3C31     CG3C31       HGA2
   24    23    25    51	 9 ;     CG3C31     CG3C31     CG3C31       HGA2
   24    23    25    52	 9 ;     CG3C31     CG3C31     CG3C31       HGA2
   26    23    25    24	 9 ;     CG2R61     CG3C31     CG3C31     CG3C31
   26    23    25    51	 9 ;     CG2R61     CG3C31     CG3C31       HGA2
   26    23    25    52	 9 ;     CG2R61     CG3C31     CG3C31       HGA2
   25    23    24    49	 9 ;     CG3C31     CG3C31     CG3C31       HGA2
   25    23    24    50	 9 ;     CG3C31     CG3C31     CG3C31       HGA2
   20    23    24    25	 9 ;      NG3P2     CG3C31     CG3C31     CG3C31
   20    23    24    49	 9 ;      NG3P2     CG3C31     CG3C31       HGA2
   20    23    24    50	 9 ;      NG3P2     CG3C31     CG3C31       HGA2
   26    23    24    25	 9 ;     CG2R61     CG3C31     CG3C31     CG3C31
   26    23    24    49	 9 ;     CG2R61     CG3C31     CG3C31       HGA2
   26    23    24    50	 9 ;     CG2R61     CG3C31     CG3C31       HGA2
   25    23    26    27	 9 ;     CG3C31     CG3C31     CG2R61     CG2R61
   25    23    26    31	 9 ;     CG3C31     CG3C31     CG2R61     CG2R61
   20    23    26    27	 9 ;      NG3P2     CG3C31     CG2R61     CG2R61
   20    23    26    31	 9 ;      NG3P2     CG3C31     CG2R61     CG2R61
   24    23    26    27	 9 ;     CG3C31     CG3C31     CG2R61     CG2R61
   24    23    26    31	 9 ;     CG3C31     CG3C31     CG2R61     CG2R61
   23    24    25    51	 9 ;     CG3C31     CG3C31     CG3C31       HGA2
   23    24    25    52	 9 ;     CG3C31     CG3C31     CG3C31       HGA2
   49    24    25    23	 9 ;       HGA2     CG3C31     CG3C31     CG3C31
   49    24    25    51	 9 ;       HGA2     CG3C31     CG3C31       HGA2
   49    24    25    52	 9 ;       HGA2     CG3C31     CG3C31       HGA2
   50    24    25    23	 9 ;       HGA2     CG3C31     CG3C31     CG3C31
   50    24    25    51	 9 ;       HGA2     CG3C31     CG3C31       HGA2
   50    24    25    52	 9 ;       HGA2     CG3C31     CG3C31       HGA2
   23    26    27    28	 9 ;     CG3C31     CG2R61     CG2R61     CG2R61
   23    26    27    53	 9 ;     CG3C31     CG2R61     CG2R61      HGR61
   31    26    27    28	 9 ;     CG2R61     CG2R61     CG2R61     CG2R61
   31    26    27    53	 9 ;     CG2R61     CG2R61     CG2R61      HGR61
   23    26    31    30	 9 ;     CG3C31     CG2R61     CG2R61     CG2R61
   23    26    31    56	 9 ;     CG3C31     CG2R61     CG2R61      HGR61
   27    26    31    30	 9 ;     CG2R61     CG2R61     CG2R61     CG2R61
   27    26    31    56	 9 ;     CG2R61     CG2R61     CG2R61      HGR61
   26    27    28    32	 9 ;     CG2R61     CG2R61     CG2R61     CG3C51
   26    27    28    29	 9 ;     CG2R61     CG2R61     CG2R61     CG2R61
   53    27    28    32	 9 ;      HGR61     CG2R61     CG2R61     CG3C51
   53    27    28    29	 9 ;      HGR61     CG2R61     CG2R61     CG2R61
   27    28    32    36	 9 ;     CG2R61     CG2R61     CG3C51     CG3C52
   27    28    32    33	 9 ;     CG2R61     CG2R61     CG3C51     OG3C51
   27    28    32    57	 9 ;     CG2R61     CG2R61     CG3C51       HGA1
   29    28    32    36	 9 ;     CG2R61     CG2R61     CG3C51     CG3C52
   29    28    32    33	 9 ;     CG2R61     CG2R61     CG3C51     OG3C51
   29    28    32    57	 9 ;     CG2R61     CG2R61     CG3C51       HGA1
   27    28    29    30	 9 ;     CG2R61     CG2R61     CG2R61     CG2R61
   27    28    29    54	 9 ;     CG2R61     CG2R61     CG2R61      HGR61
   32    28    29    30	 9 ;     CG3C51     CG2R61     CG2R61     CG2R61
   32    28    29    54	 9 ;     CG3C51     CG2R61     CG2R61      HGR61
   28    29    30    31	 9 ;     CG2R61     CG2R61     CG2R61     CG2R61
   28    29    30    55	 9 ;     CG2R61     CG2R61     CG2R61      HGR61
   54    29    30    31	 9 ;      HGR61     CG2R61     CG2R61     CG2R61
   54    29    30    55	 9 ;      HGR61     CG2R61     CG2R61      HGR61
   29    30    31    26	 9 ;     CG2R61     CG2R61     CG2R61     CG2R61
   29    30    31    56	 9 ;     CG2R61     CG2R61     CG2R61      HGR61
   55    30    31    26	 9 ;      HGR61     CG2R61     CG2R61     CG2R61
   55    30    31    56	 9 ;      HGR61     CG2R61     CG2R61      HGR61
   28    32    36    35	 9 ;     CG2R61     CG3C51     CG3C52     CG3C52
   28    32    36    62	 9 ;     CG2R61     CG3C51     CG3C52       HGA2
   28    32    36    63	 9 ;     CG2R61     CG3C51     CG3C52       HGA2
   33    32    36    35	 9 ;     OG3C51     CG3C51     CG3C52     CG3C52
   33    32    36    62	 9 ;     OG3C51     CG3C51     CG3C52       HGA2
   33    32    36    63	 9 ;     OG3C51     CG3C51     CG3C52       HGA2
   57    32    36    35	 9 ;       HGA1     CG3C51     CG3C52     CG3C52
   57    32    36    62	 9 ;       HGA1     CG3C51     CG3C52       HGA2
   57    32    36    63	 9 ;       HGA1     CG3C51     CG3C52       HGA2
   36    32    33    34	 9 ;     CG3C52     CG3C51     OG3C51     CG3C52
   28    32    33    34	 9 ;     CG2R61     CG3C51     OG3C51     CG3C52
   57    32    33    34	 9 ;       HGA1     CG3C51     OG3C51     CG3C52
   32    33    34    35	 9 ;     CG3C51     OG3C51     CG3C52     CG3C52
   32    33    34    58	 9 ;     CG3C51     OG3C51     CG3C52       HGA2
   32    33    34    59	 9 ;     CG3C51     OG3C51     CG3C52       HGA2
   33    34    35    36	 9 ;     OG3C51     CG3C52     CG3C52     CG3C52
   33    34    35    60	 9 ;     OG3C51     CG3C52     CG3C52       HGA2
   33    34    35    61	 9 ;     OG3C51     CG3C52     CG3C52       HGA2
   58    34    35    36	 9 ;       HGA2     CG3C52     CG3C52     CG3C52
   58    34    35    60	 9 ;       HGA2     CG3C52     CG3C52       HGA2
   58    34    35    61	 9 ;       HGA2     CG3C52     CG3C52       HGA2
   59    34    35    36	 9 ;       HGA2     CG3C52     CG3C52     CG3C52
   59    34    35    60	 9 ;       HGA2     CG3C52     CG3C52       HGA2
   59    34    35    61	 9 ;       HGA2     CG3C52     CG3C52       HGA2
   34    35    36    32	 9 ;     CG3C52     CG3C52     CG3C52     CG3C51
   34    35    36    62	 9 ;     CG3C52     CG3C52     CG3C52       HGA2
   34    35    36    63	 9 ;     CG3C52     CG3C52     CG3C52       HGA2
   60    35    36    32	 9 ;       HGA2     CG3C52     CG3C52     CG3C51
   60    35    36    62	 9 ;       HGA2     CG3C52     CG3C52       HGA2
   60    35    36    63	 9 ;       HGA2     CG3C52     CG3C52       HGA2
   61    35    36    32	 9 ;       HGA2     CG3C52     CG3C52     CG3C51
   61    35    36    62	 9 ;       HGA2     CG3C52     CG3C52       HGA2
   61    35    36    63	 9 ;       HGA2     CG3C52     CG3C52       HGA2

[ dihedrals ]
;	ai	  aj	ak	  al funct			  c0			c1			  c2			c3
   13    15    12    14	 2

