Great Red Oystrich Makes All Chemists Sane
   79
    1LIG     C1    1  -1.466   0.452  -1.669
    1LIG     C2    2  -1.431   0.534  -1.542
    1LIG     C3    3  -1.321   0.478  -1.454
    1LIG     C4    4  -1.339   0.354  -1.390
    1LIG     C5    5  -1.239   0.299  -1.310
    1LIG     C6    6  -1.119   0.367  -1.293
    1LIG     C7    7  -1.099   0.489  -1.356
    1LIG     C8    8  -1.199   0.545  -1.436
    1LIG     N1    9  -1.609   0.415  -1.668
    1LIG     C9   10  -1.653   0.291  -1.625
    1LIG     O1   11  -1.578   0.196  -1.612
    1LIG     H1   12  -1.678   0.488  -1.686
    1LIG    C10   13  -1.800   0.276  -1.603
    1LIG    C11   14  -1.857   0.256  -1.476
    1LIG    C12   15  -1.996   0.252  -1.460
    1LIG    C13   16  -2.080   0.278  -1.571
    1LIG    C14   17  -2.023   0.285  -1.698
    1LIG    C15   18  -2.225   0.311  -1.555
    1LIG    C16   19  -1.884   0.281  -1.715
    1LIG     N2   20  -2.054   0.216  -1.334
    1LIG      S   21  -2.049   0.324  -1.205
    1LIG     O2   22  -1.913   0.333  -1.156
    1LIG     O3   23  -2.157   0.294  -1.112
    1LIG    C17   24  -2.087   0.478  -1.287
    1LIG    C18   25  -2.084   0.077  -1.311
    1LIG    C19   26  -1.992  -0.002  -1.242
    1LIG    C20   27  -2.019  -0.135  -1.212
    1LIG    C21   28  -2.139  -0.192  -1.252
    1LIG    C22   29  -2.232  -0.115  -1.323
    1LIG    C23   30  -2.205   0.019  -1.353
    1LIG    C24   31  -1.427   0.525  -1.800
    1LIG    C25   32  -1.274   0.540  -1.821
    1LIG     N3   33  -1.212   0.402  -1.827
    1LIG     H2   34  -1.283   0.329  -1.814
    1LIG     H3   35  -1.178   0.391  -1.924
    1LIG    C26   36  -1.098   0.380  -1.734
    1LIG    C27   37  -1.109   0.252  -1.658
    1LIG    C28   38  -0.999   0.201  -1.588
    1LIG    C29   39  -1.008   0.079  -1.519
    1LIG    C30   40  -1.130   0.010  -1.519
    1LIG    C31   41  -1.240   0.060  -1.588
    1LIG    C32   42  -1.230   0.181  -1.657
    1LIG    C33   43  -0.889   0.022  -1.445
    1LIG     F1   44  -0.808  -0.052  -1.525
    1LIG     F2   45  -0.811   0.119  -1.391
    1LIG     F3   46  -0.925  -0.060  -1.342
    1LIG     O4   47  -1.474   0.460  -1.919
    1LIG     H4   48  -1.410   0.389  -1.941
    1LIG     HC   49  -1.408   0.359  -1.665
    1LIG    HC2   50  -1.522   0.541  -1.482
    1LIG    HC3   51  -1.403   0.635  -1.573
    1LIG    HC1   52  -1.431   0.300  -1.404
    1LIG    HC4   53  -1.254   0.204  -1.261
    1LIG    HC5   54  -1.041   0.324  -1.232
    1LIG    HC6   55  -1.005   0.542  -1.343
    1LIG    HC7   56  -1.183   0.640  -1.485
    1LIG    HC8   57  -1.793   0.243  -1.390
    1LIG    HC9   58  -2.086   0.294  -1.785
    1LIG   HC10   59  -2.282   0.263  -1.635
    1LIG   HC11   60  -2.239   0.419  -1.560
    1LIG   HC12   61  -2.261   0.274  -1.459
    1LIG   HC13   62  -1.842   0.281  -1.814
    1LIG   HC14   63  -2.053   0.561  -1.225
    1LIG   HC15   64  -2.035   0.481  -1.383
    1LIG   HC16   65  -2.194   0.485  -1.303
    1LIG   HC17   66  -1.897   0.041  -1.212
    1LIG   HC18   67  -1.947  -0.194  -1.158
    1LIG   HC19   68  -2.161  -0.295  -1.228
    1LIG   HC20   69  -2.325  -0.159  -1.355
    1LIG   HC21   70  -2.276   0.078  -1.408
    1LIG   HC22   71  -1.470   0.625  -1.797
    1LIG   HC23   72  -1.255   0.593  -1.914
    1LIG   HC24   73  -1.231   0.595  -1.738
    1LIG   HC25   74  -1.006   0.378  -1.793
    1LIG   HC26   75  -1.093   0.463  -1.664
    1LIG   HC27   76  -0.905   0.255  -1.588
    1LIG   HC28   77  -1.139  -0.084  -1.466
    1LIG   HC29   78  -1.334   0.006  -1.588
    1LIG   HC30   79  -1.316   0.220  -1.710
   0.00000   0.00000   0.00000
