; Created by cgenff_charmm2gmx.py

[ moleculetype ]
; Name			   nrexcl
LIG				 3

[ atoms ]
;	 nr		  type	resnr residue  atom   cgnr	   charge		mass  typeB    chargeB		massB
; residue	 1 LIG rtp LIG q	qsum
     1     CG2R67      1    LIG     C1      1     -0.029     12.011   ;
     2     CG2R61      1    LIG     C2      2     -0.127     12.011   ;
     3     CG2R61      1    LIG     C3      3     -0.329     12.011   ;
     4     CG2R61      1    LIG     C4      4      0.153     12.011   ;
     5     OG3R60      1    LIG     O1      5     -0.292     15.999   ;
     6     CG2R61      1    LIG     C5      6      0.147     12.011   ;
     7     CG2R61      1    LIG     C6      7     -0.324     12.011   ;
     8     CG2R61      1    LIG     C7      8     -0.131     12.011   ;
     9     CG2R61      1    LIG     C8      9      0.222     12.011   ;
    10     CG2R61      1    LIG     C9     10     -0.117     12.011   ;
    11     CG2R61      1    LIG    C10     11     -0.106     12.011   ;
    12     CG3C50      1    LIG    C11     12      1.306     12.011   ;
    13      NG3P2      1    LIG     N1     13     -1.541     14.007   ;
    14       HGP2      1    LIG     HN     14      0.500      1.008   ;
    15     CG3C53      1    LIG    C12     15      1.711     12.011   ;
    16     OG3C51      1    LIG     O2     16     -0.243     15.999   ;
    17     CG3C52      1    LIG    C13     17     -0.015     12.011   ;
    18     CG2R61      1    LIG    C14     18     -0.112     12.011   ;
    19     CG2R61      1    LIG    C15     19     -0.115     12.011   ;
    20     CG2R67      1    LIG    C16     20      0.178     12.011   ;
    21     CG2R61      1    LIG    C17     21     -0.132     12.011   ;
    22     CG2R61      1    LIG    C18     22      0.071     12.011   ;
    23      CLGR1      1    LIG     CL     23     -0.200     35.453   ;
    24     CG2R61      1    LIG    C19     24     -0.153     12.011   ;
    25     CG2R61      1    LIG    C20     25     -0.118     12.011   ;
    26     CG2R66      1    LIG    C21     26      0.105     12.011   ;
    27       FGR1      1    LIG      F     27     -0.230     18.998   ;
    28      NG3P3      1    LIG     N2     28     -0.781     14.007   ;
    29       HGP2      1    LIG     H1     29      0.307      1.008   ;
    30       HGP2      1    LIG     H2     30      0.307      1.008   ;
    31      OG301      1    LIG     O3     31     -0.383     15.999   ;
    32      CG331      1    LIG    C22     32     -0.094     12.011   ;
    33      HGR61      1    LIG     HC     33      0.116      1.008   ;
    34      HGR61      1    LIG    HC1     34      0.116      1.008   ;
    35      HGR61      1    LIG    HC2     35      0.116      1.008   ;
    36      HGR61      1    LIG    HC3     36      0.116      1.008   ;
    37       HGP2      1    LIG    HN2     37      0.500      1.008   ;
    38       HGA1      1    LIG    HC4     38      0.090      1.008   ;
    39       HGA2      1    LIG    HC5     39      0.090      1.008   ;
    40       HGA2      1    LIG    HC6     40      0.090      1.008   ;
    41      HGR61      1    LIG    HC7     41      0.116      1.008   ;
    42      HGR61      1    LIG    HC8     42      0.116      1.008   ;
    43      HGR62      1    LIG    HC9     43      0.142      1.008   ;
    44      HGR62      1    LIG   HC10     44      0.140      1.008   ;
    45      HGR62      1    LIG   HC11     45      0.190      1.008   ;
    46       HGP2      1    LIG    HN1     46      0.307      1.008   ;
    47       HGA3      1    LIG   HC12     47      0.090      1.008   ;
    48       HGA3      1    LIG   HC13     48      0.090      1.008   ;
    49       HGA3      1    LIG   HC14     49      0.090      1.008   ;
    50        LPH      1    LIG    LP1     50      0.050      0.000   ;

[ bonds ]
;	ai	  aj funct			  c0			c1			  c2			c3
    1     2	 1 ;      CG2R67     CG2R61
    1    20	 1 ;      CG2R67     CG2R67
    1    19	 1 ;      CG2R67     CG2R61
    2     3	 1 ;      CG2R61     CG2R61
    2    33	 1 ;      CG2R61      HGR61
    3    12	 1 ;      CG2R61     CG3C50
    3     4	 1 ;      CG2R61     CG2R61
    4     5	 1 ;      CG2R61     OG3R60
    4    18	 1 ;      CG2R61     CG2R61
    5     6	 1 ;      OG3R60     CG2R61
    6     7	 1 ;      CG2R61     CG2R61
    6    11	 1 ;      CG2R61     CG2R61
    7     8	 1 ;      CG2R61     CG2R61
    7    12	 1 ;      CG2R61     CG3C50
    8     9	 1 ;      CG2R61     CG2R61
    8    34	 1 ;      CG2R61      HGR61
    9    31	 1 ;      CG2R61      OG301
    9    10	 1 ;      CG2R61     CG2R61
   10    11	 1 ;      CG2R61     CG2R61
   10    35	 1 ;      CG2R61      HGR61
   11    36	 1 ;      CG2R61      HGR61
   12    13	 1 ;      CG3C50      NG3P2
   12    17	 1 ;      CG3C50     CG3C52
   13    14	 1 ;       NG3P2       HGP2
   13    15	 1 ;       NG3P2     CG3C53
   13    37	 1 ;       NG3P2       HGP2
   15    28	 1 ;      CG3C53      NG3P3
   15    16	 1 ;      CG3C53     OG3C51
   15    38	 1 ;      CG3C53       HGA1
   16    17	 1 ;      OG3C51     CG3C52
   17    39	 1 ;      CG3C52       HGA2
   17    40	 1 ;      CG3C52       HGA2
   18    19	 1 ;      CG2R61     CG2R61
   18    41	 1 ;      CG2R61      HGR61
   19    42	 1 ;      CG2R61      HGR61
   20    26	 1 ;      CG2R67     CG2R66
   20    21	 1 ;      CG2R67     CG2R61
   21    22	 1 ;      CG2R61     CG2R61
   21    43	 1 ;      CG2R61      HGR62
   22    24	 1 ;      CG2R61     CG2R61
   22    23	 1 ;      CG2R61      CLGR1
   24    25	 1 ;      CG2R61     CG2R61
   24    44	 1 ;      CG2R61      HGR62
   25    26	 1 ;      CG2R61     CG2R66
   25    45	 1 ;      CG2R61      HGR62
   26    27	 1 ;      CG2R66       FGR1
   28    29	 1 ;       NG3P3       HGP2
   28    30	 1 ;       NG3P3       HGP2
   28    46	 1 ;       NG3P3       HGP2
   31    32	 1 ;       OG301      CG331
   32    47	 1 ;       CG331       HGA3
   32    48	 1 ;       CG331       HGA3
   32    49	 1 ;       CG331       HGA3

[ pairs ]
;	ai	  aj funct			  c0			c1			  c2			c3
    1    12	 1
    1     4	 1
    1    41	 1
    1    25	 1
    1    27	 1
    1    22	 1
    1    43	 1
    2    26	 1
    2    21	 1
    2    18	 1
    2    42	 1
    2     7	 1
    2    13	 1
    2    17	 1
    2     5	 1
    3    20	 1
    3    19	 1
    3     6	 1
    3    41	 1
    3     8	 1
    3    14	 1
    3    15	 1
    3    37	 1
    3    16	 1
    3    39	 1
    3    40	 1
    4    33	 1
    4     7	 1
    4    13	 1
    4    17	 1
    4    11	 1
    4    42	 1
    5    12	 1
    5    19	 1
    5    41	 1
    5     8	 1
    5    10	 1
    5    36	 1
    6    18	 1
    6     9	 1
    6    34	 1
    6    13	 1
    6    17	 1
    6    35	 1
    7    10	 1
    7    36	 1
    7    31	 1
    7    14	 1
    7    15	 1
    7    37	 1
    7    16	 1
    7    39	 1
    7    40	 1
    8    11	 1
    8    13	 1
    8    17	 1
    8    32	 1
    8    35	 1
    9    12	 1
    9    36	 1
    9    47	 1
    9    48	 1
    9    49	 1
   10    34	 1
   10    32	 1
   11    12	 1
   11    31	 1
   12    33	 1
   12    18	 1
   12    34	 1
   12    28	 1
   12    38	 1
   13    39	 1
   13    40	 1
   13    29	 1
   13    30	 1
   13    46	 1
   14    17	 1
   14    28	 1
   14    16	 1
   14    38	 1
   15    39	 1
   15    40	 1
   16    37	 1
   16    29	 1
   16    30	 1
   16    46	 1
   17    37	 1
   17    28	 1
   17    38	 1
   18    20	 1
   19    33	 1
   19    26	 1
   19    21	 1
   20    33	 1
   20    42	 1
   20    24	 1
   20    23	 1
   50    20	 1
   20    45	 1
   21    25	 1
   21    27	 1
   21    44	 1
   22    26	 1
   22    45	 1
   23    43	 1
   50    43	 1
   23    25	 1
   50    25	 1
   23    44	 1
   50    44	 1
   24    43	 1
   24    27	 1
   26    43	 1
   26    44	 1
   27    45	 1
   28    37	 1
   29    38	 1
   30    38	 1
   31    34	 1
   31    35	 1
   35    36	 1
   37    38	 1
   38    46	 1
   41    42	 1
   44    45	 1

[ angles ]
;	ai	  aj	ak funct			c0			  c1			c2			  c3
    2     1    20	5 ;     CG2R61     CG2R67     CG2R67
    2     1    19	5 ;     CG2R61     CG2R67     CG2R61
   20     1    19	5 ;     CG2R67     CG2R67     CG2R61
    1     2     3	5 ;     CG2R67     CG2R61     CG2R61
    1     2    33	5 ;     CG2R67     CG2R61      HGR61
    3     2    33	5 ;     CG2R61     CG2R61      HGR61
    2     3    12	5 ;     CG2R61     CG2R61     CG3C50
    2     3     4	5 ;     CG2R61     CG2R61     CG2R61
   12     3     4	5 ;     CG3C50     CG2R61     CG2R61
    3     4     5	5 ;     CG2R61     CG2R61     OG3R60
    3     4    18	5 ;     CG2R61     CG2R61     CG2R61
    5     4    18	5 ;     OG3R60     CG2R61     CG2R61
    4     5     6	5 ;     CG2R61     OG3R60     CG2R61
    5     6     7	5 ;     OG3R60     CG2R61     CG2R61
    5     6    11	5 ;     OG3R60     CG2R61     CG2R61
    7     6    11	5 ;     CG2R61     CG2R61     CG2R61
    6     7     8	5 ;     CG2R61     CG2R61     CG2R61
    6     7    12	5 ;     CG2R61     CG2R61     CG3C50
    8     7    12	5 ;     CG2R61     CG2R61     CG3C50
    7     8     9	5 ;     CG2R61     CG2R61     CG2R61
    7     8    34	5 ;     CG2R61     CG2R61      HGR61
    9     8    34	5 ;     CG2R61     CG2R61      HGR61
    8     9    31	5 ;     CG2R61     CG2R61      OG301
    8     9    10	5 ;     CG2R61     CG2R61     CG2R61
   31     9    10	5 ;      OG301     CG2R61     CG2R61
    9    10    11	5 ;     CG2R61     CG2R61     CG2R61
    9    10    35	5 ;     CG2R61     CG2R61      HGR61
   11    10    35	5 ;     CG2R61     CG2R61      HGR61
    6    11    10	5 ;     CG2R61     CG2R61     CG2R61
    6    11    36	5 ;     CG2R61     CG2R61      HGR61
   10    11    36	5 ;     CG2R61     CG2R61      HGR61
    3    12     7	5 ;     CG2R61     CG3C50     CG2R61
    3    12    13	5 ;     CG2R61     CG3C50      NG3P2
    3    12    17	5 ;     CG2R61     CG3C50     CG3C52
    7    12    13	5 ;     CG2R61     CG3C50      NG3P2
    7    12    17	5 ;     CG2R61     CG3C50     CG3C52
   13    12    17	5 ;      NG3P2     CG3C50     CG3C52
   12    13    14	5 ;     CG3C50      NG3P2       HGP2
   12    13    15	5 ;     CG3C50      NG3P2     CG3C53
   12    13    37	5 ;     CG3C50      NG3P2       HGP2
   14    13    15	5 ;       HGP2      NG3P2     CG3C53
   14    13    37	5 ;       HGP2      NG3P2       HGP2
   15    13    37	5 ;     CG3C53      NG3P2       HGP2
   13    15    28	5 ;      NG3P2     CG3C53      NG3P3
   13    15    16	5 ;      NG3P2     CG3C53     OG3C51
   13    15    38	5 ;      NG3P2     CG3C53       HGA1
   28    15    16	5 ;      NG3P3     CG3C53     OG3C51
   28    15    38	5 ;      NG3P3     CG3C53       HGA1
   16    15    38	5 ;     OG3C51     CG3C53       HGA1
   15    16    17	5 ;     CG3C53     OG3C51     CG3C52
   12    17    16	5 ;     CG3C50     CG3C52     OG3C51
   12    17    39	5 ;     CG3C50     CG3C52       HGA2
   12    17    40	5 ;     CG3C50     CG3C52       HGA2
   16    17    39	5 ;     OG3C51     CG3C52       HGA2
   16    17    40	5 ;     OG3C51     CG3C52       HGA2
   39    17    40	5 ;       HGA2     CG3C52       HGA2
    4    18    19	5 ;     CG2R61     CG2R61     CG2R61
    4    18    41	5 ;     CG2R61     CG2R61      HGR61
   19    18    41	5 ;     CG2R61     CG2R61      HGR61
   18    19     1	5 ;     CG2R61     CG2R61     CG2R67
   18    19    42	5 ;     CG2R61     CG2R61      HGR61
    1    19    42	5 ;     CG2R67     CG2R61      HGR61
    1    20    26	5 ;     CG2R67     CG2R67     CG2R66
    1    20    21	5 ;     CG2R67     CG2R67     CG2R61
   26    20    21	5 ;     CG2R66     CG2R67     CG2R61
   20    21    22	5 ;     CG2R67     CG2R61     CG2R61
   20    21    43	5 ;     CG2R67     CG2R61      HGR62
   22    21    43	5 ;     CG2R61     CG2R61      HGR62
   21    22    24	5 ;     CG2R61     CG2R61     CG2R61
   21    22    23	5 ;     CG2R61     CG2R61      CLGR1
   24    22    23	5 ;     CG2R61     CG2R61      CLGR1
   22    24    25	5 ;     CG2R61     CG2R61     CG2R61
   22    24    44	5 ;     CG2R61     CG2R61      HGR62
   25    24    44	5 ;     CG2R61     CG2R61      HGR62
   24    25    26	5 ;     CG2R61     CG2R61     CG2R66
   24    25    45	5 ;     CG2R61     CG2R61      HGR62
   26    25    45	5 ;     CG2R66     CG2R61      HGR62
   20    26    25	5 ;     CG2R67     CG2R66     CG2R61
   20    26    27	5 ;     CG2R67     CG2R66       FGR1
   25    26    27	5 ;     CG2R61     CG2R66       FGR1
   15    28    29	5 ;     CG3C53      NG3P3       HGP2
   15    28    30	5 ;     CG3C53      NG3P3       HGP2
   15    28    46	5 ;     CG3C53      NG3P3       HGP2
   29    28    30	5 ;       HGP2      NG3P3       HGP2
   29    28    46	5 ;       HGP2      NG3P3       HGP2
   30    28    46	5 ;       HGP2      NG3P3       HGP2
    9    31    32	5 ;     CG2R61      OG301      CG331
   31    32    47	5 ;      OG301      CG331       HGA3
   31    32    48	5 ;      OG301      CG331       HGA3
   31    32    49	5 ;      OG301      CG331       HGA3
   47    32    48	5 ;       HGA3      CG331       HGA3
   47    32    49	5 ;       HGA3      CG331       HGA3
   48    32    49	5 ;       HGA3      CG331       HGA3

[ dihedrals ]
;	ai	  aj	ak	  al funct			  c0			c1			  c2			c3			  c4			c5
   20     1     2     3	 9 ;     CG2R67     CG2R67     CG2R61     CG2R61
   20     1     2    33	 9 ;     CG2R67     CG2R67     CG2R61      HGR61
   19     1     2     3	 9 ;     CG2R61     CG2R67     CG2R61     CG2R61
   19     1     2    33	 9 ;     CG2R61     CG2R67     CG2R61      HGR61
    2     1    20    26	 9 ;     CG2R61     CG2R67     CG2R67     CG2R66
    2     1    20    21	 9 ;     CG2R61     CG2R67     CG2R67     CG2R61
   19     1    20    26	 9 ;     CG2R61     CG2R67     CG2R67     CG2R66
   19     1    20    21	 9 ;     CG2R61     CG2R67     CG2R67     CG2R61
    2     1    19    18	 9 ;     CG2R61     CG2R67     CG2R61     CG2R61
    2     1    19    42	 9 ;     CG2R61     CG2R67     CG2R61      HGR61
   20     1    19    18	 9 ;     CG2R67     CG2R67     CG2R61     CG2R61
   20     1    19    42	 9 ;     CG2R67     CG2R67     CG2R61      HGR61
    1     2     3    12	 9 ;     CG2R67     CG2R61     CG2R61     CG3C50
    1     2     3     4	 9 ;     CG2R67     CG2R61     CG2R61     CG2R61
   33     2     3    12	 9 ;      HGR61     CG2R61     CG2R61     CG3C50
   33     2     3     4	 9 ;      HGR61     CG2R61     CG2R61     CG2R61
    2     3    12     7	 9 ;     CG2R61     CG2R61     CG3C50     CG2R61
    2     3    12    13	 9 ;     CG2R61     CG2R61     CG3C50      NG3P2
    2     3    12    17	 9 ;     CG2R61     CG2R61     CG3C50     CG3C52
    4     3    12     7	 9 ;     CG2R61     CG2R61     CG3C50     CG2R61
    4     3    12    13	 9 ;     CG2R61     CG2R61     CG3C50      NG3P2
    4     3    12    17	 9 ;     CG2R61     CG2R61     CG3C50     CG3C52
    2     3     4     5	 9 ;     CG2R61     CG2R61     CG2R61     OG3R60
    2     3     4    18	 9 ;     CG2R61     CG2R61     CG2R61     CG2R61
   12     3     4     5	 9 ;     CG3C50     CG2R61     CG2R61     OG3R60
   12     3     4    18	 9 ;     CG3C50     CG2R61     CG2R61     CG2R61
    3     4     5     6	 9 ;     CG2R61     CG2R61     OG3R60     CG2R61
   18     4     5     6	 9 ;     CG2R61     CG2R61     OG3R60     CG2R61
    3     4    18    19	 9 ;     CG2R61     CG2R61     CG2R61     CG2R61
    3     4    18    41	 9 ;     CG2R61     CG2R61     CG2R61      HGR61
    5     4    18    19	 9 ;     OG3R60     CG2R61     CG2R61     CG2R61
    5     4    18    41	 9 ;     OG3R60     CG2R61     CG2R61      HGR61
    4     5     6     7	 9 ;     CG2R61     OG3R60     CG2R61     CG2R61
    4     5     6    11	 9 ;     CG2R61     OG3R60     CG2R61     CG2R61
    5     6     7     8	 9 ;     OG3R60     CG2R61     CG2R61     CG2R61
    5     6     7    12	 9 ;     OG3R60     CG2R61     CG2R61     CG3C50
   11     6     7     8	 9 ;     CG2R61     CG2R61     CG2R61     CG2R61
   11     6     7    12	 9 ;     CG2R61     CG2R61     CG2R61     CG3C50
    5     6    11    10	 9 ;     OG3R60     CG2R61     CG2R61     CG2R61
    5     6    11    36	 9 ;     OG3R60     CG2R61     CG2R61      HGR61
    7     6    11    10	 9 ;     CG2R61     CG2R61     CG2R61     CG2R61
    7     6    11    36	 9 ;     CG2R61     CG2R61     CG2R61      HGR61
    6     7     8     9	 9 ;     CG2R61     CG2R61     CG2R61     CG2R61
    6     7     8    34	 9 ;     CG2R61     CG2R61     CG2R61      HGR61
   12     7     8     9	 9 ;     CG3C50     CG2R61     CG2R61     CG2R61
   12     7     8    34	 9 ;     CG3C50     CG2R61     CG2R61      HGR61
    6     7    12     3	 9 ;     CG2R61     CG2R61     CG3C50     CG2R61
    6     7    12    13	 9 ;     CG2R61     CG2R61     CG3C50      NG3P2
    6     7    12    17	 9 ;     CG2R61     CG2R61     CG3C50     CG3C52
    8     7    12     3	 9 ;     CG2R61     CG2R61     CG3C50     CG2R61
    8     7    12    13	 9 ;     CG2R61     CG2R61     CG3C50      NG3P2
    8     7    12    17	 9 ;     CG2R61     CG2R61     CG3C50     CG3C52
    7     8     9    31	 9 ;     CG2R61     CG2R61     CG2R61      OG301
    7     8     9    10	 9 ;     CG2R61     CG2R61     CG2R61     CG2R61
   34     8     9    31	 9 ;      HGR61     CG2R61     CG2R61      OG301
   34     8     9    10	 9 ;      HGR61     CG2R61     CG2R61     CG2R61
    8     9    31    32	 9 ;     CG2R61     CG2R61      OG301      CG331
   10     9    31    32	 9 ;     CG2R61     CG2R61      OG301      CG331
    8     9    10    11	 9 ;     CG2R61     CG2R61     CG2R61     CG2R61
    8     9    10    35	 9 ;     CG2R61     CG2R61     CG2R61      HGR61
   31     9    10    11	 9 ;      OG301     CG2R61     CG2R61     CG2R61
   31     9    10    35	 9 ;      OG301     CG2R61     CG2R61      HGR61
    9    10    11     6	 9 ;     CG2R61     CG2R61     CG2R61     CG2R61
    9    10    11    36	 9 ;     CG2R61     CG2R61     CG2R61      HGR61
   35    10    11     6	 9 ;      HGR61     CG2R61     CG2R61     CG2R61
   35    10    11    36	 9 ;      HGR61     CG2R61     CG2R61      HGR61
    3    12    13    14	 9 ;     CG2R61     CG3C50      NG3P2       HGP2
    3    12    13    15	 9 ;     CG2R61     CG3C50      NG3P2     CG3C53
    3    12    13    37	 9 ;     CG2R61     CG3C50      NG3P2       HGP2
    7    12    13    14	 9 ;     CG2R61     CG3C50      NG3P2       HGP2
    7    12    13    15	 9 ;     CG2R61     CG3C50      NG3P2     CG3C53
    7    12    13    37	 9 ;     CG2R61     CG3C50      NG3P2       HGP2
   17    12    13    14	 9 ;     CG3C52     CG3C50      NG3P2       HGP2
   17    12    13    15	 9 ;     CG3C52     CG3C50      NG3P2     CG3C53
   17    12    13    37	 9 ;     CG3C52     CG3C50      NG3P2       HGP2
    3    12    17    16	 9 ;     CG2R61     CG3C50     CG3C52     OG3C51
    3    12    17    39	 9 ;     CG2R61     CG3C50     CG3C52       HGA2
    3    12    17    40	 9 ;     CG2R61     CG3C50     CG3C52       HGA2
    7    12    17    16	 9 ;     CG2R61     CG3C50     CG3C52     OG3C51
    7    12    17    39	 9 ;     CG2R61     CG3C50     CG3C52       HGA2
    7    12    17    40	 9 ;     CG2R61     CG3C50     CG3C52       HGA2
   13    12    17    16	 9 ;      NG3P2     CG3C50     CG3C52     OG3C51
   13    12    17    39	 9 ;      NG3P2     CG3C50     CG3C52       HGA2
   13    12    17    40	 9 ;      NG3P2     CG3C50     CG3C52       HGA2
   12    13    15    28	 9 ;     CG3C50      NG3P2     CG3C53      NG3P3
   12    13    15    16	 9 ;     CG3C50      NG3P2     CG3C53     OG3C51
   12    13    15    38	 9 ;     CG3C50      NG3P2     CG3C53       HGA1
   14    13    15    28	 9 ;       HGP2      NG3P2     CG3C53      NG3P3
   14    13    15    16	 9 ;       HGP2      NG3P2     CG3C53     OG3C51
   14    13    15    38	 9 ;       HGP2      NG3P2     CG3C53       HGA1
   37    13    15    28	 9 ;       HGP2      NG3P2     CG3C53      NG3P3
   37    13    15    16	 9 ;       HGP2      NG3P2     CG3C53     OG3C51
   37    13    15    38	 9 ;       HGP2      NG3P2     CG3C53       HGA1
   13    15    28    29	 9 ;      NG3P2     CG3C53      NG3P3       HGP2
   13    15    28    30	 9 ;      NG3P2     CG3C53      NG3P3       HGP2
   13    15    28    46	 9 ;      NG3P2     CG3C53      NG3P3       HGP2
   16    15    28    29	 9 ;     OG3C51     CG3C53      NG3P3       HGP2
   16    15    28    30	 9 ;     OG3C51     CG3C53      NG3P3       HGP2
   16    15    28    46	 9 ;     OG3C51     CG3C53      NG3P3       HGP2
   38    15    28    29	 9 ;       HGA1     CG3C53      NG3P3       HGP2
   38    15    28    30	 9 ;       HGA1     CG3C53      NG3P3       HGP2
   38    15    28    46	 9 ;       HGA1     CG3C53      NG3P3       HGP2
   13    15    16    17	 9 ;      NG3P2     CG3C53     OG3C51     CG3C52
   28    15    16    17	 9 ;      NG3P3     CG3C53     OG3C51     CG3C52
   38    15    16    17	 9 ;       HGA1     CG3C53     OG3C51     CG3C52
   15    16    17    12	 9 ;     CG3C53     OG3C51     CG3C52     CG3C50
   15    16    17    39	 9 ;     CG3C53     OG3C51     CG3C52       HGA2
   15    16    17    40	 9 ;     CG3C53     OG3C51     CG3C52       HGA2
    4    18    19     1	 9 ;     CG2R61     CG2R61     CG2R61     CG2R67
    4    18    19    42	 9 ;     CG2R61     CG2R61     CG2R61      HGR61
   41    18    19     1	 9 ;      HGR61     CG2R61     CG2R61     CG2R67
   41    18    19    42	 9 ;      HGR61     CG2R61     CG2R61      HGR61
    1    20    26    25	 9 ;     CG2R67     CG2R67     CG2R66     CG2R61
    1    20    26    27	 9 ;     CG2R67     CG2R67     CG2R66       FGR1
   21    20    26    25	 9 ;     CG2R61     CG2R67     CG2R66     CG2R61
   21    20    26    27	 9 ;     CG2R61     CG2R67     CG2R66       FGR1
    1    20    21    22	 9 ;     CG2R67     CG2R67     CG2R61     CG2R61
    1    20    21    43	 9 ;     CG2R67     CG2R67     CG2R61      HGR62
   26    20    21    22	 9 ;     CG2R66     CG2R67     CG2R61     CG2R61
   26    20    21    43	 9 ;     CG2R66     CG2R67     CG2R61      HGR62
   20    21    22    24	 9 ;     CG2R67     CG2R61     CG2R61     CG2R61
   20    21    22    23	 9 ;     CG2R67     CG2R61     CG2R61      CLGR1
   43    21    22    24	 9 ;      HGR62     CG2R61     CG2R61     CG2R61
   43    21    22    23	 9 ;      HGR62     CG2R61     CG2R61      CLGR1
   21    22    24    25	 9 ;     CG2R61     CG2R61     CG2R61     CG2R61
   21    22    24    44	 9 ;     CG2R61     CG2R61     CG2R61      HGR62
   23    22    24    25	 9 ;      CLGR1     CG2R61     CG2R61     CG2R61
   23    22    24    44	 9 ;      CLGR1     CG2R61     CG2R61      HGR62
   22    24    25    26	 9 ;     CG2R61     CG2R61     CG2R61     CG2R66
   22    24    25    45	 9 ;     CG2R61     CG2R61     CG2R61      HGR62
   44    24    25    26	 9 ;      HGR62     CG2R61     CG2R61     CG2R66
   44    24    25    45	 9 ;      HGR62     CG2R61     CG2R61      HGR62
   24    25    26    20	 9 ;     CG2R61     CG2R61     CG2R66     CG2R67
   24    25    26    27	 9 ;     CG2R61     CG2R61     CG2R66       FGR1
   45    25    26    20	 9 ;      HGR62     CG2R61     CG2R66     CG2R67
   45    25    26    27	 9 ;      HGR62     CG2R61     CG2R66       FGR1
    9    31    32    47	 9 ;     CG2R61      OG301      CG331       HGA3
    9    31    32    48	 9 ;     CG2R61      OG301      CG331       HGA3
    9    31    32    49	 9 ;     CG2R61      OG301      CG331       HGA3

[ virtual_sites2 ]
; Site   from				funct a
   50    23    22     2   -0.164

[ exclusions ]
;	ai	  aj
   23    50
   50    22
   50    21
   50    24
   50    20
   50    43
   50    25
   50    44

