Grunge ROck MAChoS
   50
    1LIG     C1    1  -1.395   0.755  -1.618
    1LIG     C2    2  -1.421   0.617  -1.631
    1LIG     C3    3  -1.337   0.518  -1.576
    1LIG     C4    4  -1.223   0.558  -1.506
    1LIG     O1    5  -1.135   0.471  -1.448
    1LIG     C5    6  -1.163   0.337  -1.449
    1LIG     C6    7  -1.275   0.282  -1.512
    1LIG     C7    8  -1.293   0.143  -1.507
    1LIG     C8    9  -1.201   0.060  -1.443
    1LIG     C9   10  -1.091   0.117  -1.379
    1LIG    C10   11  -1.072   0.255  -1.382
    1LIG    C11   12  -1.373   0.371  -1.586
    1LIG     N1   13  -1.510   0.352  -1.532
    1LIG     HN   14  -1.544   0.378  -1.439
    1LIG    C12   15  -1.577   0.297  -1.626
    1LIG     O2   16  -1.516   0.266  -1.743
    1LIG    C13   17  -1.387   0.327  -1.734
    1LIG    C14   18  -1.194   0.693  -1.492
    1LIG    C15   19  -1.279   0.790  -1.546
    1LIG    C16   20  -1.485   0.856  -1.677
    1LIG    C17   21  -1.449   0.928  -1.793
    1LIG    C18   22  -1.533   1.025  -1.848
    1LIG     CL   23  -1.484   1.112  -1.988
    1LIG    C19   24  -1.656   1.053  -1.789
    1LIG    C20   25  -1.695   0.984  -1.675
    1LIG    C21   26  -1.610   0.888  -1.620
    1LIG      F   27  -1.651   0.827  -1.507
    1LIG     N2   28  -1.707   0.262  -1.622
    1LIG     H1   29  -1.721   0.167  -1.592
    1LIG     H2   30  -1.761   0.290  -1.703
    1LIG     O3   31  -1.211  -0.076  -1.437
    1LIG    C22   32  -1.157  -0.135  -1.318
    1LIG     HC   33  -1.510   0.586  -1.685
    1LIG    HC1   34  -1.380   0.099  -1.553
    1LIG    HC2   35  -1.021   0.054  -1.326
    1LIG    HC3   36  -0.987   0.299  -1.332
    1LIG    HN2   37  -1.537   0.443  -1.566
    1LIG    HC4   38  -1.604   0.395  -1.666
    1LIG    HC5   39  -1.309   0.255  -1.759
    1LIG    HC6   40  -1.381   0.413  -1.800
    1LIG    HC7   41  -1.105   0.724  -1.439
    1LIG    HC8   42  -1.256   0.895  -1.532
    1LIG    HC9   43  -1.355   0.906  -1.841
    1LIG   HC10   44  -1.721   1.128  -1.832
    1LIG   HC11   45  -1.790   1.005  -1.629
    1LIG    HN1   46  -1.745   0.318  -1.547
    1LIG   HC12   47  -1.193  -0.237  -1.309
    1LIG   HC13   48  -1.188  -0.077  -1.232
    1LIG   HC14   49  -1.048  -0.135  -1.324
    1LIG    LP1   50  -1.437   1.195  -2.121
   0.00000   0.00000   0.00000
