Good gRace! Old Maple Actually Chews Slate
   43
    1LIG     C1    1  -1.517   0.410  -1.477
    1LIG     C2    2  -1.396   0.361  -1.425
    1LIG     C3    3  -1.271   0.419  -1.453
    1LIG     C4    4  -1.268   0.528  -1.542
    1LIG     C5    5  -1.386   0.578  -1.596
    1LIG     C6    6  -1.509   0.521  -1.563
    1LIG     C7    7  -1.143   0.363  -1.391
    1LIG     N1    8  -1.055   0.304  -1.496
    1LIG     C8    9  -1.042   0.181  -1.460
    1LIG    HN1   10  -1.014   0.351  -1.577
    1LIG     C9   11  -0.969   0.076  -1.535
    1LIG    C10   12  -1.111   0.153  -1.331
    1LIG     N2   13  -1.173   0.258  -1.289
    1LIG     N3   14  -1.107   0.034  -1.266
    1LIG    HN2   15  -1.229   0.267  -1.204
    1LIG     H1   16  -1.173   0.023  -1.189
    1LIG     H2   17  -1.081  -0.051  -1.314
    1LIG    C11   18  -1.065   0.475  -1.321
    1LIG    C12   19  -1.647   0.347  -1.442
    1LIG    C13   20  -1.711   0.375  -1.320
    1LIG    C14   21  -1.833   0.315  -1.286
    1LIG    C15   22  -1.894   0.228  -1.375
    1LIG    C16   23  -1.834   0.199  -1.498
    1LIG    C17   24  -1.711   0.257  -1.530
    1LIG      O   25  -1.901   0.334  -1.168
    1LIG    C18   26  -2.043   0.322  -1.174
    1LIG     HC   27  -1.399   0.274  -1.360
    1LIG    HC1   28  -1.173   0.573  -1.568
    1LIG    HC2   29  -1.382   0.662  -1.664
    1LIG    HC3   30  -1.599   0.563  -1.604
    1LIG    HC4   31  -0.927   0.119  -1.626
    1LIG    HC5   32  -0.888   0.037  -1.472
    1LIG    HC6   33  -1.037  -0.005  -1.560
    1LIG    HC7   34  -0.975   0.434  -1.277
    1LIG    HC8   35  -1.039   0.551  -1.394
    1LIG    HC9   36  -1.127   0.519  -1.243
    1LIG   HC10   37  -1.666   0.445  -1.252
    1LIG   HC11   38  -1.988   0.182  -1.350
    1LIG   HC12   39  -1.882   0.132  -1.567
    1LIG   HC13   40  -1.664   0.233  -1.624
    1LIG   HC14   41  -2.086   0.365  -1.084
    1LIG   HC15   42  -2.069   0.216  -1.181
    1LIG   HC16   43  -2.080   0.374  -1.262
   0.00000   0.00000   0.00000
