; Created by cgenff_charmm2gmx.py

[ moleculetype ]
; Name			   nrexcl
LIG				 3

[ atoms ]
;	 nr		  type	resnr residue  atom   cgnr	   charge		mass  typeB    chargeB		massB
; residue	 1 LIG rtp LIG q	qsum
     1     CG2R67      1    LIG     C1      1      0.014     12.011   ;
     2     CG2R61      1    LIG     C2      2     -0.235     12.011   ;
     3     CG2R61      1    LIG     C3      3      0.121     12.011   ;
     4     CG2R61      1    LIG     C4      4     -0.228     12.011   ;
     5     CG2R61      1    LIG     C5      5     -0.108     12.011   ;
     6     CG2R61      1    LIG     C6      6     -0.119     12.011   ;
     7     CG3C50      1    LIG     C7      7      0.740     12.011   ;
     8     NG3C51      1    LIG     N1      8     -0.570     14.007   ;
     9     CG2R51      1    LIG     C8      9     -0.245     12.011   ;
    10       HGP1      1    LIG    HN1     10      0.293      1.008   ;
    11      CG331      1    LIG     C9     11     -0.073     12.011   ;
    12     CG2R51      1    LIG    C10     12     -0.019     12.011   ;
    13     NG3C51      1    LIG     N2     13     -0.603     14.007   ;
    14      NG321      1    LIG     N3     14     -0.622     14.007   ;
    15       HGP1      1    LIG    HN2     15      0.293      1.008   ;
    16     HGPAM2      1    LIG     H1     16      0.371      1.008   ;
    17     HGPAM2      1    LIG     H2     17      0.371      1.008   ;
    18      CG331      1    LIG    C11     18     -0.385     12.011   ;
    19     CG2R67      1    LIG    C12     19      0.006     12.011   ;
    20     CG2R61      1    LIG    C13     20     -0.122     12.011   ;
    21     CG2R61      1    LIG    C14     21      0.209     12.011   ;
    22     CG2R61      1    LIG    C15     22     -0.115     12.011   ;
    23     CG2R61      1    LIG    C16     23     -0.116     12.011   ;
    24     CG2R61      1    LIG    C17     24     -0.119     12.011   ;
    25      OG301      1    LIG      O     25     -0.383     15.999   ;
    26      CG331      1    LIG    C18     26     -0.094     12.011   ;
    27      HGR61      1    LIG     HC     27      0.116      1.008   ;
    28      HGR61      1    LIG    HC1     28      0.116      1.008   ;
    29      HGR61      1    LIG    HC2     29      0.116      1.008   ;
    30      HGR61      1    LIG    HC3     30      0.116      1.008   ;
    31       HGA3      1    LIG    HC4     31      0.090      1.008   ;
    32       HGA3      1    LIG    HC5     32      0.090      1.008   ;
    33       HGA3      1    LIG    HC6     33      0.090      1.008   ;
    34       HGA3      1    LIG    HC7     34      0.090      1.008   ;
    35       HGA3      1    LIG    HC8     35      0.090      1.008   ;
    36       HGA3      1    LIG    HC9     36      0.090      1.008   ;
    37      HGR61      1    LIG   HC10     37      0.116      1.008   ;
    38      HGR61      1    LIG   HC11     38      0.116      1.008   ;
    39      HGR61      1    LIG   HC12     39      0.116      1.008   ;
    40      HGR61      1    LIG   HC13     40      0.116      1.008   ;
    41       HGA3      1    LIG   HC14     41      0.090      1.008   ;
    42       HGA3      1    LIG   HC15     42      0.090      1.008   ;
    43       HGA3      1    LIG   HC16     43      0.090      1.008   ;

[ bonds ]
;	ai	  aj funct			  c0			c1			  c2			c3
    1     6	 1 ;      CG2R67     CG2R61
    1     2	 1 ;      CG2R67     CG2R61
    1    19	 1 ;      CG2R67     CG2R67
    2     3	 1 ;      CG2R61     CG2R61
    2    27	 1 ;      CG2R61      HGR61
    3     4	 1 ;      CG2R61     CG2R61
    3     7	 1 ;      CG2R61     CG3C50
    4     5	 1 ;      CG2R61     CG2R61
    4    28	 1 ;      CG2R61      HGR61
    5     6	 1 ;      CG2R61     CG2R61
    5    29	 1 ;      CG2R61      HGR61
    6    30	 1 ;      CG2R61      HGR61
    7     8	 1 ;      CG3C50     NG3C51
    7    18	 1 ;      CG3C50      CG331
    7    13	 1 ;      CG3C50     NG3C51
    8    10	 1 ;      NG3C51       HGP1
    8     9	 1 ;      NG3C51     CG2R51
    9    11	 1 ;      CG2R51      CG331
    9    12	 1 ;      CG2R51     CG2R51
   11    31	 1 ;       CG331       HGA3
   11    32	 1 ;       CG331       HGA3
   11    33	 1 ;       CG331       HGA3
   12    13	 1 ;      CG2R51     NG3C51
   12    14	 1 ;      CG2R51      NG321
   13    15	 1 ;      NG3C51       HGP1
   14    17	 1 ;       NG321     HGPAM2
   14    16	 1 ;       NG321     HGPAM2
   18    34	 1 ;       CG331       HGA3
   18    35	 1 ;       CG331       HGA3
   18    36	 1 ;       CG331       HGA3
   19    24	 1 ;      CG2R67     CG2R61
   19    20	 1 ;      CG2R67     CG2R61
   20    21	 1 ;      CG2R61     CG2R61
   20    37	 1 ;      CG2R61      HGR61
   21    22	 1 ;      CG2R61     CG2R61
   21    25	 1 ;      CG2R61      OG301
   22    23	 1 ;      CG2R61     CG2R61
   22    38	 1 ;      CG2R61      HGR61
   23    24	 1 ;      CG2R61     CG2R61
   23    39	 1 ;      CG2R61      HGR61
   24    40	 1 ;      CG2R61      HGR61
   25    26	 1 ;       OG301      CG331
   26    41	 1 ;       CG331       HGA3
   26    42	 1 ;       CG331       HGA3
   26    43	 1 ;       CG331       HGA3

[ pairs ]
;	ai	  aj funct			  c0			c1			  c2			c3
    1     4	 1
    1     7	 1
    1    29	 1
    1    23	 1
    1    40	 1
    1    21	 1
    1    37	 1
    2     5	 1
    2    30	 1
    2    24	 1
    2    20	 1
    2    28	 1
    2     8	 1
    2    18	 1
    2    13	 1
    3     6	 1
    3    19	 1
    3    29	 1
    3    10	 1
    3     9	 1
    3    34	 1
    3    35	 1
    3    36	 1
    3    12	 1
    3    15	 1
    4    27	 1
    4     8	 1
    4    18	 1
    4    13	 1
    4    30	 1
    5    19	 1
    5     7	 1
    6    27	 1
    6    24	 1
    6    20	 1
    6    28	 1
    7    27	 1
    7    28	 1
    7    11	 1
    7    14	 1
    8    34	 1
    8    35	 1
    8    36	 1
    8    15	 1
    8    31	 1
    8    32	 1
    8    33	 1
    8    14	 1
    9    18	 1
    9    15	 1
    9    17	 1
    9    16	 1
   10    18	 1
   10    13	 1
   10    11	 1
   10    12	 1
   11    13	 1
   11    14	 1
   12    18	 1
   12    31	 1
   12    32	 1
   12    33	 1
   13    34	 1
   13    35	 1
   13    36	 1
   13    17	 1
   13    16	 1
   14    15	 1
   15    18	 1
   19    30	 1
   19    27	 1
   19    22	 1
   19    25	 1
   19    39	 1
   20    23	 1
   20    40	 1
   20    38	 1
   20    26	 1
   21    24	 1
   21    39	 1
   21    41	 1
   21    42	 1
   21    43	 1
   22    37	 1
   22    26	 1
   22    40	 1
   23    25	 1
   24    37	 1
   24    38	 1
   25    37	 1
   25    38	 1
   28    29	 1
   29    30	 1
   38    39	 1
   39    40	 1

[ angles ]
;	ai	  aj	ak funct			c0			  c1			c2			  c3
    6     1     2	5 ;     CG2R61     CG2R67     CG2R61
    6     1    19	5 ;     CG2R61     CG2R67     CG2R67
    2     1    19	5 ;     CG2R61     CG2R67     CG2R67
    3     2     1	5 ;     CG2R61     CG2R61     CG2R67
    3     2    27	5 ;     CG2R61     CG2R61      HGR61
    1     2    27	5 ;     CG2R67     CG2R61      HGR61
    4     3     7	5 ;     CG2R61     CG2R61     CG3C50
    4     3     2	5 ;     CG2R61     CG2R61     CG2R61
    7     3     2	5 ;     CG3C50     CG2R61     CG2R61
    5     4     3	5 ;     CG2R61     CG2R61     CG2R61
    5     4    28	5 ;     CG2R61     CG2R61      HGR61
    3     4    28	5 ;     CG2R61     CG2R61      HGR61
    4     5     6	5 ;     CG2R61     CG2R61     CG2R61
    4     5    29	5 ;     CG2R61     CG2R61      HGR61
    6     5    29	5 ;     CG2R61     CG2R61      HGR61
    5     6     1	5 ;     CG2R61     CG2R61     CG2R67
    5     6    30	5 ;     CG2R61     CG2R61      HGR61
    1     6    30	5 ;     CG2R67     CG2R61      HGR61
    8     7    18	5 ;     NG3C51     CG3C50      CG331
    8     7     3	5 ;     NG3C51     CG3C50     CG2R61
    8     7    13	5 ;     NG3C51     CG3C50     NG3C51
   18     7     3	5 ;      CG331     CG3C50     CG2R61
   18     7    13	5 ;      CG331     CG3C50     NG3C51
    3     7    13	5 ;     CG2R61     CG3C50     NG3C51
   10     8     9	5 ;       HGP1     NG3C51     CG2R51
   10     8     7	5 ;       HGP1     NG3C51     CG3C50
    9     8     7	5 ;     CG2R51     NG3C51     CG3C50
   11     9     8	5 ;      CG331     CG2R51     NG3C51
   11     9    12	5 ;      CG331     CG2R51     CG2R51
    8     9    12	5 ;     NG3C51     CG2R51     CG2R51
    9    11    31	5 ;     CG2R51      CG331       HGA3
    9    11    32	5 ;     CG2R51      CG331       HGA3
    9    11    33	5 ;     CG2R51      CG331       HGA3
   31    11    32	5 ;       HGA3      CG331       HGA3
   31    11    33	5 ;       HGA3      CG331       HGA3
   32    11    33	5 ;       HGA3      CG331       HGA3
    9    12    13	5 ;     CG2R51     CG2R51     NG3C51
    9    12    14	5 ;     CG2R51     CG2R51      NG321
   13    12    14	5 ;     NG3C51     CG2R51      NG321
    7    13    12	5 ;     CG3C50     NG3C51     CG2R51
    7    13    15	5 ;     CG3C50     NG3C51       HGP1
   12    13    15	5 ;     CG2R51     NG3C51       HGP1
   12    14    17	5 ;     CG2R51      NG321     HGPAM2
   12    14    16	5 ;     CG2R51      NG321     HGPAM2
   17    14    16	5 ;     HGPAM2      NG321     HGPAM2
    7    18    34	5 ;     CG3C50      CG331       HGA3
    7    18    35	5 ;     CG3C50      CG331       HGA3
    7    18    36	5 ;     CG3C50      CG331       HGA3
   34    18    35	5 ;       HGA3      CG331       HGA3
   34    18    36	5 ;       HGA3      CG331       HGA3
   35    18    36	5 ;       HGA3      CG331       HGA3
    1    19    24	5 ;     CG2R67     CG2R67     CG2R61
    1    19    20	5 ;     CG2R67     CG2R67     CG2R61
   24    19    20	5 ;     CG2R61     CG2R67     CG2R61
   19    20    21	5 ;     CG2R67     CG2R61     CG2R61
   19    20    37	5 ;     CG2R67     CG2R61      HGR61
   21    20    37	5 ;     CG2R61     CG2R61      HGR61
   20    21    22	5 ;     CG2R61     CG2R61     CG2R61
   20    21    25	5 ;     CG2R61     CG2R61      OG301
   22    21    25	5 ;     CG2R61     CG2R61      OG301
   23    22    21	5 ;     CG2R61     CG2R61     CG2R61
   23    22    38	5 ;     CG2R61     CG2R61      HGR61
   21    22    38	5 ;     CG2R61     CG2R61      HGR61
   24    23    22	5 ;     CG2R61     CG2R61     CG2R61
   24    23    39	5 ;     CG2R61     CG2R61      HGR61
   22    23    39	5 ;     CG2R61     CG2R61      HGR61
   19    24    23	5 ;     CG2R67     CG2R61     CG2R61
   19    24    40	5 ;     CG2R67     CG2R61      HGR61
   23    24    40	5 ;     CG2R61     CG2R61      HGR61
   21    25    26	5 ;     CG2R61      OG301      CG331
   25    26    41	5 ;      OG301      CG331       HGA3
   25    26    42	5 ;      OG301      CG331       HGA3
   25    26    43	5 ;      OG301      CG331       HGA3
   41    26    42	5 ;       HGA3      CG331       HGA3
   41    26    43	5 ;       HGA3      CG331       HGA3
   42    26    43	5 ;       HGA3      CG331       HGA3

[ dihedrals ]
;	ai	  aj	ak	  al funct			  c0			c1			  c2			c3			  c4			c5
    2     1     6     5	 9 ;     CG2R61     CG2R67     CG2R61     CG2R61
    2     1     6    30	 9 ;     CG2R61     CG2R67     CG2R61      HGR61
   19     1     6     5	 9 ;     CG2R67     CG2R67     CG2R61     CG2R61
   19     1     6    30	 9 ;     CG2R67     CG2R67     CG2R61      HGR61
    6     1     2     3	 9 ;     CG2R61     CG2R67     CG2R61     CG2R61
    6     1     2    27	 9 ;     CG2R61     CG2R67     CG2R61      HGR61
   19     1     2     3	 9 ;     CG2R67     CG2R67     CG2R61     CG2R61
   19     1     2    27	 9 ;     CG2R67     CG2R67     CG2R61      HGR61
    6     1    19    24	 9 ;     CG2R61     CG2R67     CG2R67     CG2R61
    6     1    19    20	 9 ;     CG2R61     CG2R67     CG2R67     CG2R61
    2     1    19    24	 9 ;     CG2R61     CG2R67     CG2R67     CG2R61
    2     1    19    20	 9 ;     CG2R61     CG2R67     CG2R67     CG2R61
    1     2     3     4	 9 ;     CG2R67     CG2R61     CG2R61     CG2R61
    1     2     3     7	 9 ;     CG2R67     CG2R61     CG2R61     CG3C50
   27     2     3     4	 9 ;      HGR61     CG2R61     CG2R61     CG2R61
   27     2     3     7	 9 ;      HGR61     CG2R61     CG2R61     CG3C50
    7     3     4     5	 9 ;     CG3C50     CG2R61     CG2R61     CG2R61
    7     3     4    28	 9 ;     CG3C50     CG2R61     CG2R61      HGR61
    2     3     4     5	 9 ;     CG2R61     CG2R61     CG2R61     CG2R61
    2     3     4    28	 9 ;     CG2R61     CG2R61     CG2R61      HGR61
    4     3     7     8	 9 ;     CG2R61     CG2R61     CG3C50     NG3C51
    4     3     7    18	 9 ;     CG2R61     CG2R61     CG3C50      CG331
    4     3     7    13	 9 ;     CG2R61     CG2R61     CG3C50     NG3C51
    2     3     7     8	 9 ;     CG2R61     CG2R61     CG3C50     NG3C51
    2     3     7    18	 9 ;     CG2R61     CG2R61     CG3C50      CG331
    2     3     7    13	 9 ;     CG2R61     CG2R61     CG3C50     NG3C51
    3     4     5     6	 9 ;     CG2R61     CG2R61     CG2R61     CG2R61
    3     4     5    29	 9 ;     CG2R61     CG2R61     CG2R61      HGR61
   28     4     5     6	 9 ;      HGR61     CG2R61     CG2R61     CG2R61
   28     4     5    29	 9 ;      HGR61     CG2R61     CG2R61      HGR61
    4     5     6     1	 9 ;     CG2R61     CG2R61     CG2R61     CG2R67
    4     5     6    30	 9 ;     CG2R61     CG2R61     CG2R61      HGR61
   29     5     6     1	 9 ;      HGR61     CG2R61     CG2R61     CG2R67
   29     5     6    30	 9 ;      HGR61     CG2R61     CG2R61      HGR61
   18     7     8    10	 9 ;      CG331     CG3C50     NG3C51       HGP1
   18     7     8     9	 9 ;      CG331     CG3C50     NG3C51     CG2R51
    3     7     8    10	 9 ;     CG2R61     CG3C50     NG3C51       HGP1
    3     7     8     9	 9 ;     CG2R61     CG3C50     NG3C51     CG2R51
   13     7     8    10	 9 ;     NG3C51     CG3C50     NG3C51       HGP1
   13     7     8     9	 9 ;     NG3C51     CG3C50     NG3C51     CG2R51
    8     7    18    34	 9 ;     NG3C51     CG3C50      CG331       HGA3
    8     7    18    35	 9 ;     NG3C51     CG3C50      CG331       HGA3
    8     7    18    36	 9 ;     NG3C51     CG3C50      CG331       HGA3
    3     7    18    34	 9 ;     CG2R61     CG3C50      CG331       HGA3
    3     7    18    35	 9 ;     CG2R61     CG3C50      CG331       HGA3
    3     7    18    36	 9 ;     CG2R61     CG3C50      CG331       HGA3
   13     7    18    34	 9 ;     NG3C51     CG3C50      CG331       HGA3
   13     7    18    35	 9 ;     NG3C51     CG3C50      CG331       HGA3
   13     7    18    36	 9 ;     NG3C51     CG3C50      CG331       HGA3
    8     7    13    12	 9 ;     NG3C51     CG3C50     NG3C51     CG2R51
    8     7    13    15	 9 ;     NG3C51     CG3C50     NG3C51       HGP1
   18     7    13    12	 9 ;      CG331     CG3C50     NG3C51     CG2R51
   18     7    13    15	 9 ;      CG331     CG3C50     NG3C51       HGP1
    3     7    13    12	 9 ;     CG2R61     CG3C50     NG3C51     CG2R51
    3     7    13    15	 9 ;     CG2R61     CG3C50     NG3C51       HGP1
   10     8     9    11	 9 ;       HGP1     NG3C51     CG2R51      CG331
   10     8     9    12	 9 ;       HGP1     NG3C51     CG2R51     CG2R51
    7     8     9    11	 9 ;     CG3C50     NG3C51     CG2R51      CG331
    7     8     9    12	 9 ;     CG3C50     NG3C51     CG2R51     CG2R51
    8     9    11    31	 9 ;     NG3C51     CG2R51      CG331       HGA3
    8     9    11    32	 9 ;     NG3C51     CG2R51      CG331       HGA3
    8     9    11    33	 9 ;     NG3C51     CG2R51      CG331       HGA3
   12     9    11    31	 9 ;     CG2R51     CG2R51      CG331       HGA3
   12     9    11    32	 9 ;     CG2R51     CG2R51      CG331       HGA3
   12     9    11    33	 9 ;     CG2R51     CG2R51      CG331       HGA3
   11     9    12    13	 9 ;      CG331     CG2R51     CG2R51     NG3C51
   11     9    12    14	 9 ;      CG331     CG2R51     CG2R51      NG321
    8     9    12    13	 9 ;     NG3C51     CG2R51     CG2R51     NG3C51
    8     9    12    14	 9 ;     NG3C51     CG2R51     CG2R51      NG321
    9    12    13     7	 9 ;     CG2R51     CG2R51     NG3C51     CG3C50
    9    12    13    15	 9 ;     CG2R51     CG2R51     NG3C51       HGP1
   14    12    13     7	 9 ;      NG321     CG2R51     NG3C51     CG3C50
   14    12    13    15	 9 ;      NG321     CG2R51     NG3C51       HGP1
    9    12    14    17	 9 ;     CG2R51     CG2R51      NG321     HGPAM2
    9    12    14    16	 9 ;     CG2R51     CG2R51      NG321     HGPAM2
   13    12    14    17	 9 ;     NG3C51     CG2R51      NG321     HGPAM2
   13    12    14    16	 9 ;     NG3C51     CG2R51      NG321     HGPAM2
    1    19    24    23	 9 ;     CG2R67     CG2R67     CG2R61     CG2R61
    1    19    24    40	 9 ;     CG2R67     CG2R67     CG2R61      HGR61
   20    19    24    23	 9 ;     CG2R61     CG2R67     CG2R61     CG2R61
   20    19    24    40	 9 ;     CG2R61     CG2R67     CG2R61      HGR61
    1    19    20    21	 9 ;     CG2R67     CG2R67     CG2R61     CG2R61
    1    19    20    37	 9 ;     CG2R67     CG2R67     CG2R61      HGR61
   24    19    20    21	 9 ;     CG2R61     CG2R67     CG2R61     CG2R61
   24    19    20    37	 9 ;     CG2R61     CG2R67     CG2R61      HGR61
   19    20    21    22	 9 ;     CG2R67     CG2R61     CG2R61     CG2R61
   19    20    21    25	 9 ;     CG2R67     CG2R61     CG2R61      OG301
   37    20    21    22	 9 ;      HGR61     CG2R61     CG2R61     CG2R61
   37    20    21    25	 9 ;      HGR61     CG2R61     CG2R61      OG301
   20    21    22    23	 9 ;     CG2R61     CG2R61     CG2R61     CG2R61
   20    21    22    38	 9 ;     CG2R61     CG2R61     CG2R61      HGR61
   25    21    22    23	 9 ;      OG301     CG2R61     CG2R61     CG2R61
   25    21    22    38	 9 ;      OG301     CG2R61     CG2R61      HGR61
   20    21    25    26	 9 ;     CG2R61     CG2R61      OG301      CG331
   22    21    25    26	 9 ;     CG2R61     CG2R61      OG301      CG331
   21    22    23    24	 9 ;     CG2R61     CG2R61     CG2R61     CG2R61
   21    22    23    39	 9 ;     CG2R61     CG2R61     CG2R61      HGR61
   38    22    23    24	 9 ;      HGR61     CG2R61     CG2R61     CG2R61
   38    22    23    39	 9 ;      HGR61     CG2R61     CG2R61      HGR61
   22    23    24    19	 9 ;     CG2R61     CG2R61     CG2R61     CG2R67
   22    23    24    40	 9 ;     CG2R61     CG2R61     CG2R61      HGR61
   39    23    24    19	 9 ;      HGR61     CG2R61     CG2R61     CG2R67
   39    23    24    40	 9 ;      HGR61     CG2R61     CG2R61      HGR61
   21    25    26    41	 9 ;     CG2R61      OG301      CG331       HGA3
   21    25    26    42	 9 ;     CG2R61      OG301      CG331       HGA3
   21    25    26    43	 9 ;     CG2R61      OG301      CG331       HGA3

