GROwing Monsters And Cloning Shrimps
   67
    1LIG      S    1  -1.775   0.730  -1.583
    1LIG     O1    2  -1.680   0.809  -1.507
    1LIG     O2    3  -1.855   0.789  -1.688
    1LIG     C1    4  -1.691   0.587  -1.647
    1LIG     C2    5  -1.629   0.505  -1.533
    1LIG     C3    6  -1.736   0.458  -1.433
    1LIG     C4    7  -1.806   0.578  -1.363
    1LIG     C5    8  -1.886   0.660  -1.464
    1LIG      N    9  -1.904   0.522  -1.261
    1LIG     H1   10  -1.907   0.419  -1.265
    1LIG     H2   11  -1.869   0.547  -1.167
    1LIG     C6   12  -2.045   0.572  -1.271
    1LIG     C7   13  -2.140   0.456  -1.271
    1LIG     C8   14  -2.155   0.377  -1.156
    1LIG     C9   15  -2.250   0.274  -1.151
    1LIG    C10   16  -2.328   0.250  -1.265
    1LIG    C11   17  -2.313   0.327  -1.380
    1LIG    C12   18  -2.220   0.431  -1.383
    1LIG    C13   19  -2.273   0.193  -1.026
    1LIG    C14   20  -2.277   0.042  -1.053
    1LIG    C15   21  -2.168   0.226  -0.920
    1LIG     O3   22  -1.839   0.380  -1.491
    1LIG     H3   23  -1.928   0.417  -1.470
    1LIG    C16   24  -1.542   0.388  -1.583
    1LIG    C17   25  -1.415   0.382  -1.503
    1LIG    C18   26  -1.398   0.281  -1.407
    1LIG    C19   27  -1.303   0.294  -1.304
    1LIG    C20   28  -1.217   0.404  -1.307
    1LIG    C21   29  -1.225   0.499  -1.410
    1LIG    C22   30  -1.324   0.489  -1.507
    1LIG    C23   31  -1.306   0.193  -1.192
    1LIG    C24   32  -1.201   0.083  -1.208
    1LIG    C25   33  -1.247  -0.046  -1.142
    1LIG     O4   34  -1.124   0.429  -1.211
    1LIG     H4   35  -1.093   0.346  -1.172
    1LIG    HC2   36  -1.611   0.620  -1.714
    1LIG    HC3   37  -1.761   0.525  -1.702
    1LIG     HC   38  -1.563   0.573  -1.478
    1LIG    HC1   39  -1.686   0.399  -1.356
    1LIG    HC4   40  -1.733   0.642  -1.314
    1LIG    HC5   41  -1.958   0.595  -1.515
    1LIG    HC6   42  -1.940   0.740  -1.413
    1LIG    HC7   43  -2.066   0.636  -1.186
    1LIG    HC8   44  -2.057   0.628  -1.363
    1LIG    HC9   45  -2.093   0.396  -1.069
    1LIG   HC10   46  -2.401   0.171  -1.264
    1LIG   HC11   47  -2.374   0.307  -1.468
    1LIG   HC12   48  -2.209   0.491  -1.472
    1LIG   HC13   49  -2.371   0.221  -0.985
    1LIG   HC14   50  -1.518   0.402  -1.688
    1LIG   HC15   51  -1.597   0.294  -1.571
    1LIG   HC16   52  -1.458   0.192  -1.413
    1LIG   HC17   53  -1.154   0.580  -1.413
    1LIG   HC18   54  -1.331   0.563  -1.585
    1LIG   HC19   55  -1.289   0.244  -1.098
    1LIG   HC20   56  -1.405   0.146  -1.189
    1LIG   HC21   57  -1.108   0.116  -1.161
    1LIG   HC22   58  -1.183   0.066  -1.314
    1LIG   HC23   59  -2.353   0.021  -1.129
    1LIG   HC24   60  -2.302  -0.011  -0.961
    1LIG   HC25   61  -2.180   0.009  -1.090
    1LIG   HC26   62  -2.182   0.162  -0.833
    1LIG   HC27   63  -2.178   0.330  -0.890
    1LIG   HC28   64  -2.068   0.209  -0.962
    1LIG   HC29   65  -1.170  -0.122  -1.155
    1LIG   HC30   66  -1.264  -0.029  -1.036
    1LIG   HC31   67  -1.339  -0.079  -1.189
   0.00000   0.00000   0.00000
