; Created by cgenff_charmm2gmx.py

[ moleculetype ]
; Name			   nrexcl
LIG				 3

[ atoms ]
;	 nr		  type	resnr residue  atom   cgnr	   charge		mass  typeB    chargeB		massB
; residue	 1 LIG rtp LIG q	qsum
     1      SG3O2      1    LIG      S      1      0.113     32.060   ;
     2      OG2P1      1    LIG     O1      2     -0.300     15.999   ;
     3      OG2P1      1    LIG     O2      3     -0.300     15.999   ;
     4      CG321      1    LIG     C1      4      0.180     12.011   ;
     5      CG311      1    LIG     C2      5     -0.145     12.011   ;
     6      CG311      1    LIG     C3      6      0.100     12.011   ;
     7      CG314      1    LIG     C4      7     -0.043     12.011   ;
     8      CG321      1    LIG     C5      8      0.224     12.011   ;
     9      NG3P2      1    LIG      N      9     -0.444     14.007   ;
    10       HGP2      1    LIG     H1     10      0.346      1.008   ;
    11       HGP2      1    LIG     H2     11      0.346      1.008   ;
    12      CG324      1    LIG     C6     12      0.178     12.011   ;
    13     CG2R61      1    LIG     C7     13      0.035     12.011   ;
    14     CG2R61      1    LIG     C8     14     -0.117     12.011   ;
    15     CG2R61      1    LIG     C9     15     -0.017     12.011   ;
    16     CG2R61      1    LIG    C10     16     -0.114     12.011   ;
    17     CG2R61      1    LIG    C11     17     -0.109     12.011   ;
    18     CG2R61      1    LIG    C12     18     -0.119     12.011   ;
    19      CG311      1    LIG    C13     19     -0.088     12.011   ;
    20      CG331      1    LIG    C14     20     -0.264     12.011   ;
    21      CG331      1    LIG    C15     21     -0.264     12.011   ;
    22      OG311      1    LIG     O3     22     -0.595     15.999   ;
    23       HGP1      1    LIG     H3     23      0.422      1.008   ;
    24      CG321      1    LIG    C16     24     -0.087     12.011   ;
    25     CG2R61      1    LIG    C17     25     -0.031     12.011   ;
    26     CG2R61      1    LIG    C18     26     -0.128     12.011   ;
    27     CG2R61      1    LIG    C19     27      0.030     12.011   ;
    28     CG2R61      1    LIG    C20     28      0.094     12.011   ;
    29     CG2R61      1    LIG    C21     29     -0.109     12.011   ;
    30     CG2R61      1    LIG    C22     30     -0.121     12.011   ;
    31      CG321      1    LIG    C23     31     -0.188     12.011   ;
    32      CG321      1    LIG    C24     32     -0.180     12.011   ;
    33      CG331      1    LIG    C25     33     -0.270     12.011   ;
    34      OG311      1    LIG     O4     34     -0.537     15.999   ;
    35       HGP1      1    LIG     H4     35      0.421      1.008   ;
    36       HGA2      1    LIG    HC2     36      0.090      1.008   ;
    37       HGA2      1    LIG    HC3     37      0.090      1.008   ;
    38       HGA1      1    LIG     HC     38      0.090      1.008   ;
    39       HGA1      1    LIG    HC1     39      0.090      1.008   ;
    40       HGA1      1    LIG    HC4     40      0.109      1.008   ;
    41       HGA2      1    LIG    HC5     41      0.090      1.008   ;
    42       HGA2      1    LIG    HC6     42      0.090      1.008   ;
    43       HGA2      1    LIG    HC7     43      0.090      1.008   ;
    44       HGA2      1    LIG    HC8     44      0.090      1.008   ;
    45      HGR61      1    LIG    HC9     45      0.116      1.008   ;
    46      HGR61      1    LIG   HC10     46      0.116      1.008   ;
    47      HGR61      1    LIG   HC11     47      0.116      1.008   ;
    48      HGR61      1    LIG   HC12     48      0.116      1.008   ;
    49       HGA1      1    LIG   HC13     49      0.090      1.008   ;
    50       HGA2      1    LIG   HC14     50      0.090      1.008   ;
    51       HGA2      1    LIG   HC15     51      0.090      1.008   ;
    52      HGR61      1    LIG   HC16     52      0.116      1.008   ;
    53      HGR61      1    LIG   HC17     53      0.116      1.008   ;
    54      HGR61      1    LIG   HC18     54      0.116      1.008   ;
    55       HGA2      1    LIG   HC19     55      0.090      1.008   ;
    56       HGA2      1    LIG   HC20     56      0.090      1.008   ;
    57       HGA2      1    LIG   HC21     57      0.090      1.008   ;
    58       HGA2      1    LIG   HC22     58      0.090      1.008   ;
    59       HGA3      1    LIG   HC23     59      0.090      1.008   ;
    60       HGA3      1    LIG   HC24     60      0.090      1.008   ;
    61       HGA3      1    LIG   HC25     61      0.090      1.008   ;
    62       HGA3      1    LIG   HC26     62      0.090      1.008   ;
    63       HGA3      1    LIG   HC27     63      0.090      1.008   ;
    64       HGA3      1    LIG   HC28     64      0.090      1.008   ;
    65       HGA3      1    LIG   HC29     65      0.090      1.008   ;
    66       HGA3      1    LIG   HC30     66      0.090      1.008   ;
    67       HGA3      1    LIG   HC31     67      0.090      1.008   ;

[ bonds ]
;	ai	  aj funct			  c0			c1			  c2			c3
    1     4	 1 ;       SG3O2      CG321
    1     2	 1 ;       SG3O2      OG2P1
    1     3	 1 ;       SG3O2      OG2P1
    1     8	 1 ;       SG3O2      CG321
    4     5	 1 ;       CG321      CG311
    4    36	 1 ;       CG321       HGA2
    4    37	 1 ;       CG321       HGA2
    5    24	 1 ;       CG311      CG321
    5     6	 1 ;       CG311      CG311
    5    38	 1 ;       CG311       HGA1
    6    22	 1 ;       CG311      OG311
    6     7	 1 ;       CG311      CG314
    6    39	 1 ;       CG311       HGA1
    7     8	 1 ;       CG314      CG321
    7     9	 1 ;       CG314      NG3P2
    7    40	 1 ;       CG314       HGA1
    8    41	 1 ;       CG321       HGA2
    8    42	 1 ;       CG321       HGA2
    9    10	 1 ;       NG3P2       HGP2
    9    11	 1 ;       NG3P2       HGP2
    9    12	 1 ;       NG3P2      CG324
   12    13	 1 ;       CG324     CG2R61
   12    43	 1 ;       CG324       HGA2
   12    44	 1 ;       CG324       HGA2
   13    18	 1 ;      CG2R61     CG2R61
   13    14	 1 ;      CG2R61     CG2R61
   14    15	 1 ;      CG2R61     CG2R61
   14    45	 1 ;      CG2R61      HGR61
   15    16	 1 ;      CG2R61     CG2R61
   15    19	 1 ;      CG2R61      CG311
   16    17	 1 ;      CG2R61     CG2R61
   16    46	 1 ;      CG2R61      HGR61
   17    18	 1 ;      CG2R61     CG2R61
   17    47	 1 ;      CG2R61      HGR61
   18    48	 1 ;      CG2R61      HGR61
   19    20	 1 ;       CG311      CG331
   19    21	 1 ;       CG311      CG331
   19    49	 1 ;       CG311       HGA1
   20    59	 1 ;       CG331       HGA3
   20    60	 1 ;       CG331       HGA3
   20    61	 1 ;       CG331       HGA3
   21    62	 1 ;       CG331       HGA3
   21    63	 1 ;       CG331       HGA3
   21    64	 1 ;       CG331       HGA3
   22    23	 1 ;       OG311       HGP1
   24    25	 1 ;       CG321     CG2R61
   24    50	 1 ;       CG321       HGA2
   24    51	 1 ;       CG321       HGA2
   25    30	 1 ;      CG2R61     CG2R61
   25    26	 1 ;      CG2R61     CG2R61
   26    27	 1 ;      CG2R61     CG2R61
   26    52	 1 ;      CG2R61      HGR61
   27    28	 1 ;      CG2R61     CG2R61
   27    31	 1 ;      CG2R61      CG321
   28    29	 1 ;      CG2R61     CG2R61
   28    34	 1 ;      CG2R61      OG311
   29    30	 1 ;      CG2R61     CG2R61
   29    53	 1 ;      CG2R61      HGR61
   30    54	 1 ;      CG2R61      HGR61
   31    32	 1 ;       CG321      CG321
   31    55	 1 ;       CG321       HGA2
   31    56	 1 ;       CG321       HGA2
   32    33	 1 ;       CG321      CG331
   32    57	 1 ;       CG321       HGA2
   32    58	 1 ;       CG321       HGA2
   33    65	 1 ;       CG331       HGA3
   33    66	 1 ;       CG331       HGA3
   33    67	 1 ;       CG331       HGA3
   34    35	 1 ;       OG311       HGP1

[ pairs ]
;	ai	  aj funct			  c0			c1			  c2			c3
    1    24	 1
    1     6	 1
    1    38	 1
    1     9	 1
    1    40	 1
    2     5	 1
    2    36	 1
    2    37	 1
    2     7	 1
    2    41	 1
    2    42	 1
    3     5	 1
    3    36	 1
    3    37	 1
    3     7	 1
    3    41	 1
    3    42	 1
    4     7	 1
    4    41	 1
    4    42	 1
    4    25	 1
    4    50	 1
    4    51	 1
    4    22	 1
    4    39	 1
    5     8	 1
    5    23	 1
    5     9	 1
    5    40	 1
    5    30	 1
    5    26	 1
    6    36	 1
    6    37	 1
    6    25	 1
    6    50	 1
    6    51	 1
    6    41	 1
    6    42	 1
    6    10	 1
    6    11	 1
    6    12	 1
    7    24	 1
    7    38	 1
    7    23	 1
    7    13	 1
    7    43	 1
    7    44	 1
    8    36	 1
    8    37	 1
    8    22	 1
    8    39	 1
    8    10	 1
    8    11	 1
    8    12	 1
    9    22	 1
    9    39	 1
    9    41	 1
    9    42	 1
    9    18	 1
    9    14	 1
   10    40	 1
   10    13	 1
   10    43	 1
   10    44	 1
   11    40	 1
   11    13	 1
   11    43	 1
   11    44	 1
   12    40	 1
   12    17	 1
   12    48	 1
   12    15	 1
   12    45	 1
   13    16	 1
   13    19	 1
   13    47	 1
   14    43	 1
   14    44	 1
   14    17	 1
   14    48	 1
   14    46	 1
   14    20	 1
   14    21	 1
   14    49	 1
   15    18	 1
   15    47	 1
   15    59	 1
   15    60	 1
   15    61	 1
   15    62	 1
   15    63	 1
   15    64	 1
   16    45	 1
   16    20	 1
   16    21	 1
   16    49	 1
   16    48	 1
   17    19	 1
   18    43	 1
   18    44	 1
   18    45	 1
   18    46	 1
   19    45	 1
   19    46	 1
   20    62	 1
   20    63	 1
   20    64	 1
   21    59	 1
   21    60	 1
   21    61	 1
   22    24	 1
   22    38	 1
   22    40	 1
   23    39	 1
   24    36	 1
   24    37	 1
   24    39	 1
   24    29	 1
   24    54	 1
   24    27	 1
   24    52	 1
   25    38	 1
   25    28	 1
   25    31	 1
   25    53	 1
   26    50	 1
   26    51	 1
   26    29	 1
   26    54	 1
   26    34	 1
   26    32	 1
   26    55	 1
   26    56	 1
   27    30	 1
   27    53	 1
   27    35	 1
   27    33	 1
   27    57	 1
   27    58	 1
   28    52	 1
   28    32	 1
   28    55	 1
   28    56	 1
   28    54	 1
   29    31	 1
   29    35	 1
   30    50	 1
   30    51	 1
   30    52	 1
   30    34	 1
   31    52	 1
   31    34	 1
   31    65	 1
   31    66	 1
   31    67	 1
   33    55	 1
   33    56	 1
   34    53	 1
   36    38	 1
   37    38	 1
   38    50	 1
   38    51	 1
   38    39	 1
   39    40	 1
   40    41	 1
   40    42	 1
   46    47	 1
   47    48	 1
   49    59	 1
   49    60	 1
   49    61	 1
   49    62	 1
   49    63	 1
   49    64	 1
   53    54	 1
   55    57	 1
   55    58	 1
   56    57	 1
   56    58	 1
   57    65	 1
   57    66	 1
   57    67	 1
   58    65	 1
   58    66	 1
   58    67	 1

[ angles ]
;	ai	  aj	ak funct			c0			  c1			c2			  c3
    4     1     2	5 ;      CG321      SG3O2      OG2P1
    4     1     3	5 ;      CG321      SG3O2      OG2P1
    4     1     8	5 ;      CG321      SG3O2      CG321
    2     1     3	5 ;      OG2P1      SG3O2      OG2P1
    2     1     8	5 ;      OG2P1      SG3O2      CG321
    3     1     8	5 ;      OG2P1      SG3O2      CG321
    5     4     1	5 ;      CG311      CG321      SG3O2
    5     4    36	5 ;      CG311      CG321       HGA2
    5     4    37	5 ;      CG311      CG321       HGA2
    1     4    36	5 ;      SG3O2      CG321       HGA2
    1     4    37	5 ;      SG3O2      CG321       HGA2
   36     4    37	5 ;       HGA2      CG321       HGA2
   24     5     4	5 ;      CG321      CG311      CG321
   24     5     6	5 ;      CG321      CG311      CG311
   24     5    38	5 ;      CG321      CG311       HGA1
    4     5     6	5 ;      CG321      CG311      CG311
    4     5    38	5 ;      CG321      CG311       HGA1
    6     5    38	5 ;      CG311      CG311       HGA1
    5     6    22	5 ;      CG311      CG311      OG311
    5     6     7	5 ;      CG311      CG311      CG314
    5     6    39	5 ;      CG311      CG311       HGA1
   22     6     7	5 ;      OG311      CG311      CG314
   22     6    39	5 ;      OG311      CG311       HGA1
    7     6    39	5 ;      CG314      CG311       HGA1
    6     7     8	5 ;      CG311      CG314      CG321
    6     7     9	5 ;      CG311      CG314      NG3P2
    6     7    40	5 ;      CG311      CG314       HGA1
    8     7     9	5 ;      CG321      CG314      NG3P2
    8     7    40	5 ;      CG321      CG314       HGA1
    9     7    40	5 ;      NG3P2      CG314       HGA1
    1     8     7	5 ;      SG3O2      CG321      CG314
    1     8    41	5 ;      SG3O2      CG321       HGA2
    1     8    42	5 ;      SG3O2      CG321       HGA2
    7     8    41	5 ;      CG314      CG321       HGA2
    7     8    42	5 ;      CG314      CG321       HGA2
   41     8    42	5 ;       HGA2      CG321       HGA2
    7     9    10	5 ;      CG314      NG3P2       HGP2
    7     9    11	5 ;      CG314      NG3P2       HGP2
    7     9    12	5 ;      CG314      NG3P2      CG324
   10     9    11	5 ;       HGP2      NG3P2       HGP2
   10     9    12	5 ;       HGP2      NG3P2      CG324
   11     9    12	5 ;       HGP2      NG3P2      CG324
    9    12    13	5 ;      NG3P2      CG324     CG2R61
    9    12    43	5 ;      NG3P2      CG324       HGA2
    9    12    44	5 ;      NG3P2      CG324       HGA2
   13    12    43	5 ;     CG2R61      CG324       HGA2
   13    12    44	5 ;     CG2R61      CG324       HGA2
   43    12    44	5 ;       HGA2      CG324       HGA2
   12    13    18	5 ;      CG324     CG2R61     CG2R61
   12    13    14	5 ;      CG324     CG2R61     CG2R61
   18    13    14	5 ;     CG2R61     CG2R61     CG2R61
   13    14    15	5 ;     CG2R61     CG2R61     CG2R61
   13    14    45	5 ;     CG2R61     CG2R61      HGR61
   15    14    45	5 ;     CG2R61     CG2R61      HGR61
   14    15    16	5 ;     CG2R61     CG2R61     CG2R61
   14    15    19	5 ;     CG2R61     CG2R61      CG311
   16    15    19	5 ;     CG2R61     CG2R61      CG311
   17    16    15	5 ;     CG2R61     CG2R61     CG2R61
   17    16    46	5 ;     CG2R61     CG2R61      HGR61
   15    16    46	5 ;     CG2R61     CG2R61      HGR61
   18    17    16	5 ;     CG2R61     CG2R61     CG2R61
   18    17    47	5 ;     CG2R61     CG2R61      HGR61
   16    17    47	5 ;     CG2R61     CG2R61      HGR61
   13    18    17	5 ;     CG2R61     CG2R61     CG2R61
   13    18    48	5 ;     CG2R61     CG2R61      HGR61
   17    18    48	5 ;     CG2R61     CG2R61      HGR61
   15    19    20	5 ;     CG2R61      CG311      CG331
   15    19    21	5 ;     CG2R61      CG311      CG331
   15    19    49	5 ;     CG2R61      CG311       HGA1
   20    19    21	5 ;      CG331      CG311      CG331
   20    19    49	5 ;      CG331      CG311       HGA1
   21    19    49	5 ;      CG331      CG311       HGA1
   19    20    59	5 ;      CG311      CG331       HGA3
   19    20    60	5 ;      CG311      CG331       HGA3
   19    20    61	5 ;      CG311      CG331       HGA3
   59    20    60	5 ;       HGA3      CG331       HGA3
   59    20    61	5 ;       HGA3      CG331       HGA3
   60    20    61	5 ;       HGA3      CG331       HGA3
   19    21    62	5 ;      CG311      CG331       HGA3
   19    21    63	5 ;      CG311      CG331       HGA3
   19    21    64	5 ;      CG311      CG331       HGA3
   62    21    63	5 ;       HGA3      CG331       HGA3
   62    21    64	5 ;       HGA3      CG331       HGA3
   63    21    64	5 ;       HGA3      CG331       HGA3
    6    22    23	5 ;      CG311      OG311       HGP1
   25    24     5	5 ;     CG2R61      CG321      CG311
   25    24    50	5 ;     CG2R61      CG321       HGA2
   25    24    51	5 ;     CG2R61      CG321       HGA2
    5    24    50	5 ;      CG311      CG321       HGA2
    5    24    51	5 ;      CG311      CG321       HGA2
   50    24    51	5 ;       HGA2      CG321       HGA2
   30    25    26	5 ;     CG2R61     CG2R61     CG2R61
   30    25    24	5 ;     CG2R61     CG2R61      CG321
   26    25    24	5 ;     CG2R61     CG2R61      CG321
   25    26    27	5 ;     CG2R61     CG2R61     CG2R61
   25    26    52	5 ;     CG2R61     CG2R61      HGR61
   27    26    52	5 ;     CG2R61     CG2R61      HGR61
   28    27    26	5 ;     CG2R61     CG2R61     CG2R61
   28    27    31	5 ;     CG2R61     CG2R61      CG321
   26    27    31	5 ;     CG2R61     CG2R61      CG321
   29    28    34	5 ;     CG2R61     CG2R61      OG311
   29    28    27	5 ;     CG2R61     CG2R61     CG2R61
   34    28    27	5 ;      OG311     CG2R61     CG2R61
   30    29    28	5 ;     CG2R61     CG2R61     CG2R61
   30    29    53	5 ;     CG2R61     CG2R61      HGR61
   28    29    53	5 ;     CG2R61     CG2R61      HGR61
   29    30    25	5 ;     CG2R61     CG2R61     CG2R61
   29    30    54	5 ;     CG2R61     CG2R61      HGR61
   25    30    54	5 ;     CG2R61     CG2R61      HGR61
   32    31    27	5 ;      CG321      CG321     CG2R61
   32    31    55	5 ;      CG321      CG321       HGA2
   32    31    56	5 ;      CG321      CG321       HGA2
   27    31    55	5 ;     CG2R61      CG321       HGA2
   27    31    56	5 ;     CG2R61      CG321       HGA2
   55    31    56	5 ;       HGA2      CG321       HGA2
   33    32    31	5 ;      CG331      CG321      CG321
   33    32    57	5 ;      CG331      CG321       HGA2
   33    32    58	5 ;      CG331      CG321       HGA2
   31    32    57	5 ;      CG321      CG321       HGA2
   31    32    58	5 ;      CG321      CG321       HGA2
   57    32    58	5 ;       HGA2      CG321       HGA2
   32    33    65	5 ;      CG321      CG331       HGA3
   32    33    66	5 ;      CG321      CG331       HGA3
   32    33    67	5 ;      CG321      CG331       HGA3
   65    33    66	5 ;       HGA3      CG331       HGA3
   65    33    67	5 ;       HGA3      CG331       HGA3
   66    33    67	5 ;       HGA3      CG331       HGA3
   35    34    28	5 ;       HGP1      OG311     CG2R61

[ dihedrals ]
;	ai	  aj	ak	  al funct			  c0			c1			  c2			c3			  c4			c5
    2     1     4     5	 9 ;      OG2P1      SG3O2      CG321      CG311
    2     1     4    36	 9 ;      OG2P1      SG3O2      CG321       HGA2
    2     1     4    37	 9 ;      OG2P1      SG3O2      CG321       HGA2
    3     1     4     5	 9 ;      OG2P1      SG3O2      CG321      CG311
    3     1     4    36	 9 ;      OG2P1      SG3O2      CG321       HGA2
    3     1     4    37	 9 ;      OG2P1      SG3O2      CG321       HGA2
    8     1     4     5	 9 ;      CG321      SG3O2      CG321      CG311
    8     1     4    36	 9 ;      CG321      SG3O2      CG321       HGA2
    8     1     4    37	 9 ;      CG321      SG3O2      CG321       HGA2
    4     1     8     7	 9 ;      CG321      SG3O2      CG321      CG314
    4     1     8    41	 9 ;      CG321      SG3O2      CG321       HGA2
    4     1     8    42	 9 ;      CG321      SG3O2      CG321       HGA2
    2     1     8     7	 9 ;      OG2P1      SG3O2      CG321      CG314
    2     1     8    41	 9 ;      OG2P1      SG3O2      CG321       HGA2
    2     1     8    42	 9 ;      OG2P1      SG3O2      CG321       HGA2
    3     1     8     7	 9 ;      OG2P1      SG3O2      CG321      CG314
    3     1     8    41	 9 ;      OG2P1      SG3O2      CG321       HGA2
    3     1     8    42	 9 ;      OG2P1      SG3O2      CG321       HGA2
    1     4     5    24	 9 ;      SG3O2      CG321      CG311      CG321
    1     4     5     6	 9 ;      SG3O2      CG321      CG311      CG311
    1     4     5    38	 9 ;      SG3O2      CG321      CG311       HGA1
   36     4     5    24	 9 ;       HGA2      CG321      CG311      CG321
   36     4     5     6	 9 ;       HGA2      CG321      CG311      CG311
   36     4     5    38	 9 ;       HGA2      CG321      CG311       HGA1
   37     4     5    24	 9 ;       HGA2      CG321      CG311      CG321
   37     4     5     6	 9 ;       HGA2      CG321      CG311      CG311
   37     4     5    38	 9 ;       HGA2      CG321      CG311       HGA1
    4     5    24    25	 9 ;      CG321      CG311      CG321     CG2R61
    4     5    24    50	 9 ;      CG321      CG311      CG321       HGA2
    4     5    24    51	 9 ;      CG321      CG311      CG321       HGA2
    6     5    24    25	 9 ;      CG311      CG311      CG321     CG2R61
    6     5    24    50	 9 ;      CG311      CG311      CG321       HGA2
    6     5    24    51	 9 ;      CG311      CG311      CG321       HGA2
   38     5    24    25	 9 ;       HGA1      CG311      CG321     CG2R61
   38     5    24    50	 9 ;       HGA1      CG311      CG321       HGA2
   38     5    24    51	 9 ;       HGA1      CG311      CG321       HGA2
   24     5     6    22	 9 ;      CG321      CG311      CG311      OG311
   24     5     6     7	 9 ;      CG321      CG311      CG311      CG314
   24     5     6    39	 9 ;      CG321      CG311      CG311       HGA1
    4     5     6    22	 9 ;      CG321      CG311      CG311      OG311
    4     5     6     7	 9 ;      CG321      CG311      CG311      CG314
    4     5     6    39	 9 ;      CG321      CG311      CG311       HGA1
   38     5     6    22	 9 ;       HGA1      CG311      CG311      OG311
   38     5     6     7	 9 ;       HGA1      CG311      CG311      CG314
   38     5     6    39	 9 ;       HGA1      CG311      CG311       HGA1
    5     6    22    23	 9 ;      CG311      CG311      OG311       HGP1
    7     6    22    23	 9 ;      CG314      CG311      OG311       HGP1
   39     6    22    23	 9 ;       HGA1      CG311      OG311       HGP1
    5     6     7     8	 9 ;      CG311      CG311      CG314      CG321
    5     6     7     9	 9 ;      CG311      CG311      CG314      NG3P2
    5     6     7    40	 9 ;      CG311      CG311      CG314       HGA1
   22     6     7     8	 9 ;      OG311      CG311      CG314      CG321
   22     6     7     9	 9 ;      OG311      CG311      CG314      NG3P2
   22     6     7    40	 9 ;      OG311      CG311      CG314       HGA1
   39     6     7     8	 9 ;       HGA1      CG311      CG314      CG321
   39     6     7     9	 9 ;       HGA1      CG311      CG314      NG3P2
   39     6     7    40	 9 ;       HGA1      CG311      CG314       HGA1
    6     7     8     1	 9 ;      CG311      CG314      CG321      SG3O2
    6     7     8    41	 9 ;      CG311      CG314      CG321       HGA2
    6     7     8    42	 9 ;      CG311      CG314      CG321       HGA2
    9     7     8     1	 9 ;      NG3P2      CG314      CG321      SG3O2
    9     7     8    41	 9 ;      NG3P2      CG314      CG321       HGA2
    9     7     8    42	 9 ;      NG3P2      CG314      CG321       HGA2
   40     7     8     1	 9 ;       HGA1      CG314      CG321      SG3O2
   40     7     8    41	 9 ;       HGA1      CG314      CG321       HGA2
   40     7     8    42	 9 ;       HGA1      CG314      CG321       HGA2
    6     7     9    10	 9 ;      CG311      CG314      NG3P2       HGP2
    6     7     9    11	 9 ;      CG311      CG314      NG3P2       HGP2
    6     7     9    12	 9 ;      CG311      CG314      NG3P2      CG324
    8     7     9    10	 9 ;      CG321      CG314      NG3P2       HGP2
    8     7     9    11	 9 ;      CG321      CG314      NG3P2       HGP2
    8     7     9    12	 9 ;      CG321      CG314      NG3P2      CG324
   40     7     9    10	 9 ;       HGA1      CG314      NG3P2       HGP2
   40     7     9    11	 9 ;       HGA1      CG314      NG3P2       HGP2
   40     7     9    12	 9 ;       HGA1      CG314      NG3P2      CG324
    7     9    12    13	 9 ;      CG314      NG3P2      CG324     CG2R61
    7     9    12    43	 9 ;      CG314      NG3P2      CG324       HGA2
    7     9    12    44	 9 ;      CG314      NG3P2      CG324       HGA2
   10     9    12    13	 9 ;       HGP2      NG3P2      CG324     CG2R61
   10     9    12    43	 9 ;       HGP2      NG3P2      CG324       HGA2
   10     9    12    44	 9 ;       HGP2      NG3P2      CG324       HGA2
   11     9    12    13	 9 ;       HGP2      NG3P2      CG324     CG2R61
   11     9    12    43	 9 ;       HGP2      NG3P2      CG324       HGA2
   11     9    12    44	 9 ;       HGP2      NG3P2      CG324       HGA2
    9    12    13    18	 9 ;      NG3P2      CG324     CG2R61     CG2R61
    9    12    13    14	 9 ;      NG3P2      CG324     CG2R61     CG2R61
   43    12    13    18	 9 ;       HGA2      CG324     CG2R61     CG2R61
   43    12    13    14	 9 ;       HGA2      CG324     CG2R61     CG2R61
   44    12    13    18	 9 ;       HGA2      CG324     CG2R61     CG2R61
   44    12    13    14	 9 ;       HGA2      CG324     CG2R61     CG2R61
   12    13    18    17	 9 ;      CG324     CG2R61     CG2R61     CG2R61
   12    13    18    48	 9 ;      CG324     CG2R61     CG2R61      HGR61
   14    13    18    17	 9 ;     CG2R61     CG2R61     CG2R61     CG2R61
   14    13    18    48	 9 ;     CG2R61     CG2R61     CG2R61      HGR61
   12    13    14    15	 9 ;      CG324     CG2R61     CG2R61     CG2R61
   12    13    14    45	 9 ;      CG324     CG2R61     CG2R61      HGR61
   18    13    14    15	 9 ;     CG2R61     CG2R61     CG2R61     CG2R61
   18    13    14    45	 9 ;     CG2R61     CG2R61     CG2R61      HGR61
   13    14    15    16	 9 ;     CG2R61     CG2R61     CG2R61     CG2R61
   13    14    15    19	 9 ;     CG2R61     CG2R61     CG2R61      CG311
   45    14    15    16	 9 ;      HGR61     CG2R61     CG2R61     CG2R61
   45    14    15    19	 9 ;      HGR61     CG2R61     CG2R61      CG311
   14    15    16    17	 9 ;     CG2R61     CG2R61     CG2R61     CG2R61
   14    15    16    46	 9 ;     CG2R61     CG2R61     CG2R61      HGR61
   19    15    16    17	 9 ;      CG311     CG2R61     CG2R61     CG2R61
   19    15    16    46	 9 ;      CG311     CG2R61     CG2R61      HGR61
   14    15    19    20	 9 ;     CG2R61     CG2R61      CG311      CG331
   14    15    19    21	 9 ;     CG2R61     CG2R61      CG311      CG331
   14    15    19    49	 9 ;     CG2R61     CG2R61      CG311       HGA1
   16    15    19    20	 9 ;     CG2R61     CG2R61      CG311      CG331
   16    15    19    21	 9 ;     CG2R61     CG2R61      CG311      CG331
   16    15    19    49	 9 ;     CG2R61     CG2R61      CG311       HGA1
   15    16    17    18	 9 ;     CG2R61     CG2R61     CG2R61     CG2R61
   15    16    17    47	 9 ;     CG2R61     CG2R61     CG2R61      HGR61
   46    16    17    18	 9 ;      HGR61     CG2R61     CG2R61     CG2R61
   46    16    17    47	 9 ;      HGR61     CG2R61     CG2R61      HGR61
   16    17    18    13	 9 ;     CG2R61     CG2R61     CG2R61     CG2R61
   16    17    18    48	 9 ;     CG2R61     CG2R61     CG2R61      HGR61
   47    17    18    13	 9 ;      HGR61     CG2R61     CG2R61     CG2R61
   47    17    18    48	 9 ;      HGR61     CG2R61     CG2R61      HGR61
   15    19    20    59	 9 ;     CG2R61      CG311      CG331       HGA3
   15    19    20    60	 9 ;     CG2R61      CG311      CG331       HGA3
   15    19    20    61	 9 ;     CG2R61      CG311      CG331       HGA3
   21    19    20    59	 9 ;      CG331      CG311      CG331       HGA3
   21    19    20    60	 9 ;      CG331      CG311      CG331       HGA3
   21    19    20    61	 9 ;      CG331      CG311      CG331       HGA3
   49    19    20    59	 9 ;       HGA1      CG311      CG331       HGA3
   49    19    20    60	 9 ;       HGA1      CG311      CG331       HGA3
   49    19    20    61	 9 ;       HGA1      CG311      CG331       HGA3
   15    19    21    62	 9 ;     CG2R61      CG311      CG331       HGA3
   15    19    21    63	 9 ;     CG2R61      CG311      CG331       HGA3
   15    19    21    64	 9 ;     CG2R61      CG311      CG331       HGA3
   20    19    21    62	 9 ;      CG331      CG311      CG331       HGA3
   20    19    21    63	 9 ;      CG331      CG311      CG331       HGA3
   20    19    21    64	 9 ;      CG331      CG311      CG331       HGA3
   49    19    21    62	 9 ;       HGA1      CG311      CG331       HGA3
   49    19    21    63	 9 ;       HGA1      CG311      CG331       HGA3
   49    19    21    64	 9 ;       HGA1      CG311      CG331       HGA3
    5    24    25    30	 9 ;      CG311      CG321     CG2R61     CG2R61
    5    24    25    26	 9 ;      CG311      CG321     CG2R61     CG2R61
   50    24    25    30	 9 ;       HGA2      CG321     CG2R61     CG2R61
   50    24    25    26	 9 ;       HGA2      CG321     CG2R61     CG2R61
   51    24    25    30	 9 ;       HGA2      CG321     CG2R61     CG2R61
   51    24    25    26	 9 ;       HGA2      CG321     CG2R61     CG2R61
   26    25    30    29	 9 ;     CG2R61     CG2R61     CG2R61     CG2R61
   26    25    30    54	 9 ;     CG2R61     CG2R61     CG2R61      HGR61
   24    25    30    29	 9 ;      CG321     CG2R61     CG2R61     CG2R61
   24    25    30    54	 9 ;      CG321     CG2R61     CG2R61      HGR61
   30    25    26    27	 9 ;     CG2R61     CG2R61     CG2R61     CG2R61
   30    25    26    52	 9 ;     CG2R61     CG2R61     CG2R61      HGR61
   24    25    26    27	 9 ;      CG321     CG2R61     CG2R61     CG2R61
   24    25    26    52	 9 ;      CG321     CG2R61     CG2R61      HGR61
   25    26    27    28	 9 ;     CG2R61     CG2R61     CG2R61     CG2R61
   25    26    27    31	 9 ;     CG2R61     CG2R61     CG2R61      CG321
   52    26    27    28	 9 ;      HGR61     CG2R61     CG2R61     CG2R61
   52    26    27    31	 9 ;      HGR61     CG2R61     CG2R61      CG321
   26    27    28    29	 9 ;     CG2R61     CG2R61     CG2R61     CG2R61
   26    27    28    34	 9 ;     CG2R61     CG2R61     CG2R61      OG311
   31    27    28    29	 9 ;      CG321     CG2R61     CG2R61     CG2R61
   31    27    28    34	 9 ;      CG321     CG2R61     CG2R61      OG311
   28    27    31    32	 9 ;     CG2R61     CG2R61      CG321      CG321
   28    27    31    55	 9 ;     CG2R61     CG2R61      CG321       HGA2
   28    27    31    56	 9 ;     CG2R61     CG2R61      CG321       HGA2
   26    27    31    32	 9 ;     CG2R61     CG2R61      CG321      CG321
   26    27    31    55	 9 ;     CG2R61     CG2R61      CG321       HGA2
   26    27    31    56	 9 ;     CG2R61     CG2R61      CG321       HGA2
   34    28    29    30	 9 ;      OG311     CG2R61     CG2R61     CG2R61
   34    28    29    53	 9 ;      OG311     CG2R61     CG2R61      HGR61
   27    28    29    30	 9 ;     CG2R61     CG2R61     CG2R61     CG2R61
   27    28    29    53	 9 ;     CG2R61     CG2R61     CG2R61      HGR61
   29    28    34    35	 9 ;     CG2R61     CG2R61      OG311       HGP1
   27    28    34    35	 9 ;     CG2R61     CG2R61      OG311       HGP1
   28    29    30    25	 9 ;     CG2R61     CG2R61     CG2R61     CG2R61
   28    29    30    54	 9 ;     CG2R61     CG2R61     CG2R61      HGR61
   53    29    30    25	 9 ;      HGR61     CG2R61     CG2R61     CG2R61
   53    29    30    54	 9 ;      HGR61     CG2R61     CG2R61      HGR61
   27    31    32    33	 9 ;     CG2R61      CG321      CG321      CG331
   27    31    32    57	 9 ;     CG2R61      CG321      CG321       HGA2
   27    31    32    58	 9 ;     CG2R61      CG321      CG321       HGA2
   55    31    32    33	 9 ;       HGA2      CG321      CG321      CG331
   55    31    32    57	 9 ;       HGA2      CG321      CG321       HGA2
   55    31    32    58	 9 ;       HGA2      CG321      CG321       HGA2
   56    31    32    33	 9 ;       HGA2      CG321      CG321      CG331
   56    31    32    57	 9 ;       HGA2      CG321      CG321       HGA2
   56    31    32    58	 9 ;       HGA2      CG321      CG321       HGA2
   31    32    33    65	 9 ;      CG321      CG321      CG331       HGA3
   31    32    33    66	 9 ;      CG321      CG321      CG331       HGA3
   31    32    33    67	 9 ;      CG321      CG321      CG331       HGA3
   57    32    33    65	 9 ;       HGA2      CG321      CG331       HGA3
   57    32    33    66	 9 ;       HGA2      CG321      CG331       HGA3
   57    32    33    67	 9 ;       HGA2      CG321      CG331       HGA3
   58    32    33    65	 9 ;       HGA2      CG321      CG331       HGA3
   58    32    33    66	 9 ;       HGA2      CG321      CG331       HGA3
   58    32    33    67	 9 ;       HGA2      CG321      CG331       HGA3

