; Created by cgenff_charmm2gmx.py

[ moleculetype ]
; Name			   nrexcl
LIG				 3

[ atoms ]
;	 nr		  type	resnr residue  atom   cgnr	   charge		mass  typeB    chargeB		massB
; residue	 1 LIG rtp LIG q	qsum
     1      CG2O1      1    LIG     C1      1      0.302     12.011   ;
     2      OG2D1      1    LIG     O1      2     -0.463     15.999   ;
     3      NG2S1      1    LIG     N1      3     -0.238     14.007   ;
     4       HGP1      1    LIG     H1      4      0.262      1.008   ;
     5     CG2R61      1    LIG     C2      5     -0.101     12.011   ;
     6     CG2R61      1    LIG     C3      6     -0.004     12.011   ;
     7     CG2R61      1    LIG     C4      7     -0.101     12.011   ;
     8     CG2R61      1    LIG     C5      8     -0.064     12.011   ;
     9     CG2R61      1    LIG     C6      9      0.138     12.011   ;
    10     CG2R61      1    LIG     C7     10     -0.064     12.011   ;
    11      CG2O1      1    LIG     C8     11      0.320     12.011   ;
    12      OG2D1      1    LIG     O2     12     -0.463     15.999   ;
    13      NG2S1      1    LIG     N2     13     -0.366     14.007   ;
    14       HGP1      1    LIG     H2     14      0.314      1.008   ;
    15      CG311      1    LIG     C9     15      0.138     12.011   ;
    16      CG331      1    LIG    C10     16     -0.265     12.011   ;
    17     CG2R61      1    LIG    C11     17     -0.111     12.011   ;
    18     CG2R61      1    LIG    C12     18     -0.086     12.011   ;
    19     CG2R61      1    LIG    C13     19     -0.114     12.011   ;
    20     CG2R61      1    LIG    C14     20     -0.116     12.011   ;
    21     CG2R61      1    LIG    C15     21     -0.114     12.011   ;
    22     CG2R61      1    LIG    C16     22     -0.086     12.011   ;
    23      NG301      1    LIG     N3     23     -0.228     14.007   ;
    24      CG331      1    LIG    C17     24     -0.103     12.011   ;
    25      SG3O2      1    LIG      S     25      0.397     32.060   ;
    26      OG2P1      1    LIG     O3     26     -0.388     15.999   ;
    27      OG2P1      1    LIG     O4     27     -0.388     15.999   ;
    28      CG331      1    LIG    C18     28      0.036     12.011   ;
    29      CG311      1    LIG    C19     29      0.001     12.011   ;
    30      CG321      1    LIG    C20     30      0.009     12.011   ;
    31      OG301      1    LIG     O5     31     -0.177     15.999   ;
    32     CG2R61      1    LIG    C21     32      0.384     12.011   ;
    33     CG2R61      1    LIG    C22     33     -0.410     12.011   ;
    34     CG2R66      1    LIG    C23     34      0.283     12.011   ;
    35       FGR1      1    LIG     F1     35     -0.210     18.998   ;
    36     CG2R61      1    LIG    C24     36     -0.240     12.011   ;
    37     CG2R66      1    LIG    C25     37      0.283     12.011   ;
    38       FGR1      1    LIG     F2     38     -0.210     18.998   ;
    39     CG2R61      1    LIG    C26     39     -0.410     12.011   ;
    40      CG311      1    LIG    C27     40      0.124     12.011   ;
    41      OG311      1    LIG     O6     41     -0.648     15.999   ;
    42       HGP1      1    LIG     H3     42      0.421      1.008   ;
    43      CG321      1    LIG    C28     43     -0.131     12.011   ;
    44      CG311      1    LIG    C29     44      0.098     12.011   ;
    45      OG301      1    LIG     O7     45     -0.392     15.999   ;
    46      CG331      1    LIG    C30     46     -0.091     12.011   ;
    47      CG321      1    LIG    C31     47     -0.024     12.011   ;
    48      OG301      1    LIG     O8     48     -0.326     15.999   ;
    49      CG331      1    LIG    C32     49     -0.100     12.011   ;
    50      HGR61      1    LIG     HC     50      0.116      1.008   ;
    51      HGR61      1    LIG    HC1     51      0.116      1.008   ;
    52      HGR61      1    LIG    HC2     52      0.116      1.008   ;
    53       HGA1      1    LIG    HC3     53      0.090      1.008   ;
    54       HGA3      1    LIG    HC4     54      0.090      1.008   ;
    55       HGA3      1    LIG    HC5     55      0.090      1.008   ;
    56       HGA3      1    LIG    HC6     56      0.090      1.008   ;
    57      HGR61      1    LIG    HC7     57      0.116      1.008   ;
    58      HGR61      1    LIG    HC8     58      0.116      1.008   ;
    59      HGR61      1    LIG    HC9     59      0.116      1.008   ;
    60      HGR61      1    LIG   HC10     60      0.116      1.008   ;
    61      HGR61      1    LIG   HC11     61      0.116      1.008   ;
    62       HGA3      1    LIG   HC12     62      0.090      1.008   ;
    63       HGA3      1    LIG   HC13     63      0.090      1.008   ;
    64       HGA3      1    LIG   HC14     64      0.090      1.008   ;
    65       HGA3      1    LIG   HC15     65      0.090      1.008   ;
    66       HGA3      1    LIG   HC16     66      0.090      1.008   ;
    67       HGA3      1    LIG   HC17     67      0.090      1.008   ;
    68       HGA1      1    LIG   HC18     68      0.090      1.008   ;
    69       HGA2      1    LIG   HC19     69      0.090      1.008   ;
    70       HGA2      1    LIG   HC20     70      0.090      1.008   ;
    71      HGR62      1    LIG   HC21     71      0.179      1.008   ;
    72      HGR62      1    LIG   HC22     72      0.186      1.008   ;
    73      HGR62      1    LIG   HC23     73      0.179      1.008   ;
    74       HGA1      1    LIG   HC24     74      0.090      1.008   ;
    75       HGA2      1    LIG   HC25     75      0.090      1.008   ;
    76       HGA2      1    LIG   HC26     76      0.090      1.008   ;
    77       HGA1      1    LIG   HC27     77      0.090      1.008   ;
    78       HGA3      1    LIG   HC28     78      0.090      1.008   ;
    79       HGA3      1    LIG   HC29     79      0.090      1.008   ;
    80       HGA3      1    LIG   HC30     80      0.090      1.008   ;
    81       HGA2      1    LIG   HC31     81      0.090      1.008   ;
    82       HGA2      1    LIG   HC32     82      0.090      1.008   ;
    83       HGA3      1    LIG   HC33     83      0.090      1.008   ;
    84       HGA3      1    LIG   HC34     84      0.090      1.008   ;
    85       HGA3      1    LIG   HC35     85      0.090      1.008   ;

[ bonds ]
;	ai	  aj funct			  c0			c1			  c2			c3
    1     5	 1 ;       CG2O1     CG2R61
    1     2	 1 ;       CG2O1      OG2D1
    1     3	 1 ;       CG2O1      NG2S1
    3     4	 1 ;       NG2S1       HGP1
    3    29	 1 ;       NG2S1      CG311
    5    10	 1 ;      CG2R61     CG2R61
    5     6	 1 ;      CG2R61     CG2R61
    6     7	 1 ;      CG2R61     CG2R61
    6    50	 1 ;      CG2R61      HGR61
    7     8	 1 ;      CG2R61     CG2R61
    7    11	 1 ;      CG2R61      CG2O1
    8     9	 1 ;      CG2R61     CG2R61
    8    51	 1 ;      CG2R61      HGR61
    9    23	 1 ;      CG2R61      NG301
    9    10	 1 ;      CG2R61     CG2R61
   10    52	 1 ;      CG2R61      HGR61
   11    13	 1 ;       CG2O1      NG2S1
   11    12	 1 ;       CG2O1      OG2D1
   13    15	 1 ;       NG2S1      CG311
   13    14	 1 ;       NG2S1       HGP1
   15    16	 1 ;       CG311      CG331
   15    17	 1 ;       CG311     CG2R61
   15    53	 1 ;       CG311       HGA1
   16    54	 1 ;       CG331       HGA3
   16    55	 1 ;       CG331       HGA3
   16    56	 1 ;       CG331       HGA3
   17    22	 1 ;      CG2R61     CG2R61
   17    18	 1 ;      CG2R61     CG2R61
   18    19	 1 ;      CG2R61     CG2R61
   18    57	 1 ;      CG2R61      HGR61
   19    20	 1 ;      CG2R61     CG2R61
   19    58	 1 ;      CG2R61      HGR61
   20    21	 1 ;      CG2R61     CG2R61
   20    59	 1 ;      CG2R61      HGR61
   21    22	 1 ;      CG2R61     CG2R61
   21    60	 1 ;      CG2R61      HGR61
   22    61	 1 ;      CG2R61      HGR61
   23    24	 1 ;       NG301      CG331
   23    25	 1 ;       NG301      SG3O2
   24    62	 1 ;       CG331       HGA3
   24    63	 1 ;       CG331       HGA3
   24    64	 1 ;       CG331       HGA3
   25    26	 1 ;       SG3O2      OG2P1
   25    28	 1 ;       SG3O2      CG331
   25    27	 1 ;       SG3O2      OG2P1
   28    65	 1 ;       CG331       HGA3
   28    66	 1 ;       CG331       HGA3
   28    67	 1 ;       CG331       HGA3
   29    30	 1 ;       CG311      CG321
   29    40	 1 ;       CG311      CG311
   29    68	 1 ;       CG311       HGA1
   30    31	 1 ;       CG321      OG301
   30    69	 1 ;       CG321       HGA2
   30    70	 1 ;       CG321       HGA2
   31    32	 1 ;       OG301     CG2R61
   32    33	 1 ;      CG2R61     CG2R61
   32    39	 1 ;      CG2R61     CG2R61
   33    34	 1 ;      CG2R61     CG2R66
   33    71	 1 ;      CG2R61      HGR62
   34    35	 1 ;      CG2R66       FGR1
   34    36	 1 ;      CG2R66     CG2R61
   36    37	 1 ;      CG2R61     CG2R66
   36    72	 1 ;      CG2R61      HGR62
   37    39	 1 ;      CG2R66     CG2R61
   37    38	 1 ;      CG2R66       FGR1
   39    73	 1 ;      CG2R61      HGR62
   40    43	 1 ;       CG311      CG321
   40    41	 1 ;       CG311      OG311
   40    74	 1 ;       CG311       HGA1
   41    42	 1 ;       OG311       HGP1
   43    44	 1 ;       CG321      CG311
   43    75	 1 ;       CG321       HGA2
   43    76	 1 ;       CG321       HGA2
   44    45	 1 ;       CG311      OG301
   44    47	 1 ;       CG311      CG321
   44    77	 1 ;       CG311       HGA1
   45    46	 1 ;       OG301      CG331
   46    78	 1 ;       CG331       HGA3
   46    79	 1 ;       CG331       HGA3
   46    80	 1 ;       CG331       HGA3
   47    48	 1 ;       CG321      OG301
   47    81	 1 ;       CG321       HGA2
   47    82	 1 ;       CG321       HGA2
   48    49	 1 ;       OG301      CG331
   49    83	 1 ;       CG331       HGA3
   49    84	 1 ;       CG331       HGA3
   49    85	 1 ;       CG331       HGA3

[ pairs ]
;	ai	  aj funct			  c0			c1			  c2			c3
    1    30	 1
    1    40	 1
    1    68	 1
    1     9	 1
    1    52	 1
    1     7	 1
    1    50	 1
    2    10	 1
    2     6	 1
    2     4	 1
    2    29	 1
    3    10	 1
    3     6	 1
    3    31	 1
    3    69	 1
    3    70	 1
    3    43	 1
    3    41	 1
    3    74	 1
    4     5	 1
    4    30	 1
    4    40	 1
    4    68	 1
    5    29	 1
    5     8	 1
    5    11	 1
    5    23	 1
    6     9	 1
    6    52	 1
    6    51	 1
    6    13	 1
    6    12	 1
    7    10	 1
    7    23	 1
    7    15	 1
    7    14	 1
    8    50	 1
    8    13	 1
    8    12	 1
    8    24	 1
    8    25	 1
    8    52	 1
    9    11	 1
    9    62	 1
    9    63	 1
    9    64	 1
    9    26	 1
    9    28	 1
    9    27	 1
   10    50	 1
   10    51	 1
   10    24	 1
   10    25	 1
   11    50	 1
   11    51	 1
   11    16	 1
   11    17	 1
   11    53	 1
   12    15	 1
   12    14	 1
   13    54	 1
   13    55	 1
   13    56	 1
   13    22	 1
   13    18	 1
   14    16	 1
   14    17	 1
   14    53	 1
   15    21	 1
   15    61	 1
   15    19	 1
   15    57	 1
   16    22	 1
   16    18	 1
   17    54	 1
   17    55	 1
   17    56	 1
   17    20	 1
   17    58	 1
   17    60	 1
   18    53	 1
   18    21	 1
   18    61	 1
   18    59	 1
   19    22	 1
   19    60	 1
   20    57	 1
   20    61	 1
   21    58	 1
   22    53	 1
   22    57	 1
   22    59	 1
   23    51	 1
   23    52	 1
   23    65	 1
   23    66	 1
   23    67	 1
   24    26	 1
   24    28	 1
   24    27	 1
   25    62	 1
   25    63	 1
   25    64	 1
   26    65	 1
   26    66	 1
   26    67	 1
   27    65	 1
   27    66	 1
   27    67	 1
   29    32	 1
   29    44	 1
   29    75	 1
   29    76	 1
   29    42	 1
   30    43	 1
   30    41	 1
   30    74	 1
   30    33	 1
   30    39	 1
   31    40	 1
   31    68	 1
   31    34	 1
   31    71	 1
   31    37	 1
   31    73	 1
   32    69	 1
   32    70	 1
   32    35	 1
   32    36	 1
   32    38	 1
   33    37	 1
   33    73	 1
   33    72	 1
   34    39	 1
   34    38	 1
   35    71	 1
   35    37	 1
   35    72	 1
   36    71	 1
   36    73	 1
   38    72	 1
   38    73	 1
   39    71	 1
   39    72	 1
   40    69	 1
   40    70	 1
   40    45	 1
   40    47	 1
   40    77	 1
   41    68	 1
   41    44	 1
   41    75	 1
   41    76	 1
   42    43	 1
   42    74	 1
   43    68	 1
   43    46	 1
   43    48	 1
   43    81	 1
   43    82	 1
   44    74	 1
   44    78	 1
   44    79	 1
   44    80	 1
   44    49	 1
   45    75	 1
   45    76	 1
   45    48	 1
   45    81	 1
   45    82	 1
   46    47	 1
   46    77	 1
   47    75	 1
   47    76	 1
   47    83	 1
   47    84	 1
   47    85	 1
   48    77	 1
   49    81	 1
   49    82	 1
   53    54	 1
   53    55	 1
   53    56	 1
   57    58	 1
   58    59	 1
   59    60	 1
   60    61	 1
   68    69	 1
   68    70	 1
   68    74	 1
   74    75	 1
   74    76	 1
   75    77	 1
   76    77	 1
   77    81	 1
   77    82	 1

[ angles ]
;	ai	  aj	ak funct			c0			  c1			c2			  c3
    5     1     2	5 ;     CG2R61      CG2O1      OG2D1
    5     1     3	5 ;     CG2R61      CG2O1      NG2S1
    2     1     3	5 ;      OG2D1      CG2O1      NG2S1
    1     3     4	5 ;      CG2O1      NG2S1       HGP1
    1     3    29	5 ;      CG2O1      NG2S1      CG311
    4     3    29	5 ;       HGP1      NG2S1      CG311
   10     5     6	5 ;     CG2R61     CG2R61     CG2R61
   10     5     1	5 ;     CG2R61     CG2R61      CG2O1
    6     5     1	5 ;     CG2R61     CG2R61      CG2O1
    7     6     5	5 ;     CG2R61     CG2R61     CG2R61
    7     6    50	5 ;     CG2R61     CG2R61      HGR61
    5     6    50	5 ;     CG2R61     CG2R61      HGR61
    8     7    11	5 ;     CG2R61     CG2R61      CG2O1
    8     7     6	5 ;     CG2R61     CG2R61     CG2R61
   11     7     6	5 ;      CG2O1     CG2R61     CG2R61
    9     8     7	5 ;     CG2R61     CG2R61     CG2R61
    9     8    51	5 ;     CG2R61     CG2R61      HGR61
    7     8    51	5 ;     CG2R61     CG2R61      HGR61
   23     9     8	5 ;      NG301     CG2R61     CG2R61
   23     9    10	5 ;      NG301     CG2R61     CG2R61
    8     9    10	5 ;     CG2R61     CG2R61     CG2R61
    9    10     5	5 ;     CG2R61     CG2R61     CG2R61
    9    10    52	5 ;     CG2R61     CG2R61      HGR61
    5    10    52	5 ;     CG2R61     CG2R61      HGR61
   13    11     7	5 ;      NG2S1      CG2O1     CG2R61
   13    11    12	5 ;      NG2S1      CG2O1      OG2D1
    7    11    12	5 ;     CG2R61      CG2O1      OG2D1
   15    13    14	5 ;      CG311      NG2S1       HGP1
   15    13    11	5 ;      CG311      NG2S1      CG2O1
   14    13    11	5 ;       HGP1      NG2S1      CG2O1
   16    15    17	5 ;      CG331      CG311     CG2R61
   16    15    13	5 ;      CG331      CG311      NG2S1
   16    15    53	5 ;      CG331      CG311       HGA1
   17    15    13	5 ;     CG2R61      CG311      NG2S1
   17    15    53	5 ;     CG2R61      CG311       HGA1
   13    15    53	5 ;      NG2S1      CG311       HGA1
   15    16    54	5 ;      CG311      CG331       HGA3
   15    16    55	5 ;      CG311      CG331       HGA3
   15    16    56	5 ;      CG311      CG331       HGA3
   54    16    55	5 ;       HGA3      CG331       HGA3
   54    16    56	5 ;       HGA3      CG331       HGA3
   55    16    56	5 ;       HGA3      CG331       HGA3
   15    17    22	5 ;      CG311     CG2R61     CG2R61
   15    17    18	5 ;      CG311     CG2R61     CG2R61
   22    17    18	5 ;     CG2R61     CG2R61     CG2R61
   17    18    19	5 ;     CG2R61     CG2R61     CG2R61
   17    18    57	5 ;     CG2R61     CG2R61      HGR61
   19    18    57	5 ;     CG2R61     CG2R61      HGR61
   18    19    20	5 ;     CG2R61     CG2R61     CG2R61
   18    19    58	5 ;     CG2R61     CG2R61      HGR61
   20    19    58	5 ;     CG2R61     CG2R61      HGR61
   21    20    19	5 ;     CG2R61     CG2R61     CG2R61
   21    20    59	5 ;     CG2R61     CG2R61      HGR61
   19    20    59	5 ;     CG2R61     CG2R61      HGR61
   22    21    20	5 ;     CG2R61     CG2R61     CG2R61
   22    21    60	5 ;     CG2R61     CG2R61      HGR61
   20    21    60	5 ;     CG2R61     CG2R61      HGR61
   17    22    21	5 ;     CG2R61     CG2R61     CG2R61
   17    22    61	5 ;     CG2R61     CG2R61      HGR61
   21    22    61	5 ;     CG2R61     CG2R61      HGR61
   24    23    25	5 ;      CG331      NG301      SG3O2
   24    23     9	5 ;      CG331      NG301     CG2R61
   25    23     9	5 ;      SG3O2      NG301     CG2R61
   23    24    62	5 ;      NG301      CG331       HGA3
   23    24    63	5 ;      NG301      CG331       HGA3
   23    24    64	5 ;      NG301      CG331       HGA3
   62    24    63	5 ;       HGA3      CG331       HGA3
   62    24    64	5 ;       HGA3      CG331       HGA3
   63    24    64	5 ;       HGA3      CG331       HGA3
   26    25    28	5 ;      OG2P1      SG3O2      CG331
   26    25    23	5 ;      OG2P1      SG3O2      NG301
   26    25    27	5 ;      OG2P1      SG3O2      OG2P1
   28    25    23	5 ;      CG331      SG3O2      NG301
   28    25    27	5 ;      CG331      SG3O2      OG2P1
   23    25    27	5 ;      NG301      SG3O2      OG2P1
   25    28    65	5 ;      SG3O2      CG331       HGA3
   25    28    66	5 ;      SG3O2      CG331       HGA3
   25    28    67	5 ;      SG3O2      CG331       HGA3
   65    28    66	5 ;       HGA3      CG331       HGA3
   65    28    67	5 ;       HGA3      CG331       HGA3
   66    28    67	5 ;       HGA3      CG331       HGA3
    3    29    30	5 ;      NG2S1      CG311      CG321
    3    29    40	5 ;      NG2S1      CG311      CG311
    3    29    68	5 ;      NG2S1      CG311       HGA1
   30    29    40	5 ;      CG321      CG311      CG311
   30    29    68	5 ;      CG321      CG311       HGA1
   40    29    68	5 ;      CG311      CG311       HGA1
   29    30    31	5 ;      CG311      CG321      OG301
   29    30    69	5 ;      CG311      CG321       HGA2
   29    30    70	5 ;      CG311      CG321       HGA2
   31    30    69	5 ;      OG301      CG321       HGA2
   31    30    70	5 ;      OG301      CG321       HGA2
   69    30    70	5 ;       HGA2      CG321       HGA2
   30    31    32	5 ;      CG321      OG301     CG2R61
   31    32    33	5 ;      OG301     CG2R61     CG2R61
   31    32    39	5 ;      OG301     CG2R61     CG2R61
   33    32    39	5 ;     CG2R61     CG2R61     CG2R61
   32    33    34	5 ;     CG2R61     CG2R61     CG2R66
   32    33    71	5 ;     CG2R61     CG2R61      HGR62
   34    33    71	5 ;     CG2R66     CG2R61      HGR62
   33    34    35	5 ;     CG2R61     CG2R66       FGR1
   33    34    36	5 ;     CG2R61     CG2R66     CG2R61
   35    34    36	5 ;       FGR1     CG2R66     CG2R61
   34    36    37	5 ;     CG2R66     CG2R61     CG2R66
   34    36    72	5 ;     CG2R66     CG2R61      HGR62
   37    36    72	5 ;     CG2R66     CG2R61      HGR62
   39    37    36	5 ;     CG2R61     CG2R66     CG2R61
   39    37    38	5 ;     CG2R61     CG2R66       FGR1
   36    37    38	5 ;     CG2R61     CG2R66       FGR1
   32    39    37	5 ;     CG2R61     CG2R61     CG2R66
   32    39    73	5 ;     CG2R61     CG2R61      HGR62
   37    39    73	5 ;     CG2R66     CG2R61      HGR62
   43    40    29	5 ;      CG321      CG311      CG311
   43    40    41	5 ;      CG321      CG311      OG311
   43    40    74	5 ;      CG321      CG311       HGA1
   29    40    41	5 ;      CG311      CG311      OG311
   29    40    74	5 ;      CG311      CG311       HGA1
   41    40    74	5 ;      OG311      CG311       HGA1
   40    41    42	5 ;      CG311      OG311       HGP1
   44    43    40	5 ;      CG311      CG321      CG311
   44    43    75	5 ;      CG311      CG321       HGA2
   44    43    76	5 ;      CG311      CG321       HGA2
   40    43    75	5 ;      CG311      CG321       HGA2
   40    43    76	5 ;      CG311      CG321       HGA2
   75    43    76	5 ;       HGA2      CG321       HGA2
   45    44    43	5 ;      OG301      CG311      CG321
   45    44    47	5 ;      OG301      CG311      CG321
   45    44    77	5 ;      OG301      CG311       HGA1
   43    44    47	5 ;      CG321      CG311      CG321
   43    44    77	5 ;      CG321      CG311       HGA1
   47    44    77	5 ;      CG321      CG311       HGA1
   46    45    44	5 ;      CG331      OG301      CG311
   45    46    78	5 ;      OG301      CG331       HGA3
   45    46    79	5 ;      OG301      CG331       HGA3
   45    46    80	5 ;      OG301      CG331       HGA3
   78    46    79	5 ;       HGA3      CG331       HGA3
   78    46    80	5 ;       HGA3      CG331       HGA3
   79    46    80	5 ;       HGA3      CG331       HGA3
   44    47    48	5 ;      CG311      CG321      OG301
   44    47    81	5 ;      CG311      CG321       HGA2
   44    47    82	5 ;      CG311      CG321       HGA2
   48    47    81	5 ;      OG301      CG321       HGA2
   48    47    82	5 ;      OG301      CG321       HGA2
   81    47    82	5 ;       HGA2      CG321       HGA2
   47    48    49	5 ;      CG321      OG301      CG331
   48    49    83	5 ;      OG301      CG331       HGA3
   48    49    84	5 ;      OG301      CG331       HGA3
   48    49    85	5 ;      OG301      CG331       HGA3
   83    49    84	5 ;       HGA3      CG331       HGA3
   83    49    85	5 ;       HGA3      CG331       HGA3
   84    49    85	5 ;       HGA3      CG331       HGA3

[ dihedrals ]
;	ai	  aj	ak	  al funct			  c0			c1			  c2			c3			  c4			c5
    2     1     5    10	 9 ;      OG2D1      CG2O1     CG2R61     CG2R61
    2     1     5     6	 9 ;      OG2D1      CG2O1     CG2R61     CG2R61
    3     1     5    10	 9 ;      NG2S1      CG2O1     CG2R61     CG2R61
    3     1     5     6	 9 ;      NG2S1      CG2O1     CG2R61     CG2R61
    5     1     3     4	 9 ;     CG2R61      CG2O1      NG2S1       HGP1
    5     1     3    29	 9 ;     CG2R61      CG2O1      NG2S1      CG311
    2     1     3     4	 9 ;      OG2D1      CG2O1      NG2S1       HGP1
    2     1     3    29	 9 ;      OG2D1      CG2O1      NG2S1      CG311
    1     3    29    30	 9 ;      CG2O1      NG2S1      CG311      CG321
    1     3    29    40	 9 ;      CG2O1      NG2S1      CG311      CG311
    1     3    29    68	 9 ;      CG2O1      NG2S1      CG311       HGA1
    4     3    29    30	 9 ;       HGP1      NG2S1      CG311      CG321
    4     3    29    40	 9 ;       HGP1      NG2S1      CG311      CG311
    4     3    29    68	 9 ;       HGP1      NG2S1      CG311       HGA1
    6     5    10     9	 9 ;     CG2R61     CG2R61     CG2R61     CG2R61
    6     5    10    52	 9 ;     CG2R61     CG2R61     CG2R61      HGR61
    1     5    10     9	 9 ;      CG2O1     CG2R61     CG2R61     CG2R61
    1     5    10    52	 9 ;      CG2O1     CG2R61     CG2R61      HGR61
   10     5     6     7	 9 ;     CG2R61     CG2R61     CG2R61     CG2R61
   10     5     6    50	 9 ;     CG2R61     CG2R61     CG2R61      HGR61
    1     5     6     7	 9 ;      CG2O1     CG2R61     CG2R61     CG2R61
    1     5     6    50	 9 ;      CG2O1     CG2R61     CG2R61      HGR61
    5     6     7     8	 9 ;     CG2R61     CG2R61     CG2R61     CG2R61
    5     6     7    11	 9 ;     CG2R61     CG2R61     CG2R61      CG2O1
   50     6     7     8	 9 ;      HGR61     CG2R61     CG2R61     CG2R61
   50     6     7    11	 9 ;      HGR61     CG2R61     CG2R61      CG2O1
   11     7     8     9	 9 ;      CG2O1     CG2R61     CG2R61     CG2R61
   11     7     8    51	 9 ;      CG2O1     CG2R61     CG2R61      HGR61
    6     7     8     9	 9 ;     CG2R61     CG2R61     CG2R61     CG2R61
    6     7     8    51	 9 ;     CG2R61     CG2R61     CG2R61      HGR61
    8     7    11    13	 9 ;     CG2R61     CG2R61      CG2O1      NG2S1
    8     7    11    12	 9 ;     CG2R61     CG2R61      CG2O1      OG2D1
    6     7    11    13	 9 ;     CG2R61     CG2R61      CG2O1      NG2S1
    6     7    11    12	 9 ;     CG2R61     CG2R61      CG2O1      OG2D1
    7     8     9    23	 9 ;     CG2R61     CG2R61     CG2R61      NG301
    7     8     9    10	 9 ;     CG2R61     CG2R61     CG2R61     CG2R61
   51     8     9    23	 9 ;      HGR61     CG2R61     CG2R61      NG301
   51     8     9    10	 9 ;      HGR61     CG2R61     CG2R61     CG2R61
    8     9    23    24	 9 ;     CG2R61     CG2R61      NG301      CG331
    8     9    23    25	 9 ;     CG2R61     CG2R61      NG301      SG3O2
   10     9    23    24	 9 ;     CG2R61     CG2R61      NG301      CG331
   10     9    23    25	 9 ;     CG2R61     CG2R61      NG301      SG3O2
   23     9    10     5	 9 ;      NG301     CG2R61     CG2R61     CG2R61
   23     9    10    52	 9 ;      NG301     CG2R61     CG2R61      HGR61
    8     9    10     5	 9 ;     CG2R61     CG2R61     CG2R61     CG2R61
    8     9    10    52	 9 ;     CG2R61     CG2R61     CG2R61      HGR61
    7    11    13    15	 9 ;     CG2R61      CG2O1      NG2S1      CG311
    7    11    13    14	 9 ;     CG2R61      CG2O1      NG2S1       HGP1
   12    11    13    15	 9 ;      OG2D1      CG2O1      NG2S1      CG311
   12    11    13    14	 9 ;      OG2D1      CG2O1      NG2S1       HGP1
   14    13    15    16	 9 ;       HGP1      NG2S1      CG311      CG331
   14    13    15    17	 9 ;       HGP1      NG2S1      CG311     CG2R61
   14    13    15    53	 9 ;       HGP1      NG2S1      CG311       HGA1
   11    13    15    16	 9 ;      CG2O1      NG2S1      CG311      CG331
   11    13    15    17	 9 ;      CG2O1      NG2S1      CG311     CG2R61
   11    13    15    53	 9 ;      CG2O1      NG2S1      CG311       HGA1
   17    15    16    54	 9 ;     CG2R61      CG311      CG331       HGA3
   17    15    16    55	 9 ;     CG2R61      CG311      CG331       HGA3
   17    15    16    56	 9 ;     CG2R61      CG311      CG331       HGA3
   13    15    16    54	 9 ;      NG2S1      CG311      CG331       HGA3
   13    15    16    55	 9 ;      NG2S1      CG311      CG331       HGA3
   13    15    16    56	 9 ;      NG2S1      CG311      CG331       HGA3
   53    15    16    54	 9 ;       HGA1      CG311      CG331       HGA3
   53    15    16    55	 9 ;       HGA1      CG311      CG331       HGA3
   53    15    16    56	 9 ;       HGA1      CG311      CG331       HGA3
   16    15    17    22	 9 ;      CG331      CG311     CG2R61     CG2R61
   16    15    17    18	 9 ;      CG331      CG311     CG2R61     CG2R61
   13    15    17    22	 9 ;      NG2S1      CG311     CG2R61     CG2R61
   13    15    17    18	 9 ;      NG2S1      CG311     CG2R61     CG2R61
   53    15    17    22	 9 ;       HGA1      CG311     CG2R61     CG2R61
   53    15    17    18	 9 ;       HGA1      CG311     CG2R61     CG2R61
   15    17    22    21	 9 ;      CG311     CG2R61     CG2R61     CG2R61
   15    17    22    61	 9 ;      CG311     CG2R61     CG2R61      HGR61
   18    17    22    21	 9 ;     CG2R61     CG2R61     CG2R61     CG2R61
   18    17    22    61	 9 ;     CG2R61     CG2R61     CG2R61      HGR61
   15    17    18    19	 9 ;      CG311     CG2R61     CG2R61     CG2R61
   15    17    18    57	 9 ;      CG311     CG2R61     CG2R61      HGR61
   22    17    18    19	 9 ;     CG2R61     CG2R61     CG2R61     CG2R61
   22    17    18    57	 9 ;     CG2R61     CG2R61     CG2R61      HGR61
   17    18    19    20	 9 ;     CG2R61     CG2R61     CG2R61     CG2R61
   17    18    19    58	 9 ;     CG2R61     CG2R61     CG2R61      HGR61
   57    18    19    20	 9 ;      HGR61     CG2R61     CG2R61     CG2R61
   57    18    19    58	 9 ;      HGR61     CG2R61     CG2R61      HGR61
   18    19    20    21	 9 ;     CG2R61     CG2R61     CG2R61     CG2R61
   18    19    20    59	 9 ;     CG2R61     CG2R61     CG2R61      HGR61
   58    19    20    21	 9 ;      HGR61     CG2R61     CG2R61     CG2R61
   58    19    20    59	 9 ;      HGR61     CG2R61     CG2R61      HGR61
   19    20    21    22	 9 ;     CG2R61     CG2R61     CG2R61     CG2R61
   19    20    21    60	 9 ;     CG2R61     CG2R61     CG2R61      HGR61
   59    20    21    22	 9 ;      HGR61     CG2R61     CG2R61     CG2R61
   59    20    21    60	 9 ;      HGR61     CG2R61     CG2R61      HGR61
   20    21    22    17	 9 ;     CG2R61     CG2R61     CG2R61     CG2R61
   20    21    22    61	 9 ;     CG2R61     CG2R61     CG2R61      HGR61
   60    21    22    17	 9 ;      HGR61     CG2R61     CG2R61     CG2R61
   60    21    22    61	 9 ;      HGR61     CG2R61     CG2R61      HGR61
   25    23    24    62	 9 ;      SG3O2      NG301      CG331       HGA3
   25    23    24    63	 9 ;      SG3O2      NG301      CG331       HGA3
   25    23    24    64	 9 ;      SG3O2      NG301      CG331       HGA3
    9    23    24    62	 9 ;     CG2R61      NG301      CG331       HGA3
    9    23    24    63	 9 ;     CG2R61      NG301      CG331       HGA3
    9    23    24    64	 9 ;     CG2R61      NG301      CG331       HGA3
   24    23    25    26	 9 ;      CG331      NG301      SG3O2      OG2P1
   24    23    25    28	 9 ;      CG331      NG301      SG3O2      CG331
   24    23    25    27	 9 ;      CG331      NG301      SG3O2      OG2P1
    9    23    25    26	 9 ;     CG2R61      NG301      SG3O2      OG2P1
    9    23    25    28	 9 ;     CG2R61      NG301      SG3O2      CG331
    9    23    25    27	 9 ;     CG2R61      NG301      SG3O2      OG2P1
   26    25    28    65	 9 ;      OG2P1      SG3O2      CG331       HGA3
   26    25    28    66	 9 ;      OG2P1      SG3O2      CG331       HGA3
   26    25    28    67	 9 ;      OG2P1      SG3O2      CG331       HGA3
   23    25    28    65	 9 ;      NG301      SG3O2      CG331       HGA3
   23    25    28    66	 9 ;      NG301      SG3O2      CG331       HGA3
   23    25    28    67	 9 ;      NG301      SG3O2      CG331       HGA3
   27    25    28    65	 9 ;      OG2P1      SG3O2      CG331       HGA3
   27    25    28    66	 9 ;      OG2P1      SG3O2      CG331       HGA3
   27    25    28    67	 9 ;      OG2P1      SG3O2      CG331       HGA3
    3    29    30    31	 9 ;      NG2S1      CG311      CG321      OG301
    3    29    30    69	 9 ;      NG2S1      CG311      CG321       HGA2
    3    29    30    70	 9 ;      NG2S1      CG311      CG321       HGA2
   40    29    30    31	 9 ;      CG311      CG311      CG321      OG301
   40    29    30    69	 9 ;      CG311      CG311      CG321       HGA2
   40    29    30    70	 9 ;      CG311      CG311      CG321       HGA2
   68    29    30    31	 9 ;       HGA1      CG311      CG321      OG301
   68    29    30    69	 9 ;       HGA1      CG311      CG321       HGA2
   68    29    30    70	 9 ;       HGA1      CG311      CG321       HGA2
    3    29    40    43	 9 ;      NG2S1      CG311      CG311      CG321
    3    29    40    41	 9 ;      NG2S1      CG311      CG311      OG311
    3    29    40    74	 9 ;      NG2S1      CG311      CG311       HGA1
   30    29    40    43	 9 ;      CG321      CG311      CG311      CG321
   30    29    40    41	 9 ;      CG321      CG311      CG311      OG311
   30    29    40    74	 9 ;      CG321      CG311      CG311       HGA1
   68    29    40    43	 9 ;       HGA1      CG311      CG311      CG321
   68    29    40    41	 9 ;       HGA1      CG311      CG311      OG311
   68    29    40    74	 9 ;       HGA1      CG311      CG311       HGA1
   29    30    31    32	 9 ;      CG311      CG321      OG301     CG2R61
   69    30    31    32	 9 ;       HGA2      CG321      OG301     CG2R61
   70    30    31    32	 9 ;       HGA2      CG321      OG301     CG2R61
   30    31    32    33	 9 ;      CG321      OG301     CG2R61     CG2R61
   30    31    32    39	 9 ;      CG321      OG301     CG2R61     CG2R61
   31    32    33    34	 9 ;      OG301     CG2R61     CG2R61     CG2R66
   31    32    33    71	 9 ;      OG301     CG2R61     CG2R61      HGR62
   39    32    33    34	 9 ;     CG2R61     CG2R61     CG2R61     CG2R66
   39    32    33    71	 9 ;     CG2R61     CG2R61     CG2R61      HGR62
   31    32    39    37	 9 ;      OG301     CG2R61     CG2R61     CG2R66
   31    32    39    73	 9 ;      OG301     CG2R61     CG2R61      HGR62
   33    32    39    37	 9 ;     CG2R61     CG2R61     CG2R61     CG2R66
   33    32    39    73	 9 ;     CG2R61     CG2R61     CG2R61      HGR62
   32    33    34    35	 9 ;     CG2R61     CG2R61     CG2R66       FGR1
   32    33    34    36	 9 ;     CG2R61     CG2R61     CG2R66     CG2R61
   71    33    34    35	 9 ;      HGR62     CG2R61     CG2R66       FGR1
   71    33    34    36	 9 ;      HGR62     CG2R61     CG2R66     CG2R61
   33    34    36    37	 9 ;     CG2R61     CG2R66     CG2R61     CG2R66
   33    34    36    72	 9 ;     CG2R61     CG2R66     CG2R61      HGR62
   35    34    36    37	 9 ;       FGR1     CG2R66     CG2R61     CG2R66
   35    34    36    72	 9 ;       FGR1     CG2R66     CG2R61      HGR62
   34    36    37    39	 9 ;     CG2R66     CG2R61     CG2R66     CG2R61
   34    36    37    38	 9 ;     CG2R66     CG2R61     CG2R66       FGR1
   72    36    37    39	 9 ;      HGR62     CG2R61     CG2R66     CG2R61
   72    36    37    38	 9 ;      HGR62     CG2R61     CG2R66       FGR1
   36    37    39    32	 9 ;     CG2R61     CG2R66     CG2R61     CG2R61
   36    37    39    73	 9 ;     CG2R61     CG2R66     CG2R61      HGR62
   38    37    39    32	 9 ;       FGR1     CG2R66     CG2R61     CG2R61
   38    37    39    73	 9 ;       FGR1     CG2R66     CG2R61      HGR62
   29    40    43    44	 9 ;      CG311      CG311      CG321      CG311
   29    40    43    75	 9 ;      CG311      CG311      CG321       HGA2
   29    40    43    76	 9 ;      CG311      CG311      CG321       HGA2
   41    40    43    44	 9 ;      OG311      CG311      CG321      CG311
   41    40    43    75	 9 ;      OG311      CG311      CG321       HGA2
   41    40    43    76	 9 ;      OG311      CG311      CG321       HGA2
   74    40    43    44	 9 ;       HGA1      CG311      CG321      CG311
   74    40    43    75	 9 ;       HGA1      CG311      CG321       HGA2
   74    40    43    76	 9 ;       HGA1      CG311      CG321       HGA2
   43    40    41    42	 9 ;      CG321      CG311      OG311       HGP1
   29    40    41    42	 9 ;      CG311      CG311      OG311       HGP1
   74    40    41    42	 9 ;       HGA1      CG311      OG311       HGP1
   40    43    44    45	 9 ;      CG311      CG321      CG311      OG301
   40    43    44    47	 9 ;      CG311      CG321      CG311      CG321
   40    43    44    77	 9 ;      CG311      CG321      CG311       HGA1
   75    43    44    45	 9 ;       HGA2      CG321      CG311      OG301
   75    43    44    47	 9 ;       HGA2      CG321      CG311      CG321
   75    43    44    77	 9 ;       HGA2      CG321      CG311       HGA1
   76    43    44    45	 9 ;       HGA2      CG321      CG311      OG301
   76    43    44    47	 9 ;       HGA2      CG321      CG311      CG321
   76    43    44    77	 9 ;       HGA2      CG321      CG311       HGA1
   43    44    45    46	 9 ;      CG321      CG311      OG301      CG331
   47    44    45    46	 9 ;      CG321      CG311      OG301      CG331
   77    44    45    46	 9 ;       HGA1      CG311      OG301      CG331
   45    44    47    48	 9 ;      OG301      CG311      CG321      OG301
   45    44    47    81	 9 ;      OG301      CG311      CG321       HGA2
   45    44    47    82	 9 ;      OG301      CG311      CG321       HGA2
   43    44    47    48	 9 ;      CG321      CG311      CG321      OG301
   43    44    47    81	 9 ;      CG321      CG311      CG321       HGA2
   43    44    47    82	 9 ;      CG321      CG311      CG321       HGA2
   77    44    47    48	 9 ;       HGA1      CG311      CG321      OG301
   77    44    47    81	 9 ;       HGA1      CG311      CG321       HGA2
   77    44    47    82	 9 ;       HGA1      CG311      CG321       HGA2
   44    45    46    78	 9 ;      CG311      OG301      CG331       HGA3
   44    45    46    79	 9 ;      CG311      OG301      CG331       HGA3
   44    45    46    80	 9 ;      CG311      OG301      CG331       HGA3
   44    47    48    49	 9 ;      CG311      CG321      OG301      CG331
   81    47    48    49	 9 ;       HGA2      CG321      OG301      CG331
   82    47    48    49	 9 ;       HGA2      CG321      OG301      CG331
   47    48    49    83	 9 ;      CG321      OG301      CG331       HGA3
   47    48    49    84	 9 ;      CG321      OG301      CG331       HGA3
   47    48    49    85	 9 ;      CG321      OG301      CG331       HGA3

[ dihedrals ]
;	ai	  aj	ak	  al funct			  c0			c1			  c2			c3
    1     5     3     2	 2
   11     7    13    12	 2

