Gallium Rubidium Oxygen Manganese Argon Carbon Silicon
   85
    1LIG     C1    1  -1.848   0.315  -1.456
    1LIG     O1    2  -1.888   0.222  -1.526
    1LIG     N1    3  -1.906   0.348  -1.337
    1LIG     H1    4  -1.875   0.429  -1.285
    1LIG     C2    5  -1.729   0.392  -1.501
    1LIG     C3    6  -1.606   0.331  -1.475
    1LIG     C4    7  -1.487   0.399  -1.498
    1LIG     C5    8  -1.489   0.525  -1.558
    1LIG     C6    9  -1.611   0.586  -1.586
    1LIG     C7   10  -1.732   0.520  -1.558
    1LIG     C8   11  -1.356   0.336  -1.468
    1LIG     O2   12  -1.312   0.340  -1.353
    1LIG     N2   13  -1.287   0.281  -1.575
    1LIG     H2   14  -1.334   0.273  -1.664
    1LIG     C9   15  -1.143   0.298  -1.579
    1LIG    C10   16  -1.101   0.320  -1.725
    1LIG    C11   17  -1.064   0.183  -1.521
    1LIG    C12   18  -1.119   0.053  -1.532
    1LIG    C13   19  -1.058  -0.056  -1.469
    1LIG    C14   20  -0.942  -0.038  -1.395
    1LIG    C15   21  -0.886   0.089  -1.384
    1LIG    C16   22  -0.946   0.199  -1.446
    1LIG     N3   23  -1.615   0.717  -1.646
    1LIG    C17   24  -1.713   0.739  -1.754
    1LIG      S   25  -1.577   0.851  -1.547
    1LIG     O3   26  -1.434   0.870  -1.553
    1LIG     O4   27  -1.646   0.837  -1.421
    1LIG    C18   28  -1.652   0.987  -1.637
    1LIG    C19   29  -2.023   0.275  -1.285
    1LIG    C20   30  -1.977   0.158  -1.192
    1LIG     O5   31  -2.086   0.087  -1.133
    1LIG    C21   32  -2.080  -0.049  -1.119
    1LIG    C22   33  -1.979  -0.092  -1.032
    1LIG    C23   34  -1.949  -0.227  -1.022
    1LIG     F1   35  -1.847  -0.266  -0.945
    1LIG    C24   36  -2.020  -0.322  -1.094
    1LIG    C25   37  -2.127  -0.279  -1.171
    1LIG     F2   38  -2.200  -0.369  -1.238
    1LIG    C26   39  -2.159  -0.144  -1.183
    1LIG    C27   40  -2.121   0.374  -1.215
    1LIG     O6   41  -2.084   0.388  -1.077
    1LIG     H3   42  -2.081   0.298  -1.039
    1LIG    C28   43  -2.118   0.518  -1.273
    1LIG    C29   44  -2.249   0.565  -1.339
    1LIG     O7   45  -2.225   0.668  -1.435
    1LIG    C30   46  -2.270   0.641  -1.567
    1LIG    C31   47  -2.334   0.448  -1.395
    1LIG     O8   48  -2.470   0.457  -1.353
    1LIG    C32   49  -2.480   0.500  -1.218
    1LIG     HC   50  -1.603   0.231  -1.436
    1LIG    HC1   51  -1.397   0.576  -1.581
    1LIG    HC2   52  -1.827   0.567  -1.581
    1LIG    HC3   53  -1.118   0.388  -1.523
    1LIG    HC4   54  -1.158   0.403  -1.767
    1LIG    HC5   55  -1.121   0.229  -1.783
    1LIG    HC6   56  -0.995   0.343  -1.729
    1LIG    HC7   57  -1.209   0.038  -1.590
    1LIG    HC8   58  -1.102  -0.154  -1.479
    1LIG    HC9   59  -0.896  -0.122  -1.346
    1LIG   HC10   60  -0.795   0.103  -1.327
    1LIG   HC11   61  -0.902   0.297  -1.437
    1LIG   HC12   62  -1.738   0.643  -1.801
    1LIG   HC13   63  -1.804   0.783  -1.713
    1LIG   HC14   64  -1.671   0.806  -1.829
    1LIG   HC15   65  -1.626   1.081  -1.588
    1LIG   HC16   66  -1.760   0.975  -1.637
    1LIG   HC17   67  -1.615   0.988  -1.739
    1LIG   HC18   68  -2.076   0.231  -1.370
    1LIG   HC19   69  -1.915   0.199  -1.112
    1LIG   HC20   70  -1.917   0.088  -1.251
    1LIG   HC21   71  -1.924  -0.020  -0.973
    1LIG   HC22   72  -1.993  -0.426  -1.090
    1LIG   HC23   73  -2.244  -0.113  -1.241
    1LIG   HC24   74  -2.222   0.335  -1.222
    1LIG   HC25   75  -2.095   0.587  -1.192
    1LIG   HC26   76  -2.039   0.524  -1.347
    1LIG   HC27   77  -2.309   0.610  -1.260
    1LIG   HC28   78  -2.242   0.724  -1.633
    1LIG   HC29   79  -2.379   0.631  -1.567
    1LIG   HC30   80  -2.225   0.549  -1.603
    1LIG   HC31   81  -2.330   0.451  -1.504
    1LIG   HC32   82  -2.291   0.354  -1.361
    1LIG   HC33   83  -2.577   0.470  -1.177
    1LIG   HC34   84  -2.472   0.609  -1.214
    1LIG   HC35   85  -2.400   0.455  -1.159
   0.00000   0.00000   0.00000
