Gnomes, ROck Monsters And Chili Sauce
   48
    1LIG     C2    1   8.358   1.380   8.883
    1LIG     O5    2   8.288   1.594   9.038
    1LIG     C4    3   8.423   1.528   9.220
    1LIG     C5    4   8.533   1.452   9.261
    1LIG     C6    5   8.370   1.626   9.305
    1LIG     C7    6   8.589   1.475   9.387
    1LIG     C8    7   8.425   1.648   9.431
    1LIG     C9    8   8.534   1.572   9.472
    1LIG    C10    9   8.403   1.387   9.009
    1LIG    C11   10   8.488   1.285   9.080
    1LIG    C12   11   8.364   1.510   9.085
    1LIG    C13   12   8.594   1.351   9.168
    1LIG     N1   13   8.297   1.161   8.798
    1LIG     O4   14   8.481   1.263   8.718
    1LIG     C3   15   8.384   1.266   8.793
    1LIG     H1   16   8.317   1.093   8.726
    1LIG    C14   17   8.158   1.162   8.848
    1LIG    C16   18   8.120   1.021   8.901
    1LIG    C17   19   8.209   0.913   8.840
    1LIG    C18   20   8.130   1.013   9.054
    1LIG     O1   21   7.952   1.165   8.722
    1LIG    C15   22   8.070   1.199   8.728
    1LIG     O2   23   8.124   1.276   8.630
    1LIG    C19   24   8.094   1.416   8.616
    1LIG     C1   25   8.408   1.765   9.638
    1LIG     O3   26   8.363   1.746   9.504
    1LIG     H2   27   8.301   1.458   8.847
    1LIG     H3   28   8.289   1.682   9.274
    1LIG     H4   29   8.670   1.420   9.418
    1LIG     H5   30   8.576   1.588   9.566
    1LIG     H6   31   8.537   1.224   9.007
    1LIG     H7   32   8.424   1.227   9.143
    1LIG     H8   33   8.666   1.400   9.106
    1LIG     H9   34   8.641   1.275   9.227
    1LIG    H10   35   8.146   1.230   8.929
    1LIG    H11   36   8.018   1.005   8.872
    1LIG    H12   37   8.311   0.929   8.869
    1LIG    H13   38   8.201   0.916   8.733
    1LIG    H14   39   8.177   0.817   8.875
    1LIG    H15   40   8.231   1.030   9.084
    1LIG    H16   41   8.098   0.917   9.087
    1LIG    H17   42   8.067   1.088   9.098
    1LIG    H18   43   8.147   1.456   8.533
    1LIG    H19   44   8.123   1.468   8.705
    1LIG    H20   45   7.989   1.428   8.600
    1LIG    H21   46   8.351   1.844   9.683
    1LIG    H22   47   8.511   1.791   9.637
    1LIG    H23   48   8.394   1.675   9.694
   0.00000   0.00000   0.00000
