Gromacs Runs One Microsecond At Cannonball Speeds
   54
    1LIG     O1    1  -1.629   0.680  -1.654
    1LIG     C1    2  -1.547   0.575  -1.623
    1LIG     C2    3  -1.410   0.587  -1.602
    1LIG     C3    4  -1.347   0.477  -1.538
    1LIG     C4    5  -1.402   0.349  -1.523
    1LIG     C5    6  -1.536   0.338  -1.558
    1LIG     C6    7  -1.609   0.450  -1.603
    1LIG     C7    8  -1.335   0.718  -1.629
    1LIG     N1    9  -1.286   0.759  -1.766
    1LIG     HN   10  -1.344   0.783  -1.847
    1LIG     C8   11  -1.158   0.757  -1.762
    1LIG     N2   12  -1.104   0.685  -1.663
    1LIG     C9   13  -1.090   0.547  -1.715
    1LIG    C10   14  -1.196   0.711  -1.562
    1LIG     O2   15  -1.169   0.734  -1.445
    1LIG    C11   16  -1.438   0.827  -1.603
    1LIG    C12   17  -1.560   0.799  -1.699
    1LIG    C13   18  -1.657   0.920  -1.695
    1LIG    C14   19  -1.533   0.773  -1.850
    1LIG     N3   20  -1.073   0.814  -1.851
    1LIG     H1   21  -1.102   0.906  -1.882
    1LIG     H2   22  -1.052   0.753  -1.929
    1LIG    C15   23  -1.312   0.236  -1.478
    1LIG    C16   24  -1.279   0.133  -1.570
    1LIG    C17   25  -1.215   0.015  -1.532
    1LIG    C18   26  -1.179  -0.003  -1.400
    1LIG    C19   27  -1.203   0.098  -1.308
    1LIG    C20   28  -1.267   0.218  -1.345
    1LIG     O3   29  -1.294   0.317  -1.253
    1LIG    C21   30  -1.191   0.413  -1.234
    1LIG     HC   31  -1.248   0.493  -1.499
    1LIG    HC1   32  -1.586   0.242  -1.552
    1LIG    HC2   33  -1.715   0.440  -1.622
    1LIG    HN2   34  -1.286   0.856  -1.737
    1LIG    HC3   35  -1.157   0.847  -1.700
    1LIG    HC4   36  -1.046   0.484  -1.638
    1LIG    HC5   37  -1.025   0.549  -1.803
    1LIG    HC6   38  -1.188   0.509  -1.744
    1LIG    HC7   39  -1.471   0.824  -1.499
    1LIG    HC8   40  -1.395   0.925  -1.625
    1LIG    HC9   41  -1.680   0.944  -1.591
    1LIG   HC10   42  -1.610   1.006  -1.742
    1LIG   HC11   43  -1.749   0.894  -1.748
    1LIG   HC12   44  -1.628   0.758  -1.902
    1LIG   HC13   45  -1.481   0.858  -1.893
    1LIG   HC14   46  -1.472   0.683  -1.861
    1LIG    HN1   47  -0.986   0.828  -1.802
    1LIG   HC15   48  -1.305   0.147  -1.674
    1LIG   HC16   49  -1.195  -0.062  -1.605
    1LIG   HC17   50  -1.131  -0.095  -1.369
    1LIG   HC18   51  -1.173   0.084  -1.205
    1LIG   HC19   52  -1.222   0.486  -1.160
    1LIG   HC20   53  -1.170   0.464  -1.329
    1LIG   HC21   54  -1.100   0.363  -1.200
   0.00000   0.00000   0.00000
