Great Red Oystrich Makes All Chemists Sane
   50
    1LIG     C1    1  -1.449   0.364  -1.544
    1LIG     C2    2  -1.485   0.444  -1.434
    1LIG     C3    3  -1.586   0.405  -1.346
    1LIG     C4    4  -1.656   0.287  -1.374
    1LIG     C5    5  -1.624   0.209  -1.485
    1LIG     C6    6  -1.520   0.247  -1.570
    1LIG     C7    7  -1.621   0.492  -1.226
    1LIG     C8    8  -1.537   0.461  -1.101
    1LIG     C9    9  -1.617   0.411  -0.983
    1LIG    C10   10  -1.645   0.274  -0.971
    1LIG    C11   11  -1.729   0.230  -0.869
    1LIG    C12   12  -1.780   0.324  -0.782
    1LIG     N1   13  -1.750   0.456  -0.788
    1LIG    C13   14  -1.670   0.497  -0.887
    1LIG     HN   15  -1.788   0.521  -0.719
    1LIG     N2   16  -1.638   0.633  -0.883
    1LIG     H1   17  -1.644   0.665  -0.980
    1LIG     H2   18  -1.546   0.650  -0.845
    1LIG    C14   19  -1.329   0.401  -1.629
    1LIG     N3   20  -1.211   0.308  -1.609
    1LIG    C15   21  -1.087   0.379  -1.563
    1LIG     H3   22  -1.235   0.241  -1.535
    1LIG    C16   23  -1.188   0.224  -1.734
    1LIG    C17   24  -1.102   0.105  -1.714
    1LIG    C18   25  -1.124  -0.019  -1.656
    1LIG    C19   26  -1.004  -0.092  -1.671
    1LIG    C20   27  -0.916  -0.009  -1.736
    1LIG      O   28  -0.974   0.111  -1.762
    1LIG     H4   29  -1.436   0.534  -1.418
    1LIG     H5   30  -1.733   0.257  -1.311
    1LIG     H6   31  -1.678   0.123  -1.505
    1LIG     H7   32  -1.497   0.189  -1.652
    1LIG     H8   33  -1.724   0.477  -1.202
    1LIG     H9   34  -1.599   0.593  -1.253
    1LIG    H10   35  -1.487   0.550  -1.071
    1LIG    H11   36  -1.470   0.382  -1.128
    1LIG    H12   37  -1.605   0.207  -1.037
    1LIG    H13   38  -1.751   0.130  -0.858
    1LIG    H14   39  -1.752   0.292  -0.684
    1LIG    H15   40  -1.883   0.325  -0.812
    1LIG    H16   41  -1.358   0.397  -1.732
    1LIG    H17   42  -1.298   0.498  -1.599
    1LIG    H18   43  -1.056   0.450  -1.637
    1LIG    H19   44  -1.008   0.308  -1.548
    1LIG    H20   45  -1.107   0.430  -1.471
    1LIG    H21   46  -1.284   0.191  -1.769
    1LIG    H22   47  -1.137   0.287  -1.803
    1LIG    H23   48  -1.211  -0.051  -1.611
    1LIG    H24   49  -0.986  -0.188  -1.638
    1LIG    H25   50  -0.820  -0.035  -1.762
   0.00000   0.00000   0.00000
