; Created by cgenff_charmm2gmx.py

[ moleculetype ]
; Name			   nrexcl
LIG				 3

[ atoms ]
;	 nr		  type	resnr residue  atom   cgnr	   charge		mass  typeB    chargeB		massB
; residue	 1 LIG rtp LIG q	qsum
     1     CG2R61      1    LIG     C1      1      0.056     12.011   ;
     2     CG2R61      1    LIG     C2      2     -0.127     12.011   ;
     3     CG2R61      1    LIG     C3      3      0.010     12.011   ;
     4     CG2R61      1    LIG     C4      4     -0.123     12.011   ;
     5     CG2R61      1    LIG     C5      5     -0.107     12.011   ;
     6     CG2R61      1    LIG     C6      6     -0.120     12.011   ;
     7      CG321      1    LIG     C7      7     -0.170     12.011   ;
     8      CG321      1    LIG     C8      8     -0.150     12.011   ;
     9     CG2DC1      1    LIG     C9      9     -0.142     12.011   ;
    10     CG2DC2      1    LIG    C10     10     -0.260     12.011   ;
    11     CG2DC2      1    LIG    C11     11     -0.211     12.011   ;
    12      CG321      1    LIG    C12     12     -0.037     12.011   ;
    13      NG311      1    LIG     N1     13     -0.509     14.007   ;
    14     CG2D1O      1    LIG    C13     14      0.199     12.011   ;
    15     HGPAM1      1    LIG     HN     15      0.387      1.008   ;
    16      NG321      1    LIG     N2     16     -0.754     14.007   ;
    17     HGPAM2      1    LIG     H1     17      0.404      1.008   ;
    18     HGPAM2      1    LIG     H2     18      0.404      1.008   ;
    19      CG324      1    LIG    C14     19      0.056     12.011   ;
    20      NG3P1      1    LIG     N3     20     -0.153     14.007   ;
    21      CG334      1    LIG    C15     21      0.053     12.011   ;
    22       HGP2      1    LIG     H3     22      0.262      1.008   ;
    23      CG324      1    LIG    C16     23      0.173     12.011   ;
    24     CG2R51      1    LIG    C17     24      0.158     12.011   ;
    25     CG2R51      1    LIG    C18     25     -0.262     12.011   ;
    26     CG2R51      1    LIG    C19     26     -0.253     12.011   ;
    27     CG2R51      1    LIG    C20     27      0.110     12.011   ;
    28     OG2R50      1    LIG      O     28     -0.332     15.999   ;
    29      HGR61      1    LIG     H4     29      0.116      1.008   ;
    30      HGR61      1    LIG     H5     30      0.116      1.008   ;
    31      HGR61      1    LIG     H6     31      0.116      1.008   ;
    32      HGR61      1    LIG     H7     32      0.116      1.008   ;
    33       HGA2      1    LIG     H8     33      0.090      1.008   ;
    34       HGA2      1    LIG     H9     34      0.090      1.008   ;
    35       HGA2      1    LIG    H10     35      0.090      1.008   ;
    36       HGA2      1    LIG    H11     36      0.090      1.008   ;
    37       HGA4      1    LIG    H12     37      0.150      1.008   ;
    38       HGA4      1    LIG    H13     38      0.150      1.008   ;
    39       HGA2      1    LIG    H14     39      0.090      1.008   ;
    40       HGA2      1    LIG    H15     40      0.090      1.008   ;
    41       HGA2      1    LIG    H16     41      0.090      1.008   ;
    42       HGA2      1    LIG    H17     42      0.090      1.008   ;
    43       HGA3      1    LIG    H18     43      0.090      1.008   ;
    44       HGA3      1    LIG    H19     44      0.090      1.008   ;
    45       HGA3      1    LIG    H20     45      0.090      1.008   ;
    46       HGA2      1    LIG    H21     46      0.090      1.008   ;
    47       HGA2      1    LIG    H22     47      0.090      1.008   ;
    48      HGR51      1    LIG    H23     48      0.168      1.008   ;
    49      HGR51      1    LIG    H24     49      0.198      1.008   ;
    50      HGR52      1    LIG    H25     50      0.138      1.008   ;

[ bonds ]
;	ai	  aj funct			  c0			c1			  c2			c3
    1    19	 1 ;      CG2R61      CG324
    1     6	 1 ;      CG2R61     CG2R61
    1     2	 1 ;      CG2R61     CG2R61
    2     3	 1 ;      CG2R61     CG2R61
    2    29	 1 ;      CG2R61      HGR61
    3     4	 1 ;      CG2R61     CG2R61
    3     7	 1 ;      CG2R61      CG321
    4     5	 1 ;      CG2R61     CG2R61
    4    30	 1 ;      CG2R61      HGR61
    5     6	 1 ;      CG2R61     CG2R61
    5    31	 1 ;      CG2R61      HGR61
    6    32	 1 ;      CG2R61      HGR61
    7     8	 1 ;       CG321      CG321
    7    33	 1 ;       CG321       HGA2
    7    34	 1 ;       CG321       HGA2
    8     9	 1 ;       CG321     CG2DC1
    8    35	 1 ;       CG321       HGA2
    8    36	 1 ;       CG321       HGA2
    9    10	 1 ;      CG2DC1     CG2DC2
    9    14	 1 ;      CG2DC1     CG2D1O
   10    11	 1 ;      CG2DC2     CG2DC2
   10    37	 1 ;      CG2DC2       HGA4
   11    12	 1 ;      CG2DC2      CG321
   11    38	 1 ;      CG2DC2       HGA4
   12    13	 1 ;       CG321      NG311
   12    39	 1 ;       CG321       HGA2
   12    40	 1 ;       CG321       HGA2
   13    14	 1 ;       NG311     CG2D1O
   13    15	 1 ;       NG311     HGPAM1
   14    16	 1 ;      CG2D1O      NG321
   16    17	 1 ;       NG321     HGPAM2
   16    18	 1 ;       NG321     HGPAM2
   19    20	 1 ;       CG324      NG3P1
   19    41	 1 ;       CG324       HGA2
   19    42	 1 ;       CG324       HGA2
   20    23	 1 ;       NG3P1      CG324
   20    21	 1 ;       NG3P1      CG334
   20    22	 1 ;       NG3P1       HGP2
   21    43	 1 ;       CG334       HGA3
   21    44	 1 ;       CG334       HGA3
   21    45	 1 ;       CG334       HGA3
   23    24	 1 ;       CG324     CG2R51
   23    46	 1 ;       CG324       HGA2
   23    47	 1 ;       CG324       HGA2
   24    28	 1 ;      CG2R51     OG2R50
   24    25	 1 ;      CG2R51     CG2R51
   25    26	 1 ;      CG2R51     CG2R51
   25    48	 1 ;      CG2R51      HGR51
   26    27	 1 ;      CG2R51     CG2R51
   26    49	 1 ;      CG2R51      HGR51
   27    28	 1 ;      CG2R51     OG2R50
   27    50	 1 ;      CG2R51      HGR52

[ pairs ]
;	ai	  aj funct			  c0			c1			  c2			c3
    1     4	 1
    1     7	 1
    1    31	 1
    1    23	 1
    1    21	 1
    1    22	 1
    2    20	 1
    2    41	 1
    2    42	 1
    2     5	 1
    2    32	 1
    2    30	 1
    2     8	 1
    2    33	 1
    2    34	 1
    3    19	 1
    3     6	 1
    3    31	 1
    3     9	 1
    3    35	 1
    3    36	 1
    4    29	 1
    4     8	 1
    4    33	 1
    4    34	 1
    4    32	 1
    5    19	 1
    5     7	 1
    6    20	 1
    6    41	 1
    6    42	 1
    6    29	 1
    6    30	 1
    7    29	 1
    7    30	 1
    7    10	 1
    7    14	 1
    8    11	 1
    8    37	 1
    8    16	 1
    8    13	 1
    9    33	 1
    9    34	 1
    9    12	 1
    9    38	 1
    9    15	 1
    9    17	 1
    9    18	 1
   10    35	 1
   10    36	 1
   10    16	 1
   10    13	 1
   10    39	 1
   10    40	 1
   11    14	 1
   11    15	 1
   12    37	 1
   12    16	 1
   13    38	 1
   13    17	 1
   13    18	 1
   14    35	 1
   14    36	 1
   14    37	 1
   14    39	 1
   14    40	 1
   15    39	 1
   15    40	 1
   15    16	 1
   19    32	 1
   19    29	 1
   19    24	 1
   19    46	 1
   19    47	 1
   19    43	 1
   19    44	 1
   19    45	 1
   20    28	 1
   20    25	 1
   21    41	 1
   21    42	 1
   21    24	 1
   21    46	 1
   21    47	 1
   22    41	 1
   22    42	 1
   22    24	 1
   22    46	 1
   22    47	 1
   22    43	 1
   22    44	 1
   22    45	 1
   23    41	 1
   23    42	 1
   23    43	 1
   23    44	 1
   23    45	 1
   23    27	 1
   23    26	 1
   23    48	 1
   24    49	 1
   24    50	 1
   25    46	 1
   25    47	 1
   25    50	 1
   27    48	 1
   28    46	 1
   28    47	 1
   28    48	 1
   28    49	 1
   30    31	 1
   31    32	 1
   33    35	 1
   33    36	 1
   34    35	 1
   34    36	 1
   37    38	 1
   38    39	 1
   38    40	 1
   48    49	 1
   49    50	 1

[ angles ]
;	ai	  aj	ak funct			c0			  c1			c2			  c3
   19     1     6	5 ;      CG324     CG2R61     CG2R61
   19     1     2	5 ;      CG324     CG2R61     CG2R61
    6     1     2	5 ;     CG2R61     CG2R61     CG2R61
    1     2     3	5 ;     CG2R61     CG2R61     CG2R61
    1     2    29	5 ;     CG2R61     CG2R61      HGR61
    3     2    29	5 ;     CG2R61     CG2R61      HGR61
    2     3     4	5 ;     CG2R61     CG2R61     CG2R61
    2     3     7	5 ;     CG2R61     CG2R61      CG321
    4     3     7	5 ;     CG2R61     CG2R61      CG321
    5     4     3	5 ;     CG2R61     CG2R61     CG2R61
    5     4    30	5 ;     CG2R61     CG2R61      HGR61
    3     4    30	5 ;     CG2R61     CG2R61      HGR61
    6     5     4	5 ;     CG2R61     CG2R61     CG2R61
    6     5    31	5 ;     CG2R61     CG2R61      HGR61
    4     5    31	5 ;     CG2R61     CG2R61      HGR61
    1     6     5	5 ;     CG2R61     CG2R61     CG2R61
    1     6    32	5 ;     CG2R61     CG2R61      HGR61
    5     6    32	5 ;     CG2R61     CG2R61      HGR61
    3     7     8	5 ;     CG2R61      CG321      CG321
    3     7    33	5 ;     CG2R61      CG321       HGA2
    3     7    34	5 ;     CG2R61      CG321       HGA2
    8     7    33	5 ;      CG321      CG321       HGA2
    8     7    34	5 ;      CG321      CG321       HGA2
   33     7    34	5 ;       HGA2      CG321       HGA2
    7     8     9	5 ;      CG321      CG321     CG2DC1
    7     8    35	5 ;      CG321      CG321       HGA2
    7     8    36	5 ;      CG321      CG321       HGA2
    9     8    35	5 ;     CG2DC1      CG321       HGA2
    9     8    36	5 ;     CG2DC1      CG321       HGA2
   35     8    36	5 ;       HGA2      CG321       HGA2
    8     9    10	5 ;      CG321     CG2DC1     CG2DC2
    8     9    14	5 ;      CG321     CG2DC1     CG2D1O
   10     9    14	5 ;     CG2DC2     CG2DC1     CG2D1O
    9    10    11	5 ;     CG2DC1     CG2DC2     CG2DC2
    9    10    37	5 ;     CG2DC1     CG2DC2       HGA4
   11    10    37	5 ;     CG2DC2     CG2DC2       HGA4
   10    11    12	5 ;     CG2DC2     CG2DC2      CG321
   10    11    38	5 ;     CG2DC2     CG2DC2       HGA4
   12    11    38	5 ;      CG321     CG2DC2       HGA4
   11    12    13	5 ;     CG2DC2      CG321      NG311
   11    12    39	5 ;     CG2DC2      CG321       HGA2
   11    12    40	5 ;     CG2DC2      CG321       HGA2
   13    12    39	5 ;      NG311      CG321       HGA2
   13    12    40	5 ;      NG311      CG321       HGA2
   39    12    40	5 ;       HGA2      CG321       HGA2
   14    13    12	5 ;     CG2D1O      NG311      CG321
   14    13    15	5 ;     CG2D1O      NG311     HGPAM1
   12    13    15	5 ;      CG321      NG311     HGPAM1
    9    14    16	5 ;     CG2DC1     CG2D1O      NG321
    9    14    13	5 ;     CG2DC1     CG2D1O      NG311
   16    14    13	5 ;      NG321     CG2D1O      NG311
   17    16    14	5 ;     HGPAM2      NG321     CG2D1O
   17    16    18	5 ;     HGPAM2      NG321     HGPAM2
   14    16    18	5 ;     CG2D1O      NG321     HGPAM2
   20    19     1	5 ;      NG3P1      CG324     CG2R61
   20    19    41	5 ;      NG3P1      CG324       HGA2
   20    19    42	5 ;      NG3P1      CG324       HGA2
    1    19    41	5 ;     CG2R61      CG324       HGA2
    1    19    42	5 ;     CG2R61      CG324       HGA2
   41    19    42	5 ;       HGA2      CG324       HGA2
   23    20    19	5 ;      CG324      NG3P1      CG324
   23    20    21	5 ;      CG324      NG3P1      CG334
   23    20    22	5 ;      CG324      NG3P1       HGP2
   19    20    21	5 ;      CG324      NG3P1      CG334
   19    20    22	5 ;      CG324      NG3P1       HGP2
   21    20    22	5 ;      CG334      NG3P1       HGP2
   20    21    43	5 ;      NG3P1      CG334       HGA3
   20    21    44	5 ;      NG3P1      CG334       HGA3
   20    21    45	5 ;      NG3P1      CG334       HGA3
   43    21    44	5 ;       HGA3      CG334       HGA3
   43    21    45	5 ;       HGA3      CG334       HGA3
   44    21    45	5 ;       HGA3      CG334       HGA3
   24    23    20	5 ;     CG2R51      CG324      NG3P1
   24    23    46	5 ;     CG2R51      CG324       HGA2
   24    23    47	5 ;     CG2R51      CG324       HGA2
   20    23    46	5 ;      NG3P1      CG324       HGA2
   20    23    47	5 ;      NG3P1      CG324       HGA2
   46    23    47	5 ;       HGA2      CG324       HGA2
   28    24    23	5 ;     OG2R50     CG2R51      CG324
   28    24    25	5 ;     OG2R50     CG2R51     CG2R51
   23    24    25	5 ;      CG324     CG2R51     CG2R51
   24    25    26	5 ;     CG2R51     CG2R51     CG2R51
   24    25    48	5 ;     CG2R51     CG2R51      HGR51
   26    25    48	5 ;     CG2R51     CG2R51      HGR51
   27    26    25	5 ;     CG2R51     CG2R51     CG2R51
   27    26    49	5 ;     CG2R51     CG2R51      HGR51
   25    26    49	5 ;     CG2R51     CG2R51      HGR51
   28    27    26	5 ;     OG2R50     CG2R51     CG2R51
   28    27    50	5 ;     OG2R50     CG2R51      HGR52
   26    27    50	5 ;     CG2R51     CG2R51      HGR52
   27    28    24	5 ;     CG2R51     OG2R50     CG2R51

[ dihedrals ]
;	ai	  aj	ak	  al funct			  c0			c1			  c2			c3			  c4			c5
    6     1    19    20	 9 ;     CG2R61     CG2R61      CG324      NG3P1
    6     1    19    41	 9 ;     CG2R61     CG2R61      CG324       HGA2
    6     1    19    42	 9 ;     CG2R61     CG2R61      CG324       HGA2
    2     1    19    20	 9 ;     CG2R61     CG2R61      CG324      NG3P1
    2     1    19    41	 9 ;     CG2R61     CG2R61      CG324       HGA2
    2     1    19    42	 9 ;     CG2R61     CG2R61      CG324       HGA2
   19     1     6     5	 9 ;      CG324     CG2R61     CG2R61     CG2R61
   19     1     6    32	 9 ;      CG324     CG2R61     CG2R61      HGR61
    2     1     6     5	 9 ;     CG2R61     CG2R61     CG2R61     CG2R61
    2     1     6    32	 9 ;     CG2R61     CG2R61     CG2R61      HGR61
   19     1     2     3	 9 ;      CG324     CG2R61     CG2R61     CG2R61
   19     1     2    29	 9 ;      CG324     CG2R61     CG2R61      HGR61
    6     1     2     3	 9 ;     CG2R61     CG2R61     CG2R61     CG2R61
    6     1     2    29	 9 ;     CG2R61     CG2R61     CG2R61      HGR61
    1     2     3     4	 9 ;     CG2R61     CG2R61     CG2R61     CG2R61
    1     2     3     7	 9 ;     CG2R61     CG2R61     CG2R61      CG321
   29     2     3     4	 9 ;      HGR61     CG2R61     CG2R61     CG2R61
   29     2     3     7	 9 ;      HGR61     CG2R61     CG2R61      CG321
    2     3     4     5	 9 ;     CG2R61     CG2R61     CG2R61     CG2R61
    2     3     4    30	 9 ;     CG2R61     CG2R61     CG2R61      HGR61
    7     3     4     5	 9 ;      CG321     CG2R61     CG2R61     CG2R61
    7     3     4    30	 9 ;      CG321     CG2R61     CG2R61      HGR61
    2     3     7     8	 9 ;     CG2R61     CG2R61      CG321      CG321
    2     3     7    33	 9 ;     CG2R61     CG2R61      CG321       HGA2
    2     3     7    34	 9 ;     CG2R61     CG2R61      CG321       HGA2
    4     3     7     8	 9 ;     CG2R61     CG2R61      CG321      CG321
    4     3     7    33	 9 ;     CG2R61     CG2R61      CG321       HGA2
    4     3     7    34	 9 ;     CG2R61     CG2R61      CG321       HGA2
    3     4     5     6	 9 ;     CG2R61     CG2R61     CG2R61     CG2R61
    3     4     5    31	 9 ;     CG2R61     CG2R61     CG2R61      HGR61
   30     4     5     6	 9 ;      HGR61     CG2R61     CG2R61     CG2R61
   30     4     5    31	 9 ;      HGR61     CG2R61     CG2R61      HGR61
    4     5     6     1	 9 ;     CG2R61     CG2R61     CG2R61     CG2R61
    4     5     6    32	 9 ;     CG2R61     CG2R61     CG2R61      HGR61
   31     5     6     1	 9 ;      HGR61     CG2R61     CG2R61     CG2R61
   31     5     6    32	 9 ;      HGR61     CG2R61     CG2R61      HGR61
    3     7     8     9	 9 ;     CG2R61      CG321      CG321     CG2DC1
    3     7     8    35	 9 ;     CG2R61      CG321      CG321       HGA2
    3     7     8    36	 9 ;     CG2R61      CG321      CG321       HGA2
   33     7     8     9	 9 ;       HGA2      CG321      CG321     CG2DC1
   33     7     8    35	 9 ;       HGA2      CG321      CG321       HGA2
   33     7     8    36	 9 ;       HGA2      CG321      CG321       HGA2
   34     7     8     9	 9 ;       HGA2      CG321      CG321     CG2DC1
   34     7     8    35	 9 ;       HGA2      CG321      CG321       HGA2
   34     7     8    36	 9 ;       HGA2      CG321      CG321       HGA2
    7     8     9    10	 9 ;      CG321      CG321     CG2DC1     CG2DC2
    7     8     9    14	 9 ;      CG321      CG321     CG2DC1     CG2D1O
   35     8     9    10	 9 ;       HGA2      CG321     CG2DC1     CG2DC2
   35     8     9    14	 9 ;       HGA2      CG321     CG2DC1     CG2D1O
   36     8     9    10	 9 ;       HGA2      CG321     CG2DC1     CG2DC2
   36     8     9    14	 9 ;       HGA2      CG321     CG2DC1     CG2D1O
    8     9    10    11	 9 ;      CG321     CG2DC1     CG2DC2     CG2DC2
    8     9    10    37	 9 ;      CG321     CG2DC1     CG2DC2       HGA4
   14     9    10    11	 9 ;     CG2D1O     CG2DC1     CG2DC2     CG2DC2
   14     9    10    37	 9 ;     CG2D1O     CG2DC1     CG2DC2       HGA4
    8     9    14    16	 9 ;      CG321     CG2DC1     CG2D1O      NG321
    8     9    14    13	 9 ;      CG321     CG2DC1     CG2D1O      NG311
   10     9    14    16	 9 ;     CG2DC2     CG2DC1     CG2D1O      NG321
   10     9    14    13	 9 ;     CG2DC2     CG2DC1     CG2D1O      NG311
    9    10    11    12	 9 ;     CG2DC1     CG2DC2     CG2DC2      CG321
    9    10    11    38	 9 ;     CG2DC1     CG2DC2     CG2DC2       HGA4
   37    10    11    12	 9 ;       HGA4     CG2DC2     CG2DC2      CG321
   37    10    11    38	 9 ;       HGA4     CG2DC2     CG2DC2       HGA4
   10    11    12    13	 9 ;     CG2DC2     CG2DC2      CG321      NG311
   10    11    12    39	 9 ;     CG2DC2     CG2DC2      CG321       HGA2
   10    11    12    40	 9 ;     CG2DC2     CG2DC2      CG321       HGA2
   38    11    12    13	 9 ;       HGA4     CG2DC2      CG321      NG311
   38    11    12    39	 9 ;       HGA4     CG2DC2      CG321       HGA2
   38    11    12    40	 9 ;       HGA4     CG2DC2      CG321       HGA2
   11    12    13    14	 9 ;     CG2DC2      CG321      NG311     CG2D1O
   11    12    13    15	 9 ;     CG2DC2      CG321      NG311     HGPAM1
   39    12    13    14	 9 ;       HGA2      CG321      NG311     CG2D1O
   39    12    13    15	 9 ;       HGA2      CG321      NG311     HGPAM1
   40    12    13    14	 9 ;       HGA2      CG321      NG311     CG2D1O
   40    12    13    15	 9 ;       HGA2      CG321      NG311     HGPAM1
   12    13    14     9	 9 ;      CG321      NG311     CG2D1O     CG2DC1
   12    13    14    16	 9 ;      CG321      NG311     CG2D1O      NG321
   15    13    14     9	 9 ;     HGPAM1      NG311     CG2D1O     CG2DC1
   15    13    14    16	 9 ;     HGPAM1      NG311     CG2D1O      NG321
    9    14    16    17	 9 ;     CG2DC1     CG2D1O      NG321     HGPAM2
    9    14    16    18	 9 ;     CG2DC1     CG2D1O      NG321     HGPAM2
   13    14    16    17	 9 ;      NG311     CG2D1O      NG321     HGPAM2
   13    14    16    18	 9 ;      NG311     CG2D1O      NG321     HGPAM2
    1    19    20    23	 9 ;     CG2R61      CG324      NG3P1      CG324
    1    19    20    21	 9 ;     CG2R61      CG324      NG3P1      CG334
    1    19    20    22	 9 ;     CG2R61      CG324      NG3P1       HGP2
   41    19    20    23	 9 ;       HGA2      CG324      NG3P1      CG324
   41    19    20    21	 9 ;       HGA2      CG324      NG3P1      CG334
   41    19    20    22	 9 ;       HGA2      CG324      NG3P1       HGP2
   42    19    20    23	 9 ;       HGA2      CG324      NG3P1      CG324
   42    19    20    21	 9 ;       HGA2      CG324      NG3P1      CG334
   42    19    20    22	 9 ;       HGA2      CG324      NG3P1       HGP2
   19    20    23    24	 9 ;      CG324      NG3P1      CG324     CG2R51
   19    20    23    46	 9 ;      CG324      NG3P1      CG324       HGA2
   19    20    23    47	 9 ;      CG324      NG3P1      CG324       HGA2
   21    20    23    24	 9 ;      CG334      NG3P1      CG324     CG2R51
   21    20    23    46	 9 ;      CG334      NG3P1      CG324       HGA2
   21    20    23    47	 9 ;      CG334      NG3P1      CG324       HGA2
   22    20    23    24	 9 ;       HGP2      NG3P1      CG324     CG2R51
   22    20    23    46	 9 ;       HGP2      NG3P1      CG324       HGA2
   22    20    23    47	 9 ;       HGP2      NG3P1      CG324       HGA2
   23    20    21    43	 9 ;      CG324      NG3P1      CG334       HGA3
   23    20    21    44	 9 ;      CG324      NG3P1      CG334       HGA3
   23    20    21    45	 9 ;      CG324      NG3P1      CG334       HGA3
   19    20    21    43	 9 ;      CG324      NG3P1      CG334       HGA3
   19    20    21    44	 9 ;      CG324      NG3P1      CG334       HGA3
   19    20    21    45	 9 ;      CG324      NG3P1      CG334       HGA3
   22    20    21    43	 9 ;       HGP2      NG3P1      CG334       HGA3
   22    20    21    44	 9 ;       HGP2      NG3P1      CG334       HGA3
   22    20    21    45	 9 ;       HGP2      NG3P1      CG334       HGA3
   20    23    24    28	 9 ;      NG3P1      CG324     CG2R51     OG2R50
   20    23    24    25	 9 ;      NG3P1      CG324     CG2R51     CG2R51
   46    23    24    28	 9 ;       HGA2      CG324     CG2R51     OG2R50
   46    23    24    25	 9 ;       HGA2      CG324     CG2R51     CG2R51
   47    23    24    28	 9 ;       HGA2      CG324     CG2R51     OG2R50
   47    23    24    25	 9 ;       HGA2      CG324     CG2R51     CG2R51
   23    24    28    27	 9 ;      CG324     CG2R51     OG2R50     CG2R51
   25    24    28    27	 9 ;     CG2R51     CG2R51     OG2R50     CG2R51
   28    24    25    26	 9 ;     OG2R50     CG2R51     CG2R51     CG2R51
   28    24    25    48	 9 ;     OG2R50     CG2R51     CG2R51      HGR51
   23    24    25    26	 9 ;      CG324     CG2R51     CG2R51     CG2R51
   23    24    25    48	 9 ;      CG324     CG2R51     CG2R51      HGR51
   24    25    26    27	 9 ;     CG2R51     CG2R51     CG2R51     CG2R51
   24    25    26    49	 9 ;     CG2R51     CG2R51     CG2R51      HGR51
   48    25    26    27	 9 ;      HGR51     CG2R51     CG2R51     CG2R51
   48    25    26    49	 9 ;      HGR51     CG2R51     CG2R51      HGR51
   25    26    27    28	 9 ;     CG2R51     CG2R51     CG2R51     OG2R50
   25    26    27    50	 9 ;     CG2R51     CG2R51     CG2R51      HGR52
   49    26    27    28	 9 ;      HGR51     CG2R51     CG2R51     OG2R50
   49    26    27    50	 9 ;      HGR51     CG2R51     CG2R51      HGR52
   26    27    28    24	 9 ;     CG2R51     CG2R51     OG2R50     CG2R51
   50    27    28    24	 9 ;      HGR52     CG2R51     OG2R50     CG2R51

[ dihedrals ]
;	ai	  aj	ak	  al funct			  c0			c1			  c2			c3
   14     9    13    16	 2

