GROningen MAchine for Chemical Simulation
   42
    1LIG     C1    1   8.540   1.722   9.506
    1LIG     O5    2   8.658   1.473   9.500
    1LIG     C3    3   8.533   1.406   9.309
    1LIG     C4    4   8.439   1.441   9.211
    1LIG     C5    5   8.601   1.283   9.302
    1LIG     C6    6   8.417   1.352   9.105
    1LIG     C7    7   8.575   1.195   9.198
    1LIG     C8    8   8.483   1.230   9.099
    1LIG     C9    9   8.485   1.623   9.433
    1LIG    C10   10   8.352   1.620   9.366
    1LIG    C11   11   8.567   1.498   9.421
    1LIG    C12   12   8.366   1.574   9.221
    1LIG     N1   13   8.385   1.852   9.631
    1LIG     O4   14   8.504   1.952   9.460
    1LIG     C2   15   8.477   1.854   9.528
    1LIG     H3   16   8.349   1.759   9.651
    1LIG    C13   17   8.295   1.967   9.652
    1LIG    C15   18   8.232   1.970   9.794
    1LIG    C16   19   8.330   1.934   9.906
    1LIG    C17   20   8.172   2.107   9.825
    1LIG     O2   21   8.093   1.875   9.550
    1LIG    C14   22   8.184   1.957   9.547
    1LIG     O3   23   8.200   2.042   9.443
    1LIG     H2   24   8.142   2.120   9.448
    1LIG     O1   25   8.332   1.379   9.002
    1LIG     H1   26   8.371   1.445   8.943
    1LIG     H4   27   8.632   1.705   9.550
    1LIG     H5   28   8.670   1.259   9.375
    1LIG     H6   29   8.624   1.104   9.193
    1LIG     H7   30   8.464   1.165   9.021
    1LIG     H8   31   8.288   1.552   9.418
    1LIG     H9   32   8.310   1.718   9.366
    1LIG    H10   33   8.269   1.563   9.178
    1LIG    H11   34   8.423   1.647   9.168
    1LIG     HA   35   8.352   2.057   9.643
    1LIG     HB   36   8.156   1.895   9.792
    1LIG   HG21   37   8.408   2.007   9.910
    1LIG   HG22   38   8.373   1.838   9.886
    1LIG   HG23   39   8.278   1.931   9.999
    1LIG   HG11   40   8.250   2.181   9.827
    1LIG   HG12   41   8.123   2.105   9.920
    1LIG   HG13   42   8.100   2.133   9.750
   0.00000   0.00000   0.00000
