GRowing Old MAkes el Chrono Sweat
   63
    1LIG      S    1  -1.839   0.554  -1.390
    1LIG     O1    2  -1.705   0.581  -1.340
    1LIG     O2    3  -1.953   0.536  -1.302
    1LIG     C1    4  -1.877   0.679  -1.510
    1LIG     C2    5  -1.767   0.686  -1.618
    1LIG     C3    6  -1.752   0.550  -1.691
    1LIG     C4    7  -1.719   0.430  -1.598
    1LIG     C5    8  -1.826   0.409  -1.492
    1LIG     N1    9  -1.581   0.450  -1.540
    1LIG     H1   10  -1.551   0.546  -1.560
    1LIG     H2   11  -1.582   0.442  -1.436
    1LIG     C6   12  -1.472   0.357  -1.582
    1LIG     C7   13  -1.391   0.320  -1.461
    1LIG     C8   14  -1.371   0.184  -1.427
    1LIG     C9   15  -1.309   0.146  -1.307
    1LIG    C10   16  -1.269   0.250  -1.220
    1LIG    C11   17  -1.288   0.384  -1.253
    1LIG    C12   18  -1.347   0.420  -1.373
    1LIG    C13   19  -1.275  -0.001  -1.274
    1LIG    C14   20  -1.385  -0.089  -1.338
    1LIG    C15   21  -1.138  -0.043  -1.331
    1LIG    C16   22  -1.271  -0.032  -1.123
    1LIG     O3   23  -1.648   0.552  -1.789
    1LIG     H3   24  -1.646   0.470  -1.842
    1LIG    C17   25  -1.797   0.801  -1.715
    1LIG    C18   26  -1.679   0.893  -1.735
    1LIG    C19   27  -1.654   0.998  -1.645
    1LIG    C20   28  -1.557   1.094  -1.676
    1LIG    C21   29  -1.481   1.087  -1.793
    1LIG    C22   30  -1.503   0.979  -1.878
    1LIG      F   31  -1.434   0.969  -1.993
    1LIG    C23   32  -1.599   0.882  -1.849
    1LIG     O4   33  -1.536   1.200  -1.591
    1LIG     H4   34  -1.446   1.235  -1.604
    1LIG     N2   35  -1.406   1.199  -1.835
    1LIG     H5   36  -1.357   1.185  -1.923
    1LIG     H6   37  -1.350   1.238  -1.760
    1LIG    HC2   38  -1.884   0.775  -1.460
    1LIG    HC3   39  -1.972   0.655  -1.557
    1LIG     HC   40  -1.673   0.708  -1.568
    1LIG    HC1   41  -1.846   0.529  -1.742
    1LIG    HC4   42  -1.717   0.340  -1.659
    1LIG    HC5   43  -1.922   0.390  -1.541
    1LIG    HC6   44  -1.799   0.324  -1.430
    1LIG    HC7   45  -1.515   0.267  -1.626
    1LIG    HC8   46  -1.408   0.406  -1.654
    1LIG    HC9   47  -1.405   0.108  -1.495
    1LIG   HC10   48  -1.224   0.225  -1.126
    1LIG   HC11   49  -1.256   0.461  -1.184
    1LIG   HC12   50  -1.359   0.524  -1.400
    1LIG   HC13   51  -1.824   0.759  -1.812
    1LIG   HC14   52  -1.881   0.859  -1.677
    1LIG   HC15   53  -1.709   1.004  -1.552
    1LIG   HC16   54  -1.611   0.797  -1.915
    1LIG   HC17   55  -1.366  -0.003  -1.077
    1LIG   HC18   56  -1.191   0.025  -1.076
    1LIG   HC19   57  -1.254  -0.138  -1.108
    1LIG   HC20   58  -1.135  -0.024  -1.438
    1LIG   HC21   59  -1.123  -0.150  -1.313
    1LIG   HC22   60  -1.059   0.014  -1.281
    1LIG   HC23   61  -1.380  -0.189  -1.296
    1LIG   HC24   62  -1.369  -0.093  -1.446
    1LIG   HC25   63  -1.483  -0.046  -1.317
   0.00000   0.00000   0.00000
