GROtesk MACabre and Sinister
   47
    1LIG     C1    1  -1.419   0.428  -1.652
    1LIG     N1    2  -1.359   0.367  -1.777
    1LIG    HN3    3  -1.362   0.269  -1.805
    1LIG     C2    4  -1.305   0.465  -1.842
    1LIG     N2    5  -1.326   0.589  -1.793
    1LIG     C3    6  -1.267   0.712  -1.839
    1LIG     C4    7  -1.409   0.579  -1.685
    1LIG     O1    8  -1.459   0.673  -1.625
    1LIG     C5    9  -1.561   0.375  -1.629
    1LIG     C6   10  -1.634   0.417  -1.516
    1LIG     C7   11  -1.766   0.376  -1.501
    1LIG     N3   12  -1.831   0.298  -1.589
    1LIG     C8   13  -1.760   0.259  -1.698
    1LIG    HN4   14  -1.928   0.269  -1.575
    1LIG     C9   15  -1.628   0.294  -1.722
    1LIG    C10   16  -1.328   0.395  -1.531
    1LIG    C11   17  -1.290   0.261  -1.507
    1LIG    C12   18  -1.203   0.227  -1.403
    1LIG    C13   19  -1.155   0.329  -1.320
    1LIG    C14   20  -1.194   0.461  -1.340
    1LIG    C15   21  -1.281   0.494  -1.444
    1LIG    C16   22  -1.163   0.089  -1.385
    1LIG    C17   23  -1.077   0.021  -1.469
    1LIG     O2   24  -1.058  -0.106  -1.426
    1LIG    C18   25  -1.131  -0.121  -1.312
    1LIG    C19   26  -1.197  -0.004  -1.283
    1LIG     N4   27  -1.233   0.444  -1.954
    1LIG     H1   28  -1.260   0.359  -2.003
    1LIG     H2   29  -1.219   0.522  -2.016
    1LIG    HN2   30  -1.273   0.352  -1.728
    1LIG     HC   31  -1.215   0.456  -1.782
    1LIG    HC1   32  -1.304   0.795  -1.779
    1LIG    HC2   33  -1.158   0.706  -1.829
    1LIG    HC3   34  -1.293   0.729  -1.943
    1LIG    HC4   35  -1.588   0.480  -1.442
    1LIG    HC5   36  -1.820   0.410  -1.414
    1LIG    HC6   37  -1.810   0.196  -1.770
    1LIG    HC7   38  -1.578   0.260  -1.811
    1LIG    HC8   39  -1.329   0.183  -1.570
    1LIG    HC9   40  -1.087   0.305  -1.240
    1LIG   HC10   41  -1.156   0.539  -1.275
    1LIG   HC11   42  -1.311   0.596  -1.458
    1LIG   HC12   43  -1.031   0.063  -1.557
    1LIG   HC13   44  -1.137  -0.211  -1.253
    1LIG   HC14   45  -1.263   0.014  -1.198
    1LIG    HN1   46  -1.141   0.423  -1.920
    1LIG    H22   47  -1.733   0.288  -1.447
   0.00000   0.00000   0.00000
