; Created by cgenff_charmm2gmx.py

[ moleculetype ]
; Name			   nrexcl
LIG				 3

[ atoms ]
;	 nr		  type	resnr residue  atom   cgnr	   charge		mass  typeB    chargeB		massB
; residue	 1 LIG rtp LIG q	qsum
     1      CG311      1    LIG     C1      1      0.089     12.011   ;
     2      CG324      1    LIG     C2      2      0.191     12.011   ;
     3      NG3P2      1    LIG     N1      3     -0.445     14.007   ;
     4       HGP2      1    LIG     H1      4      0.339      1.008   ;
     5       HGP2      1    LIG     H2      5      0.339      1.008   ;
     6      CG314      1    LIG     C3      6      0.361     12.011   ;
     7      CG321      1    LIG     C4      7     -0.254     12.011   ;
     8     CG3C41      1    LIG     C5      8      0.278     12.011   ;
     9     OG3C61      1    LIG     O1      9     -0.389     15.999   ;
    10     CG3C41      1    LIG     C6     10     -0.203     12.011   ;
    11     CG3C41      1    LIG     C7     11     -0.203     12.011   ;
    12      CG311      1    LIG     C8     12      0.450     12.011   ;
    13      NG311      1    LIG     N2     13     -0.567     14.007   ;
    14     CG2DC1      1    LIG     C9     14     -0.330     12.011   ;
    15     CG2D2O      1    LIG    C10     15     -0.109     12.011   ;
    16     HGPAM1      1    LIG    HN1     16      0.368      1.008   ;
    17     CG2DC2      1    LIG    C11     17      0.091     12.011   ;
    18     CG2DC1      1    LIG    C12     18     -0.108     12.011   ;
    19     CG3C41      1    LIG    C13     19     -0.168     12.011   ;
    20      CG321      1    LIG    C14     20     -0.131     12.011   ;
    21      CG301      1    LIG    C15     21     -0.287     12.011   ;
    22      CG331      1    LIG    C16     22     -0.197     12.011   ;
    23      CG331      1    LIG    C17     23     -0.197     12.011   ;
    24      CG331      1    LIG    C18     24     -0.197     12.011   ;
    25      OG311      1    LIG     O2     25     -0.625     15.999   ;
    26       HGP1      1    LIG     H3     26      0.415      1.008   ;
    27      CG311      1    LIG    C19     27     -0.003     12.011   ;
    28      NG2S1      1    LIG     N3     28     -0.371     14.007   ;
    29      CG2O1      1    LIG    C20     29      0.461     12.011   ;
    30      OG2D1      1    LIG     O3     30     -0.503     15.999   ;
    31       HGP1      1    LIG     H4     31      0.269      1.008   ;
    32      CG311      1    LIG    C21     32      0.083     12.011   ;
    33      CG331      1    LIG    C22     33     -0.271     12.011   ;
    34      OG301      1    LIG     O4     34     -0.306     15.999   ;
    35      CG331      1    LIG    C23     35     -0.095     12.011   ;
    36      CG321      1    LIG    C24     36     -0.111     12.011   ;
    37     CG2R61      1    LIG    C25     37     -0.015     12.011   ;
    38     CG2R61      1    LIG    C26     38     -0.178     12.011   ;
    39     CG2R61      1    LIG    C27     39      0.103     12.011   ;
    40     CG2R61      1    LIG    C28     40     -0.171     12.011   ;
    41     CG2R61      1    LIG    C29     41     -0.108     12.011   ;
    42     CG2R61      1    LIG    C30     42     -0.123     12.011   ;
    43     CG3C51      1    LIG    C31     43      0.136     12.011   ;
    44     NG3C51      1    LIG     N4     44     -0.402     14.007   ;
    45     CG2R51      1    LIG    C32     45     -0.034     12.011   ;
    46       HGP1      1    LIG    HN2     46      0.225      1.008   ;
    47     CG2R51      1    LIG    C33     47     -0.165     12.011   ;
    48      SG311      1    LIG      S     48     -0.319     32.060   ;
    49       HGA1      1    LIG     HC     49      0.090      1.008   ;
    50       HGA2      1    LIG    HC2     50      0.090      1.008   ;
    51       HGA2      1    LIG    HC3     51      0.090      1.008   ;
    52       HGA1      1    LIG    HC1     52      0.090      1.008   ;
    53       HGA2      1    LIG    HC4     53      0.090      1.008   ;
    54       HGA2      1    LIG    HC5     54      0.090      1.008   ;
    55       HGA2      1    LIG    HC6     55      0.090      1.008   ;
    56       HGA2      1    LIG    HC7     56      0.090      1.008   ;
    57       HGA2      1    LIG    HC8     57      0.090      1.008   ;
    58       HGA2      1    LIG    HC9     58      0.090      1.008   ;
    59       HGA4      1    LIG   HC10     59      0.158      1.008   ;
    60       HGA4      1    LIG   HC11     60      0.143      1.008   ;
    61       HGA2      1    LIG   HC12     61      0.090      1.008   ;
    62       HGA2      1    LIG   HC13     62      0.090      1.008   ;
    63       HGA2      1    LIG   HC14     63      0.090      1.008   ;
    64       HGA2      1    LIG   HC15     64      0.090      1.008   ;
    65       HGA1      1    LIG   HC16     65      0.090      1.008   ;
    66       HGA1      1    LIG   HC17     66      0.090      1.008   ;
    67       HGA2      1    LIG   HC18     67      0.090      1.008   ;
    68       HGA2      1    LIG   HC19     68      0.090      1.008   ;
    69      HGR61      1    LIG   HC20     69      0.116      1.008   ;
    70      HGR61      1    LIG   HC21     70      0.116      1.008   ;
    71      HGR61      1    LIG   HC22     71      0.116      1.008   ;
    72      HGR61      1    LIG   HC23     72      0.116      1.008   ;
    73      HGR52      1    LIG   HC24     73      0.239      1.008   ;
    74      HGR52      1    LIG   HC25     74      0.233      1.008   ;
    75       HGA3      1    LIG   HC26     75      0.090      1.008   ;
    76       HGA3      1    LIG   HC27     76      0.090      1.008   ;
    77       HGA3      1    LIG   HC28     77      0.090      1.008   ;
    78       HGA3      1    LIG   HC29     78      0.090      1.008   ;
    79       HGA3      1    LIG   HC30     79      0.090      1.008   ;
    80       HGA3      1    LIG   HC31     80      0.090      1.008   ;
    81       HGA3      1    LIG   HC32     81      0.090      1.008   ;
    82       HGA3      1    LIG   HC33     82      0.090      1.008   ;
    83       HGA3      1    LIG   HC34     83      0.090      1.008   ;
    84       HGA3      1    LIG   HC35     84      0.090      1.008   ;
    85       HGA3      1    LIG   HC36     85      0.090      1.008   ;
    86       HGA3      1    LIG   HC37     86      0.090      1.008   ;
    87       HGA3      1    LIG   HC38     87      0.090      1.008   ;
    88       HGA3      1    LIG   HC39     88      0.090      1.008   ;
    89       HGA3      1    LIG   HC40     89      0.090      1.008   ;
    90       HGA1      1    LIG    H48     90      0.090      1.008   ;
    91       HGA1      1    LIG    H49     91      0.090      1.008   ;

[ bonds ]
;	ai	  aj funct			  c0			c1			  c2			c3
    1     2	 1 ;       CG311      CG324
    1    27	 1 ;       CG311      CG311
    1    25	 1 ;       CG311      OG311
    1    49	 1 ;       CG311       HGA1
    2     3	 1 ;       CG324      NG3P2
    2    50	 1 ;       CG324       HGA2
    2    51	 1 ;       CG324       HGA2
    3     6	 1 ;       NG3P2      CG314
    3     4	 1 ;       NG3P2       HGP2
    3     5	 1 ;       NG3P2       HGP2
    6    14	 1 ;       CG314     CG2DC1
    6     7	 1 ;       CG314      CG321
    6    52	 1 ;       CG314       HGA1
    7     8	 1 ;       CG321     CG3C41
    7    53	 1 ;       CG321       HGA2
    7    54	 1 ;       CG321       HGA2
    8     9	 1 ;      CG3C41     OG3C61
    8    11	 1 ;      CG3C41     CG3C41
    8    10	 1 ;      CG3C41     CG3C41
    9    12	 1 ;      OG3C61      CG311
   10    19	 1 ;      CG3C41     CG3C41
   10    55	 1 ;      CG3C41       HGA2
   10    56	 1 ;      CG3C41       HGA2
   11    19	 1 ;      CG3C41     CG3C41
   11    57	 1 ;      CG3C41       HGA2
   11    58	 1 ;      CG3C41       HGA2
   12    13	 1 ;       CG311      NG311
   12    14	 1 ;       CG311     CG2DC1
   12    90	 1 ;       CG311       HGA1
   13    16	 1 ;       NG311     HGPAM1
   13    15	 1 ;       NG311     CG2D2O
   14    18	 1 ;      CG2DC1     CG2DC1
   15    17	 1 ;      CG2D2O     CG2DC2
   15    59	 1 ;      CG2D2O       HGA4
   17    20	 1 ;      CG2DC2      CG321
   17    18	 1 ;      CG2DC2     CG2DC1
   18    60	 1 ;      CG2DC1       HGA4
   19    61	 1 ;      CG3C41       HGA2
   19    62	 1 ;      CG3C41       HGA2
   20    21	 1 ;       CG321      CG301
   20    63	 1 ;       CG321       HGA2
   20    64	 1 ;       CG321       HGA2
   21    24	 1 ;       CG301      CG331
   21    22	 1 ;       CG301      CG331
   21    23	 1 ;       CG301      CG331
   22    84	 1 ;       CG331       HGA3
   22    85	 1 ;       CG331       HGA3
   22    86	 1 ;       CG331       HGA3
   23    78	 1 ;       CG331       HGA3
   23    79	 1 ;       CG331       HGA3
   23    80	 1 ;       CG331       HGA3
   24    75	 1 ;       CG331       HGA3
   24    76	 1 ;       CG331       HGA3
   24    77	 1 ;       CG331       HGA3
   25    26	 1 ;       OG311       HGP1
   27    28	 1 ;       CG311      NG2S1
   27    36	 1 ;       CG311      CG321
   27    65	 1 ;       CG311       HGA1
   28    31	 1 ;       NG2S1       HGP1
   28    29	 1 ;       NG2S1      CG2O1
   29    32	 1 ;       CG2O1      CG311
   29    30	 1 ;       CG2O1      OG2D1
   32    34	 1 ;       CG311      OG301
   32    33	 1 ;       CG311      CG331
   32    66	 1 ;       CG311       HGA1
   33    81	 1 ;       CG331       HGA3
   33    82	 1 ;       CG331       HGA3
   33    83	 1 ;       CG331       HGA3
   34    35	 1 ;       OG301      CG331
   35    87	 1 ;       CG331       HGA3
   35    88	 1 ;       CG331       HGA3
   35    89	 1 ;       CG331       HGA3
   36    37	 1 ;       CG321     CG2R61
   36    67	 1 ;       CG321       HGA2
   36    68	 1 ;       CG321       HGA2
   37    42	 1 ;      CG2R61     CG2R61
   37    38	 1 ;      CG2R61     CG2R61
   38    39	 1 ;      CG2R61     CG2R61
   38    69	 1 ;      CG2R61      HGR61
   39    40	 1 ;      CG2R61     CG2R61
   39    43	 1 ;      CG2R61     CG3C51
   40    41	 1 ;      CG2R61     CG2R61
   40    70	 1 ;      CG2R61      HGR61
   41    42	 1 ;      CG2R61     CG2R61
   41    71	 1 ;      CG2R61      HGR61
   42    72	 1 ;      CG2R61      HGR61
   43    44	 1 ;      CG3C51     NG3C51
   43    48	 1 ;      CG3C51      SG311
   43    91	 1 ;      CG3C51       HGA1
   44    46	 1 ;      NG3C51       HGP1
   44    45	 1 ;      NG3C51     CG2R51
   45    47	 1 ;      CG2R51     CG2R51
   45    73	 1 ;      CG2R51      HGR52
   47    48	 1 ;      CG2R51      SG311
   47    74	 1 ;      CG2R51      HGR52

[ pairs ]
;	ai	  aj funct			  c0			c1			  c2			c3
    1     6	 1
    1     4	 1
    1     5	 1
    1    31	 1
    1    29	 1
    1    37	 1
    1    67	 1
    1    68	 1
    2    28	 1
    2    36	 1
    2    65	 1
    2    26	 1
    2    14	 1
    2     7	 1
    2    52	 1
    3    27	 1
    3    25	 1
    3    49	 1
    3    12	 1
    3    18	 1
    3     8	 1
    3    53	 1
    3    54	 1
    4    50	 1
    4    51	 1
    4    14	 1
    4     7	 1
    4    52	 1
    5    50	 1
    5    51	 1
    5    14	 1
    5     7	 1
    5    52	 1
    6    50	 1
    6    51	 1
    6     9	 1
    6    11	 1
    6    10	 1
    6    13	 1
    6    90	 1
    6    17	 1
    6    60	 1
    7    12	 1
    7    18	 1
    7    19	 1
    7    57	 1
    7    58	 1
    7    55	 1
    7    56	 1
    8    14	 1
    8    52	 1
    8    13	 1
    8    90	 1
    8    61	 1
    8    62	 1
    9    53	 1
    9    54	 1
    9    19	 1
    9    57	 1
    9    58	 1
    9    55	 1
    9    56	 1
    9    16	 1
    9    15	 1
    9    18	 1
   10    53	 1
   10    54	 1
   10    12	 1
   10    57	 1
   10    58	 1
   11    53	 1
   11    54	 1
   11    12	 1
   11    55	 1
   11    56	 1
   12    52	 1
   12    17	 1
   12    59	 1
   12    60	 1
   13    18	 1
   13    20	 1
   14    53	 1
   14    54	 1
   14    16	 1
   14    15	 1
   14    20	 1
   15    90	 1
   15    21	 1
   15    63	 1
   15    64	 1
   15    60	 1
   16    90	 1
   16    17	 1
   16    59	 1
   17    24	 1
   17    22	 1
   17    23	 1
   18    52	 1
   18    90	 1
   18    59	 1
   18    21	 1
   18    63	 1
   18    64	 1
   20    59	 1
   20    60	 1
   20    75	 1
   20    76	 1
   20    77	 1
   20    84	 1
   20    85	 1
   20    86	 1
   20    78	 1
   20    79	 1
   20    80	 1
   22    63	 1
   22    64	 1
   22    75	 1
   22    76	 1
   22    77	 1
   22    78	 1
   22    79	 1
   22    80	 1
   23    63	 1
   23    64	 1
   23    75	 1
   23    76	 1
   23    77	 1
   23    84	 1
   23    85	 1
   23    86	 1
   24    63	 1
   24    64	 1
   24    84	 1
   24    85	 1
   24    86	 1
   24    78	 1
   24    79	 1
   24    80	 1
   25    50	 1
   25    51	 1
   25    28	 1
   25    36	 1
   25    65	 1
   26    27	 1
   26    49	 1
   27    50	 1
   27    51	 1
   27    32	 1
   27    30	 1
   27    42	 1
   27    38	 1
   28    49	 1
   28    37	 1
   28    67	 1
   28    68	 1
   28    34	 1
   28    33	 1
   28    66	 1
   29    36	 1
   29    65	 1
   29    35	 1
   29    81	 1
   29    82	 1
   29    83	 1
   30    31	 1
   30    34	 1
   30    33	 1
   30    66	 1
   31    36	 1
   31    65	 1
   31    32	 1
   32    87	 1
   32    88	 1
   32    89	 1
   33    35	 1
   34    81	 1
   34    82	 1
   34    83	 1
   35    66	 1
   36    49	 1
   36    41	 1
   36    72	 1
   36    39	 1
   36    69	 1
   37    65	 1
   37    40	 1
   37    43	 1
   37    71	 1
   38    67	 1
   38    68	 1
   38    41	 1
   38    72	 1
   38    70	 1
   38    44	 1
   38    48	 1
   38    91	 1
   39    42	 1
   39    71	 1
   39    46	 1
   39    45	 1
   39    47	 1
   40    69	 1
   40    44	 1
   40    48	 1
   40    91	 1
   40    72	 1
   41    43	 1
   42    67	 1
   42    68	 1
   42    69	 1
   42    70	 1
   43    69	 1
   43    70	 1
   43    73	 1
   43    74	 1
   44    74	 1
   45    91	 1
   46    48	 1
   46    91	 1
   46    47	 1
   46    73	 1
   47    91	 1
   48    73	 1
   49    50	 1
   49    51	 1
   49    65	 1
   52    53	 1
   52    54	 1
   55    61	 1
   55    62	 1
   56    61	 1
   56    62	 1
   57    61	 1
   57    62	 1
   58    61	 1
   58    62	 1
   65    67	 1
   65    68	 1
   66    81	 1
   66    82	 1
   66    83	 1
   70    71	 1
   71    72	 1
   73    74	 1

[ angles ]
;	ai	  aj	ak funct			c0			  c1			c2			  c3
    2     1    27	5 ;      CG324      CG311      CG311
    2     1    25	5 ;      CG324      CG311      OG311
    2     1    49	5 ;      CG324      CG311       HGA1
   27     1    25	5 ;      CG311      CG311      OG311
   27     1    49	5 ;      CG311      CG311       HGA1
   25     1    49	5 ;      OG311      CG311       HGA1
    3     2     1	5 ;      NG3P2      CG324      CG311
    3     2    50	5 ;      NG3P2      CG324       HGA2
    3     2    51	5 ;      NG3P2      CG324       HGA2
    1     2    50	5 ;      CG311      CG324       HGA2
    1     2    51	5 ;      CG311      CG324       HGA2
   50     2    51	5 ;       HGA2      CG324       HGA2
    6     3     4	5 ;      CG314      NG3P2       HGP2
    6     3     5	5 ;      CG314      NG3P2       HGP2
    6     3     2	5 ;      CG314      NG3P2      CG324
    4     3     5	5 ;       HGP2      NG3P2       HGP2
    4     3     2	5 ;       HGP2      NG3P2      CG324
    5     3     2	5 ;       HGP2      NG3P2      CG324
   14     6     7	5 ;     CG2DC1      CG314      CG321
   14     6     3	5 ;     CG2DC1      CG314      NG3P2
   14     6    52	5 ;     CG2DC1      CG314       HGA1
    7     6     3	5 ;      CG321      CG314      NG3P2
    7     6    52	5 ;      CG321      CG314       HGA1
    3     6    52	5 ;      NG3P2      CG314       HGA1
    8     7     6	5 ;     CG3C41      CG321      CG314
    8     7    53	5 ;     CG3C41      CG321       HGA2
    8     7    54	5 ;     CG3C41      CG321       HGA2
    6     7    53	5 ;      CG314      CG321       HGA2
    6     7    54	5 ;      CG314      CG321       HGA2
   53     7    54	5 ;       HGA2      CG321       HGA2
    9     8    11	5 ;     OG3C61     CG3C41     CG3C41
    9     8    10	5 ;     OG3C61     CG3C41     CG3C41
    9     8     7	5 ;     OG3C61     CG3C41      CG321
   11     8    10	5 ;     CG3C41     CG3C41     CG3C41
   11     8     7	5 ;     CG3C41     CG3C41      CG321
   10     8     7	5 ;     CG3C41     CG3C41      CG321
   12     9     8	5 ;      CG311     OG3C61     CG3C41
    8    10    19	5 ;     CG3C41     CG3C41     CG3C41
    8    10    55	5 ;     CG3C41     CG3C41       HGA2
    8    10    56	5 ;     CG3C41     CG3C41       HGA2
   19    10    55	5 ;     CG3C41     CG3C41       HGA2
   19    10    56	5 ;     CG3C41     CG3C41       HGA2
   55    10    56	5 ;       HGA2     CG3C41       HGA2
    8    11    19	5 ;     CG3C41     CG3C41     CG3C41
    8    11    57	5 ;     CG3C41     CG3C41       HGA2
    8    11    58	5 ;     CG3C41     CG3C41       HGA2
   19    11    57	5 ;     CG3C41     CG3C41       HGA2
   19    11    58	5 ;     CG3C41     CG3C41       HGA2
   57    11    58	5 ;       HGA2     CG3C41       HGA2
   13    12     9	5 ;      NG311      CG311     OG3C61
   13    12    14	5 ;      NG311      CG311     CG2DC1
   13    12    90	5 ;      NG311      CG311       HGA1
    9    12    14	5 ;     OG3C61      CG311     CG2DC1
    9    12    90	5 ;     OG3C61      CG311       HGA1
   14    12    90	5 ;     CG2DC1      CG311       HGA1
   16    13    15	5 ;     HGPAM1      NG311     CG2D2O
   16    13    12	5 ;     HGPAM1      NG311      CG311
   15    13    12	5 ;     CG2D2O      NG311      CG311
   12    14    18	5 ;      CG311     CG2DC1     CG2DC1
   12    14     6	5 ;      CG311     CG2DC1      CG314
   18    14     6	5 ;     CG2DC1     CG2DC1      CG314
   13    15    17	5 ;      NG311     CG2D2O     CG2DC2
   13    15    59	5 ;      NG311     CG2D2O       HGA4
   17    15    59	5 ;     CG2DC2     CG2D2O       HGA4
   15    17    20	5 ;     CG2D2O     CG2DC2      CG321
   15    17    18	5 ;     CG2D2O     CG2DC2     CG2DC1
   20    17    18	5 ;      CG321     CG2DC2     CG2DC1
   17    18    14	5 ;     CG2DC2     CG2DC1     CG2DC1
   17    18    60	5 ;     CG2DC2     CG2DC1       HGA4
   14    18    60	5 ;     CG2DC1     CG2DC1       HGA4
   11    19    10	5 ;     CG3C41     CG3C41     CG3C41
   11    19    61	5 ;     CG3C41     CG3C41       HGA2
   11    19    62	5 ;     CG3C41     CG3C41       HGA2
   10    19    61	5 ;     CG3C41     CG3C41       HGA2
   10    19    62	5 ;     CG3C41     CG3C41       HGA2
   61    19    62	5 ;       HGA2     CG3C41       HGA2
   17    20    21	5 ;     CG2DC2      CG321      CG301
   17    20    63	5 ;     CG2DC2      CG321       HGA2
   17    20    64	5 ;     CG2DC2      CG321       HGA2
   21    20    63	5 ;      CG301      CG321       HGA2
   21    20    64	5 ;      CG301      CG321       HGA2
   63    20    64	5 ;       HGA2      CG321       HGA2
   24    21    20	5 ;      CG331      CG301      CG321
   24    21    22	5 ;      CG331      CG301      CG331
   24    21    23	5 ;      CG331      CG301      CG331
   20    21    22	5 ;      CG321      CG301      CG331
   20    21    23	5 ;      CG321      CG301      CG331
   22    21    23	5 ;      CG331      CG301      CG331
   21    22    84	5 ;      CG301      CG331       HGA3
   21    22    85	5 ;      CG301      CG331       HGA3
   21    22    86	5 ;      CG301      CG331       HGA3
   84    22    85	5 ;       HGA3      CG331       HGA3
   84    22    86	5 ;       HGA3      CG331       HGA3
   85    22    86	5 ;       HGA3      CG331       HGA3
   21    23    78	5 ;      CG301      CG331       HGA3
   21    23    79	5 ;      CG301      CG331       HGA3
   21    23    80	5 ;      CG301      CG331       HGA3
   78    23    79	5 ;       HGA3      CG331       HGA3
   78    23    80	5 ;       HGA3      CG331       HGA3
   79    23    80	5 ;       HGA3      CG331       HGA3
   21    24    75	5 ;      CG301      CG331       HGA3
   21    24    76	5 ;      CG301      CG331       HGA3
   21    24    77	5 ;      CG301      CG331       HGA3
   75    24    76	5 ;       HGA3      CG331       HGA3
   75    24    77	5 ;       HGA3      CG331       HGA3
   76    24    77	5 ;       HGA3      CG331       HGA3
    1    25    26	5 ;      CG311      OG311       HGP1
   28    27     1	5 ;      NG2S1      CG311      CG311
   28    27    36	5 ;      NG2S1      CG311      CG321
   28    27    65	5 ;      NG2S1      CG311       HGA1
    1    27    36	5 ;      CG311      CG311      CG321
    1    27    65	5 ;      CG311      CG311       HGA1
   36    27    65	5 ;      CG321      CG311       HGA1
   31    28    29	5 ;       HGP1      NG2S1      CG2O1
   31    28    27	5 ;       HGP1      NG2S1      CG311
   29    28    27	5 ;      CG2O1      NG2S1      CG311
   32    29    28	5 ;      CG311      CG2O1      NG2S1
   32    29    30	5 ;      CG311      CG2O1      OG2D1
   28    29    30	5 ;      NG2S1      CG2O1      OG2D1
   34    32    33	5 ;      OG301      CG311      CG331
   34    32    29	5 ;      OG301      CG311      CG2O1
   34    32    66	5 ;      OG301      CG311       HGA1
   33    32    29	5 ;      CG331      CG311      CG2O1
   33    32    66	5 ;      CG331      CG311       HGA1
   29    32    66	5 ;      CG2O1      CG311       HGA1
   32    33    81	5 ;      CG311      CG331       HGA3
   32    33    82	5 ;      CG311      CG331       HGA3
   32    33    83	5 ;      CG311      CG331       HGA3
   81    33    82	5 ;       HGA3      CG331       HGA3
   81    33    83	5 ;       HGA3      CG331       HGA3
   82    33    83	5 ;       HGA3      CG331       HGA3
   35    34    32	5 ;      CG331      OG301      CG311
   34    35    87	5 ;      OG301      CG331       HGA3
   34    35    88	5 ;      OG301      CG331       HGA3
   34    35    89	5 ;      OG301      CG331       HGA3
   87    35    88	5 ;       HGA3      CG331       HGA3
   87    35    89	5 ;       HGA3      CG331       HGA3
   88    35    89	5 ;       HGA3      CG331       HGA3
   27    36    37	5 ;      CG311      CG321     CG2R61
   27    36    67	5 ;      CG311      CG321       HGA2
   27    36    68	5 ;      CG311      CG321       HGA2
   37    36    67	5 ;     CG2R61      CG321       HGA2
   37    36    68	5 ;     CG2R61      CG321       HGA2
   67    36    68	5 ;       HGA2      CG321       HGA2
   36    37    42	5 ;      CG321     CG2R61     CG2R61
   36    37    38	5 ;      CG321     CG2R61     CG2R61
   42    37    38	5 ;     CG2R61     CG2R61     CG2R61
   37    38    39	5 ;     CG2R61     CG2R61     CG2R61
   37    38    69	5 ;     CG2R61     CG2R61      HGR61
   39    38    69	5 ;     CG2R61     CG2R61      HGR61
   38    39    40	5 ;     CG2R61     CG2R61     CG2R61
   38    39    43	5 ;     CG2R61     CG2R61     CG3C51
   40    39    43	5 ;     CG2R61     CG2R61     CG3C51
   41    40    39	5 ;     CG2R61     CG2R61     CG2R61
   41    40    70	5 ;     CG2R61     CG2R61      HGR61
   39    40    70	5 ;     CG2R61     CG2R61      HGR61
   42    41    40	5 ;     CG2R61     CG2R61     CG2R61
   42    41    71	5 ;     CG2R61     CG2R61      HGR61
   40    41    71	5 ;     CG2R61     CG2R61      HGR61
   37    42    41	5 ;     CG2R61     CG2R61     CG2R61
   37    42    72	5 ;     CG2R61     CG2R61      HGR61
   41    42    72	5 ;     CG2R61     CG2R61      HGR61
   39    43    44	5 ;     CG2R61     CG3C51     NG3C51
   39    43    48	5 ;     CG2R61     CG3C51      SG311
   39    43    91	5 ;     CG2R61     CG3C51       HGA1
   44    43    48	5 ;     NG3C51     CG3C51      SG311
   44    43    91	5 ;     NG3C51     CG3C51       HGA1
   48    43    91	5 ;      SG311     CG3C51       HGA1
   43    44    46	5 ;     CG3C51     NG3C51       HGP1
   43    44    45	5 ;     CG3C51     NG3C51     CG2R51
   46    44    45	5 ;       HGP1     NG3C51     CG2R51
   44    45    47	5 ;     NG3C51     CG2R51     CG2R51
   44    45    73	5 ;     NG3C51     CG2R51      HGR52
   47    45    73	5 ;     CG2R51     CG2R51      HGR52
   48    47    45	5 ;      SG311     CG2R51     CG2R51
   48    47    74	5 ;      SG311     CG2R51      HGR52
   45    47    74	5 ;     CG2R51     CG2R51      HGR52
   43    48    47	5 ;     CG3C51      SG311     CG2R51

[ dihedrals ]
;	ai	  aj	ak	  al funct			  c0			c1			  c2			c3			  c4			c5
   27     1     2     3	 9 ;      CG311      CG311      CG324      NG3P2
   27     1     2    50	 9 ;      CG311      CG311      CG324       HGA2
   27     1     2    51	 9 ;      CG311      CG311      CG324       HGA2
   25     1     2     3	 9 ;      OG311      CG311      CG324      NG3P2
   25     1     2    50	 9 ;      OG311      CG311      CG324       HGA2
   25     1     2    51	 9 ;      OG311      CG311      CG324       HGA2
   49     1     2     3	 9 ;       HGA1      CG311      CG324      NG3P2
   49     1     2    50	 9 ;       HGA1      CG311      CG324       HGA2
   49     1     2    51	 9 ;       HGA1      CG311      CG324       HGA2
    2     1    27    28	 9 ;      CG324      CG311      CG311      NG2S1
    2     1    27    36	 9 ;      CG324      CG311      CG311      CG321
    2     1    27    65	 9 ;      CG324      CG311      CG311       HGA1
   25     1    27    28	 9 ;      OG311      CG311      CG311      NG2S1
   25     1    27    36	 9 ;      OG311      CG311      CG311      CG321
   25     1    27    65	 9 ;      OG311      CG311      CG311       HGA1
   49     1    27    28	 9 ;       HGA1      CG311      CG311      NG2S1
   49     1    27    36	 9 ;       HGA1      CG311      CG311      CG321
   49     1    27    65	 9 ;       HGA1      CG311      CG311       HGA1
    2     1    25    26	 9 ;      CG324      CG311      OG311       HGP1
   27     1    25    26	 9 ;      CG311      CG311      OG311       HGP1
   49     1    25    26	 9 ;       HGA1      CG311      OG311       HGP1
    1     2     3     6	 9 ;      CG311      CG324      NG3P2      CG314
    1     2     3     4	 9 ;      CG311      CG324      NG3P2       HGP2
    1     2     3     5	 9 ;      CG311      CG324      NG3P2       HGP2
   50     2     3     6	 9 ;       HGA2      CG324      NG3P2      CG314
   50     2     3     4	 9 ;       HGA2      CG324      NG3P2       HGP2
   50     2     3     5	 9 ;       HGA2      CG324      NG3P2       HGP2
   51     2     3     6	 9 ;       HGA2      CG324      NG3P2      CG314
   51     2     3     4	 9 ;       HGA2      CG324      NG3P2       HGP2
   51     2     3     5	 9 ;       HGA2      CG324      NG3P2       HGP2
    4     3     6    14	 9 ;       HGP2      NG3P2      CG314     CG2DC1
    4     3     6     7	 9 ;       HGP2      NG3P2      CG314      CG321
    4     3     6    52	 9 ;       HGP2      NG3P2      CG314       HGA1
    5     3     6    14	 9 ;       HGP2      NG3P2      CG314     CG2DC1
    5     3     6     7	 9 ;       HGP2      NG3P2      CG314      CG321
    5     3     6    52	 9 ;       HGP2      NG3P2      CG314       HGA1
    2     3     6    14	 9 ;      CG324      NG3P2      CG314     CG2DC1
    2     3     6     7	 9 ;      CG324      NG3P2      CG314      CG321
    2     3     6    52	 9 ;      CG324      NG3P2      CG314       HGA1
    7     6    14    12	 9 ;      CG321      CG314     CG2DC1      CG311
    7     6    14    18	 9 ;      CG321      CG314     CG2DC1     CG2DC1
    3     6    14    12	 9 ;      NG3P2      CG314     CG2DC1      CG311
    3     6    14    18	 9 ;      NG3P2      CG314     CG2DC1     CG2DC1
   52     6    14    12	 9 ;       HGA1      CG314     CG2DC1      CG311
   52     6    14    18	 9 ;       HGA1      CG314     CG2DC1     CG2DC1
   14     6     7     8	 9 ;     CG2DC1      CG314      CG321     CG3C41
   14     6     7    53	 9 ;     CG2DC1      CG314      CG321       HGA2
   14     6     7    54	 9 ;     CG2DC1      CG314      CG321       HGA2
    3     6     7     8	 9 ;      NG3P2      CG314      CG321     CG3C41
    3     6     7    53	 9 ;      NG3P2      CG314      CG321       HGA2
    3     6     7    54	 9 ;      NG3P2      CG314      CG321       HGA2
   52     6     7     8	 9 ;       HGA1      CG314      CG321     CG3C41
   52     6     7    53	 9 ;       HGA1      CG314      CG321       HGA2
   52     6     7    54	 9 ;       HGA1      CG314      CG321       HGA2
    6     7     8     9	 9 ;      CG314      CG321     CG3C41     OG3C61
    6     7     8    11	 9 ;      CG314      CG321     CG3C41     CG3C41
    6     7     8    10	 9 ;      CG314      CG321     CG3C41     CG3C41
   53     7     8     9	 9 ;       HGA2      CG321     CG3C41     OG3C61
   53     7     8    11	 9 ;       HGA2      CG321     CG3C41     CG3C41
   53     7     8    10	 9 ;       HGA2      CG321     CG3C41     CG3C41
   54     7     8     9	 9 ;       HGA2      CG321     CG3C41     OG3C61
   54     7     8    11	 9 ;       HGA2      CG321     CG3C41     CG3C41
   54     7     8    10	 9 ;       HGA2      CG321     CG3C41     CG3C41
   11     8     9    12	 9 ;     CG3C41     CG3C41     OG3C61      CG311
   10     8     9    12	 9 ;     CG3C41     CG3C41     OG3C61      CG311
    7     8     9    12	 9 ;      CG321     CG3C41     OG3C61      CG311
    9     8    11    19	 9 ;     OG3C61     CG3C41     CG3C41     CG3C41
    9     8    11    57	 9 ;     OG3C61     CG3C41     CG3C41       HGA2
    9     8    11    58	 9 ;     OG3C61     CG3C41     CG3C41       HGA2
   10     8    11    19	 9 ;     CG3C41     CG3C41     CG3C41     CG3C41
   10     8    11    57	 9 ;     CG3C41     CG3C41     CG3C41       HGA2
   10     8    11    58	 9 ;     CG3C41     CG3C41     CG3C41       HGA2
    7     8    11    19	 9 ;      CG321     CG3C41     CG3C41     CG3C41
    7     8    11    57	 9 ;      CG321     CG3C41     CG3C41       HGA2
    7     8    11    58	 9 ;      CG321     CG3C41     CG3C41       HGA2
    9     8    10    19	 9 ;     OG3C61     CG3C41     CG3C41     CG3C41
    9     8    10    55	 9 ;     OG3C61     CG3C41     CG3C41       HGA2
    9     8    10    56	 9 ;     OG3C61     CG3C41     CG3C41       HGA2
   11     8    10    19	 9 ;     CG3C41     CG3C41     CG3C41     CG3C41
   11     8    10    55	 9 ;     CG3C41     CG3C41     CG3C41       HGA2
   11     8    10    56	 9 ;     CG3C41     CG3C41     CG3C41       HGA2
    7     8    10    19	 9 ;      CG321     CG3C41     CG3C41     CG3C41
    7     8    10    55	 9 ;      CG321     CG3C41     CG3C41       HGA2
    7     8    10    56	 9 ;      CG321     CG3C41     CG3C41       HGA2
    8     9    12    13	 9 ;     CG3C41     OG3C61      CG311      NG311
    8     9    12    14	 9 ;     CG3C41     OG3C61      CG311     CG2DC1
    8     9    12    90	 9 ;     CG3C41     OG3C61      CG311       HGA1
    8    10    19    11	 9 ;     CG3C41     CG3C41     CG3C41     CG3C41
    8    10    19    61	 9 ;     CG3C41     CG3C41     CG3C41       HGA2
    8    10    19    62	 9 ;     CG3C41     CG3C41     CG3C41       HGA2
   55    10    19    11	 9 ;       HGA2     CG3C41     CG3C41     CG3C41
   55    10    19    61	 9 ;       HGA2     CG3C41     CG3C41       HGA2
   55    10    19    62	 9 ;       HGA2     CG3C41     CG3C41       HGA2
   56    10    19    11	 9 ;       HGA2     CG3C41     CG3C41     CG3C41
   56    10    19    61	 9 ;       HGA2     CG3C41     CG3C41       HGA2
   56    10    19    62	 9 ;       HGA2     CG3C41     CG3C41       HGA2
    8    11    19    10	 9 ;     CG3C41     CG3C41     CG3C41     CG3C41
    8    11    19    61	 9 ;     CG3C41     CG3C41     CG3C41       HGA2
    8    11    19    62	 9 ;     CG3C41     CG3C41     CG3C41       HGA2
   57    11    19    10	 9 ;       HGA2     CG3C41     CG3C41     CG3C41
   57    11    19    61	 9 ;       HGA2     CG3C41     CG3C41       HGA2
   57    11    19    62	 9 ;       HGA2     CG3C41     CG3C41       HGA2
   58    11    19    10	 9 ;       HGA2     CG3C41     CG3C41     CG3C41
   58    11    19    61	 9 ;       HGA2     CG3C41     CG3C41       HGA2
   58    11    19    62	 9 ;       HGA2     CG3C41     CG3C41       HGA2
    9    12    13    16	 9 ;     OG3C61      CG311      NG311     HGPAM1
    9    12    13    15	 9 ;     OG3C61      CG311      NG311     CG2D2O
   14    12    13    16	 9 ;     CG2DC1      CG311      NG311     HGPAM1
   14    12    13    15	 9 ;     CG2DC1      CG311      NG311     CG2D2O
   90    12    13    16	 9 ;       HGA1      CG311      NG311     HGPAM1
   90    12    13    15	 9 ;       HGA1      CG311      NG311     CG2D2O
   13    12    14    18	 9 ;      NG311      CG311     CG2DC1     CG2DC1
   13    12    14     6	 9 ;      NG311      CG311     CG2DC1      CG314
    9    12    14    18	 9 ;     OG3C61      CG311     CG2DC1     CG2DC1
    9    12    14     6	 9 ;     OG3C61      CG311     CG2DC1      CG314
   90    12    14    18	 9 ;       HGA1      CG311     CG2DC1     CG2DC1
   90    12    14     6	 9 ;       HGA1      CG311     CG2DC1      CG314
   16    13    15    17	 9 ;     HGPAM1      NG311     CG2D2O     CG2DC2
   16    13    15    59	 9 ;     HGPAM1      NG311     CG2D2O       HGA4
   12    13    15    17	 9 ;      CG311      NG311     CG2D2O     CG2DC2
   12    13    15    59	 9 ;      CG311      NG311     CG2D2O       HGA4
   12    14    18    17	 9 ;      CG311     CG2DC1     CG2DC1     CG2DC2
   12    14    18    60	 9 ;      CG311     CG2DC1     CG2DC1       HGA4
    6    14    18    17	 9 ;      CG314     CG2DC1     CG2DC1     CG2DC2
    6    14    18    60	 9 ;      CG314     CG2DC1     CG2DC1       HGA4
   13    15    17    20	 9 ;      NG311     CG2D2O     CG2DC2      CG321
   13    15    17    18	 9 ;      NG311     CG2D2O     CG2DC2     CG2DC1
   59    15    17    20	 9 ;       HGA4     CG2D2O     CG2DC2      CG321
   59    15    17    18	 9 ;       HGA4     CG2D2O     CG2DC2     CG2DC1
   15    17    20    21	 9 ;     CG2D2O     CG2DC2      CG321      CG301
   15    17    20    63	 9 ;     CG2D2O     CG2DC2      CG321       HGA2
   15    17    20    64	 9 ;     CG2D2O     CG2DC2      CG321       HGA2
   18    17    20    21	 9 ;     CG2DC1     CG2DC2      CG321      CG301
   18    17    20    63	 9 ;     CG2DC1     CG2DC2      CG321       HGA2
   18    17    20    64	 9 ;     CG2DC1     CG2DC2      CG321       HGA2
   15    17    18    14	 9 ;     CG2D2O     CG2DC2     CG2DC1     CG2DC1
   15    17    18    60	 9 ;     CG2D2O     CG2DC2     CG2DC1       HGA4
   20    17    18    14	 9 ;      CG321     CG2DC2     CG2DC1     CG2DC1
   20    17    18    60	 9 ;      CG321     CG2DC2     CG2DC1       HGA4
   17    20    21    24	 9 ;     CG2DC2      CG321      CG301      CG331
   17    20    21    22	 9 ;     CG2DC2      CG321      CG301      CG331
   17    20    21    23	 9 ;     CG2DC2      CG321      CG301      CG331
   63    20    21    24	 9 ;       HGA2      CG321      CG301      CG331
   63    20    21    22	 9 ;       HGA2      CG321      CG301      CG331
   63    20    21    23	 9 ;       HGA2      CG321      CG301      CG331
   64    20    21    24	 9 ;       HGA2      CG321      CG301      CG331
   64    20    21    22	 9 ;       HGA2      CG321      CG301      CG331
   64    20    21    23	 9 ;       HGA2      CG321      CG301      CG331
   20    21    24    75	 9 ;      CG321      CG301      CG331       HGA3
   20    21    24    76	 9 ;      CG321      CG301      CG331       HGA3
   20    21    24    77	 9 ;      CG321      CG301      CG331       HGA3
   22    21    24    75	 9 ;      CG331      CG301      CG331       HGA3
   22    21    24    76	 9 ;      CG331      CG301      CG331       HGA3
   22    21    24    77	 9 ;      CG331      CG301      CG331       HGA3
   23    21    24    75	 9 ;      CG331      CG301      CG331       HGA3
   23    21    24    76	 9 ;      CG331      CG301      CG331       HGA3
   23    21    24    77	 9 ;      CG331      CG301      CG331       HGA3
   24    21    22    84	 9 ;      CG331      CG301      CG331       HGA3
   24    21    22    85	 9 ;      CG331      CG301      CG331       HGA3
   24    21    22    86	 9 ;      CG331      CG301      CG331       HGA3
   20    21    22    84	 9 ;      CG321      CG301      CG331       HGA3
   20    21    22    85	 9 ;      CG321      CG301      CG331       HGA3
   20    21    22    86	 9 ;      CG321      CG301      CG331       HGA3
   23    21    22    84	 9 ;      CG331      CG301      CG331       HGA3
   23    21    22    85	 9 ;      CG331      CG301      CG331       HGA3
   23    21    22    86	 9 ;      CG331      CG301      CG331       HGA3
   24    21    23    78	 9 ;      CG331      CG301      CG331       HGA3
   24    21    23    79	 9 ;      CG331      CG301      CG331       HGA3
   24    21    23    80	 9 ;      CG331      CG301      CG331       HGA3
   20    21    23    78	 9 ;      CG321      CG301      CG331       HGA3
   20    21    23    79	 9 ;      CG321      CG301      CG331       HGA3
   20    21    23    80	 9 ;      CG321      CG301      CG331       HGA3
   22    21    23    78	 9 ;      CG331      CG301      CG331       HGA3
   22    21    23    79	 9 ;      CG331      CG301      CG331       HGA3
   22    21    23    80	 9 ;      CG331      CG301      CG331       HGA3
    1    27    28    31	 9 ;      CG311      CG311      NG2S1       HGP1
    1    27    28    29	 9 ;      CG311      CG311      NG2S1      CG2O1
   36    27    28    31	 9 ;      CG321      CG311      NG2S1       HGP1
   36    27    28    29	 9 ;      CG321      CG311      NG2S1      CG2O1
   65    27    28    31	 9 ;       HGA1      CG311      NG2S1       HGP1
   65    27    28    29	 9 ;       HGA1      CG311      NG2S1      CG2O1
   28    27    36    37	 9 ;      NG2S1      CG311      CG321     CG2R61
   28    27    36    67	 9 ;      NG2S1      CG311      CG321       HGA2
   28    27    36    68	 9 ;      NG2S1      CG311      CG321       HGA2
    1    27    36    37	 9 ;      CG311      CG311      CG321     CG2R61
    1    27    36    67	 9 ;      CG311      CG311      CG321       HGA2
    1    27    36    68	 9 ;      CG311      CG311      CG321       HGA2
   65    27    36    37	 9 ;       HGA1      CG311      CG321     CG2R61
   65    27    36    67	 9 ;       HGA1      CG311      CG321       HGA2
   65    27    36    68	 9 ;       HGA1      CG311      CG321       HGA2
   31    28    29    32	 9 ;       HGP1      NG2S1      CG2O1      CG311
   31    28    29    30	 9 ;       HGP1      NG2S1      CG2O1      OG2D1
   27    28    29    32	 9 ;      CG311      NG2S1      CG2O1      CG311
   27    28    29    30	 9 ;      CG311      NG2S1      CG2O1      OG2D1
   28    29    32    34	 9 ;      NG2S1      CG2O1      CG311      OG301
   28    29    32    33	 9 ;      NG2S1      CG2O1      CG311      CG331
   28    29    32    66	 9 ;      NG2S1      CG2O1      CG311       HGA1
   30    29    32    34	 9 ;      OG2D1      CG2O1      CG311      OG301
   30    29    32    33	 9 ;      OG2D1      CG2O1      CG311      CG331
   30    29    32    66	 9 ;      OG2D1      CG2O1      CG311       HGA1
   33    32    34    35	 9 ;      CG331      CG311      OG301      CG331
   29    32    34    35	 9 ;      CG2O1      CG311      OG301      CG331
   66    32    34    35	 9 ;       HGA1      CG311      OG301      CG331
   34    32    33    81	 9 ;      OG301      CG311      CG331       HGA3
   34    32    33    82	 9 ;      OG301      CG311      CG331       HGA3
   34    32    33    83	 9 ;      OG301      CG311      CG331       HGA3
   29    32    33    81	 9 ;      CG2O1      CG311      CG331       HGA3
   29    32    33    82	 9 ;      CG2O1      CG311      CG331       HGA3
   29    32    33    83	 9 ;      CG2O1      CG311      CG331       HGA3
   66    32    33    81	 9 ;       HGA1      CG311      CG331       HGA3
   66    32    33    82	 9 ;       HGA1      CG311      CG331       HGA3
   66    32    33    83	 9 ;       HGA1      CG311      CG331       HGA3
   32    34    35    87	 9 ;      CG311      OG301      CG331       HGA3
   32    34    35    88	 9 ;      CG311      OG301      CG331       HGA3
   32    34    35    89	 9 ;      CG311      OG301      CG331       HGA3
   27    36    37    42	 9 ;      CG311      CG321     CG2R61     CG2R61
   27    36    37    38	 9 ;      CG311      CG321     CG2R61     CG2R61
   67    36    37    42	 9 ;       HGA2      CG321     CG2R61     CG2R61
   67    36    37    38	 9 ;       HGA2      CG321     CG2R61     CG2R61
   68    36    37    42	 9 ;       HGA2      CG321     CG2R61     CG2R61
   68    36    37    38	 9 ;       HGA2      CG321     CG2R61     CG2R61
   36    37    42    41	 9 ;      CG321     CG2R61     CG2R61     CG2R61
   36    37    42    72	 9 ;      CG321     CG2R61     CG2R61      HGR61
   38    37    42    41	 9 ;     CG2R61     CG2R61     CG2R61     CG2R61
   38    37    42    72	 9 ;     CG2R61     CG2R61     CG2R61      HGR61
   36    37    38    39	 9 ;      CG321     CG2R61     CG2R61     CG2R61
   36    37    38    69	 9 ;      CG321     CG2R61     CG2R61      HGR61
   42    37    38    39	 9 ;     CG2R61     CG2R61     CG2R61     CG2R61
   42    37    38    69	 9 ;     CG2R61     CG2R61     CG2R61      HGR61
   37    38    39    40	 9 ;     CG2R61     CG2R61     CG2R61     CG2R61
   37    38    39    43	 9 ;     CG2R61     CG2R61     CG2R61     CG3C51
   69    38    39    40	 9 ;      HGR61     CG2R61     CG2R61     CG2R61
   69    38    39    43	 9 ;      HGR61     CG2R61     CG2R61     CG3C51
   38    39    40    41	 9 ;     CG2R61     CG2R61     CG2R61     CG2R61
   38    39    40    70	 9 ;     CG2R61     CG2R61     CG2R61      HGR61
   43    39    40    41	 9 ;     CG3C51     CG2R61     CG2R61     CG2R61
   43    39    40    70	 9 ;     CG3C51     CG2R61     CG2R61      HGR61
   38    39    43    44	 9 ;     CG2R61     CG2R61     CG3C51     NG3C51
   38    39    43    48	 9 ;     CG2R61     CG2R61     CG3C51      SG311
   38    39    43    91	 9 ;     CG2R61     CG2R61     CG3C51       HGA1
   40    39    43    44	 9 ;     CG2R61     CG2R61     CG3C51     NG3C51
   40    39    43    48	 9 ;     CG2R61     CG2R61     CG3C51      SG311
   40    39    43    91	 9 ;     CG2R61     CG2R61     CG3C51       HGA1
   39    40    41    42	 9 ;     CG2R61     CG2R61     CG2R61     CG2R61
   39    40    41    71	 9 ;     CG2R61     CG2R61     CG2R61      HGR61
   70    40    41    42	 9 ;      HGR61     CG2R61     CG2R61     CG2R61
   70    40    41    71	 9 ;      HGR61     CG2R61     CG2R61      HGR61
   40    41    42    37	 9 ;     CG2R61     CG2R61     CG2R61     CG2R61
   40    41    42    72	 9 ;     CG2R61     CG2R61     CG2R61      HGR61
   71    41    42    37	 9 ;      HGR61     CG2R61     CG2R61     CG2R61
   71    41    42    72	 9 ;      HGR61     CG2R61     CG2R61      HGR61
   39    43    44    46	 9 ;     CG2R61     CG3C51     NG3C51       HGP1
   39    43    44    45	 9 ;     CG2R61     CG3C51     NG3C51     CG2R51
   48    43    44    46	 9 ;      SG311     CG3C51     NG3C51       HGP1
   48    43    44    45	 9 ;      SG311     CG3C51     NG3C51     CG2R51
   91    43    44    46	 9 ;       HGA1     CG3C51     NG3C51       HGP1
   91    43    44    45	 9 ;       HGA1     CG3C51     NG3C51     CG2R51
   39    43    48    47	 9 ;     CG2R61     CG3C51      SG311     CG2R51
   44    43    48    47	 9 ;     NG3C51     CG3C51      SG311     CG2R51
   91    43    48    47	 9 ;       HGA1     CG3C51      SG311     CG2R51
   43    44    45    47	 9 ;     CG3C51     NG3C51     CG2R51     CG2R51
   43    44    45    73	 9 ;     CG3C51     NG3C51     CG2R51      HGR52
   46    44    45    47	 9 ;       HGP1     NG3C51     CG2R51     CG2R51
   46    44    45    73	 9 ;       HGP1     NG3C51     CG2R51      HGR52
   44    45    47    48	 9 ;     NG3C51     CG2R51     CG2R51      SG311
   44    45    47    74	 9 ;     NG3C51     CG2R51     CG2R51      HGR52
   73    45    47    48	 9 ;      HGR52     CG2R51     CG2R51      SG311
   73    45    47    74	 9 ;      HGR52     CG2R51     CG2R51      HGR52
   45    47    48    43	 9 ;     CG2R51     CG2R51      SG311     CG3C51
   74    47    48    43	 9 ;      HGR52     CG2R51      SG311     CG3C51

[ dihedrals ]
;	ai	  aj	ak	  al funct			  c0			c1			  c2			c3
   15    17    13    59	 2
   29    32    28    30	 2

