GROningen Mixture of Alchemy and Childrens' Stories
   91
    1LIG     C1    1  -1.742   0.460  -1.260
    1LIG     C2    2  -1.628   0.503  -1.352
    1LIG     N1    3  -1.567   0.378  -1.416
    1LIG     H1    4  -1.486   0.348  -1.361
    1LIG     H2    5  -1.639   0.305  -1.406
    1LIG     C3    6  -1.527   0.387  -1.563
    1LIG     C4    7  -1.471   0.527  -1.586
    1LIG     C5    8  -1.355   0.537  -1.685
    1LIG     O1    9  -1.352   0.425  -1.776
    1LIG     C6   10  -1.215   0.578  -1.627
    1LIG     C7   11  -1.354   0.679  -1.751
    1LIG     C8   12  -1.348   0.303  -1.713
    1LIG     N2   13  -1.264   0.213  -1.766
    1LIG     C9   14  -1.436   0.277  -1.608
    1LIG    C10   15  -1.267   0.088  -1.714
    1LIG    HN1   16  -1.200   0.237  -1.842
    1LIG    C11   17  -1.355   0.049  -1.614
    1LIG    C12   18  -1.443   0.145  -1.563
    1LIG    C13   19  -1.263   0.724  -1.635
    1LIG    C14   20  -1.359  -0.094  -1.564
    1LIG    C15   21  -1.259  -0.128  -1.451
    1LIG    C16   22  -1.240  -0.011  -1.353
    1LIG    C17   23  -1.316  -0.248  -1.372
    1LIG    C18   24  -1.122  -0.169  -1.508
    1LIG     O2   25  -1.689   0.472  -1.128
    1LIG     H3   26  -1.648   0.388  -1.100
    1LIG    C19   27  -1.874   0.538  -1.287
    1LIG     N3   28  -1.849   0.642  -1.390
    1LIG    C20   29  -1.862   0.778  -1.367
    1LIG     O3   30  -1.871   0.823  -1.253
    1LIG     H4   31  -1.859   0.617  -1.488
    1LIG    C21   32  -1.875   0.864  -1.497
    1LIG    C22   33  -2.009   0.936  -1.505
    1LIG     O4   34  -1.763   0.954  -1.508
    1LIG    C23   35  -1.640   0.887  -1.538
    1LIG    C24   36  -1.989   0.442  -1.330
    1LIG    C25   37  -2.086   0.417  -1.216
    1LIG    C26   38  -2.062   0.317  -1.119
    1LIG    C27   39  -2.164   0.274  -1.032
    1LIG    C28   40  -2.290   0.335  -1.042
    1LIG    C29   41  -2.312   0.440  -1.132
    1LIG    C30   42  -2.210   0.482  -1.217
    1LIG    C31   43  -2.137   0.162  -0.940
    1LIG     N4   44  -2.204   0.049  -0.939
    1LIG    C32   45  -2.153  -0.036  -0.842
    1LIG    HN2   46  -2.282   0.026  -1.001
    1LIG    C33   47  -2.048   0.015  -0.768
    1LIG      S   48  -2.011   0.173  -0.822
    1LIG     HC   49  -1.762   0.354  -1.278
    1LIG    HC2   50  -1.666   0.569  -1.430
    1LIG    HC3   51  -1.552   0.555  -1.294
    1LIG    HC1   52  -1.618   0.379  -1.622
    1LIG    HC4   53  -1.552   0.590  -1.623
    1LIG    HC5   54  -1.438   0.567  -1.490
    1LIG    HC6   55  -1.196   0.542  -1.525
    1LIG    HC7   56  -1.133   0.556  -1.695
    1LIG    HC8   57  -1.308   0.683  -1.849
    1LIG    HC9   58  -1.452   0.727  -1.748
    1LIG   HC10   59  -1.197   0.015  -1.752
    1LIG   HC11   60  -1.515   0.118  -1.488
    1LIG   HC12   61  -1.315   0.760  -1.546
    1LIG   HC13   62  -1.184   0.792  -1.667
    1LIG   HC14   63  -1.337  -0.159  -1.649
    1LIG   HC15   64  -1.459  -0.116  -1.529
    1LIG   HC16   65  -1.903   0.588  -1.194
    1LIG   HC17   66  -1.870   0.795  -1.581
    1LIG   HC18   67  -2.044   0.488  -1.413
    1LIG   HC19   68  -1.947   0.347  -1.363
    1LIG   HC20   69  -1.964   0.274  -1.112
    1LIG   HC21   70  -2.371   0.300  -0.980
    1LIG   HC22   71  -2.408   0.488  -1.135
    1LIG   HC23   72  -2.226   0.565  -1.283
    1LIG   HC24   73  -2.192  -0.135  -0.825
    1LIG   HC25   74  -1.997  -0.038  -0.688
    1LIG   HC26   75  -1.079  -0.086  -1.564
    1LIG   HC27   76  -1.134  -0.255  -1.574
    1LIG   HC28   77  -1.055  -0.196  -1.426
    1LIG   HC29   78  -1.248  -0.274  -1.291
    1LIG   HC30   79  -1.329  -0.333  -1.439
    1LIG   HC31   80  -1.413  -0.220  -1.330
    1LIG   HC32   81  -2.014   0.995  -1.596
    1LIG   HC33   82  -2.020   1.002  -1.419
    1LIG   HC34   83  -2.090   0.863  -1.504
    1LIG   HC35   84  -1.199   0.075  -1.407
    1LIG   HC36   85  -1.336   0.016  -1.309
    1LIG   HC37   86  -1.171  -0.040  -1.274
    1LIG   HC38   87  -1.560   0.961  -1.546
    1LIG   HC39   88  -1.650   0.834  -1.633
    1LIG   HC40   89  -1.617   0.816  -1.459
    1LIG    H48   90  -1.272   0.338  -1.644
    1LIG    H49   91  -2.208   0.204  -0.868
   0.00000   0.00000   0.00000
