; Created by cgenff_charmm2gmx.py

[ moleculetype ]
; Name			   nrexcl
LIG				 3

[ atoms ]
;	 nr		  type	resnr residue  atom   cgnr	   charge		mass  typeB    chargeB		massB
; residue	 1 LIG rtp LIG q	qsum
     1      CG311      1    LIG     C1      1      0.210     12.011   ;
     2      NG311      1    LIG     N1      2     -0.787     14.007   ;
     3      CG311      1    LIG     C2      3      0.302     12.011   ;
     4      NG311      1    LIG     N2      4     -0.864     14.007   ;
     5     CG2R61      1    LIG     C3      5     -0.052     12.011   ;
     6      CG301      1    LIG     C4      6      0.375     12.011   ;
     7     HGPAM1      1    LIG     H1      7      0.350      1.008   ;
     8      CG321      1    LIG     C5      8     -0.230     12.011   ;
     9      CG331      1    LIG     C6      9     -0.295     12.011   ;
    10      CG331      1    LIG     C7     10     -0.295     12.011   ;
    11     CG2R61      1    LIG     C8     11      0.075     12.011   ;
    12     CG2R61      1    LIG     C9     12     -0.121     12.011   ;
    13     CG2R61      1    LIG    C10     13      0.048     12.011   ;
    14      CLGR1      1    LIG     CL     14     -0.200     35.453   ;
    15     CG2R61      1    LIG    C11     15     -0.099     12.011   ;
    16     CG2R61      1    LIG    C12     16     -0.108     12.011   ;
    17     HGPAM1      1    LIG     H2     17      0.359      1.008   ;
    18      CG321      1    LIG    C13     18     -0.211     12.011   ;
    19     CG2R61      1    LIG    C14     19      0.002     12.011   ;
    20     CG2R61      1    LIG    C15     20     -0.123     12.011   ;
    21     CG2R61      1    LIG    C16     21     -0.112     12.011   ;
    22     CG2R61      1    LIG    C17     22     -0.116     12.011   ;
    23     CG2R61      1    LIG    C18     23     -0.112     12.011   ;
    24     CG2R61      1    LIG    C19     24     -0.123     12.011   ;
    25      CG311      1    LIG    C20     25      0.114     12.011   ;
    26      NG2S1      1    LIG     N3     26     -0.384     14.007   ;
    27      CG2O1      1    LIG    C21     27      0.350     12.011   ;
    28       HGP1      1    LIG     H3     28      0.226      1.008   ;
    29      OG2D1      1    LIG      O     29     -0.485     15.999   ;
    30     CG2DC1      1    LIG    C22     30      0.327     12.011   ;
    31     CG2D1O      1    LIG    C23     31     -0.014     12.011   ;
    32      CG321      1    LIG    C24     32     -0.165     12.011   ;
    33      NG311      1    LIG     N4     33     -0.497     14.007   ;
    34     CG2DC2      1    LIG    C25     34      0.033     12.011   ;
    35     HGPAM1      1    LIG    HN1     35      0.360      1.008   ;
    36     CG2D2O      1    LIG    C26     36     -0.179     12.011   ;
    37      NG311      1    LIG     N5     37     -0.641     14.007   ;
    38     HGPAM1      1    LIG    HN2     38      0.389      1.008   ;
    39       HGA1      1    LIG     HC     39      0.090      1.008   ;
    40       HGA2      1    LIG    HC2     40      0.090      1.008   ;
    41       HGA2      1    LIG    HC3     41      0.090      1.008   ;
    42       HGA3      1    LIG    HC1     42      0.090      1.008   ;
    43       HGA3      1    LIG    HC4     43      0.090      1.008   ;
    44       HGA3      1    LIG    HC5     44      0.090      1.008   ;
    45       HGA3      1    LIG    HC6     45      0.090      1.008   ;
    46       HGA3      1    LIG    HC7     46      0.090      1.008   ;
    47       HGA3      1    LIG    HC8     47      0.090      1.008   ;
    48      HGR62      1    LIG    HC9     48      0.145      1.008   ;
    49      HGR62      1    LIG   HC10     49      0.150      1.008   ;
    50      HGR61      1    LIG   HC11     50      0.116      1.008   ;
    51       HGA2      1    LIG   HC12     51      0.090      1.008   ;
    52       HGA2      1    LIG   HC13     52      0.090      1.008   ;
    53      HGR61      1    LIG   HC14     53      0.116      1.008   ;
    54      HGR61      1    LIG   HC15     54      0.116      1.008   ;
    55      HGR61      1    LIG   HC16     55      0.116      1.008   ;
    56      HGR61      1    LIG   HC17     56      0.116      1.008   ;
    57      HGR61      1    LIG   HC18     57      0.116      1.008   ;
    58       HGA1      1    LIG   HC19     58      0.090      1.008   ;
    59       HGA2      1    LIG   HC20     59      0.090      1.008   ;
    60       HGA4      1    LIG   HC21     60      0.150      1.008   ;
    61       HGA4      1    LIG   HC22     61      0.152      1.008   ;
    62       HGA1      1    LIG    H29     62      0.090      1.008   ;
    63       HGA2      1    LIG    H30     63      0.090      1.008   ;
    64        LPH      1    LIG    LP1     64      0.050      0.000   ;

[ bonds ]
;	ai	  aj funct			  c0			c1			  c2			c3
    1     2	 1 ;       CG311      NG311
    1    25	 1 ;       CG311      CG311
    1    18	 1 ;       CG311      CG321
    1    39	 1 ;       CG311       HGA1
    2    17	 1 ;       NG311     HGPAM1
    2     3	 1 ;       NG311      CG311
    3     4	 1 ;       CG311      NG311
    3     5	 1 ;       CG311     CG2R61
    3    62	 1 ;       CG311       HGA1
    4     7	 1 ;       NG311     HGPAM1
    4     6	 1 ;       NG311      CG301
    5    11	 1 ;      CG2R61     CG2R61
    5    16	 1 ;      CG2R61     CG2R61
    6     9	 1 ;       CG301      CG331
    6    10	 1 ;       CG301      CG331
    6     8	 1 ;       CG301      CG321
    8    11	 1 ;       CG321     CG2R61
    8    40	 1 ;       CG321       HGA2
    8    41	 1 ;       CG321       HGA2
    9    42	 1 ;       CG331       HGA3
    9    43	 1 ;       CG331       HGA3
    9    44	 1 ;       CG331       HGA3
   10    45	 1 ;       CG331       HGA3
   10    46	 1 ;       CG331       HGA3
   10    47	 1 ;       CG331       HGA3
   11    12	 1 ;      CG2R61     CG2R61
   12    13	 1 ;      CG2R61     CG2R61
   12    48	 1 ;      CG2R61      HGR62
   13    15	 1 ;      CG2R61     CG2R61
   13    14	 1 ;      CG2R61      CLGR1
   15    16	 1 ;      CG2R61     CG2R61
   15    49	 1 ;      CG2R61      HGR62
   16    50	 1 ;      CG2R61      HGR61
   18    19	 1 ;       CG321     CG2R61
   18    51	 1 ;       CG321       HGA2
   18    52	 1 ;       CG321       HGA2
   19    24	 1 ;      CG2R61     CG2R61
   19    20	 1 ;      CG2R61     CG2R61
   20    21	 1 ;      CG2R61     CG2R61
   20    53	 1 ;      CG2R61      HGR61
   21    22	 1 ;      CG2R61     CG2R61
   21    54	 1 ;      CG2R61      HGR61
   22    23	 1 ;      CG2R61     CG2R61
   22    55	 1 ;      CG2R61      HGR61
   23    24	 1 ;      CG2R61     CG2R61
   23    56	 1 ;      CG2R61      HGR61
   24    57	 1 ;      CG2R61      HGR61
   25    33	 1 ;       CG311      NG311
   25    26	 1 ;       CG311      NG2S1
   25    58	 1 ;       CG311       HGA1
   26    27	 1 ;       NG2S1      CG2O1
   26    28	 1 ;       NG2S1       HGP1
   27    29	 1 ;       CG2O1      OG2D1
   27    30	 1 ;       CG2O1     CG2DC1
   30    32	 1 ;      CG2DC1      CG321
   30    31	 1 ;      CG2DC1     CG2D1O
   31    34	 1 ;      CG2D1O     CG2DC2
   31    33	 1 ;      CG2D1O      NG311
   32    37	 1 ;       CG321      NG311
   32    59	 1 ;       CG321       HGA2
   32    63	 1 ;       CG321       HGA2
   33    35	 1 ;       NG311     HGPAM1
   34    36	 1 ;      CG2DC2     CG2D2O
   34    60	 1 ;      CG2DC2       HGA4
   36    37	 1 ;      CG2D2O      NG311
   36    61	 1 ;      CG2D2O       HGA4
   37    38	 1 ;       NG311     HGPAM1

[ pairs ]
;	ai	  aj funct			  c0			c1			  c2			c3
    1     4	 1
    1     5	 1
    1    62	 1
    1    24	 1
    1    20	 1
    1    31	 1
    1    35	 1
    1    27	 1
    1    28	 1
    2    33	 1
    2    26	 1
    2    58	 1
    2    19	 1
    2    51	 1
    2    52	 1
    2     7	 1
    2     6	 1
    2    11	 1
    2    16	 1
    3    25	 1
    3    18	 1
    3    39	 1
    3     9	 1
    3    10	 1
    3     8	 1
    3    12	 1
    3    15	 1
    3    50	 1
    4    17	 1
    4    11	 1
    4    16	 1
    4    42	 1
    4    43	 1
    4    44	 1
    4    45	 1
    4    46	 1
    4    47	 1
    4    40	 1
    4    41	 1
    5    17	 1
    5     7	 1
    5     6	 1
    5    40	 1
    5    41	 1
    5    13	 1
    5    48	 1
    5    49	 1
    6    62	 1
    6    12	 1
    7    62	 1
    7     9	 1
    7    10	 1
    7     8	 1
    8    16	 1
    8    42	 1
    8    43	 1
    8    44	 1
    8    45	 1
    8    46	 1
    8    47	 1
    8    13	 1
    8    48	 1
    9    45	 1
    9    46	 1
    9    47	 1
    9    11	 1
    9    40	 1
    9    41	 1
   10    42	 1
   10    43	 1
   10    44	 1
   10    11	 1
   10    40	 1
   10    41	 1
   11    62	 1
   11    15	 1
   11    50	 1
   11    14	 1
   64    11	 1
   12    16	 1
   12    40	 1
   12    41	 1
   12    49	 1
   13    50	 1
   14    48	 1
   64    48	 1
   14    16	 1
   64    16	 1
   14    49	 1
   64    49	 1
   15    48	 1
   16    62	 1
   17    25	 1
   17    18	 1
   17    39	 1
   17    62	 1
   18    33	 1
   18    26	 1
   18    58	 1
   18    23	 1
   18    57	 1
   18    21	 1
   18    53	 1
   19    25	 1
   19    39	 1
   19    22	 1
   19    54	 1
   19    56	 1
   20    51	 1
   20    52	 1
   20    23	 1
   20    57	 1
   20    55	 1
   21    24	 1
   21    56	 1
   22    53	 1
   22    57	 1
   23    54	 1
   24    51	 1
   24    52	 1
   24    53	 1
   24    55	 1
   25    51	 1
   25    52	 1
   25    29	 1
   25    30	 1
   25    34	 1
   26    39	 1
   26    31	 1
   26    35	 1
   26    32	 1
   27    33	 1
   27    58	 1
   27    37	 1
   27    59	 1
   27    63	 1
   27    34	 1
   28    33	 1
   28    58	 1
   28    29	 1
   28    30	 1
   29    32	 1
   29    31	 1
   30    36	 1
   30    60	 1
   30    35	 1
   30    38	 1
   31    58	 1
   31    37	 1
   31    59	 1
   31    63	 1
   31    61	 1
   32    34	 1
   32    33	 1
   32    61	 1
   33    39	 1
   33    36	 1
   33    60	 1
   34    35	 1
   34    38	 1
   35    58	 1
   36    59	 1
   36    63	 1
   37    60	 1
   38    59	 1
   38    63	 1
   38    61	 1
   39    58	 1
   39    51	 1
   39    52	 1
   49    50	 1
   53    54	 1
   54    55	 1
   55    56	 1
   56    57	 1
   60    61	 1

[ angles ]
;	ai	  aj	ak funct			c0			  c1			c2			  c3
    2     1    25	5 ;      NG311      CG311      CG311
    2     1    18	5 ;      NG311      CG311      CG321
    2     1    39	5 ;      NG311      CG311       HGA1
   25     1    18	5 ;      CG311      CG311      CG321
   25     1    39	5 ;      CG311      CG311       HGA1
   18     1    39	5 ;      CG321      CG311       HGA1
   17     2     3	5 ;     HGPAM1      NG311      CG311
   17     2     1	5 ;     HGPAM1      NG311      CG311
    3     2     1	5 ;      CG311      NG311      CG311
    4     3     2	5 ;      NG311      CG311      NG311
    4     3     5	5 ;      NG311      CG311     CG2R61
    4     3    62	5 ;      NG311      CG311       HGA1
    2     3     5	5 ;      NG311      CG311     CG2R61
    2     3    62	5 ;      NG311      CG311       HGA1
    5     3    62	5 ;     CG2R61      CG311       HGA1
    7     4     6	5 ;     HGPAM1      NG311      CG301
    7     4     3	5 ;     HGPAM1      NG311      CG311
    6     4     3	5 ;      CG301      NG311      CG311
    3     5    11	5 ;      CG311     CG2R61     CG2R61
    3     5    16	5 ;      CG311     CG2R61     CG2R61
   11     5    16	5 ;     CG2R61     CG2R61     CG2R61
    9     6     4	5 ;      CG331      CG301      NG311
    9     6    10	5 ;      CG331      CG301      CG331
    9     6     8	5 ;      CG331      CG301      CG321
    4     6    10	5 ;      NG311      CG301      CG331
    4     6     8	5 ;      NG311      CG301      CG321
   10     6     8	5 ;      CG331      CG301      CG321
    6     8    11	5 ;      CG301      CG321     CG2R61
    6     8    40	5 ;      CG301      CG321       HGA2
    6     8    41	5 ;      CG301      CG321       HGA2
   11     8    40	5 ;     CG2R61      CG321       HGA2
   11     8    41	5 ;     CG2R61      CG321       HGA2
   40     8    41	5 ;       HGA2      CG321       HGA2
    6     9    42	5 ;      CG301      CG331       HGA3
    6     9    43	5 ;      CG301      CG331       HGA3
    6     9    44	5 ;      CG301      CG331       HGA3
   42     9    43	5 ;       HGA3      CG331       HGA3
   42     9    44	5 ;       HGA3      CG331       HGA3
   43     9    44	5 ;       HGA3      CG331       HGA3
    6    10    45	5 ;      CG301      CG331       HGA3
    6    10    46	5 ;      CG301      CG331       HGA3
    6    10    47	5 ;      CG301      CG331       HGA3
   45    10    46	5 ;       HGA3      CG331       HGA3
   45    10    47	5 ;       HGA3      CG331       HGA3
   46    10    47	5 ;       HGA3      CG331       HGA3
    8    11     5	5 ;      CG321     CG2R61     CG2R61
    8    11    12	5 ;      CG321     CG2R61     CG2R61
    5    11    12	5 ;     CG2R61     CG2R61     CG2R61
   11    12    13	5 ;     CG2R61     CG2R61     CG2R61
   11    12    48	5 ;     CG2R61     CG2R61      HGR62
   13    12    48	5 ;     CG2R61     CG2R61      HGR62
   12    13    15	5 ;     CG2R61     CG2R61     CG2R61
   12    13    14	5 ;     CG2R61     CG2R61      CLGR1
   15    13    14	5 ;     CG2R61     CG2R61      CLGR1
   16    15    13	5 ;     CG2R61     CG2R61     CG2R61
   16    15    49	5 ;     CG2R61     CG2R61      HGR62
   13    15    49	5 ;     CG2R61     CG2R61      HGR62
    5    16    15	5 ;     CG2R61     CG2R61     CG2R61
    5    16    50	5 ;     CG2R61     CG2R61      HGR61
   15    16    50	5 ;     CG2R61     CG2R61      HGR61
    1    18    19	5 ;      CG311      CG321     CG2R61
    1    18    51	5 ;      CG311      CG321       HGA2
    1    18    52	5 ;      CG311      CG321       HGA2
   19    18    51	5 ;     CG2R61      CG321       HGA2
   19    18    52	5 ;     CG2R61      CG321       HGA2
   51    18    52	5 ;       HGA2      CG321       HGA2
   18    19    24	5 ;      CG321     CG2R61     CG2R61
   18    19    20	5 ;      CG321     CG2R61     CG2R61
   24    19    20	5 ;     CG2R61     CG2R61     CG2R61
   19    20    21	5 ;     CG2R61     CG2R61     CG2R61
   19    20    53	5 ;     CG2R61     CG2R61      HGR61
   21    20    53	5 ;     CG2R61     CG2R61      HGR61
   20    21    22	5 ;     CG2R61     CG2R61     CG2R61
   20    21    54	5 ;     CG2R61     CG2R61      HGR61
   22    21    54	5 ;     CG2R61     CG2R61      HGR61
   23    22    21	5 ;     CG2R61     CG2R61     CG2R61
   23    22    55	5 ;     CG2R61     CG2R61      HGR61
   21    22    55	5 ;     CG2R61     CG2R61      HGR61
   24    23    22	5 ;     CG2R61     CG2R61     CG2R61
   24    23    56	5 ;     CG2R61     CG2R61      HGR61
   22    23    56	5 ;     CG2R61     CG2R61      HGR61
   19    24    23	5 ;     CG2R61     CG2R61     CG2R61
   19    24    57	5 ;     CG2R61     CG2R61      HGR61
   23    24    57	5 ;     CG2R61     CG2R61      HGR61
   33    25    26	5 ;      NG311      CG311      NG2S1
   33    25     1	5 ;      NG311      CG311      CG311
   33    25    58	5 ;      NG311      CG311       HGA1
   26    25     1	5 ;      NG2S1      CG311      CG311
   26    25    58	5 ;      NG2S1      CG311       HGA1
    1    25    58	5 ;      CG311      CG311       HGA1
   27    26    25	5 ;      CG2O1      NG2S1      CG311
   27    26    28	5 ;      CG2O1      NG2S1       HGP1
   25    26    28	5 ;      CG311      NG2S1       HGP1
   29    27    30	5 ;      OG2D1      CG2O1     CG2DC1
   29    27    26	5 ;      OG2D1      CG2O1      NG2S1
   30    27    26	5 ;     CG2DC1      CG2O1      NG2S1
   32    30    27	5 ;      CG321     CG2DC1      CG2O1
   32    30    31	5 ;      CG321     CG2DC1     CG2D1O
   27    30    31	5 ;      CG2O1     CG2DC1     CG2D1O
   30    31    34	5 ;     CG2DC1     CG2D1O     CG2DC2
   30    31    33	5 ;     CG2DC1     CG2D1O      NG311
   34    31    33	5 ;     CG2DC2     CG2D1O      NG311
   37    32    30	5 ;      NG311      CG321     CG2DC1
   37    32    59	5 ;      NG311      CG321       HGA2
   37    32    63	5 ;      NG311      CG321       HGA2
   30    32    59	5 ;     CG2DC1      CG321       HGA2
   30    32    63	5 ;     CG2DC1      CG321       HGA2
   59    32    63	5 ;       HGA2      CG321       HGA2
   31    33    35	5 ;     CG2D1O      NG311     HGPAM1
   31    33    25	5 ;     CG2D1O      NG311      CG311
   35    33    25	5 ;     HGPAM1      NG311      CG311
   36    34    31	5 ;     CG2D2O     CG2DC2     CG2D1O
   36    34    60	5 ;     CG2D2O     CG2DC2       HGA4
   31    34    60	5 ;     CG2D1O     CG2DC2       HGA4
   37    36    34	5 ;      NG311     CG2D2O     CG2DC2
   37    36    61	5 ;      NG311     CG2D2O       HGA4
   34    36    61	5 ;     CG2DC2     CG2D2O       HGA4
   38    37    32	5 ;     HGPAM1      NG311      CG321
   38    37    36	5 ;     HGPAM1      NG311     CG2D2O
   32    37    36	5 ;      CG321      NG311     CG2D2O

[ dihedrals ]
;	ai	  aj	ak	  al funct			  c0			c1			  c2			c3			  c4			c5
   25     1     2    17	 9 ;      CG311      CG311      NG311     HGPAM1
   25     1     2     3	 9 ;      CG311      CG311      NG311      CG311
   18     1     2    17	 9 ;      CG321      CG311      NG311     HGPAM1
   18     1     2     3	 9 ;      CG321      CG311      NG311      CG311
   39     1     2    17	 9 ;       HGA1      CG311      NG311     HGPAM1
   39     1     2     3	 9 ;       HGA1      CG311      NG311      CG311
    2     1    25    33	 9 ;      NG311      CG311      CG311      NG311
    2     1    25    26	 9 ;      NG311      CG311      CG311      NG2S1
    2     1    25    58	 9 ;      NG311      CG311      CG311       HGA1
   18     1    25    33	 9 ;      CG321      CG311      CG311      NG311
   18     1    25    26	 9 ;      CG321      CG311      CG311      NG2S1
   18     1    25    58	 9 ;      CG321      CG311      CG311       HGA1
   39     1    25    33	 9 ;       HGA1      CG311      CG311      NG311
   39     1    25    26	 9 ;       HGA1      CG311      CG311      NG2S1
   39     1    25    58	 9 ;       HGA1      CG311      CG311       HGA1
    2     1    18    19	 9 ;      NG311      CG311      CG321     CG2R61
    2     1    18    51	 9 ;      NG311      CG311      CG321       HGA2
    2     1    18    52	 9 ;      NG311      CG311      CG321       HGA2
   25     1    18    19	 9 ;      CG311      CG311      CG321     CG2R61
   25     1    18    51	 9 ;      CG311      CG311      CG321       HGA2
   25     1    18    52	 9 ;      CG311      CG311      CG321       HGA2
   39     1    18    19	 9 ;       HGA1      CG311      CG321     CG2R61
   39     1    18    51	 9 ;       HGA1      CG311      CG321       HGA2
   39     1    18    52	 9 ;       HGA1      CG311      CG321       HGA2
   17     2     3     4	 9 ;     HGPAM1      NG311      CG311      NG311
   17     2     3     5	 9 ;     HGPAM1      NG311      CG311     CG2R61
   17     2     3    62	 9 ;     HGPAM1      NG311      CG311       HGA1
    1     2     3     4	 9 ;      CG311      NG311      CG311      NG311
    1     2     3     5	 9 ;      CG311      NG311      CG311     CG2R61
    1     2     3    62	 9 ;      CG311      NG311      CG311       HGA1
    2     3     4     7	 9 ;      NG311      CG311      NG311     HGPAM1
    2     3     4     6	 9 ;      NG311      CG311      NG311      CG301
    5     3     4     7	 9 ;     CG2R61      CG311      NG311     HGPAM1
    5     3     4     6	 9 ;     CG2R61      CG311      NG311      CG301
   62     3     4     7	 9 ;       HGA1      CG311      NG311     HGPAM1
   62     3     4     6	 9 ;       HGA1      CG311      NG311      CG301
    4     3     5    11	 9 ;      NG311      CG311     CG2R61     CG2R61
    4     3     5    16	 9 ;      NG311      CG311     CG2R61     CG2R61
    2     3     5    11	 9 ;      NG311      CG311     CG2R61     CG2R61
    2     3     5    16	 9 ;      NG311      CG311     CG2R61     CG2R61
   62     3     5    11	 9 ;       HGA1      CG311     CG2R61     CG2R61
   62     3     5    16	 9 ;       HGA1      CG311     CG2R61     CG2R61
    7     4     6     9	 9 ;     HGPAM1      NG311      CG301      CG331
    7     4     6    10	 9 ;     HGPAM1      NG311      CG301      CG331
    7     4     6     8	 9 ;     HGPAM1      NG311      CG301      CG321
    3     4     6     9	 9 ;      CG311      NG311      CG301      CG331
    3     4     6    10	 9 ;      CG311      NG311      CG301      CG331
    3     4     6     8	 9 ;      CG311      NG311      CG301      CG321
    3     5    11     8	 9 ;      CG311     CG2R61     CG2R61      CG321
    3     5    11    12	 9 ;      CG311     CG2R61     CG2R61     CG2R61
   16     5    11     8	 9 ;     CG2R61     CG2R61     CG2R61      CG321
   16     5    11    12	 9 ;     CG2R61     CG2R61     CG2R61     CG2R61
    3     5    16    15	 9 ;      CG311     CG2R61     CG2R61     CG2R61
    3     5    16    50	 9 ;      CG311     CG2R61     CG2R61      HGR61
   11     5    16    15	 9 ;     CG2R61     CG2R61     CG2R61     CG2R61
   11     5    16    50	 9 ;     CG2R61     CG2R61     CG2R61      HGR61
    4     6     9    42	 9 ;      NG311      CG301      CG331       HGA3
    4     6     9    43	 9 ;      NG311      CG301      CG331       HGA3
    4     6     9    44	 9 ;      NG311      CG301      CG331       HGA3
   10     6     9    42	 9 ;      CG331      CG301      CG331       HGA3
   10     6     9    43	 9 ;      CG331      CG301      CG331       HGA3
   10     6     9    44	 9 ;      CG331      CG301      CG331       HGA3
    8     6     9    42	 9 ;      CG321      CG301      CG331       HGA3
    8     6     9    43	 9 ;      CG321      CG301      CG331       HGA3
    8     6     9    44	 9 ;      CG321      CG301      CG331       HGA3
    9     6    10    45	 9 ;      CG331      CG301      CG331       HGA3
    9     6    10    46	 9 ;      CG331      CG301      CG331       HGA3
    9     6    10    47	 9 ;      CG331      CG301      CG331       HGA3
    4     6    10    45	 9 ;      NG311      CG301      CG331       HGA3
    4     6    10    46	 9 ;      NG311      CG301      CG331       HGA3
    4     6    10    47	 9 ;      NG311      CG301      CG331       HGA3
    8     6    10    45	 9 ;      CG321      CG301      CG331       HGA3
    8     6    10    46	 9 ;      CG321      CG301      CG331       HGA3
    8     6    10    47	 9 ;      CG321      CG301      CG331       HGA3
    9     6     8    11	 9 ;      CG331      CG301      CG321     CG2R61
    9     6     8    40	 9 ;      CG331      CG301      CG321       HGA2
    9     6     8    41	 9 ;      CG331      CG301      CG321       HGA2
    4     6     8    11	 9 ;      NG311      CG301      CG321     CG2R61
    4     6     8    40	 9 ;      NG311      CG301      CG321       HGA2
    4     6     8    41	 9 ;      NG311      CG301      CG321       HGA2
   10     6     8    11	 9 ;      CG331      CG301      CG321     CG2R61
   10     6     8    40	 9 ;      CG331      CG301      CG321       HGA2
   10     6     8    41	 9 ;      CG331      CG301      CG321       HGA2
    6     8    11     5	 9 ;      CG301      CG321     CG2R61     CG2R61
    6     8    11    12	 9 ;      CG301      CG321     CG2R61     CG2R61
   40     8    11     5	 9 ;       HGA2      CG321     CG2R61     CG2R61
   40     8    11    12	 9 ;       HGA2      CG321     CG2R61     CG2R61
   41     8    11     5	 9 ;       HGA2      CG321     CG2R61     CG2R61
   41     8    11    12	 9 ;       HGA2      CG321     CG2R61     CG2R61
    8    11    12    13	 9 ;      CG321     CG2R61     CG2R61     CG2R61
    8    11    12    48	 9 ;      CG321     CG2R61     CG2R61      HGR62
    5    11    12    13	 9 ;     CG2R61     CG2R61     CG2R61     CG2R61
    5    11    12    48	 9 ;     CG2R61     CG2R61     CG2R61      HGR62
   11    12    13    15	 9 ;     CG2R61     CG2R61     CG2R61     CG2R61
   11    12    13    14	 9 ;     CG2R61     CG2R61     CG2R61      CLGR1
   48    12    13    15	 9 ;      HGR62     CG2R61     CG2R61     CG2R61
   48    12    13    14	 9 ;      HGR62     CG2R61     CG2R61      CLGR1
   12    13    15    16	 9 ;     CG2R61     CG2R61     CG2R61     CG2R61
   12    13    15    49	 9 ;     CG2R61     CG2R61     CG2R61      HGR62
   14    13    15    16	 9 ;      CLGR1     CG2R61     CG2R61     CG2R61
   14    13    15    49	 9 ;      CLGR1     CG2R61     CG2R61      HGR62
   13    15    16     5	 9 ;     CG2R61     CG2R61     CG2R61     CG2R61
   13    15    16    50	 9 ;     CG2R61     CG2R61     CG2R61      HGR61
   49    15    16     5	 9 ;      HGR62     CG2R61     CG2R61     CG2R61
   49    15    16    50	 9 ;      HGR62     CG2R61     CG2R61      HGR61
    1    18    19    24	 9 ;      CG311      CG321     CG2R61     CG2R61
    1    18    19    20	 9 ;      CG311      CG321     CG2R61     CG2R61
   51    18    19    24	 9 ;       HGA2      CG321     CG2R61     CG2R61
   51    18    19    20	 9 ;       HGA2      CG321     CG2R61     CG2R61
   52    18    19    24	 9 ;       HGA2      CG321     CG2R61     CG2R61
   52    18    19    20	 9 ;       HGA2      CG321     CG2R61     CG2R61
   18    19    24    23	 9 ;      CG321     CG2R61     CG2R61     CG2R61
   18    19    24    57	 9 ;      CG321     CG2R61     CG2R61      HGR61
   20    19    24    23	 9 ;     CG2R61     CG2R61     CG2R61     CG2R61
   20    19    24    57	 9 ;     CG2R61     CG2R61     CG2R61      HGR61
   18    19    20    21	 9 ;      CG321     CG2R61     CG2R61     CG2R61
   18    19    20    53	 9 ;      CG321     CG2R61     CG2R61      HGR61
   24    19    20    21	 9 ;     CG2R61     CG2R61     CG2R61     CG2R61
   24    19    20    53	 9 ;     CG2R61     CG2R61     CG2R61      HGR61
   19    20    21    22	 9 ;     CG2R61     CG2R61     CG2R61     CG2R61
   19    20    21    54	 9 ;     CG2R61     CG2R61     CG2R61      HGR61
   53    20    21    22	 9 ;      HGR61     CG2R61     CG2R61     CG2R61
   53    20    21    54	 9 ;      HGR61     CG2R61     CG2R61      HGR61
   20    21    22    23	 9 ;     CG2R61     CG2R61     CG2R61     CG2R61
   20    21    22    55	 9 ;     CG2R61     CG2R61     CG2R61      HGR61
   54    21    22    23	 9 ;      HGR61     CG2R61     CG2R61     CG2R61
   54    21    22    55	 9 ;      HGR61     CG2R61     CG2R61      HGR61
   21    22    23    24	 9 ;     CG2R61     CG2R61     CG2R61     CG2R61
   21    22    23    56	 9 ;     CG2R61     CG2R61     CG2R61      HGR61
   55    22    23    24	 9 ;      HGR61     CG2R61     CG2R61     CG2R61
   55    22    23    56	 9 ;      HGR61     CG2R61     CG2R61      HGR61
   22    23    24    19	 9 ;     CG2R61     CG2R61     CG2R61     CG2R61
   22    23    24    57	 9 ;     CG2R61     CG2R61     CG2R61      HGR61
   56    23    24    19	 9 ;      HGR61     CG2R61     CG2R61     CG2R61
   56    23    24    57	 9 ;      HGR61     CG2R61     CG2R61      HGR61
   26    25    33    31	 9 ;      NG2S1      CG311      NG311     CG2D1O
   26    25    33    35	 9 ;      NG2S1      CG311      NG311     HGPAM1
    1    25    33    31	 9 ;      CG311      CG311      NG311     CG2D1O
    1    25    33    35	 9 ;      CG311      CG311      NG311     HGPAM1
   58    25    33    31	 9 ;       HGA1      CG311      NG311     CG2D1O
   58    25    33    35	 9 ;       HGA1      CG311      NG311     HGPAM1
   33    25    26    27	 9 ;      NG311      CG311      NG2S1      CG2O1
   33    25    26    28	 9 ;      NG311      CG311      NG2S1       HGP1
    1    25    26    27	 9 ;      CG311      CG311      NG2S1      CG2O1
    1    25    26    28	 9 ;      CG311      CG311      NG2S1       HGP1
   58    25    26    27	 9 ;       HGA1      CG311      NG2S1      CG2O1
   58    25    26    28	 9 ;       HGA1      CG311      NG2S1       HGP1
   25    26    27    29	 9 ;      CG311      NG2S1      CG2O1      OG2D1
   25    26    27    30	 9 ;      CG311      NG2S1      CG2O1     CG2DC1
   28    26    27    29	 9 ;       HGP1      NG2S1      CG2O1      OG2D1
   28    26    27    30	 9 ;       HGP1      NG2S1      CG2O1     CG2DC1
   29    27    30    32	 9 ;      OG2D1      CG2O1     CG2DC1      CG321
   29    27    30    31	 9 ;      OG2D1      CG2O1     CG2DC1     CG2D1O
   26    27    30    32	 9 ;      NG2S1      CG2O1     CG2DC1      CG321
   26    27    30    31	 9 ;      NG2S1      CG2O1     CG2DC1     CG2D1O
   27    30    32    37	 9 ;      CG2O1     CG2DC1      CG321      NG311
   27    30    32    59	 9 ;      CG2O1     CG2DC1      CG321       HGA2
   27    30    32    63	 9 ;      CG2O1     CG2DC1      CG321       HGA2
   31    30    32    37	 9 ;     CG2D1O     CG2DC1      CG321      NG311
   31    30    32    59	 9 ;     CG2D1O     CG2DC1      CG321       HGA2
   31    30    32    63	 9 ;     CG2D1O     CG2DC1      CG321       HGA2
   32    30    31    34	 9 ;      CG321     CG2DC1     CG2D1O     CG2DC2
   32    30    31    33	 9 ;      CG321     CG2DC1     CG2D1O      NG311
   27    30    31    34	 9 ;      CG2O1     CG2DC1     CG2D1O     CG2DC2
   27    30    31    33	 9 ;      CG2O1     CG2DC1     CG2D1O      NG311
   30    31    34    36	 9 ;     CG2DC1     CG2D1O     CG2DC2     CG2D2O
   30    31    34    60	 9 ;     CG2DC1     CG2D1O     CG2DC2       HGA4
   33    31    34    36	 9 ;      NG311     CG2D1O     CG2DC2     CG2D2O
   33    31    34    60	 9 ;      NG311     CG2D1O     CG2DC2       HGA4
   30    31    33    35	 9 ;     CG2DC1     CG2D1O      NG311     HGPAM1
   30    31    33    25	 9 ;     CG2DC1     CG2D1O      NG311      CG311
   34    31    33    35	 9 ;     CG2DC2     CG2D1O      NG311     HGPAM1
   34    31    33    25	 9 ;     CG2DC2     CG2D1O      NG311      CG311
   30    32    37    38	 9 ;     CG2DC1      CG321      NG311     HGPAM1
   30    32    37    36	 9 ;     CG2DC1      CG321      NG311     CG2D2O
   59    32    37    38	 9 ;       HGA2      CG321      NG311     HGPAM1
   59    32    37    36	 9 ;       HGA2      CG321      NG311     CG2D2O
   63    32    37    38	 9 ;       HGA2      CG321      NG311     HGPAM1
   63    32    37    36	 9 ;       HGA2      CG321      NG311     CG2D2O
   31    34    36    37	 9 ;     CG2D1O     CG2DC2     CG2D2O      NG311
   31    34    36    61	 9 ;     CG2D1O     CG2DC2     CG2D2O       HGA4
   60    34    36    37	 9 ;       HGA4     CG2DC2     CG2D2O      NG311
   60    34    36    61	 9 ;       HGA4     CG2DC2     CG2D2O       HGA4
   34    36    37    38	 9 ;     CG2DC2     CG2D2O      NG311     HGPAM1
   34    36    37    32	 9 ;     CG2DC2     CG2D2O      NG311      CG321
   61    36    37    38	 9 ;       HGA4     CG2D2O      NG311     HGPAM1
   61    36    37    32	 9 ;       HGA4     CG2D2O      NG311      CG321

[ dihedrals ]
;	ai	  aj	ak	  al funct			  c0			c1			  c2			c3
   27    30    26    29	 2
   31    30    34    33	 2
   36    34    37    61	 2

[ virtual_sites2 ]
; Site   from				funct a
   64    14    13     2   -0.164

[ exclusions ]
;	ai	  aj
   14    64
   64    13
   64    12
   64    15
   64    11
   64    48
   64    16
   64    49

