Gallium Rubidium Oxygen Manganese Argon Carbon Silicon
   64
    1LIG     C1    1  -1.499   0.306  -1.577
    1LIG     N1    2  -1.474   0.451  -1.594
    1LIG     C2    3  -1.554   0.552  -1.619
    1LIG     N2    4  -1.498   0.658  -1.674
    1LIG     C3    5  -1.700   0.560  -1.585
    1LIG     C4    6  -1.569   0.783  -1.711
    1LIG     H1    7  -1.399   0.651  -1.699
    1LIG     C5    8  -1.715   0.749  -1.749
    1LIG     C6    9  -1.498   0.844  -1.832
    1LIG     C7   10  -1.559   0.877  -1.590
    1LIG     C8   11  -1.779   0.657  -1.650
    1LIG     C9   12  -1.916   0.671  -1.622
    1LIG    C10   13  -1.977   0.589  -1.526
    1LIG     CL   14  -2.143   0.608  -1.490
    1LIG    C11   15  -1.900   0.496  -1.458
    1LIG    C12   16  -1.763   0.481  -1.485
    1LIG     H2   17  -1.373   0.468  -1.596
    1LIG    C13   18  -1.535   0.241  -1.711
    1LIG    C14   19  -1.675   0.270  -1.762
    1LIG    C15   20  -1.788   0.231  -1.689
    1LIG    C16   21  -1.916   0.268  -1.731
    1LIG    C17   22  -1.932   0.345  -1.846
    1LIG    C18   23  -1.820   0.382  -1.921
    1LIG    C19   24  -1.692   0.345  -1.879
    1LIG    C20   25  -1.371   0.246  -1.516
    1LIG     N3   26  -1.305   0.322  -1.423
    1LIG    C21   27  -1.174   0.301  -1.391
    1LIG     H3   28  -1.349   0.395  -1.369
    1LIG      O   29  -1.102   0.387  -1.345
    1LIG    C22   30  -1.129   0.164  -1.413
    1LIG    C23   31  -1.211   0.081  -1.491
    1LIG    C24   32  -1.023   0.112  -1.344
    1LIG     N4   33  -1.327   0.131  -1.558
    1LIG    C25   34  -1.180  -0.054  -1.497
    1LIG    HN1   35  -1.373   0.079  -1.633
    1LIG    C26   36  -1.072  -0.099  -1.423
    1LIG     N5   37  -0.993  -0.020  -1.346
    1LIG    HN2   38  -0.914  -0.058  -1.294
    1LIG     HC   39  -1.581   0.292  -1.507
    1LIG    HC2   40  -1.772   0.842  -1.753
    1LIG    HC3   41  -1.716   0.702  -1.847
    1LIG    HC1   42  -1.395   0.868  -1.805
    1LIG    HC4   43  -1.550   0.935  -1.862
    1LIG    HC5   44  -1.499   0.773  -1.914
    1LIG    HC6   45  -1.610   0.832  -1.505
    1LIG    HC7   46  -1.606   0.972  -1.615
    1LIG    HC8   47  -1.454   0.893  -1.566
    1LIG    HC9   48  -1.975   0.745  -1.674
    1LIG   HC10   49  -1.946   0.434  -1.383
    1LIG   HC11   50  -1.705   0.409  -1.430
    1LIG   HC12   51  -1.464   0.275  -1.785
    1LIG   HC13   52  -1.525   0.133  -1.700
    1LIG   HC14   53  -1.776   0.171  -1.600
    1LIG   HC15   54  -2.002   0.238  -1.674
    1LIG   HC16   55  -2.030   0.377  -1.877
    1LIG   HC17   56  -1.833   0.440  -2.011
    1LIG   HC18   57  -1.607   0.373  -1.939
    1LIG   HC19   58  -1.429   0.198  -1.438
    1LIG   HC20   59  -0.962   0.178  -1.284
    1LIG   HC21   60  -1.238  -0.121  -1.557
    1LIG   HC22   61  -1.049  -0.205  -1.426
    1LIG    H29   62  -1.578   0.511  -1.717
    1LIG    H30   63  -0.958   0.128  -1.429
    1LIG    LP1   64  -2.303   0.626  -1.455
   0.00000   0.00000   0.00000
