GROningen MAchine for Chemical Simulation
   68
    1LIG     C1    1  -1.671   0.581  -1.718
    1LIG     C2    2  -1.699   0.692  -1.615
    1LIG     O1    3  -1.756   0.624  -1.501
    1LIG     H1    4  -1.714   0.658  -1.419
    1LIG     C3    5  -1.579   0.781  -1.574
    1LIG     C4    6  -1.464   0.781  -1.678
    1LIG     C5    7  -1.336   0.723  -1.625
    1LIG     C6    8  -1.334   0.637  -1.514
    1LIG     C7    9  -1.213   0.585  -1.468
    1LIG     F1   10  -1.214   0.504  -1.362
    1LIG     C8   11  -1.092   0.617  -1.529
    1LIG     C9   12  -1.094   0.702  -1.639
    1LIG    C10   13  -1.214   0.754  -1.687
    1LIG     F2   14  -0.980   0.735  -1.699
    1LIG     N1   15  -1.621   0.914  -1.527
    1LIG    C11   16  -1.693   1.005  -1.600
    1LIG     O2   17  -1.736   0.980  -1.712
    1LIG    C12   18  -1.721   1.135  -1.529
    1LIG     H2   19  -1.576   0.950  -1.443
    1LIG     N2   20  -1.632   0.458  -1.639
    1LIG     H3   21  -1.563   0.493  -1.570
    1LIG     H4   22  -1.711   0.424  -1.585
    1LIG    C13   23  -1.570   0.348  -1.715
    1LIG    C14   24  -1.641   0.303  -1.841
    1LIG    C15   25  -1.648   0.218  -1.718
    1LIG    C16   26  -1.420   0.344  -1.704
    1LIG    C17   27  -1.357   0.265  -1.605
    1LIG    C18   28  -1.220   0.236  -1.606
    1LIG    C19   29  -1.145   0.297  -1.707
    1LIG    C20   30  -1.202   0.381  -1.803
    1LIG    C21   31  -1.339   0.404  -1.801
    1LIG     N3   32  -1.167   0.149  -1.516
    1LIG    C22   33  -1.119   0.182  -1.381
    1LIG    C23   34  -1.012   0.073  -1.360
    1LIG    C24   35  -1.229   0.139  -1.283
    1LIG    C25   36  -1.110  -0.040  -1.392
    1LIG    C26   37  -1.221  -0.015  -1.289
    1LIG    C27   38  -1.160   0.003  -1.531
    1LIG    HC2   39  -1.760   0.560  -1.777
    1LIG    HC3   40  -1.589   0.610  -1.784
    1LIG     HC   41  -1.775   0.757  -1.657
    1LIG    HC1   42  -1.536   0.733  -1.486
    1LIG    HC4   43  -1.446   0.884  -1.709
    1LIG    HC5   44  -1.496   0.724  -1.765
    1LIG    HC6   45  -1.426   0.612  -1.464
    1LIG    HC7   46  -0.999   0.577  -1.492
    1LIG    HC8   47  -1.213   0.820  -1.773
    1LIG    HC9   48  -1.779   1.200  -1.594
    1LIG   HC10   49  -1.778   1.114  -1.438
    1LIG   HC11   50  -1.627   1.183  -1.503
    1LIG   HC12   51  -1.583   0.270  -1.927
    1LIG   HC13   52  -1.732   0.358  -1.864
    1LIG   HC14   53  -1.741   0.210  -1.662
    1LIG   HC15   54  -1.587   0.128  -1.720
    1LIG   HC16   55  -1.418   0.225  -1.526
    1LIG   HC17   56  -1.038   0.278  -1.711
    1LIG   HC18   57  -1.140   0.428  -1.878
    1LIG   HC19   58  -1.383   0.469  -1.876
    1LIG   HC20   59  -1.084   0.284  -1.368
    1LIG   HC21   60  -0.973   0.070  -1.258
    1LIG   HC22   61  -0.932   0.080  -1.434
    1LIG   HC23   62  -1.327   0.174  -1.316
    1LIG   HC24   63  -1.207   0.175  -1.183
    1LIG   HC25   64  -1.066  -0.140  -1.388
    1LIG   HC26   65  -1.315  -0.058  -1.321
    1LIG   HC27   66  -1.192  -0.055  -1.191
    1LIG   HC28   67  -1.258  -0.040  -1.553
    1LIG   HC29   68  -1.089  -0.025  -1.609
   0.00000   0.00000   0.00000
