Getting the Right Output Means no Artefacts in Calculating Stuff
   62
    1LIG     C1    1  -1.186   0.633  -1.525
    1LIG     C2    2  -1.192   0.514  -1.427
    1LIG     N1    3  -1.248   0.397  -1.504
    1LIG     H1    4  -1.167   0.344  -1.539
    1LIG     H2    5  -1.289   0.438  -1.589
    1LIG     C3    6  -1.347   0.300  -1.442
    1LIG     C4    7  -1.300   0.158  -1.488
    1LIG     C5    8  -1.166   0.111  -1.432
    1LIG     C6    9  -1.162   0.120  -1.280
    1LIG     C7   10  -1.199   0.259  -1.231
    1LIG     C8   11  -1.334   0.305  -1.287
    1LIG     C9   12  -1.492   0.327  -1.487
    1LIG    C10   13  -1.572   0.422  -1.421
    1LIG    C11   14  -1.710   0.430  -1.445
    1LIG      I   15  -1.826   0.568  -1.341
    1LIG    C12   16  -1.771   0.343  -1.535
    1LIG    C13   17  -1.692   0.255  -1.608
    1LIG    C14   18  -1.554   0.249  -1.587
    1LIG     O1   19  -1.073   0.713  -1.485
    1LIG     H3   20  -1.103   0.806  -1.482
    1LIG    C15   21  -1.180   0.594  -1.675
    1LIG    C16   22  -1.260   0.691  -1.765
    1LIG    C17   23  -1.407   0.697  -1.734
    1LIG    C18   24  -1.497   0.603  -1.785
    1LIG    C19   25  -1.634   0.612  -1.756
    1LIG     F1   26  -1.718   0.522  -1.807
    1LIG    C20   27  -1.683   0.714  -1.676
    1LIG    C21   28  -1.594   0.805  -1.623
    1LIG     F2   29  -1.639   0.904  -1.543
    1LIG    C22   30  -1.457   0.797  -1.649
    1LIG     N2   31  -1.040   0.576  -1.719
    1LIG    C23   32  -0.997   0.450  -1.757
    1LIG     O2   33  -1.066   0.349  -1.740
    1LIG    C24   34  -0.859   0.445  -1.817
    1LIG     H4   35  -0.989   0.655  -1.755
    1LIG     HC   36  -1.276   0.693  -1.510
    1LIG    HC2   37  -1.257   0.538  -1.343
    1LIG    HC3   38  -1.092   0.490  -1.391
    1LIG    HC4   39  -1.293   0.158  -1.597
    1LIG    HC5   40  -1.376   0.085  -1.459
    1LIG    HC6   41  -1.149   0.008  -1.461
    1LIG    HC7   42  -1.086   0.174  -1.473
    1LIG    HC8   43  -1.061   0.097  -1.246
    1LIG    HC9   44  -1.231   0.048  -1.238
    1LIG   HC10   45  -1.204   0.258  -1.122
    1LIG   HC11   46  -1.122   0.330  -1.263
    1LIG   HC12   47  -1.351   0.407  -1.255
    1LIG   HC13   48  -1.412   0.241  -1.244
    1LIG    HC1   49  -1.527   0.491  -1.351
    1LIG   HC14   50  -1.879   0.344  -1.547
    1LIG   HC15   51  -1.738   0.191  -1.682
    1LIG   HC16   52  -1.494   0.184  -1.648
    1LIG   HC17   53  -1.228   0.496  -1.684
    1LIG   HC18   54  -1.248   0.660  -1.869
    1LIG   HC19   55  -1.218   0.791  -1.754
    1LIG   HC20   56  -1.462   0.521  -1.846
    1LIG   HC21   57  -1.789   0.723  -1.656
    1LIG   HC22   58  -1.390   0.869  -1.605
    1LIG   HC23   59  -0.834   0.342  -1.843
    1LIG   HC24   60  -0.857   0.507  -1.907
    1LIG   HC25   61  -0.786   0.483  -1.745
    1LIG    LP1   62  -1.947   0.715  -1.231
   0.00000   0.00000   0.00000
