; Created by cgenff_charmm2gmx.py

[ moleculetype ]
; Name			   nrexcl
LIG				 3

[ atoms ]
;	 nr		  type	resnr residue  atom   cgnr	   charge		mass  typeB    chargeB		massB
; residue	 1 LIG rtp LIG q	qsum
     1      CG311      1    LIG     C1      1      0.089     12.011   ;
     2      CG324      1    LIG     C2      2      0.208     12.011   ;
     3      NG3P2      1    LIG     N1      3     -0.450     14.007   ;
     4       HGP2      1    LIG     H1      4      0.341      1.008   ;
     5       HGP2      1    LIG     H2      5      0.341      1.008   ;
     6      CG301      1    LIG     C3      6      0.295     12.011   ;
     7      CG321      1    LIG     C4      7     -0.147     12.011   ;
     8      CG321      1    LIG     C5      8     -0.202     12.011   ;
     9      CG321      1    LIG     C6      9     -0.176     12.011   ;
    10      CG321      1    LIG     C7     10     -0.202     12.011   ;
    11      CG321      1    LIG     C8     11     -0.147     12.011   ;
    12     CG2R61      1    LIG     C9     12      0.082     12.011   ;
    13     CG2R61      1    LIG    C10     13     -0.086     12.011   ;
    14     CG2R61      1    LIG    C11     14     -0.025     12.011   ;
    15       IGR1      1    LIG      I     15     -0.170    126.904   ;
    16     CG2R61      1    LIG    C12     16     -0.073     12.011   ;
    17     CG2R61      1    LIG    C13     17     -0.113     12.011   ;
    18     CG2R61      1    LIG    C14     18     -0.121     12.011   ;
    19      OG311      1    LIG     O1     19     -0.625     15.999   ;
    20       HGP1      1    LIG     H3     20      0.415      1.008   ;
    21      CG311      1    LIG    C15     21     -0.007     12.011   ;
    22      CG321      1    LIG    C16     22     -0.153     12.011   ;
    23     CG2R61      1    LIG    C17     23      0.057     12.011   ;
    24     CG2R61      1    LIG    C18     24     -0.218     12.011   ;
    25     CG2R66      1    LIG    C19     25      0.261     12.011   ;
    26       FGR1      1    LIG     F1     26     -0.210     18.998   ;
    27     CG2R61      1    LIG    C20     27     -0.240     12.011   ;
    28     CG2R66      1    LIG    C21     28      0.261     12.011   ;
    29       FGR1      1    LIG     F2     29     -0.210     18.998   ;
    30     CG2R61      1    LIG    C22     30     -0.218     12.011   ;
    31      NG2S1      1    LIG     N2     31     -0.339     14.007   ;
    32      CG2O1      1    LIG    C23     32      0.488     12.011   ;
    33      OG2D1      1    LIG     O2     33     -0.509     15.999   ;
    34      CG331      1    LIG    C24     34     -0.270     12.011   ;
    35       HGP1      1    LIG     H4     35      0.261      1.008   ;
    36       HGA1      1    LIG     HC     36      0.090      1.008   ;
    37       HGA2      1    LIG    HC2     37      0.090      1.008   ;
    38       HGA2      1    LIG    HC3     38      0.090      1.008   ;
    39       HGA2      1    LIG    HC4     39      0.090      1.008   ;
    40       HGA2      1    LIG    HC5     40      0.090      1.008   ;
    41       HGA2      1    LIG    HC6     41      0.090      1.008   ;
    42       HGA2      1    LIG    HC7     42      0.090      1.008   ;
    43       HGA2      1    LIG    HC8     43      0.090      1.008   ;
    44       HGA2      1    LIG    HC9     44      0.090      1.008   ;
    45       HGA2      1    LIG   HC10     45      0.090      1.008   ;
    46       HGA2      1    LIG   HC11     46      0.090      1.008   ;
    47       HGA2      1    LIG   HC12     47      0.090      1.008   ;
    48       HGA2      1    LIG   HC13     48      0.090      1.008   ;
    49      HGR62      1    LIG    HC1     49      0.143      1.008   ;
    50      HGR62      1    LIG   HC14     50      0.143      1.008   ;
    51      HGR61      1    LIG   HC15     51      0.116      1.008   ;
    52      HGR61      1    LIG   HC16     52      0.116      1.008   ;
    53       HGA1      1    LIG   HC17     53      0.090      1.008   ;
    54       HGA2      1    LIG   HC18     54      0.090      1.008   ;
    55       HGA2      1    LIG   HC19     55      0.090      1.008   ;
    56      HGR62      1    LIG   HC20     56      0.174      1.008   ;
    57      HGR62      1    LIG   HC21     57      0.186      1.008   ;
    58      HGR62      1    LIG   HC22     58      0.174      1.008   ;
    59       HGA3      1    LIG   HC23     59      0.090      1.008   ;
    60       HGA3      1    LIG   HC24     60      0.090      1.008   ;
    61       HGA3      1    LIG   HC25     61      0.090      1.008   ;
    62        LPH      1    LIG    LP1     62      0.050      0.000   ;

[ bonds ]
;	ai	  aj funct			  c0			c1			  c2			c3
    1    21	 1 ;       CG311      CG311
    1    19	 1 ;       CG311      OG311
    1     2	 1 ;       CG311      CG324
    1    36	 1 ;       CG311       HGA1
    2     3	 1 ;       CG324      NG3P2
    2    37	 1 ;       CG324       HGA2
    2    38	 1 ;       CG324       HGA2
    3     4	 1 ;       NG3P2       HGP2
    3     5	 1 ;       NG3P2       HGP2
    3     6	 1 ;       NG3P2      CG301
    6     7	 1 ;       CG301      CG321
    6    12	 1 ;       CG301     CG2R61
    6    11	 1 ;       CG301      CG321
    7     8	 1 ;       CG321      CG321
    7    39	 1 ;       CG321       HGA2
    7    40	 1 ;       CG321       HGA2
    8     9	 1 ;       CG321      CG321
    8    41	 1 ;       CG321       HGA2
    8    42	 1 ;       CG321       HGA2
    9    10	 1 ;       CG321      CG321
    9    43	 1 ;       CG321       HGA2
    9    44	 1 ;       CG321       HGA2
   10    11	 1 ;       CG321      CG321
   10    45	 1 ;       CG321       HGA2
   10    46	 1 ;       CG321       HGA2
   11    47	 1 ;       CG321       HGA2
   11    48	 1 ;       CG321       HGA2
   12    18	 1 ;      CG2R61     CG2R61
   12    13	 1 ;      CG2R61     CG2R61
   13    14	 1 ;      CG2R61     CG2R61
   13    49	 1 ;      CG2R61      HGR62
   14    16	 1 ;      CG2R61     CG2R61
   14    15	 1 ;      CG2R61       IGR1
   16    17	 1 ;      CG2R61     CG2R61
   16    50	 1 ;      CG2R61      HGR62
   17    18	 1 ;      CG2R61     CG2R61
   17    51	 1 ;      CG2R61      HGR61
   18    52	 1 ;      CG2R61      HGR61
   19    20	 1 ;       OG311       HGP1
   21    31	 1 ;       CG311      NG2S1
   21    22	 1 ;       CG311      CG321
   21    53	 1 ;       CG311       HGA1
   22    23	 1 ;       CG321     CG2R61
   22    54	 1 ;       CG321       HGA2
   22    55	 1 ;       CG321       HGA2
   23    24	 1 ;      CG2R61     CG2R61
   23    30	 1 ;      CG2R61     CG2R61
   24    25	 1 ;      CG2R61     CG2R66
   24    56	 1 ;      CG2R61      HGR62
   25    26	 1 ;      CG2R66       FGR1
   25    27	 1 ;      CG2R66     CG2R61
   27    28	 1 ;      CG2R61     CG2R66
   27    57	 1 ;      CG2R61      HGR62
   28    30	 1 ;      CG2R66     CG2R61
   28    29	 1 ;      CG2R66       FGR1
   30    58	 1 ;      CG2R61      HGR62
   31    32	 1 ;       NG2S1      CG2O1
   31    35	 1 ;       NG2S1       HGP1
   32    34	 1 ;       CG2O1      CG331
   32    33	 1 ;       CG2O1      OG2D1
   34    59	 1 ;       CG331       HGA3
   34    60	 1 ;       CG331       HGA3
   34    61	 1 ;       CG331       HGA3

[ pairs ]
;	ai	  aj funct			  c0			c1			  c2			c3
    1     4	 1
    1     5	 1
    1     6	 1
    1    32	 1
    1    35	 1
    1    23	 1
    1    54	 1
    1    55	 1
    2    31	 1
    2    22	 1
    2    53	 1
    2    20	 1
    2     7	 1
    2    12	 1
    2    11	 1
    3    21	 1
    3    19	 1
    3    36	 1
    3     8	 1
    3    39	 1
    3    40	 1
    3    18	 1
    3    13	 1
    3    10	 1
    3    47	 1
    3    48	 1
    4    37	 1
    4    38	 1
    4     7	 1
    4    12	 1
    4    11	 1
    5    37	 1
    5    38	 1
    5     7	 1
    5    12	 1
    5    11	 1
    6    37	 1
    6    38	 1
    6     9	 1
    6    41	 1
    6    42	 1
    6    45	 1
    6    46	 1
    6    17	 1
    6    52	 1
    6    14	 1
    6    49	 1
    7    18	 1
    7    13	 1
    7    10	 1
    7    47	 1
    7    48	 1
    7    43	 1
    7    44	 1
    8    12	 1
    8    11	 1
    8    45	 1
    8    46	 1
    9    39	 1
    9    40	 1
    9    47	 1
    9    48	 1
   10    12	 1
   10    41	 1
   10    42	 1
   11    39	 1
   11    40	 1
   11    18	 1
   11    13	 1
   11    43	 1
   11    44	 1
   12    39	 1
   12    40	 1
   12    47	 1
   12    48	 1
   12    16	 1
   12    15	 1
   62    12	 1
   12    51	 1
   13    17	 1
   13    52	 1
   13    50	 1
   14    18	 1
   14    51	 1
   15    49	 1
   62    49	 1
   15    17	 1
   62    17	 1
   15    50	 1
   62    50	 1
   16    49	 1
   16    52	 1
   18    49	 1
   18    50	 1
   19    31	 1
   19    22	 1
   19    53	 1
   19    37	 1
   19    38	 1
   20    21	 1
   20    36	 1
   21    37	 1
   21    38	 1
   21    24	 1
   21    30	 1
   21    34	 1
   21    33	 1
   22    36	 1
   22    32	 1
   22    35	 1
   22    25	 1
   22    56	 1
   22    28	 1
   22    58	 1
   23    31	 1
   23    53	 1
   23    26	 1
   23    27	 1
   23    29	 1
   24    54	 1
   24    55	 1
   24    28	 1
   24    58	 1
   24    57	 1
   25    30	 1
   25    29	 1
   26    56	 1
   26    28	 1
   26    57	 1
   27    56	 1
   27    58	 1
   29    57	 1
   29    58	 1
   30    54	 1
   30    55	 1
   30    56	 1
   30    57	 1
   31    36	 1
   31    54	 1
   31    55	 1
   31    59	 1
   31    60	 1
   31    61	 1
   32    53	 1
   33    35	 1
   33    59	 1
   33    60	 1
   33    61	 1
   34    35	 1
   35    53	 1
   36    53	 1
   36    37	 1
   36    38	 1
   39    41	 1
   39    42	 1
   40    41	 1
   40    42	 1
   41    43	 1
   41    44	 1
   42    43	 1
   42    44	 1
   43    45	 1
   43    46	 1
   44    45	 1
   44    46	 1
   45    47	 1
   45    48	 1
   46    47	 1
   46    48	 1
   50    51	 1
   51    52	 1
   53    54	 1
   53    55	 1

[ angles ]
;	ai	  aj	ak funct			c0			  c1			c2			  c3
   21     1    19	5 ;      CG311      CG311      OG311
   21     1     2	5 ;      CG311      CG311      CG324
   21     1    36	5 ;      CG311      CG311       HGA1
   19     1     2	5 ;      OG311      CG311      CG324
   19     1    36	5 ;      OG311      CG311       HGA1
    2     1    36	5 ;      CG324      CG311       HGA1
    1     2     3	5 ;      CG311      CG324      NG3P2
    1     2    37	5 ;      CG311      CG324       HGA2
    1     2    38	5 ;      CG311      CG324       HGA2
    3     2    37	5 ;      NG3P2      CG324       HGA2
    3     2    38	5 ;      NG3P2      CG324       HGA2
   37     2    38	5 ;       HGA2      CG324       HGA2
    4     3     5	5 ;       HGP2      NG3P2       HGP2
    4     3     2	5 ;       HGP2      NG3P2      CG324
    4     3     6	5 ;       HGP2      NG3P2      CG301
    5     3     2	5 ;       HGP2      NG3P2      CG324
    5     3     6	5 ;       HGP2      NG3P2      CG301
    2     3     6	5 ;      CG324      NG3P2      CG301
    3     6     7	5 ;      NG3P2      CG301      CG321
    3     6    12	5 ;      NG3P2      CG301     CG2R61
    3     6    11	5 ;      NG3P2      CG301      CG321
    7     6    12	5 ;      CG321      CG301     CG2R61
    7     6    11	5 ;      CG321      CG301      CG321
   12     6    11	5 ;     CG2R61      CG301      CG321
    8     7     6	5 ;      CG321      CG321      CG301
    8     7    39	5 ;      CG321      CG321       HGA2
    8     7    40	5 ;      CG321      CG321       HGA2
    6     7    39	5 ;      CG301      CG321       HGA2
    6     7    40	5 ;      CG301      CG321       HGA2
   39     7    40	5 ;       HGA2      CG321       HGA2
    7     8     9	5 ;      CG321      CG321      CG321
    7     8    41	5 ;      CG321      CG321       HGA2
    7     8    42	5 ;      CG321      CG321       HGA2
    9     8    41	5 ;      CG321      CG321       HGA2
    9     8    42	5 ;      CG321      CG321       HGA2
   41     8    42	5 ;       HGA2      CG321       HGA2
    8     9    10	5 ;      CG321      CG321      CG321
    8     9    43	5 ;      CG321      CG321       HGA2
    8     9    44	5 ;      CG321      CG321       HGA2
   10     9    43	5 ;      CG321      CG321       HGA2
   10     9    44	5 ;      CG321      CG321       HGA2
   43     9    44	5 ;       HGA2      CG321       HGA2
    9    10    11	5 ;      CG321      CG321      CG321
    9    10    45	5 ;      CG321      CG321       HGA2
    9    10    46	5 ;      CG321      CG321       HGA2
   11    10    45	5 ;      CG321      CG321       HGA2
   11    10    46	5 ;      CG321      CG321       HGA2
   45    10    46	5 ;       HGA2      CG321       HGA2
    6    11    10	5 ;      CG301      CG321      CG321
    6    11    47	5 ;      CG301      CG321       HGA2
    6    11    48	5 ;      CG301      CG321       HGA2
   10    11    47	5 ;      CG321      CG321       HGA2
   10    11    48	5 ;      CG321      CG321       HGA2
   47    11    48	5 ;       HGA2      CG321       HGA2
    6    12    18	5 ;      CG301     CG2R61     CG2R61
    6    12    13	5 ;      CG301     CG2R61     CG2R61
   18    12    13	5 ;     CG2R61     CG2R61     CG2R61
   12    13    14	5 ;     CG2R61     CG2R61     CG2R61
   12    13    49	5 ;     CG2R61     CG2R61      HGR62
   14    13    49	5 ;     CG2R61     CG2R61      HGR62
   13    14    16	5 ;     CG2R61     CG2R61     CG2R61
   13    14    15	5 ;     CG2R61     CG2R61       IGR1
   16    14    15	5 ;     CG2R61     CG2R61       IGR1
   17    16    14	5 ;     CG2R61     CG2R61     CG2R61
   17    16    50	5 ;     CG2R61     CG2R61      HGR62
   14    16    50	5 ;     CG2R61     CG2R61      HGR62
   18    17    16	5 ;     CG2R61     CG2R61     CG2R61
   18    17    51	5 ;     CG2R61     CG2R61      HGR61
   16    17    51	5 ;     CG2R61     CG2R61      HGR61
   12    18    17	5 ;     CG2R61     CG2R61     CG2R61
   12    18    52	5 ;     CG2R61     CG2R61      HGR61
   17    18    52	5 ;     CG2R61     CG2R61      HGR61
   20    19     1	5 ;       HGP1      OG311      CG311
   31    21    22	5 ;      NG2S1      CG311      CG321
   31    21     1	5 ;      NG2S1      CG311      CG311
   31    21    53	5 ;      NG2S1      CG311       HGA1
   22    21     1	5 ;      CG321      CG311      CG311
   22    21    53	5 ;      CG321      CG311       HGA1
    1    21    53	5 ;      CG311      CG311       HGA1
   21    22    23	5 ;      CG311      CG321     CG2R61
   21    22    54	5 ;      CG311      CG321       HGA2
   21    22    55	5 ;      CG311      CG321       HGA2
   23    22    54	5 ;     CG2R61      CG321       HGA2
   23    22    55	5 ;     CG2R61      CG321       HGA2
   54    22    55	5 ;       HGA2      CG321       HGA2
   22    23    24	5 ;      CG321     CG2R61     CG2R61
   22    23    30	5 ;      CG321     CG2R61     CG2R61
   24    23    30	5 ;     CG2R61     CG2R61     CG2R61
   23    24    25	5 ;     CG2R61     CG2R61     CG2R66
   23    24    56	5 ;     CG2R61     CG2R61      HGR62
   25    24    56	5 ;     CG2R66     CG2R61      HGR62
   24    25    26	5 ;     CG2R61     CG2R66       FGR1
   24    25    27	5 ;     CG2R61     CG2R66     CG2R61
   26    25    27	5 ;       FGR1     CG2R66     CG2R61
   25    27    28	5 ;     CG2R66     CG2R61     CG2R66
   25    27    57	5 ;     CG2R66     CG2R61      HGR62
   28    27    57	5 ;     CG2R66     CG2R61      HGR62
   30    28    27	5 ;     CG2R61     CG2R66     CG2R61
   30    28    29	5 ;     CG2R61     CG2R66       FGR1
   27    28    29	5 ;     CG2R61     CG2R66       FGR1
   23    30    28	5 ;     CG2R61     CG2R61     CG2R66
   23    30    58	5 ;     CG2R61     CG2R61      HGR62
   28    30    58	5 ;     CG2R66     CG2R61      HGR62
   32    31    35	5 ;      CG2O1      NG2S1       HGP1
   32    31    21	5 ;      CG2O1      NG2S1      CG311
   35    31    21	5 ;       HGP1      NG2S1      CG311
   34    32    33	5 ;      CG331      CG2O1      OG2D1
   34    32    31	5 ;      CG331      CG2O1      NG2S1
   33    32    31	5 ;      OG2D1      CG2O1      NG2S1
   32    34    59	5 ;      CG2O1      CG331       HGA3
   32    34    60	5 ;      CG2O1      CG331       HGA3
   32    34    61	5 ;      CG2O1      CG331       HGA3
   59    34    60	5 ;       HGA3      CG331       HGA3
   59    34    61	5 ;       HGA3      CG331       HGA3
   60    34    61	5 ;       HGA3      CG331       HGA3

[ dihedrals ]
;	ai	  aj	ak	  al funct			  c0			c1			  c2			c3			  c4			c5
   19     1    21    31	 9 ;      OG311      CG311      CG311      NG2S1
   19     1    21    22	 9 ;      OG311      CG311      CG311      CG321
   19     1    21    53	 9 ;      OG311      CG311      CG311       HGA1
    2     1    21    31	 9 ;      CG324      CG311      CG311      NG2S1
    2     1    21    22	 9 ;      CG324      CG311      CG311      CG321
    2     1    21    53	 9 ;      CG324      CG311      CG311       HGA1
   36     1    21    31	 9 ;       HGA1      CG311      CG311      NG2S1
   36     1    21    22	 9 ;       HGA1      CG311      CG311      CG321
   36     1    21    53	 9 ;       HGA1      CG311      CG311       HGA1
   21     1    19    20	 9 ;      CG311      CG311      OG311       HGP1
    2     1    19    20	 9 ;      CG324      CG311      OG311       HGP1
   36     1    19    20	 9 ;       HGA1      CG311      OG311       HGP1
   21     1     2     3	 9 ;      CG311      CG311      CG324      NG3P2
   21     1     2    37	 9 ;      CG311      CG311      CG324       HGA2
   21     1     2    38	 9 ;      CG311      CG311      CG324       HGA2
   19     1     2     3	 9 ;      OG311      CG311      CG324      NG3P2
   19     1     2    37	 9 ;      OG311      CG311      CG324       HGA2
   19     1     2    38	 9 ;      OG311      CG311      CG324       HGA2
   36     1     2     3	 9 ;       HGA1      CG311      CG324      NG3P2
   36     1     2    37	 9 ;       HGA1      CG311      CG324       HGA2
   36     1     2    38	 9 ;       HGA1      CG311      CG324       HGA2
    1     2     3     4	 9 ;      CG311      CG324      NG3P2       HGP2
    1     2     3     5	 9 ;      CG311      CG324      NG3P2       HGP2
    1     2     3     6	 9 ;      CG311      CG324      NG3P2      CG301
   37     2     3     4	 9 ;       HGA2      CG324      NG3P2       HGP2
   37     2     3     5	 9 ;       HGA2      CG324      NG3P2       HGP2
   37     2     3     6	 9 ;       HGA2      CG324      NG3P2      CG301
   38     2     3     4	 9 ;       HGA2      CG324      NG3P2       HGP2
   38     2     3     5	 9 ;       HGA2      CG324      NG3P2       HGP2
   38     2     3     6	 9 ;       HGA2      CG324      NG3P2      CG301
    4     3     6     7	 9 ;       HGP2      NG3P2      CG301      CG321
    4     3     6    12	 9 ;       HGP2      NG3P2      CG301     CG2R61
    4     3     6    11	 9 ;       HGP2      NG3P2      CG301      CG321
    5     3     6     7	 9 ;       HGP2      NG3P2      CG301      CG321
    5     3     6    12	 9 ;       HGP2      NG3P2      CG301     CG2R61
    5     3     6    11	 9 ;       HGP2      NG3P2      CG301      CG321
    2     3     6     7	 9 ;      CG324      NG3P2      CG301      CG321
    2     3     6    12	 9 ;      CG324      NG3P2      CG301     CG2R61
    2     3     6    11	 9 ;      CG324      NG3P2      CG301      CG321
    3     6     7     8	 9 ;      NG3P2      CG301      CG321      CG321
    3     6     7    39	 9 ;      NG3P2      CG301      CG321       HGA2
    3     6     7    40	 9 ;      NG3P2      CG301      CG321       HGA2
   12     6     7     8	 9 ;     CG2R61      CG301      CG321      CG321
   12     6     7    39	 9 ;     CG2R61      CG301      CG321       HGA2
   12     6     7    40	 9 ;     CG2R61      CG301      CG321       HGA2
   11     6     7     8	 9 ;      CG321      CG301      CG321      CG321
   11     6     7    39	 9 ;      CG321      CG301      CG321       HGA2
   11     6     7    40	 9 ;      CG321      CG301      CG321       HGA2
    3     6    12    18	 9 ;      NG3P2      CG301     CG2R61     CG2R61
    3     6    12    13	 9 ;      NG3P2      CG301     CG2R61     CG2R61
    7     6    12    18	 9 ;      CG321      CG301     CG2R61     CG2R61
    7     6    12    13	 9 ;      CG321      CG301     CG2R61     CG2R61
   11     6    12    18	 9 ;      CG321      CG301     CG2R61     CG2R61
   11     6    12    13	 9 ;      CG321      CG301     CG2R61     CG2R61
    3     6    11    10	 9 ;      NG3P2      CG301      CG321      CG321
    3     6    11    47	 9 ;      NG3P2      CG301      CG321       HGA2
    3     6    11    48	 9 ;      NG3P2      CG301      CG321       HGA2
    7     6    11    10	 9 ;      CG321      CG301      CG321      CG321
    7     6    11    47	 9 ;      CG321      CG301      CG321       HGA2
    7     6    11    48	 9 ;      CG321      CG301      CG321       HGA2
   12     6    11    10	 9 ;     CG2R61      CG301      CG321      CG321
   12     6    11    47	 9 ;     CG2R61      CG301      CG321       HGA2
   12     6    11    48	 9 ;     CG2R61      CG301      CG321       HGA2
    6     7     8     9	 9 ;      CG301      CG321      CG321      CG321
    6     7     8    41	 9 ;      CG301      CG321      CG321       HGA2
    6     7     8    42	 9 ;      CG301      CG321      CG321       HGA2
   39     7     8     9	 9 ;       HGA2      CG321      CG321      CG321
   39     7     8    41	 9 ;       HGA2      CG321      CG321       HGA2
   39     7     8    42	 9 ;       HGA2      CG321      CG321       HGA2
   40     7     8     9	 9 ;       HGA2      CG321      CG321      CG321
   40     7     8    41	 9 ;       HGA2      CG321      CG321       HGA2
   40     7     8    42	 9 ;       HGA2      CG321      CG321       HGA2
    7     8     9    10	 9 ;      CG321      CG321      CG321      CG321
    7     8     9    43	 9 ;      CG321      CG321      CG321       HGA2
    7     8     9    44	 9 ;      CG321      CG321      CG321       HGA2
   41     8     9    10	 9 ;       HGA2      CG321      CG321      CG321
   41     8     9    43	 9 ;       HGA2      CG321      CG321       HGA2
   41     8     9    44	 9 ;       HGA2      CG321      CG321       HGA2
   42     8     9    10	 9 ;       HGA2      CG321      CG321      CG321
   42     8     9    43	 9 ;       HGA2      CG321      CG321       HGA2
   42     8     9    44	 9 ;       HGA2      CG321      CG321       HGA2
    8     9    10    11	 9 ;      CG321      CG321      CG321      CG321
    8     9    10    45	 9 ;      CG321      CG321      CG321       HGA2
    8     9    10    46	 9 ;      CG321      CG321      CG321       HGA2
   43     9    10    11	 9 ;       HGA2      CG321      CG321      CG321
   43     9    10    45	 9 ;       HGA2      CG321      CG321       HGA2
   43     9    10    46	 9 ;       HGA2      CG321      CG321       HGA2
   44     9    10    11	 9 ;       HGA2      CG321      CG321      CG321
   44     9    10    45	 9 ;       HGA2      CG321      CG321       HGA2
   44     9    10    46	 9 ;       HGA2      CG321      CG321       HGA2
    9    10    11     6	 9 ;      CG321      CG321      CG321      CG301
    9    10    11    47	 9 ;      CG321      CG321      CG321       HGA2
    9    10    11    48	 9 ;      CG321      CG321      CG321       HGA2
   45    10    11     6	 9 ;       HGA2      CG321      CG321      CG301
   45    10    11    47	 9 ;       HGA2      CG321      CG321       HGA2
   45    10    11    48	 9 ;       HGA2      CG321      CG321       HGA2
   46    10    11     6	 9 ;       HGA2      CG321      CG321      CG301
   46    10    11    47	 9 ;       HGA2      CG321      CG321       HGA2
   46    10    11    48	 9 ;       HGA2      CG321      CG321       HGA2
    6    12    18    17	 9 ;      CG301     CG2R61     CG2R61     CG2R61
    6    12    18    52	 9 ;      CG301     CG2R61     CG2R61      HGR61
   13    12    18    17	 9 ;     CG2R61     CG2R61     CG2R61     CG2R61
   13    12    18    52	 9 ;     CG2R61     CG2R61     CG2R61      HGR61
    6    12    13    14	 9 ;      CG301     CG2R61     CG2R61     CG2R61
    6    12    13    49	 9 ;      CG301     CG2R61     CG2R61      HGR62
   18    12    13    14	 9 ;     CG2R61     CG2R61     CG2R61     CG2R61
   18    12    13    49	 9 ;     CG2R61     CG2R61     CG2R61      HGR62
   12    13    14    16	 9 ;     CG2R61     CG2R61     CG2R61     CG2R61
   12    13    14    15	 9 ;     CG2R61     CG2R61     CG2R61       IGR1
   49    13    14    16	 9 ;      HGR62     CG2R61     CG2R61     CG2R61
   49    13    14    15	 9 ;      HGR62     CG2R61     CG2R61       IGR1
   13    14    16    17	 9 ;     CG2R61     CG2R61     CG2R61     CG2R61
   13    14    16    50	 9 ;     CG2R61     CG2R61     CG2R61      HGR62
   15    14    16    17	 9 ;       IGR1     CG2R61     CG2R61     CG2R61
   15    14    16    50	 9 ;       IGR1     CG2R61     CG2R61      HGR62
   14    16    17    18	 9 ;     CG2R61     CG2R61     CG2R61     CG2R61
   14    16    17    51	 9 ;     CG2R61     CG2R61     CG2R61      HGR61
   50    16    17    18	 9 ;      HGR62     CG2R61     CG2R61     CG2R61
   50    16    17    51	 9 ;      HGR62     CG2R61     CG2R61      HGR61
   16    17    18    12	 9 ;     CG2R61     CG2R61     CG2R61     CG2R61
   16    17    18    52	 9 ;     CG2R61     CG2R61     CG2R61      HGR61
   51    17    18    12	 9 ;      HGR61     CG2R61     CG2R61     CG2R61
   51    17    18    52	 9 ;      HGR61     CG2R61     CG2R61      HGR61
   22    21    31    32	 9 ;      CG321      CG311      NG2S1      CG2O1
   22    21    31    35	 9 ;      CG321      CG311      NG2S1       HGP1
    1    21    31    32	 9 ;      CG311      CG311      NG2S1      CG2O1
    1    21    31    35	 9 ;      CG311      CG311      NG2S1       HGP1
   53    21    31    32	 9 ;       HGA1      CG311      NG2S1      CG2O1
   53    21    31    35	 9 ;       HGA1      CG311      NG2S1       HGP1
   31    21    22    23	 9 ;      NG2S1      CG311      CG321     CG2R61
   31    21    22    54	 9 ;      NG2S1      CG311      CG321       HGA2
   31    21    22    55	 9 ;      NG2S1      CG311      CG321       HGA2
    1    21    22    23	 9 ;      CG311      CG311      CG321     CG2R61
    1    21    22    54	 9 ;      CG311      CG311      CG321       HGA2
    1    21    22    55	 9 ;      CG311      CG311      CG321       HGA2
   53    21    22    23	 9 ;       HGA1      CG311      CG321     CG2R61
   53    21    22    54	 9 ;       HGA1      CG311      CG321       HGA2
   53    21    22    55	 9 ;       HGA1      CG311      CG321       HGA2
   21    22    23    24	 9 ;      CG311      CG321     CG2R61     CG2R61
   21    22    23    30	 9 ;      CG311      CG321     CG2R61     CG2R61
   54    22    23    24	 9 ;       HGA2      CG321     CG2R61     CG2R61
   54    22    23    30	 9 ;       HGA2      CG321     CG2R61     CG2R61
   55    22    23    24	 9 ;       HGA2      CG321     CG2R61     CG2R61
   55    22    23    30	 9 ;       HGA2      CG321     CG2R61     CG2R61
   22    23    24    25	 9 ;      CG321     CG2R61     CG2R61     CG2R66
   22    23    24    56	 9 ;      CG321     CG2R61     CG2R61      HGR62
   30    23    24    25	 9 ;     CG2R61     CG2R61     CG2R61     CG2R66
   30    23    24    56	 9 ;     CG2R61     CG2R61     CG2R61      HGR62
   22    23    30    28	 9 ;      CG321     CG2R61     CG2R61     CG2R66
   22    23    30    58	 9 ;      CG321     CG2R61     CG2R61      HGR62
   24    23    30    28	 9 ;     CG2R61     CG2R61     CG2R61     CG2R66
   24    23    30    58	 9 ;     CG2R61     CG2R61     CG2R61      HGR62
   23    24    25    26	 9 ;     CG2R61     CG2R61     CG2R66       FGR1
   23    24    25    27	 9 ;     CG2R61     CG2R61     CG2R66     CG2R61
   56    24    25    26	 9 ;      HGR62     CG2R61     CG2R66       FGR1
   56    24    25    27	 9 ;      HGR62     CG2R61     CG2R66     CG2R61
   24    25    27    28	 9 ;     CG2R61     CG2R66     CG2R61     CG2R66
   24    25    27    57	 9 ;     CG2R61     CG2R66     CG2R61      HGR62
   26    25    27    28	 9 ;       FGR1     CG2R66     CG2R61     CG2R66
   26    25    27    57	 9 ;       FGR1     CG2R66     CG2R61      HGR62
   25    27    28    30	 9 ;     CG2R66     CG2R61     CG2R66     CG2R61
   25    27    28    29	 9 ;     CG2R66     CG2R61     CG2R66       FGR1
   57    27    28    30	 9 ;      HGR62     CG2R61     CG2R66     CG2R61
   57    27    28    29	 9 ;      HGR62     CG2R61     CG2R66       FGR1
   27    28    30    23	 9 ;     CG2R61     CG2R66     CG2R61     CG2R61
   27    28    30    58	 9 ;     CG2R61     CG2R66     CG2R61      HGR62
   29    28    30    23	 9 ;       FGR1     CG2R66     CG2R61     CG2R61
   29    28    30    58	 9 ;       FGR1     CG2R66     CG2R61      HGR62
   35    31    32    34	 9 ;       HGP1      NG2S1      CG2O1      CG331
   35    31    32    33	 9 ;       HGP1      NG2S1      CG2O1      OG2D1
   21    31    32    34	 9 ;      CG311      NG2S1      CG2O1      CG331
   21    31    32    33	 9 ;      CG311      NG2S1      CG2O1      OG2D1
   33    32    34    59	 9 ;      OG2D1      CG2O1      CG331       HGA3
   33    32    34    60	 9 ;      OG2D1      CG2O1      CG331       HGA3
   33    32    34    61	 9 ;      OG2D1      CG2O1      CG331       HGA3
   31    32    34    59	 9 ;      NG2S1      CG2O1      CG331       HGA3
   31    32    34    60	 9 ;      NG2S1      CG2O1      CG331       HGA3
   31    32    34    61	 9 ;      NG2S1      CG2O1      CG331       HGA3

[ dihedrals ]
;	ai	  aj	ak	  al funct			  c0			c1			  c2			c3
   32    34    31    33	 2

[ virtual_sites2 ]
; Site   from				funct a
   62    15    14     2   -0.220

[ exclusions ]
;	ai	  aj
   15    62
   62    14
   62    13
   62    16
   62    12
   62    49
   62    17
   62    50

