Great Red Owns Many ACres of Sand 
   68
    1LIG     C1    1  -1.436   0.426  -1.871
    1LIG     C2    2  -1.581   0.380  -1.844
    1LIG     N1    3  -1.642   0.320  -1.963
    1LIG     C3    4  -1.763   0.360  -2.012
    1LIG     O1    5  -1.826   0.454  -1.961
    1LIG     C4    6  -1.807   0.286  -2.136
    1LIG     H1    7  -1.588   0.253  -2.017
    1LIG     C5    8  -1.588   0.282  -1.723
    1LIG     C6    9  -1.710   0.310  -1.638
    1LIG     C7   10  -1.698   0.387  -1.521
    1LIG     C8   11  -1.804   0.395  -1.431
    1LIG     F1   12  -1.787   0.463  -1.317
    1LIG     C9   13  -1.924   0.331  -1.456
    1LIG    C10   14  -1.938   0.260  -1.575
    1LIG     F2   15  -2.053   0.197  -1.601
    1LIG    C11   16  -1.833   0.250  -1.666
    1LIG     O2   17  -1.413   0.438  -2.012
    1LIG     H2   18  -1.477   0.502  -2.049
    1LIG    C12   19  -1.397   0.561  -1.808
    1LIG     N2   20  -1.259   0.566  -1.752
    1LIG     H3   21  -1.209   0.648  -1.789
    1LIG     H4   22  -1.207   0.487  -1.793
    1LIG    C13   23  -1.249   0.551  -1.605
    1LIG    C14   24  -1.130   0.625  -1.546
    1LIG    C15   25  -1.270   0.671  -1.517
    1LIG    C16   26  -1.269   0.410  -1.549
    1LIG      S   27  -1.180   0.276  -1.605
    1LIG    C17   28  -1.183   0.212  -1.445
    1LIG    C18   29  -1.295   0.257  -1.379
    1LIG    C19   30  -1.347   0.376  -1.440
    1LIG    C20   31  -1.071   0.125  -1.395
    1LIG    C21   32  -1.101  -0.029  -1.410
    1LIG    C22   33  -0.974  -0.109  -1.442
    1LIG    C23   34  -1.159  -0.081  -1.278
    1LIG    C24   35  -1.207  -0.057  -1.520
    1LIG     HC   36  -1.368   0.349  -1.832
    1LIG    HC1   37  -1.640   0.468  -1.818
    1LIG    HC2   38  -1.904   0.324  -2.168
    1LIG    HC3   39  -1.815   0.180  -2.114
    1LIG    HC4   40  -1.734   0.301  -2.215
    1LIG    HC5   41  -1.593   0.180  -1.760
    1LIG    HC6   42  -1.498   0.294  -1.662
    1LIG    HC7   43  -1.606   0.440  -1.501
    1LIG    HC8   44  -2.006   0.336  -1.385
    1LIG    HC9   45  -1.847   0.195  -1.758
    1LIG   HC10   46  -1.405   0.638  -1.885
    1LIG   HC11   47  -1.467   0.584  -1.728
    1LIG   HC12   48  -1.065   0.684  -1.611
    1LIG   HC13   49  -1.080   0.574  -1.464
    1LIG   HC14   50  -1.306   0.765  -1.560
    1LIG   HC15   51  -1.306   0.650  -1.416
    1LIG   HC16   52  -1.338   0.209  -1.292
    1LIG   HC17   53  -1.434   0.430  -1.406
    1LIG   HC18   54  -0.981   0.148  -1.451
    1LIG   HC19   55  -1.054   0.146  -1.289
    1LIG   HC20   56  -0.931  -0.074  -1.536
    1LIG   HC21   57  -0.998  -0.214  -1.451
    1LIG   HC22   58  -0.901  -0.095  -1.361
    1LIG   HC23   59  -1.087  -0.063  -1.197
    1LIG   HC24   60  -1.252  -0.030  -1.255
    1LIG   HC25   61  -1.178  -0.188  -1.286
    1LIG   HC26   62  -1.209  -0.163  -1.542
    1LIG   HC27   63  -1.305  -0.025  -1.484
    1LIG   HC28   64  -1.181  -0.001  -1.610
    1LIG    H34   65  -1.351   0.390  -1.618
    1LIG    H35   66  -1.237   0.124  -1.480
    1LIG    H36   67  -1.358   0.196  -1.444
    1LIG    H37   68  -1.283   0.437  -1.376
   0.00000   0.00000   0.00000
