; Created by cgenff_charmm2gmx.py

[ moleculetype ]
; Name			   nrexcl
LIG				 3

[ atoms ]
;	 nr		  type	resnr residue  atom   cgnr	   charge		mass  typeB    chargeB		massB
; residue	 1 LIG rtp LIG q	qsum
     1      CG311      1    LIG     C1      1      0.093     12.011   ;
     2      CG311      1    LIG     C2      2     -0.007     12.011   ;
     3      NG2S1      1    LIG     N1      3     -0.339     14.007   ;
     4      CG2O1      1    LIG     C3      4      0.488     12.011   ;
     5      OG2D1      1    LIG     O1      5     -0.509     15.999   ;
     6      CG331      1    LIG     C4      6     -0.270     12.011   ;
     7       HGP1      1    LIG     H1      7      0.261      1.008   ;
     8      CG321      1    LIG     C5      8     -0.153     12.011   ;
     9     CG2R61      1    LIG     C6      9      0.057     12.011   ;
    10     CG2R61      1    LIG     C7     10     -0.218     12.011   ;
    11     CG2R66      1    LIG     C8     11      0.261     12.011   ;
    12       FGR1      1    LIG     F1     12     -0.210     18.998   ;
    13     CG2R61      1    LIG     C9     13     -0.240     12.011   ;
    14     CG2R66      1    LIG    C10     14      0.261     12.011   ;
    15       FGR1      1    LIG     F2     15     -0.210     18.998   ;
    16     CG2R61      1    LIG    C11     16     -0.218     12.011   ;
    17      OG311      1    LIG     O2     17     -0.625     15.999   ;
    18       HGP1      1    LIG     H2     18      0.415      1.008   ;
    19      CG324      1    LIG    C12     19      0.181     12.011   ;
    20      NG3P2      1    LIG     N2     20     -0.406     14.007   ;
    21       HGP2      1    LIG     H3     21      0.335      1.008   ;
    22       HGP2      1    LIG     H4     22      0.335      1.008   ;
    23     CG3C31      1    LIG    C13     23      0.257     12.011   ;
    24     CG3C31      1    LIG    C14     24     -0.150     12.011   ;
    25     CG3C31      1    LIG    C15     25     -0.150     12.011   ;
    26     CG3C51      1    LIG    C16     26      0.245     12.011   ;
    27      SG311      1    LIG      S     27     -0.243     32.060   ;
    28     CG3C51      1    LIG    C17     28      0.111     12.011   ;
    29     CG3C52      1    LIG    C18     29     -0.233     12.011   ;
    30     CG3C52      1    LIG    C19     30     -0.306     12.011   ;
    31      CG321      1    LIG    C20     31     -0.131     12.011   ;
    32      CG301      1    LIG    C21     32     -0.037     12.011   ;
    33      CG331      1    LIG    C22     33     -0.267     12.011   ;
    34      CG331      1    LIG    C23     34     -0.267     12.011   ;
    35      CG331      1    LIG    C24     35     -0.267     12.011   ;
    36       HGA1      1    LIG     HC     36      0.090      1.008   ;
    37       HGA1      1    LIG    HC1     37      0.090      1.008   ;
    38       HGA3      1    LIG    HC2     38      0.090      1.008   ;
    39       HGA3      1    LIG    HC3     39      0.090      1.008   ;
    40       HGA3      1    LIG    HC4     40      0.090      1.008   ;
    41       HGA2      1    LIG    HC5     41      0.090      1.008   ;
    42       HGA2      1    LIG    HC6     42      0.090      1.008   ;
    43      HGR62      1    LIG    HC7     43      0.174      1.008   ;
    44      HGR62      1    LIG    HC8     44      0.186      1.008   ;
    45      HGR62      1    LIG    HC9     45      0.174      1.008   ;
    46       HGA2      1    LIG   HC10     46      0.090      1.008   ;
    47       HGA2      1    LIG   HC11     47      0.090      1.008   ;
    48       HGA2      1    LIG   HC12     48      0.090      1.008   ;
    49       HGA2      1    LIG   HC13     49      0.090      1.008   ;
    50       HGA2      1    LIG   HC14     50      0.090      1.008   ;
    51       HGA2      1    LIG   HC15     51      0.090      1.008   ;
    52       HGA2      1    LIG   HC16     52      0.090      1.008   ;
    53       HGA2      1    LIG   HC17     53      0.090      1.008   ;
    54       HGA2      1    LIG   HC18     54      0.090      1.008   ;
    55       HGA2      1    LIG   HC19     55      0.090      1.008   ;
    56       HGA3      1    LIG   HC20     56      0.090      1.008   ;
    57       HGA3      1    LIG   HC21     57      0.090      1.008   ;
    58       HGA3      1    LIG   HC22     58      0.090      1.008   ;
    59       HGA3      1    LIG   HC23     59      0.090      1.008   ;
    60       HGA3      1    LIG   HC24     60      0.090      1.008   ;
    61       HGA3      1    LIG   HC25     61      0.090      1.008   ;
    62       HGA3      1    LIG   HC26     62      0.090      1.008   ;
    63       HGA3      1    LIG   HC27     63      0.090      1.008   ;
    64       HGA3      1    LIG   HC28     64      0.090      1.008   ;
    65       HGA1      1    LIG    H34     65      0.051      1.008   ;
    66       HGA1      1    LIG    H35     66      0.051      1.008   ;
    67       HGA2      1    LIG    H36     67      0.090      1.008   ;
    68       HGA2      1    LIG    H37     68      0.090      1.008   ;

[ bonds ]
;	ai	  aj funct			  c0			c1			  c2			c3
    1    17	 1 ;       CG311      OG311
    1    19	 1 ;       CG311      CG324
    1     2	 1 ;       CG311      CG311
    1    36	 1 ;       CG311       HGA1
    2     3	 1 ;       CG311      NG2S1
    2     8	 1 ;       CG311      CG321
    2    37	 1 ;       CG311       HGA1
    3     7	 1 ;       NG2S1       HGP1
    3     4	 1 ;       NG2S1      CG2O1
    4     6	 1 ;       CG2O1      CG331
    4     5	 1 ;       CG2O1      OG2D1
    6    38	 1 ;       CG331       HGA3
    6    39	 1 ;       CG331       HGA3
    6    40	 1 ;       CG331       HGA3
    8     9	 1 ;       CG321     CG2R61
    8    41	 1 ;       CG321       HGA2
    8    42	 1 ;       CG321       HGA2
    9    10	 1 ;      CG2R61     CG2R61
    9    16	 1 ;      CG2R61     CG2R61
   10    11	 1 ;      CG2R61     CG2R66
   10    43	 1 ;      CG2R61      HGR62
   11    12	 1 ;      CG2R66       FGR1
   11    13	 1 ;      CG2R66     CG2R61
   13    14	 1 ;      CG2R61     CG2R66
   13    44	 1 ;      CG2R61      HGR62
   14    16	 1 ;      CG2R66     CG2R61
   14    15	 1 ;      CG2R66       FGR1
   16    45	 1 ;      CG2R61      HGR62
   17    18	 1 ;       OG311       HGP1
   19    20	 1 ;       CG324      NG3P2
   19    46	 1 ;       CG324       HGA2
   19    47	 1 ;       CG324       HGA2
   20    21	 1 ;       NG3P2       HGP2
   20    22	 1 ;       NG3P2       HGP2
   20    23	 1 ;       NG3P2     CG3C31
   23    24	 1 ;      CG3C31     CG3C31
   23    25	 1 ;      CG3C31     CG3C31
   23    26	 1 ;      CG3C31     CG3C51
   24    25	 1 ;      CG3C31     CG3C31
   24    48	 1 ;      CG3C31       HGA2
   24    49	 1 ;      CG3C31       HGA2
   25    50	 1 ;      CG3C31       HGA2
   25    51	 1 ;      CG3C31       HGA2
   26    27	 1 ;      CG3C51      SG311
   26    30	 1 ;      CG3C51     CG3C52
   26    65	 1 ;      CG3C51       HGA1
   27    28	 1 ;       SG311     CG3C51
   28    31	 1 ;      CG3C51      CG321
   28    29	 1 ;      CG3C51     CG3C52
   28    66	 1 ;      CG3C51       HGA1
   29    30	 1 ;      CG3C52     CG3C52
   29    52	 1 ;      CG3C52       HGA2
   29    67	 1 ;      CG3C52       HGA2
   30    53	 1 ;      CG3C52       HGA2
   30    68	 1 ;      CG3C52       HGA2
   31    32	 1 ;       CG321      CG301
   31    54	 1 ;       CG321       HGA2
   31    55	 1 ;       CG321       HGA2
   32    33	 1 ;       CG301      CG331
   32    35	 1 ;       CG301      CG331
   32    34	 1 ;       CG301      CG331
   33    56	 1 ;       CG331       HGA3
   33    57	 1 ;       CG331       HGA3
   33    58	 1 ;       CG331       HGA3
   34    59	 1 ;       CG331       HGA3
   34    60	 1 ;       CG331       HGA3
   34    61	 1 ;       CG331       HGA3
   35    62	 1 ;       CG331       HGA3
   35    63	 1 ;       CG331       HGA3
   35    64	 1 ;       CG331       HGA3

[ pairs ]
;	ai	  aj funct			  c0			c1			  c2			c3
    1     7	 1
    1     4	 1
    1     9	 1
    1    41	 1
    1    42	 1
    1    21	 1
    1    22	 1
    1    23	 1
    2    18	 1
    2    20	 1
    2    46	 1
    2    47	 1
    2     6	 1
    2     5	 1
    2    10	 1
    2    16	 1
    3    17	 1
    3    19	 1
    3    36	 1
    3     9	 1
    3    41	 1
    3    42	 1
    3    38	 1
    3    39	 1
    3    40	 1
    4     8	 1
    4    37	 1
    5     7	 1
    5    38	 1
    5    39	 1
    5    40	 1
    6     7	 1
    7     8	 1
    7    37	 1
    8    17	 1
    8    19	 1
    8    36	 1
    8    11	 1
    8    43	 1
    8    14	 1
    8    45	 1
    9    37	 1
    9    12	 1
    9    13	 1
    9    15	 1
   10    41	 1
   10    42	 1
   10    14	 1
   10    45	 1
   10    44	 1
   11    16	 1
   11    15	 1
   12    43	 1
   12    14	 1
   12    44	 1
   13    43	 1
   13    45	 1
   15    44	 1
   15    45	 1
   16    41	 1
   16    42	 1
   16    43	 1
   16    44	 1
   17    20	 1
   17    46	 1
   17    47	 1
   17    37	 1
   18    19	 1
   18    36	 1
   19    37	 1
   19    24	 1
   19    25	 1
   19    26	 1
   20    36	 1
   20    48	 1
   20    49	 1
   20    50	 1
   20    51	 1
   20    27	 1
   20    30	 1
   20    65	 1
   21    46	 1
   21    47	 1
   21    24	 1
   21    25	 1
   21    26	 1
   22    46	 1
   22    47	 1
   22    24	 1
   22    25	 1
   22    26	 1
   23    46	 1
   23    47	 1
   23    28	 1
   23    29	 1
   23    53	 1
   23    68	 1
   24    27	 1
   24    30	 1
   24    65	 1
   25    27	 1
   25    30	 1
   25    65	 1
   26    48	 1
   26    49	 1
   26    50	 1
   26    51	 1
   26    31	 1
   26    66	 1
   26    52	 1
   26    67	 1
   27    53	 1
   27    68	 1
   27    32	 1
   27    54	 1
   27    55	 1
   27    52	 1
   27    67	 1
   28    65	 1
   28    53	 1
   28    68	 1
   28    33	 1
   28    35	 1
   28    34	 1
   29    65	 1
   29    32	 1
   29    54	 1
   29    55	 1
   30    31	 1
   30    66	 1
   31    52	 1
   31    67	 1
   31    56	 1
   31    57	 1
   31    58	 1
   31    62	 1
   31    63	 1
   31    64	 1
   31    59	 1
   31    60	 1
   31    61	 1
   32    66	 1
   33    54	 1
   33    55	 1
   33    62	 1
   33    63	 1
   33    64	 1
   33    59	 1
   33    60	 1
   33    61	 1
   34    54	 1
   34    55	 1
   34    56	 1
   34    57	 1
   34    58	 1
   34    62	 1
   34    63	 1
   34    64	 1
   35    54	 1
   35    55	 1
   35    56	 1
   35    57	 1
   35    58	 1
   35    59	 1
   35    60	 1
   35    61	 1
   36    46	 1
   36    47	 1
   36    37	 1
   37    41	 1
   37    42	 1
   48    50	 1
   48    51	 1
   49    50	 1
   49    51	 1
   52    66	 1
   52    53	 1
   52    68	 1
   53    65	 1
   53    67	 1
   54    66	 1
   55    66	 1
   65    68	 1
   66    67	 1
   67    68	 1

[ angles ]
;	ai	  aj	ak funct			c0			  c1			c2			  c3
   17     1    19	5 ;      OG311      CG311      CG324
   17     1     2	5 ;      OG311      CG311      CG311
   17     1    36	5 ;      OG311      CG311       HGA1
   19     1     2	5 ;      CG324      CG311      CG311
   19     1    36	5 ;      CG324      CG311       HGA1
    2     1    36	5 ;      CG311      CG311       HGA1
    1     2     3	5 ;      CG311      CG311      NG2S1
    1     2     8	5 ;      CG311      CG311      CG321
    1     2    37	5 ;      CG311      CG311       HGA1
    3     2     8	5 ;      NG2S1      CG311      CG321
    3     2    37	5 ;      NG2S1      CG311       HGA1
    8     2    37	5 ;      CG321      CG311       HGA1
    7     3     2	5 ;       HGP1      NG2S1      CG311
    7     3     4	5 ;       HGP1      NG2S1      CG2O1
    2     3     4	5 ;      CG311      NG2S1      CG2O1
    3     4     6	5 ;      NG2S1      CG2O1      CG331
    3     4     5	5 ;      NG2S1      CG2O1      OG2D1
    6     4     5	5 ;      CG331      CG2O1      OG2D1
    4     6    38	5 ;      CG2O1      CG331       HGA3
    4     6    39	5 ;      CG2O1      CG331       HGA3
    4     6    40	5 ;      CG2O1      CG331       HGA3
   38     6    39	5 ;       HGA3      CG331       HGA3
   38     6    40	5 ;       HGA3      CG331       HGA3
   39     6    40	5 ;       HGA3      CG331       HGA3
    2     8     9	5 ;      CG311      CG321     CG2R61
    2     8    41	5 ;      CG311      CG321       HGA2
    2     8    42	5 ;      CG311      CG321       HGA2
    9     8    41	5 ;     CG2R61      CG321       HGA2
    9     8    42	5 ;     CG2R61      CG321       HGA2
   41     8    42	5 ;       HGA2      CG321       HGA2
    8     9    10	5 ;      CG321     CG2R61     CG2R61
    8     9    16	5 ;      CG321     CG2R61     CG2R61
   10     9    16	5 ;     CG2R61     CG2R61     CG2R61
    9    10    11	5 ;     CG2R61     CG2R61     CG2R66
    9    10    43	5 ;     CG2R61     CG2R61      HGR62
   11    10    43	5 ;     CG2R66     CG2R61      HGR62
   10    11    12	5 ;     CG2R61     CG2R66       FGR1
   10    11    13	5 ;     CG2R61     CG2R66     CG2R61
   12    11    13	5 ;       FGR1     CG2R66     CG2R61
   11    13    14	5 ;     CG2R66     CG2R61     CG2R66
   11    13    44	5 ;     CG2R66     CG2R61      HGR62
   14    13    44	5 ;     CG2R66     CG2R61      HGR62
   16    14    13	5 ;     CG2R61     CG2R66     CG2R61
   16    14    15	5 ;     CG2R61     CG2R66       FGR1
   13    14    15	5 ;     CG2R61     CG2R66       FGR1
    9    16    14	5 ;     CG2R61     CG2R61     CG2R66
    9    16    45	5 ;     CG2R61     CG2R61      HGR62
   14    16    45	5 ;     CG2R66     CG2R61      HGR62
   18    17     1	5 ;       HGP1      OG311      CG311
   20    19     1	5 ;      NG3P2      CG324      CG311
   20    19    46	5 ;      NG3P2      CG324       HGA2
   20    19    47	5 ;      NG3P2      CG324       HGA2
    1    19    46	5 ;      CG311      CG324       HGA2
    1    19    47	5 ;      CG311      CG324       HGA2
   46    19    47	5 ;       HGA2      CG324       HGA2
   21    20    22	5 ;       HGP2      NG3P2       HGP2
   21    20    23	5 ;       HGP2      NG3P2     CG3C31
   21    20    19	5 ;       HGP2      NG3P2      CG324
   22    20    23	5 ;       HGP2      NG3P2     CG3C31
   22    20    19	5 ;       HGP2      NG3P2      CG324
   23    20    19	5 ;     CG3C31      NG3P2      CG324
   24    23    20	5 ;     CG3C31     CG3C31      NG3P2
   24    23    25	5 ;     CG3C31     CG3C31     CG3C31
   24    23    26	5 ;     CG3C31     CG3C31     CG3C51
   20    23    25	5 ;      NG3P2     CG3C31     CG3C31
   20    23    26	5 ;      NG3P2     CG3C31     CG3C51
   25    23    26	5 ;     CG3C31     CG3C31     CG3C51
   23    24    25	5 ;     CG3C31     CG3C31     CG3C31
   23    24    48	5 ;     CG3C31     CG3C31       HGA2
   23    24    49	5 ;     CG3C31     CG3C31       HGA2
   25    24    48	5 ;     CG3C31     CG3C31       HGA2
   25    24    49	5 ;     CG3C31     CG3C31       HGA2
   48    24    49	5 ;       HGA2     CG3C31       HGA2
   24    25    23	5 ;     CG3C31     CG3C31     CG3C31
   24    25    50	5 ;     CG3C31     CG3C31       HGA2
   24    25    51	5 ;     CG3C31     CG3C31       HGA2
   23    25    50	5 ;     CG3C31     CG3C31       HGA2
   23    25    51	5 ;     CG3C31     CG3C31       HGA2
   50    25    51	5 ;       HGA2     CG3C31       HGA2
   27    26    23	5 ;      SG311     CG3C51     CG3C31
   27    26    30	5 ;      SG311     CG3C51     CG3C52
   27    26    65	5 ;      SG311     CG3C51       HGA1
   23    26    30	5 ;     CG3C31     CG3C51     CG3C52
   23    26    65	5 ;     CG3C31     CG3C51       HGA1
   30    26    65	5 ;     CG3C52     CG3C51       HGA1
   26    27    28	5 ;     CG3C51      SG311     CG3C51
   27    28    31	5 ;      SG311     CG3C51      CG321
   27    28    29	5 ;      SG311     CG3C51     CG3C52
   27    28    66	5 ;      SG311     CG3C51       HGA1
   31    28    29	5 ;      CG321     CG3C51     CG3C52
   31    28    66	5 ;      CG321     CG3C51       HGA1
   29    28    66	5 ;     CG3C52     CG3C51       HGA1
   28    29    30	5 ;     CG3C51     CG3C52     CG3C52
   28    29    52	5 ;     CG3C51     CG3C52       HGA2
   28    29    67	5 ;     CG3C51     CG3C52       HGA2
   30    29    52	5 ;     CG3C52     CG3C52       HGA2
   30    29    67	5 ;     CG3C52     CG3C52       HGA2
   52    29    67	5 ;       HGA2     CG3C52       HGA2
   26    30    29	5 ;     CG3C51     CG3C52     CG3C52
   26    30    53	5 ;     CG3C51     CG3C52       HGA2
   26    30    68	5 ;     CG3C51     CG3C52       HGA2
   29    30    53	5 ;     CG3C52     CG3C52       HGA2
   29    30    68	5 ;     CG3C52     CG3C52       HGA2
   53    30    68	5 ;       HGA2     CG3C52       HGA2
   28    31    32	5 ;     CG3C51      CG321      CG301
   28    31    54	5 ;     CG3C51      CG321       HGA2
   28    31    55	5 ;     CG3C51      CG321       HGA2
   32    31    54	5 ;      CG301      CG321       HGA2
   32    31    55	5 ;      CG301      CG321       HGA2
   54    31    55	5 ;       HGA2      CG321       HGA2
   33    32    31	5 ;      CG331      CG301      CG321
   33    32    35	5 ;      CG331      CG301      CG331
   33    32    34	5 ;      CG331      CG301      CG331
   31    32    35	5 ;      CG321      CG301      CG331
   31    32    34	5 ;      CG321      CG301      CG331
   35    32    34	5 ;      CG331      CG301      CG331
   32    33    56	5 ;      CG301      CG331       HGA3
   32    33    57	5 ;      CG301      CG331       HGA3
   32    33    58	5 ;      CG301      CG331       HGA3
   56    33    57	5 ;       HGA3      CG331       HGA3
   56    33    58	5 ;       HGA3      CG331       HGA3
   57    33    58	5 ;       HGA3      CG331       HGA3
   32    34    59	5 ;      CG301      CG331       HGA3
   32    34    60	5 ;      CG301      CG331       HGA3
   32    34    61	5 ;      CG301      CG331       HGA3
   59    34    60	5 ;       HGA3      CG331       HGA3
   59    34    61	5 ;       HGA3      CG331       HGA3
   60    34    61	5 ;       HGA3      CG331       HGA3
   32    35    62	5 ;      CG301      CG331       HGA3
   32    35    63	5 ;      CG301      CG331       HGA3
   32    35    64	5 ;      CG301      CG331       HGA3
   62    35    63	5 ;       HGA3      CG331       HGA3
   62    35    64	5 ;       HGA3      CG331       HGA3
   63    35    64	5 ;       HGA3      CG331       HGA3

[ dihedrals ]
;	ai	  aj	ak	  al funct			  c0			c1			  c2			c3			  c4			c5
   19     1    17    18	 9 ;      CG324      CG311      OG311       HGP1
    2     1    17    18	 9 ;      CG311      CG311      OG311       HGP1
   36     1    17    18	 9 ;       HGA1      CG311      OG311       HGP1
   17     1    19    20	 9 ;      OG311      CG311      CG324      NG3P2
   17     1    19    46	 9 ;      OG311      CG311      CG324       HGA2
   17     1    19    47	 9 ;      OG311      CG311      CG324       HGA2
    2     1    19    20	 9 ;      CG311      CG311      CG324      NG3P2
    2     1    19    46	 9 ;      CG311      CG311      CG324       HGA2
    2     1    19    47	 9 ;      CG311      CG311      CG324       HGA2
   36     1    19    20	 9 ;       HGA1      CG311      CG324      NG3P2
   36     1    19    46	 9 ;       HGA1      CG311      CG324       HGA2
   36     1    19    47	 9 ;       HGA1      CG311      CG324       HGA2
   17     1     2     3	 9 ;      OG311      CG311      CG311      NG2S1
   17     1     2     8	 9 ;      OG311      CG311      CG311      CG321
   17     1     2    37	 9 ;      OG311      CG311      CG311       HGA1
   19     1     2     3	 9 ;      CG324      CG311      CG311      NG2S1
   19     1     2     8	 9 ;      CG324      CG311      CG311      CG321
   19     1     2    37	 9 ;      CG324      CG311      CG311       HGA1
   36     1     2     3	 9 ;       HGA1      CG311      CG311      NG2S1
   36     1     2     8	 9 ;       HGA1      CG311      CG311      CG321
   36     1     2    37	 9 ;       HGA1      CG311      CG311       HGA1
    1     2     3     7	 9 ;      CG311      CG311      NG2S1       HGP1
    1     2     3     4	 9 ;      CG311      CG311      NG2S1      CG2O1
    8     2     3     7	 9 ;      CG321      CG311      NG2S1       HGP1
    8     2     3     4	 9 ;      CG321      CG311      NG2S1      CG2O1
   37     2     3     7	 9 ;       HGA1      CG311      NG2S1       HGP1
   37     2     3     4	 9 ;       HGA1      CG311      NG2S1      CG2O1
    1     2     8     9	 9 ;      CG311      CG311      CG321     CG2R61
    1     2     8    41	 9 ;      CG311      CG311      CG321       HGA2
    1     2     8    42	 9 ;      CG311      CG311      CG321       HGA2
    3     2     8     9	 9 ;      NG2S1      CG311      CG321     CG2R61
    3     2     8    41	 9 ;      NG2S1      CG311      CG321       HGA2
    3     2     8    42	 9 ;      NG2S1      CG311      CG321       HGA2
   37     2     8     9	 9 ;       HGA1      CG311      CG321     CG2R61
   37     2     8    41	 9 ;       HGA1      CG311      CG321       HGA2
   37     2     8    42	 9 ;       HGA1      CG311      CG321       HGA2
    7     3     4     6	 9 ;       HGP1      NG2S1      CG2O1      CG331
    7     3     4     5	 9 ;       HGP1      NG2S1      CG2O1      OG2D1
    2     3     4     6	 9 ;      CG311      NG2S1      CG2O1      CG331
    2     3     4     5	 9 ;      CG311      NG2S1      CG2O1      OG2D1
    3     4     6    38	 9 ;      NG2S1      CG2O1      CG331       HGA3
    3     4     6    39	 9 ;      NG2S1      CG2O1      CG331       HGA3
    3     4     6    40	 9 ;      NG2S1      CG2O1      CG331       HGA3
    5     4     6    38	 9 ;      OG2D1      CG2O1      CG331       HGA3
    5     4     6    39	 9 ;      OG2D1      CG2O1      CG331       HGA3
    5     4     6    40	 9 ;      OG2D1      CG2O1      CG331       HGA3
    2     8     9    10	 9 ;      CG311      CG321     CG2R61     CG2R61
    2     8     9    16	 9 ;      CG311      CG321     CG2R61     CG2R61
   41     8     9    10	 9 ;       HGA2      CG321     CG2R61     CG2R61
   41     8     9    16	 9 ;       HGA2      CG321     CG2R61     CG2R61
   42     8     9    10	 9 ;       HGA2      CG321     CG2R61     CG2R61
   42     8     9    16	 9 ;       HGA2      CG321     CG2R61     CG2R61
    8     9    10    11	 9 ;      CG321     CG2R61     CG2R61     CG2R66
    8     9    10    43	 9 ;      CG321     CG2R61     CG2R61      HGR62
   16     9    10    11	 9 ;     CG2R61     CG2R61     CG2R61     CG2R66
   16     9    10    43	 9 ;     CG2R61     CG2R61     CG2R61      HGR62
    8     9    16    14	 9 ;      CG321     CG2R61     CG2R61     CG2R66
    8     9    16    45	 9 ;      CG321     CG2R61     CG2R61      HGR62
   10     9    16    14	 9 ;     CG2R61     CG2R61     CG2R61     CG2R66
   10     9    16    45	 9 ;     CG2R61     CG2R61     CG2R61      HGR62
    9    10    11    12	 9 ;     CG2R61     CG2R61     CG2R66       FGR1
    9    10    11    13	 9 ;     CG2R61     CG2R61     CG2R66     CG2R61
   43    10    11    12	 9 ;      HGR62     CG2R61     CG2R66       FGR1
   43    10    11    13	 9 ;      HGR62     CG2R61     CG2R66     CG2R61
   10    11    13    14	 9 ;     CG2R61     CG2R66     CG2R61     CG2R66
   10    11    13    44	 9 ;     CG2R61     CG2R66     CG2R61      HGR62
   12    11    13    14	 9 ;       FGR1     CG2R66     CG2R61     CG2R66
   12    11    13    44	 9 ;       FGR1     CG2R66     CG2R61      HGR62
   11    13    14    16	 9 ;     CG2R66     CG2R61     CG2R66     CG2R61
   11    13    14    15	 9 ;     CG2R66     CG2R61     CG2R66       FGR1
   44    13    14    16	 9 ;      HGR62     CG2R61     CG2R66     CG2R61
   44    13    14    15	 9 ;      HGR62     CG2R61     CG2R66       FGR1
   13    14    16     9	 9 ;     CG2R61     CG2R66     CG2R61     CG2R61
   13    14    16    45	 9 ;     CG2R61     CG2R66     CG2R61      HGR62
   15    14    16     9	 9 ;       FGR1     CG2R66     CG2R61     CG2R61
   15    14    16    45	 9 ;       FGR1     CG2R66     CG2R61      HGR62
    1    19    20    21	 9 ;      CG311      CG324      NG3P2       HGP2
    1    19    20    22	 9 ;      CG311      CG324      NG3P2       HGP2
    1    19    20    23	 9 ;      CG311      CG324      NG3P2     CG3C31
   46    19    20    21	 9 ;       HGA2      CG324      NG3P2       HGP2
   46    19    20    22	 9 ;       HGA2      CG324      NG3P2       HGP2
   46    19    20    23	 9 ;       HGA2      CG324      NG3P2     CG3C31
   47    19    20    21	 9 ;       HGA2      CG324      NG3P2       HGP2
   47    19    20    22	 9 ;       HGA2      CG324      NG3P2       HGP2
   47    19    20    23	 9 ;       HGA2      CG324      NG3P2     CG3C31
   21    20    23    24	 9 ;       HGP2      NG3P2     CG3C31     CG3C31
   21    20    23    25	 9 ;       HGP2      NG3P2     CG3C31     CG3C31
   21    20    23    26	 9 ;       HGP2      NG3P2     CG3C31     CG3C51
   22    20    23    24	 9 ;       HGP2      NG3P2     CG3C31     CG3C31
   22    20    23    25	 9 ;       HGP2      NG3P2     CG3C31     CG3C31
   22    20    23    26	 9 ;       HGP2      NG3P2     CG3C31     CG3C51
   19    20    23    24	 9 ;      CG324      NG3P2     CG3C31     CG3C31
   19    20    23    25	 9 ;      CG324      NG3P2     CG3C31     CG3C31
   19    20    23    26	 9 ;      CG324      NG3P2     CG3C31     CG3C51
   20    23    24    25	 9 ;      NG3P2     CG3C31     CG3C31     CG3C31
   20    23    24    48	 9 ;      NG3P2     CG3C31     CG3C31       HGA2
   20    23    24    49	 9 ;      NG3P2     CG3C31     CG3C31       HGA2
   25    23    24    48	 9 ;     CG3C31     CG3C31     CG3C31       HGA2
   25    23    24    49	 9 ;     CG3C31     CG3C31     CG3C31       HGA2
   26    23    24    25	 9 ;     CG3C51     CG3C31     CG3C31     CG3C31
   26    23    24    48	 9 ;     CG3C51     CG3C31     CG3C31       HGA2
   26    23    24    49	 9 ;     CG3C51     CG3C31     CG3C31       HGA2
   24    23    25    50	 9 ;     CG3C31     CG3C31     CG3C31       HGA2
   24    23    25    51	 9 ;     CG3C31     CG3C31     CG3C31       HGA2
   20    23    25    24	 9 ;      NG3P2     CG3C31     CG3C31     CG3C31
   20    23    25    50	 9 ;      NG3P2     CG3C31     CG3C31       HGA2
   20    23    25    51	 9 ;      NG3P2     CG3C31     CG3C31       HGA2
   26    23    25    24	 9 ;     CG3C51     CG3C31     CG3C31     CG3C31
   26    23    25    50	 9 ;     CG3C51     CG3C31     CG3C31       HGA2
   26    23    25    51	 9 ;     CG3C51     CG3C31     CG3C31       HGA2
   24    23    26    27	 9 ;     CG3C31     CG3C31     CG3C51      SG311
   24    23    26    30	 9 ;     CG3C31     CG3C31     CG3C51     CG3C52
   24    23    26    65	 9 ;     CG3C31     CG3C31     CG3C51       HGA1
   20    23    26    27	 9 ;      NG3P2     CG3C31     CG3C51      SG311
   20    23    26    30	 9 ;      NG3P2     CG3C31     CG3C51     CG3C52
   20    23    26    65	 9 ;      NG3P2     CG3C31     CG3C51       HGA1
   25    23    26    27	 9 ;     CG3C31     CG3C31     CG3C51      SG311
   25    23    26    30	 9 ;     CG3C31     CG3C31     CG3C51     CG3C52
   25    23    26    65	 9 ;     CG3C31     CG3C31     CG3C51       HGA1
   23    24    25    50	 9 ;     CG3C31     CG3C31     CG3C31       HGA2
   23    24    25    51	 9 ;     CG3C31     CG3C31     CG3C31       HGA2
   48    24    25    23	 9 ;       HGA2     CG3C31     CG3C31     CG3C31
   48    24    25    50	 9 ;       HGA2     CG3C31     CG3C31       HGA2
   48    24    25    51	 9 ;       HGA2     CG3C31     CG3C31       HGA2
   49    24    25    23	 9 ;       HGA2     CG3C31     CG3C31     CG3C31
   49    24    25    50	 9 ;       HGA2     CG3C31     CG3C31       HGA2
   49    24    25    51	 9 ;       HGA2     CG3C31     CG3C31       HGA2
   23    26    27    28	 9 ;     CG3C31     CG3C51      SG311     CG3C51
   30    26    27    28	 9 ;     CG3C52     CG3C51      SG311     CG3C51
   65    26    27    28	 9 ;       HGA1     CG3C51      SG311     CG3C51
   27    26    30    29	 9 ;      SG311     CG3C51     CG3C52     CG3C52
   27    26    30    53	 9 ;      SG311     CG3C51     CG3C52       HGA2
   27    26    30    68	 9 ;      SG311     CG3C51     CG3C52       HGA2
   23    26    30    29	 9 ;     CG3C31     CG3C51     CG3C52     CG3C52
   23    26    30    53	 9 ;     CG3C31     CG3C51     CG3C52       HGA2
   23    26    30    68	 9 ;     CG3C31     CG3C51     CG3C52       HGA2
   65    26    30    29	 9 ;       HGA1     CG3C51     CG3C52     CG3C52
   65    26    30    53	 9 ;       HGA1     CG3C51     CG3C52       HGA2
   65    26    30    68	 9 ;       HGA1     CG3C51     CG3C52       HGA2
   26    27    28    31	 9 ;     CG3C51      SG311     CG3C51      CG321
   26    27    28    29	 9 ;     CG3C51      SG311     CG3C51     CG3C52
   26    27    28    66	 9 ;     CG3C51      SG311     CG3C51       HGA1
   27    28    31    32	 9 ;      SG311     CG3C51      CG321      CG301
   27    28    31    54	 9 ;      SG311     CG3C51      CG321       HGA2
   27    28    31    55	 9 ;      SG311     CG3C51      CG321       HGA2
   29    28    31    32	 9 ;     CG3C52     CG3C51      CG321      CG301
   29    28    31    54	 9 ;     CG3C52     CG3C51      CG321       HGA2
   29    28    31    55	 9 ;     CG3C52     CG3C51      CG321       HGA2
   66    28    31    32	 9 ;       HGA1     CG3C51      CG321      CG301
   66    28    31    54	 9 ;       HGA1     CG3C51      CG321       HGA2
   66    28    31    55	 9 ;       HGA1     CG3C51      CG321       HGA2
   27    28    29    30	 9 ;      SG311     CG3C51     CG3C52     CG3C52
   27    28    29    52	 9 ;      SG311     CG3C51     CG3C52       HGA2
   27    28    29    67	 9 ;      SG311     CG3C51     CG3C52       HGA2
   31    28    29    30	 9 ;      CG321     CG3C51     CG3C52     CG3C52
   31    28    29    52	 9 ;      CG321     CG3C51     CG3C52       HGA2
   31    28    29    67	 9 ;      CG321     CG3C51     CG3C52       HGA2
   66    28    29    30	 9 ;       HGA1     CG3C51     CG3C52     CG3C52
   66    28    29    52	 9 ;       HGA1     CG3C51     CG3C52       HGA2
   66    28    29    67	 9 ;       HGA1     CG3C51     CG3C52       HGA2
   28    29    30    26	 9 ;     CG3C51     CG3C52     CG3C52     CG3C51
   28    29    30    53	 9 ;     CG3C51     CG3C52     CG3C52       HGA2
   28    29    30    68	 9 ;     CG3C51     CG3C52     CG3C52       HGA2
   52    29    30    26	 9 ;       HGA2     CG3C52     CG3C52     CG3C51
   52    29    30    53	 9 ;       HGA2     CG3C52     CG3C52       HGA2
   52    29    30    68	 9 ;       HGA2     CG3C52     CG3C52       HGA2
   67    29    30    26	 9 ;       HGA2     CG3C52     CG3C52     CG3C51
   67    29    30    53	 9 ;       HGA2     CG3C52     CG3C52       HGA2
   67    29    30    68	 9 ;       HGA2     CG3C52     CG3C52       HGA2
   28    31    32    33	 9 ;     CG3C51      CG321      CG301      CG331
   28    31    32    35	 9 ;     CG3C51      CG321      CG301      CG331
   28    31    32    34	 9 ;     CG3C51      CG321      CG301      CG331
   54    31    32    33	 9 ;       HGA2      CG321      CG301      CG331
   54    31    32    35	 9 ;       HGA2      CG321      CG301      CG331
   54    31    32    34	 9 ;       HGA2      CG321      CG301      CG331
   55    31    32    33	 9 ;       HGA2      CG321      CG301      CG331
   55    31    32    35	 9 ;       HGA2      CG321      CG301      CG331
   55    31    32    34	 9 ;       HGA2      CG321      CG301      CG331
   31    32    33    56	 9 ;      CG321      CG301      CG331       HGA3
   31    32    33    57	 9 ;      CG321      CG301      CG331       HGA3
   31    32    33    58	 9 ;      CG321      CG301      CG331       HGA3
   35    32    33    56	 9 ;      CG331      CG301      CG331       HGA3
   35    32    33    57	 9 ;      CG331      CG301      CG331       HGA3
   35    32    33    58	 9 ;      CG331      CG301      CG331       HGA3
   34    32    33    56	 9 ;      CG331      CG301      CG331       HGA3
   34    32    33    57	 9 ;      CG331      CG301      CG331       HGA3
   34    32    33    58	 9 ;      CG331      CG301      CG331       HGA3
   33    32    35    62	 9 ;      CG331      CG301      CG331       HGA3
   33    32    35    63	 9 ;      CG331      CG301      CG331       HGA3
   33    32    35    64	 9 ;      CG331      CG301      CG331       HGA3
   31    32    35    62	 9 ;      CG321      CG301      CG331       HGA3
   31    32    35    63	 9 ;      CG321      CG301      CG331       HGA3
   31    32    35    64	 9 ;      CG321      CG301      CG331       HGA3
   34    32    35    62	 9 ;      CG331      CG301      CG331       HGA3
   34    32    35    63	 9 ;      CG331      CG301      CG331       HGA3
   34    32    35    64	 9 ;      CG331      CG301      CG331       HGA3
   33    32    34    59	 9 ;      CG331      CG301      CG331       HGA3
   33    32    34    60	 9 ;      CG331      CG301      CG331       HGA3
   33    32    34    61	 9 ;      CG331      CG301      CG331       HGA3
   31    32    34    59	 9 ;      CG321      CG301      CG331       HGA3
   31    32    34    60	 9 ;      CG321      CG301      CG331       HGA3
   31    32    34    61	 9 ;      CG321      CG301      CG331       HGA3
   35    32    34    59	 9 ;      CG331      CG301      CG331       HGA3
   35    32    34    60	 9 ;      CG331      CG301      CG331       HGA3
   35    32    34    61	 9 ;      CG331      CG301      CG331       HGA3

[ dihedrals ]
;	ai	  aj	ak	  al funct			  c0			c1			  c2			c3
    4     6     3     5	 2

