; Created by cgenff_charmm2gmx.py

[ moleculetype ]
; Name			   nrexcl
LIG				 3

[ atoms ]
;	 nr		  type	resnr residue  atom   cgnr	   charge		mass  typeB    chargeB		massB
; residue	 1 LIG rtp LIG q	qsum
     1      CG311      1    LIG     C1      1     -0.145     12.011   ;
     2      CG321      1    LIG     C2      2      0.180     12.011   ;
     3      SG3O2      1    LIG      S      3      0.113     32.060   ;
     4      OG2P1      1    LIG     O1      4     -0.300     15.999   ;
     5      OG2P1      1    LIG     O2      5     -0.300     15.999   ;
     6      CG321      1    LIG     C3      6      0.224     12.011   ;
     7      CG314      1    LIG     C4      7     -0.043     12.011   ;
     8      CG311      1    LIG     C5      8      0.100     12.011   ;
     9      NG3P2      1    LIG      N      9     -0.444     14.007   ;
    10       HGP2      1    LIG     H1     10      0.346      1.008   ;
    11       HGP2      1    LIG     H2     11      0.346      1.008   ;
    12      CG324      1    LIG     C6     12      0.178     12.011   ;
    13     CG2R61      1    LIG     C7     13      0.035     12.011   ;
    14     CG2R61      1    LIG     C8     14     -0.117     12.011   ;
    15     CG2R61      1    LIG     C9     15     -0.017     12.011   ;
    16     CG2R61      1    LIG    C10     16     -0.114     12.011   ;
    17     CG2R61      1    LIG    C11     17     -0.109     12.011   ;
    18     CG2R61      1    LIG    C12     18     -0.119     12.011   ;
    19      CG311      1    LIG    C13     19     -0.088     12.011   ;
    20      CG331      1    LIG    C14     20     -0.264     12.011   ;
    21      CG331      1    LIG    C15     21     -0.264     12.011   ;
    22      OG311      1    LIG     O3     22     -0.595     15.999   ;
    23       HGP1      1    LIG     H3     23      0.422      1.008   ;
    24      CG321      1    LIG    C16     24     -0.091     12.011   ;
    25     CG2R61      1    LIG    C17     25     -0.011     12.011   ;
    26     CG2R61      1    LIG    C18     26     -0.096     12.011   ;
    27     CG2R61      1    LIG    C19     27     -0.056     12.011   ;
    28      BRGR1      1    LIG     BR     28     -0.146     79.904   ;
    29     CG2R61      1    LIG    C20     29      0.277     12.011   ;
    30     CG2R61      1    LIG    C21     30     -0.114     12.011   ;
    31     CG2R61      1    LIG    C22     31     -0.116     12.011   ;
    32      OG301      1    LIG     O4     32     -0.376     15.999   ;
    33      CG331      1    LIG    C23     33     -0.094     12.011   ;
    34       HGA1      1    LIG     HC     34      0.090      1.008   ;
    35       HGA2      1    LIG    HC2     35      0.090      1.008   ;
    36       HGA2      1    LIG    HC3     36      0.090      1.008   ;
    37       HGA2      1    LIG    HC4     37      0.090      1.008   ;
    38       HGA2      1    LIG    HC5     38      0.090      1.008   ;
    39       HGA1      1    LIG    HC1     39      0.109      1.008   ;
    40       HGA1      1    LIG    HC6     40      0.090      1.008   ;
    41       HGA2      1    LIG    HC7     41      0.090      1.008   ;
    42       HGA2      1    LIG    HC8     42      0.090      1.008   ;
    43      HGR61      1    LIG    HC9     43      0.116      1.008   ;
    44      HGR61      1    LIG   HC10     44      0.116      1.008   ;
    45      HGR61      1    LIG   HC11     45      0.116      1.008   ;
    46      HGR61      1    LIG   HC12     46      0.116      1.008   ;
    47       HGA1      1    LIG   HC13     47      0.090      1.008   ;
    48       HGA3      1    LIG   HC14     48      0.090      1.008   ;
    49       HGA3      1    LIG   HC15     49      0.090      1.008   ;
    50       HGA3      1    LIG   HC16     50      0.090      1.008   ;
    51       HGA3      1    LIG   HC17     51      0.090      1.008   ;
    52       HGA3      1    LIG   HC18     52      0.090      1.008   ;
    53       HGA3      1    LIG   HC19     53      0.090      1.008   ;
    54       HGA2      1    LIG   HC20     54      0.090      1.008   ;
    55       HGA2      1    LIG   HC21     55      0.090      1.008   ;
    56      HGR62      1    LIG   HC22     56      0.143      1.008   ;
    57      HGR61      1    LIG   HC23     57      0.116      1.008   ;
    58      HGR61      1    LIG   HC24     58      0.116      1.008   ;
    59       HGA3      1    LIG   HC25     59      0.090      1.008   ;
    60       HGA3      1    LIG   HC26     60      0.090      1.008   ;
    61       HGA3      1    LIG   HC27     61      0.090      1.008   ;
    62        LPH      1    LIG    LP1     62      0.050      0.000   ;

[ bonds ]
;	ai	  aj funct			  c0			c1			  c2			c3
    1    24	 1 ;       CG311      CG321
    1     2	 1 ;       CG311      CG321
    1     8	 1 ;       CG311      CG311
    1    34	 1 ;       CG311       HGA1
    2     3	 1 ;       CG321      SG3O2
    2    35	 1 ;       CG321       HGA2
    2    36	 1 ;       CG321       HGA2
    3     4	 1 ;       SG3O2      OG2P1
    3     5	 1 ;       SG3O2      OG2P1
    3     6	 1 ;       SG3O2      CG321
    6     7	 1 ;       CG321      CG314
    6    37	 1 ;       CG321       HGA2
    6    38	 1 ;       CG321       HGA2
    7     8	 1 ;       CG314      CG311
    7     9	 1 ;       CG314      NG3P2
    7    39	 1 ;       CG314       HGA1
    8    22	 1 ;       CG311      OG311
    8    40	 1 ;       CG311       HGA1
    9    11	 1 ;       NG3P2       HGP2
    9    12	 1 ;       NG3P2      CG324
    9    10	 1 ;       NG3P2       HGP2
   12    13	 1 ;       CG324     CG2R61
   12    41	 1 ;       CG324       HGA2
   12    42	 1 ;       CG324       HGA2
   13    18	 1 ;      CG2R61     CG2R61
   13    14	 1 ;      CG2R61     CG2R61
   14    15	 1 ;      CG2R61     CG2R61
   14    43	 1 ;      CG2R61      HGR61
   15    16	 1 ;      CG2R61     CG2R61
   15    19	 1 ;      CG2R61      CG311
   16    17	 1 ;      CG2R61     CG2R61
   16    44	 1 ;      CG2R61      HGR61
   17    18	 1 ;      CG2R61     CG2R61
   17    45	 1 ;      CG2R61      HGR61
   18    46	 1 ;      CG2R61      HGR61
   19    20	 1 ;       CG311      CG331
   19    21	 1 ;       CG311      CG331
   19    47	 1 ;       CG311       HGA1
   20    48	 1 ;       CG331       HGA3
   20    49	 1 ;       CG331       HGA3
   20    50	 1 ;       CG331       HGA3
   21    51	 1 ;       CG331       HGA3
   21    52	 1 ;       CG331       HGA3
   21    53	 1 ;       CG331       HGA3
   22    23	 1 ;       OG311       HGP1
   24    25	 1 ;       CG321     CG2R61
   24    54	 1 ;       CG321       HGA2
   24    55	 1 ;       CG321       HGA2
   25    26	 1 ;      CG2R61     CG2R61
   25    31	 1 ;      CG2R61     CG2R61
   26    27	 1 ;      CG2R61     CG2R61
   26    56	 1 ;      CG2R61      HGR62
   27    28	 1 ;      CG2R61      BRGR1
   27    29	 1 ;      CG2R61     CG2R61
   29    32	 1 ;      CG2R61      OG301
   29    30	 1 ;      CG2R61     CG2R61
   30    31	 1 ;      CG2R61     CG2R61
   30    57	 1 ;      CG2R61      HGR61
   31    58	 1 ;      CG2R61      HGR61
   32    33	 1 ;       OG301      CG331
   33    59	 1 ;       CG331       HGA3
   33    60	 1 ;       CG331       HGA3
   33    61	 1 ;       CG331       HGA3

[ pairs ]
;	ai	  aj funct			  c0			c1			  c2			c3
    1     4	 1
    1     5	 1
    1     6	 1
    1     9	 1
    1    39	 1
    1    23	 1
    1    26	 1
    1    31	 1
    2    25	 1
    2    54	 1
    2    55	 1
    2    22	 1
    2     7	 1
    2    40	 1
    2    37	 1
    2    38	 1
    3    24	 1
    3     8	 1
    3    34	 1
    3     9	 1
    3    39	 1
    4    35	 1
    4    36	 1
    4     7	 1
    4    37	 1
    4    38	 1
    5    35	 1
    5    36	 1
    5     7	 1
    5    37	 1
    5    38	 1
    6    35	 1
    6    36	 1
    6    22	 1
    6    40	 1
    6    11	 1
    6    12	 1
    6    10	 1
    7    24	 1
    7    34	 1
    7    23	 1
    7    13	 1
    7    41	 1
    7    42	 1
    8    25	 1
    8    54	 1
    8    55	 1
    8    35	 1
    8    36	 1
    8    37	 1
    8    38	 1
    8    11	 1
    8    12	 1
    8    10	 1
    9    37	 1
    9    38	 1
    9    22	 1
    9    40	 1
    9    18	 1
    9    14	 1
   10    39	 1
   10    13	 1
   10    41	 1
   10    42	 1
   11    39	 1
   11    13	 1
   11    41	 1
   11    42	 1
   12    39	 1
   12    17	 1
   12    46	 1
   12    15	 1
   12    43	 1
   13    16	 1
   13    19	 1
   13    45	 1
   14    41	 1
   14    42	 1
   14    17	 1
   14    46	 1
   14    44	 1
   14    20	 1
   14    21	 1
   14    47	 1
   15    18	 1
   15    45	 1
   15    48	 1
   15    49	 1
   15    50	 1
   15    51	 1
   15    52	 1
   15    53	 1
   16    43	 1
   16    20	 1
   16    21	 1
   16    47	 1
   16    46	 1
   17    19	 1
   18    41	 1
   18    42	 1
   18    43	 1
   18    44	 1
   19    43	 1
   19    44	 1
   20    51	 1
   20    52	 1
   20    53	 1
   21    48	 1
   21    49	 1
   21    50	 1
   22    24	 1
   22    34	 1
   22    39	 1
   23    40	 1
   24    35	 1
   24    36	 1
   24    40	 1
   24    27	 1
   24    56	 1
   24    30	 1
   24    58	 1
   25    34	 1
   25    28	 1
   62    25	 1
   25    29	 1
   25    57	 1
   26    54	 1
   26    55	 1
   26    30	 1
   26    58	 1
   26    32	 1
   27    31	 1
   27    33	 1
   27    57	 1
   28    56	 1
   62    56	 1
   28    32	 1
   62    32	 1
   28    30	 1
   62    30	 1
   29    56	 1
   29    58	 1
   29    59	 1
   29    60	 1
   29    61	 1
   30    33	 1
   31    54	 1
   31    55	 1
   31    56	 1
   31    32	 1
   32    57	 1
   34    54	 1
   34    55	 1
   34    35	 1
   34    36	 1
   34    40	 1
   37    39	 1
   38    39	 1
   39    40	 1
   44    45	 1
   45    46	 1
   47    48	 1
   47    49	 1
   47    50	 1
   47    51	 1
   47    52	 1
   47    53	 1
   57    58	 1

[ angles ]
;	ai	  aj	ak funct			c0			  c1			c2			  c3
   24     1     2	5 ;      CG321      CG311      CG321
   24     1     8	5 ;      CG321      CG311      CG311
   24     1    34	5 ;      CG321      CG311       HGA1
    2     1     8	5 ;      CG321      CG311      CG311
    2     1    34	5 ;      CG321      CG311       HGA1
    8     1    34	5 ;      CG311      CG311       HGA1
    1     2     3	5 ;      CG311      CG321      SG3O2
    1     2    35	5 ;      CG311      CG321       HGA2
    1     2    36	5 ;      CG311      CG321       HGA2
    3     2    35	5 ;      SG3O2      CG321       HGA2
    3     2    36	5 ;      SG3O2      CG321       HGA2
   35     2    36	5 ;       HGA2      CG321       HGA2
    2     3     4	5 ;      CG321      SG3O2      OG2P1
    2     3     5	5 ;      CG321      SG3O2      OG2P1
    2     3     6	5 ;      CG321      SG3O2      CG321
    4     3     5	5 ;      OG2P1      SG3O2      OG2P1
    4     3     6	5 ;      OG2P1      SG3O2      CG321
    5     3     6	5 ;      OG2P1      SG3O2      CG321
    3     6     7	5 ;      SG3O2      CG321      CG314
    3     6    37	5 ;      SG3O2      CG321       HGA2
    3     6    38	5 ;      SG3O2      CG321       HGA2
    7     6    37	5 ;      CG314      CG321       HGA2
    7     6    38	5 ;      CG314      CG321       HGA2
   37     6    38	5 ;       HGA2      CG321       HGA2
    8     7     9	5 ;      CG311      CG314      NG3P2
    8     7     6	5 ;      CG311      CG314      CG321
    8     7    39	5 ;      CG311      CG314       HGA1
    9     7     6	5 ;      NG3P2      CG314      CG321
    9     7    39	5 ;      NG3P2      CG314       HGA1
    6     7    39	5 ;      CG321      CG314       HGA1
    1     8    22	5 ;      CG311      CG311      OG311
    1     8     7	5 ;      CG311      CG311      CG314
    1     8    40	5 ;      CG311      CG311       HGA1
   22     8     7	5 ;      OG311      CG311      CG314
   22     8    40	5 ;      OG311      CG311       HGA1
    7     8    40	5 ;      CG314      CG311       HGA1
   11     9    12	5 ;       HGP2      NG3P2      CG324
   11     9    10	5 ;       HGP2      NG3P2       HGP2
   11     9     7	5 ;       HGP2      NG3P2      CG314
   12     9    10	5 ;      CG324      NG3P2       HGP2
   12     9     7	5 ;      CG324      NG3P2      CG314
   10     9     7	5 ;       HGP2      NG3P2      CG314
   13    12     9	5 ;     CG2R61      CG324      NG3P2
   13    12    41	5 ;     CG2R61      CG324       HGA2
   13    12    42	5 ;     CG2R61      CG324       HGA2
    9    12    41	5 ;      NG3P2      CG324       HGA2
    9    12    42	5 ;      NG3P2      CG324       HGA2
   41    12    42	5 ;       HGA2      CG324       HGA2
   18    13    14	5 ;     CG2R61     CG2R61     CG2R61
   18    13    12	5 ;     CG2R61     CG2R61      CG324
   14    13    12	5 ;     CG2R61     CG2R61      CG324
   15    14    13	5 ;     CG2R61     CG2R61     CG2R61
   15    14    43	5 ;     CG2R61     CG2R61      HGR61
   13    14    43	5 ;     CG2R61     CG2R61      HGR61
   16    15    19	5 ;     CG2R61     CG2R61      CG311
   16    15    14	5 ;     CG2R61     CG2R61     CG2R61
   19    15    14	5 ;      CG311     CG2R61     CG2R61
   17    16    15	5 ;     CG2R61     CG2R61     CG2R61
   17    16    44	5 ;     CG2R61     CG2R61      HGR61
   15    16    44	5 ;     CG2R61     CG2R61      HGR61
   16    17    18	5 ;     CG2R61     CG2R61     CG2R61
   16    17    45	5 ;     CG2R61     CG2R61      HGR61
   18    17    45	5 ;     CG2R61     CG2R61      HGR61
   17    18    13	5 ;     CG2R61     CG2R61     CG2R61
   17    18    46	5 ;     CG2R61     CG2R61      HGR61
   13    18    46	5 ;     CG2R61     CG2R61      HGR61
   15    19    20	5 ;     CG2R61      CG311      CG331
   15    19    21	5 ;     CG2R61      CG311      CG331
   15    19    47	5 ;     CG2R61      CG311       HGA1
   20    19    21	5 ;      CG331      CG311      CG331
   20    19    47	5 ;      CG331      CG311       HGA1
   21    19    47	5 ;      CG331      CG311       HGA1
   19    20    48	5 ;      CG311      CG331       HGA3
   19    20    49	5 ;      CG311      CG331       HGA3
   19    20    50	5 ;      CG311      CG331       HGA3
   48    20    49	5 ;       HGA3      CG331       HGA3
   48    20    50	5 ;       HGA3      CG331       HGA3
   49    20    50	5 ;       HGA3      CG331       HGA3
   19    21    51	5 ;      CG311      CG331       HGA3
   19    21    52	5 ;      CG311      CG331       HGA3
   19    21    53	5 ;      CG311      CG331       HGA3
   51    21    52	5 ;       HGA3      CG331       HGA3
   51    21    53	5 ;       HGA3      CG331       HGA3
   52    21    53	5 ;       HGA3      CG331       HGA3
   23    22     8	5 ;       HGP1      OG311      CG311
   25    24     1	5 ;     CG2R61      CG321      CG311
   25    24    54	5 ;     CG2R61      CG321       HGA2
   25    24    55	5 ;     CG2R61      CG321       HGA2
    1    24    54	5 ;      CG311      CG321       HGA2
    1    24    55	5 ;      CG311      CG321       HGA2
   54    24    55	5 ;       HGA2      CG321       HGA2
   26    25    31	5 ;     CG2R61     CG2R61     CG2R61
   26    25    24	5 ;     CG2R61     CG2R61      CG321
   31    25    24	5 ;     CG2R61     CG2R61      CG321
   27    26    25	5 ;     CG2R61     CG2R61     CG2R61
   27    26    56	5 ;     CG2R61     CG2R61      HGR62
   25    26    56	5 ;     CG2R61     CG2R61      HGR62
   28    27    29	5 ;      BRGR1     CG2R61     CG2R61
   28    27    26	5 ;      BRGR1     CG2R61     CG2R61
   29    27    26	5 ;     CG2R61     CG2R61     CG2R61
   32    29    27	5 ;      OG301     CG2R61     CG2R61
   32    29    30	5 ;      OG301     CG2R61     CG2R61
   27    29    30	5 ;     CG2R61     CG2R61     CG2R61
   29    30    31	5 ;     CG2R61     CG2R61     CG2R61
   29    30    57	5 ;     CG2R61     CG2R61      HGR61
   31    30    57	5 ;     CG2R61     CG2R61      HGR61
   30    31    25	5 ;     CG2R61     CG2R61     CG2R61
   30    31    58	5 ;     CG2R61     CG2R61      HGR61
   25    31    58	5 ;     CG2R61     CG2R61      HGR61
   33    32    29	5 ;      CG331      OG301     CG2R61
   32    33    59	5 ;      OG301      CG331       HGA3
   32    33    60	5 ;      OG301      CG331       HGA3
   32    33    61	5 ;      OG301      CG331       HGA3
   59    33    60	5 ;       HGA3      CG331       HGA3
   59    33    61	5 ;       HGA3      CG331       HGA3
   60    33    61	5 ;       HGA3      CG331       HGA3

[ dihedrals ]
;	ai	  aj	ak	  al funct			  c0			c1			  c2			c3			  c4			c5
    2     1    24    25	 9 ;      CG321      CG311      CG321     CG2R61
    2     1    24    54	 9 ;      CG321      CG311      CG321       HGA2
    2     1    24    55	 9 ;      CG321      CG311      CG321       HGA2
    8     1    24    25	 9 ;      CG311      CG311      CG321     CG2R61
    8     1    24    54	 9 ;      CG311      CG311      CG321       HGA2
    8     1    24    55	 9 ;      CG311      CG311      CG321       HGA2
   34     1    24    25	 9 ;       HGA1      CG311      CG321     CG2R61
   34     1    24    54	 9 ;       HGA1      CG311      CG321       HGA2
   34     1    24    55	 9 ;       HGA1      CG311      CG321       HGA2
   24     1     2     3	 9 ;      CG321      CG311      CG321      SG3O2
   24     1     2    35	 9 ;      CG321      CG311      CG321       HGA2
   24     1     2    36	 9 ;      CG321      CG311      CG321       HGA2
    8     1     2     3	 9 ;      CG311      CG311      CG321      SG3O2
    8     1     2    35	 9 ;      CG311      CG311      CG321       HGA2
    8     1     2    36	 9 ;      CG311      CG311      CG321       HGA2
   34     1     2     3	 9 ;       HGA1      CG311      CG321      SG3O2
   34     1     2    35	 9 ;       HGA1      CG311      CG321       HGA2
   34     1     2    36	 9 ;       HGA1      CG311      CG321       HGA2
   24     1     8    22	 9 ;      CG321      CG311      CG311      OG311
   24     1     8     7	 9 ;      CG321      CG311      CG311      CG314
   24     1     8    40	 9 ;      CG321      CG311      CG311       HGA1
    2     1     8    22	 9 ;      CG321      CG311      CG311      OG311
    2     1     8     7	 9 ;      CG321      CG311      CG311      CG314
    2     1     8    40	 9 ;      CG321      CG311      CG311       HGA1
   34     1     8    22	 9 ;       HGA1      CG311      CG311      OG311
   34     1     8     7	 9 ;       HGA1      CG311      CG311      CG314
   34     1     8    40	 9 ;       HGA1      CG311      CG311       HGA1
    1     2     3     4	 9 ;      CG311      CG321      SG3O2      OG2P1
    1     2     3     5	 9 ;      CG311      CG321      SG3O2      OG2P1
    1     2     3     6	 9 ;      CG311      CG321      SG3O2      CG321
   35     2     3     4	 9 ;       HGA2      CG321      SG3O2      OG2P1
   35     2     3     5	 9 ;       HGA2      CG321      SG3O2      OG2P1
   35     2     3     6	 9 ;       HGA2      CG321      SG3O2      CG321
   36     2     3     4	 9 ;       HGA2      CG321      SG3O2      OG2P1
   36     2     3     5	 9 ;       HGA2      CG321      SG3O2      OG2P1
   36     2     3     6	 9 ;       HGA2      CG321      SG3O2      CG321
    2     3     6     7	 9 ;      CG321      SG3O2      CG321      CG314
    2     3     6    37	 9 ;      CG321      SG3O2      CG321       HGA2
    2     3     6    38	 9 ;      CG321      SG3O2      CG321       HGA2
    4     3     6     7	 9 ;      OG2P1      SG3O2      CG321      CG314
    4     3     6    37	 9 ;      OG2P1      SG3O2      CG321       HGA2
    4     3     6    38	 9 ;      OG2P1      SG3O2      CG321       HGA2
    5     3     6     7	 9 ;      OG2P1      SG3O2      CG321      CG314
    5     3     6    37	 9 ;      OG2P1      SG3O2      CG321       HGA2
    5     3     6    38	 9 ;      OG2P1      SG3O2      CG321       HGA2
    3     6     7     8	 9 ;      SG3O2      CG321      CG314      CG311
    3     6     7     9	 9 ;      SG3O2      CG321      CG314      NG3P2
    3     6     7    39	 9 ;      SG3O2      CG321      CG314       HGA1
   37     6     7     8	 9 ;       HGA2      CG321      CG314      CG311
   37     6     7     9	 9 ;       HGA2      CG321      CG314      NG3P2
   37     6     7    39	 9 ;       HGA2      CG321      CG314       HGA1
   38     6     7     8	 9 ;       HGA2      CG321      CG314      CG311
   38     6     7     9	 9 ;       HGA2      CG321      CG314      NG3P2
   38     6     7    39	 9 ;       HGA2      CG321      CG314       HGA1
    9     7     8     1	 9 ;      NG3P2      CG314      CG311      CG311
    9     7     8    22	 9 ;      NG3P2      CG314      CG311      OG311
    9     7     8    40	 9 ;      NG3P2      CG314      CG311       HGA1
    6     7     8     1	 9 ;      CG321      CG314      CG311      CG311
    6     7     8    22	 9 ;      CG321      CG314      CG311      OG311
    6     7     8    40	 9 ;      CG321      CG314      CG311       HGA1
   39     7     8     1	 9 ;       HGA1      CG314      CG311      CG311
   39     7     8    22	 9 ;       HGA1      CG314      CG311      OG311
   39     7     8    40	 9 ;       HGA1      CG314      CG311       HGA1
    8     7     9    11	 9 ;      CG311      CG314      NG3P2       HGP2
    8     7     9    12	 9 ;      CG311      CG314      NG3P2      CG324
    8     7     9    10	 9 ;      CG311      CG314      NG3P2       HGP2
    6     7     9    11	 9 ;      CG321      CG314      NG3P2       HGP2
    6     7     9    12	 9 ;      CG321      CG314      NG3P2      CG324
    6     7     9    10	 9 ;      CG321      CG314      NG3P2       HGP2
   39     7     9    11	 9 ;       HGA1      CG314      NG3P2       HGP2
   39     7     9    12	 9 ;       HGA1      CG314      NG3P2      CG324
   39     7     9    10	 9 ;       HGA1      CG314      NG3P2       HGP2
    1     8    22    23	 9 ;      CG311      CG311      OG311       HGP1
    7     8    22    23	 9 ;      CG314      CG311      OG311       HGP1
   40     8    22    23	 9 ;       HGA1      CG311      OG311       HGP1
   11     9    12    13	 9 ;       HGP2      NG3P2      CG324     CG2R61
   11     9    12    41	 9 ;       HGP2      NG3P2      CG324       HGA2
   11     9    12    42	 9 ;       HGP2      NG3P2      CG324       HGA2
   10     9    12    13	 9 ;       HGP2      NG3P2      CG324     CG2R61
   10     9    12    41	 9 ;       HGP2      NG3P2      CG324       HGA2
   10     9    12    42	 9 ;       HGP2      NG3P2      CG324       HGA2
    7     9    12    13	 9 ;      CG314      NG3P2      CG324     CG2R61
    7     9    12    41	 9 ;      CG314      NG3P2      CG324       HGA2
    7     9    12    42	 9 ;      CG314      NG3P2      CG324       HGA2
    9    12    13    18	 9 ;      NG3P2      CG324     CG2R61     CG2R61
    9    12    13    14	 9 ;      NG3P2      CG324     CG2R61     CG2R61
   41    12    13    18	 9 ;       HGA2      CG324     CG2R61     CG2R61
   41    12    13    14	 9 ;       HGA2      CG324     CG2R61     CG2R61
   42    12    13    18	 9 ;       HGA2      CG324     CG2R61     CG2R61
   42    12    13    14	 9 ;       HGA2      CG324     CG2R61     CG2R61
   14    13    18    17	 9 ;     CG2R61     CG2R61     CG2R61     CG2R61
   14    13    18    46	 9 ;     CG2R61     CG2R61     CG2R61      HGR61
   12    13    18    17	 9 ;      CG324     CG2R61     CG2R61     CG2R61
   12    13    18    46	 9 ;      CG324     CG2R61     CG2R61      HGR61
   18    13    14    15	 9 ;     CG2R61     CG2R61     CG2R61     CG2R61
   18    13    14    43	 9 ;     CG2R61     CG2R61     CG2R61      HGR61
   12    13    14    15	 9 ;      CG324     CG2R61     CG2R61     CG2R61
   12    13    14    43	 9 ;      CG324     CG2R61     CG2R61      HGR61
   13    14    15    16	 9 ;     CG2R61     CG2R61     CG2R61     CG2R61
   13    14    15    19	 9 ;     CG2R61     CG2R61     CG2R61      CG311
   43    14    15    16	 9 ;      HGR61     CG2R61     CG2R61     CG2R61
   43    14    15    19	 9 ;      HGR61     CG2R61     CG2R61      CG311
   19    15    16    17	 9 ;      CG311     CG2R61     CG2R61     CG2R61
   19    15    16    44	 9 ;      CG311     CG2R61     CG2R61      HGR61
   14    15    16    17	 9 ;     CG2R61     CG2R61     CG2R61     CG2R61
   14    15    16    44	 9 ;     CG2R61     CG2R61     CG2R61      HGR61
   16    15    19    20	 9 ;     CG2R61     CG2R61      CG311      CG331
   16    15    19    21	 9 ;     CG2R61     CG2R61      CG311      CG331
   16    15    19    47	 9 ;     CG2R61     CG2R61      CG311       HGA1
   14    15    19    20	 9 ;     CG2R61     CG2R61      CG311      CG331
   14    15    19    21	 9 ;     CG2R61     CG2R61      CG311      CG331
   14    15    19    47	 9 ;     CG2R61     CG2R61      CG311       HGA1
   15    16    17    18	 9 ;     CG2R61     CG2R61     CG2R61     CG2R61
   15    16    17    45	 9 ;     CG2R61     CG2R61     CG2R61      HGR61
   44    16    17    18	 9 ;      HGR61     CG2R61     CG2R61     CG2R61
   44    16    17    45	 9 ;      HGR61     CG2R61     CG2R61      HGR61
   16    17    18    13	 9 ;     CG2R61     CG2R61     CG2R61     CG2R61
   16    17    18    46	 9 ;     CG2R61     CG2R61     CG2R61      HGR61
   45    17    18    13	 9 ;      HGR61     CG2R61     CG2R61     CG2R61
   45    17    18    46	 9 ;      HGR61     CG2R61     CG2R61      HGR61
   15    19    20    48	 9 ;     CG2R61      CG311      CG331       HGA3
   15    19    20    49	 9 ;     CG2R61      CG311      CG331       HGA3
   15    19    20    50	 9 ;     CG2R61      CG311      CG331       HGA3
   21    19    20    48	 9 ;      CG331      CG311      CG331       HGA3
   21    19    20    49	 9 ;      CG331      CG311      CG331       HGA3
   21    19    20    50	 9 ;      CG331      CG311      CG331       HGA3
   47    19    20    48	 9 ;       HGA1      CG311      CG331       HGA3
   47    19    20    49	 9 ;       HGA1      CG311      CG331       HGA3
   47    19    20    50	 9 ;       HGA1      CG311      CG331       HGA3
   15    19    21    51	 9 ;     CG2R61      CG311      CG331       HGA3
   15    19    21    52	 9 ;     CG2R61      CG311      CG331       HGA3
   15    19    21    53	 9 ;     CG2R61      CG311      CG331       HGA3
   20    19    21    51	 9 ;      CG331      CG311      CG331       HGA3
   20    19    21    52	 9 ;      CG331      CG311      CG331       HGA3
   20    19    21    53	 9 ;      CG331      CG311      CG331       HGA3
   47    19    21    51	 9 ;       HGA1      CG311      CG331       HGA3
   47    19    21    52	 9 ;       HGA1      CG311      CG331       HGA3
   47    19    21    53	 9 ;       HGA1      CG311      CG331       HGA3
    1    24    25    26	 9 ;      CG311      CG321     CG2R61     CG2R61
    1    24    25    31	 9 ;      CG311      CG321     CG2R61     CG2R61
   54    24    25    26	 9 ;       HGA2      CG321     CG2R61     CG2R61
   54    24    25    31	 9 ;       HGA2      CG321     CG2R61     CG2R61
   55    24    25    26	 9 ;       HGA2      CG321     CG2R61     CG2R61
   55    24    25    31	 9 ;       HGA2      CG321     CG2R61     CG2R61
   31    25    26    27	 9 ;     CG2R61     CG2R61     CG2R61     CG2R61
   31    25    26    56	 9 ;     CG2R61     CG2R61     CG2R61      HGR62
   24    25    26    27	 9 ;      CG321     CG2R61     CG2R61     CG2R61
   24    25    26    56	 9 ;      CG321     CG2R61     CG2R61      HGR62
   26    25    31    30	 9 ;     CG2R61     CG2R61     CG2R61     CG2R61
   26    25    31    58	 9 ;     CG2R61     CG2R61     CG2R61      HGR61
   24    25    31    30	 9 ;      CG321     CG2R61     CG2R61     CG2R61
   24    25    31    58	 9 ;      CG321     CG2R61     CG2R61      HGR61
   25    26    27    28	 9 ;     CG2R61     CG2R61     CG2R61      BRGR1
   25    26    27    29	 9 ;     CG2R61     CG2R61     CG2R61     CG2R61
   56    26    27    28	 9 ;      HGR62     CG2R61     CG2R61      BRGR1
   56    26    27    29	 9 ;      HGR62     CG2R61     CG2R61     CG2R61
   28    27    29    32	 9 ;      BRGR1     CG2R61     CG2R61      OG301
   28    27    29    30	 9 ;      BRGR1     CG2R61     CG2R61     CG2R61
   26    27    29    32	 9 ;     CG2R61     CG2R61     CG2R61      OG301
   26    27    29    30	 9 ;     CG2R61     CG2R61     CG2R61     CG2R61
   27    29    32    33	 9 ;     CG2R61     CG2R61      OG301      CG331
   30    29    32    33	 9 ;     CG2R61     CG2R61      OG301      CG331
   32    29    30    31	 9 ;      OG301     CG2R61     CG2R61     CG2R61
   32    29    30    57	 9 ;      OG301     CG2R61     CG2R61      HGR61
   27    29    30    31	 9 ;     CG2R61     CG2R61     CG2R61     CG2R61
   27    29    30    57	 9 ;     CG2R61     CG2R61     CG2R61      HGR61
   29    30    31    25	 9 ;     CG2R61     CG2R61     CG2R61     CG2R61
   29    30    31    58	 9 ;     CG2R61     CG2R61     CG2R61      HGR61
   57    30    31    25	 9 ;      HGR61     CG2R61     CG2R61     CG2R61
   57    30    31    58	 9 ;      HGR61     CG2R61     CG2R61      HGR61
   29    32    33    59	 9 ;     CG2R61      OG301      CG331       HGA3
   29    32    33    60	 9 ;     CG2R61      OG301      CG331       HGA3
   29    32    33    61	 9 ;     CG2R61      OG301      CG331       HGA3

[ virtual_sites2 ]
; Site   from				funct a
   62    28    27     2   -0.189

[ exclusions ]
;	ai	  aj
   28    62
   62    27
   62    29
   62    26
   62    25
   62    56
   62    32
   62    30

