Glycine aRginine prOline Methionine Alanine Cystine Serine
   62
    1LIG     C1    1  -1.613   0.731  -1.536
    1LIG     C2    2  -1.711   0.805  -1.628
    1LIG      S    3  -1.832   0.689  -1.689
    1LIG     O1    4  -1.758   0.577  -1.747
    1LIG     O2    5  -1.935   0.758  -1.762
    1LIG     C3    6  -1.902   0.623  -1.540
    1LIG     C4    7  -1.792   0.565  -1.452
    1LIG     C5    8  -1.687   0.674  -1.412
    1LIG      N    9  -1.729   0.444  -1.517
    1LIG     H1   10  -1.802   0.376  -1.544
    1LIG     H2   11  -1.689   0.469  -1.610
    1LIG     C6   12  -1.626   0.369  -1.439
    1LIG     C7   13  -1.491   0.379  -1.502
    1LIG     C8   14  -1.377   0.361  -1.423
    1LIG     C9   15  -1.248   0.371  -1.478
    1LIG    C10   16  -1.236   0.400  -1.615
    1LIG    C11   17  -1.349   0.418  -1.694
    1LIG    C12   18  -1.476   0.408  -1.638
    1LIG    C13   19  -1.127   0.348  -1.389
    1LIG    C14   20  -1.123   0.448  -1.274
    1LIG    C15   21  -1.120   0.204  -1.339
    1LIG     O3   22  -1.755   0.779  -1.345
    1LIG     H3   23  -1.724   0.866  -1.379
    1LIG    C16   24  -1.492   0.818  -1.497
    1LIG    C17   25  -1.358   0.785  -1.561
    1LIG    C18   26  -1.349   0.791  -1.701
    1LIG    C19   27  -1.228   0.773  -1.771
    1LIG     BR   28  -1.246   0.789  -1.960
    1LIG    C20   29  -1.111   0.747  -1.700
    1LIG    C21   30  -1.119   0.741  -1.560
    1LIG    C22   31  -1.240   0.761  -1.491
    1LIG     O4   32  -0.982   0.727  -1.742
    1LIG    C23   33  -0.887   0.831  -1.740
    1LIG     HC   34  -1.574   0.646  -1.593
    1LIG    HC2   35  -1.657   0.850  -1.711
    1LIG    HC3   36  -1.762   0.884  -1.571
    1LIG    HC4   37  -1.974   0.545  -1.566
    1LIG    HC5   38  -1.954   0.703  -1.487
    1LIG    HC1   39  -1.839   0.531  -1.359
    1LIG    HC6   40  -1.614   0.630  -1.344
    1LIG    HC7   41  -1.656   0.264  -1.434
    1LIG    HC8   42  -1.622   0.410  -1.338
    1LIG    HC9   43  -1.388   0.339  -1.318
    1LIG   HC10   44  -1.138   0.409  -1.659
    1LIG   HC11   45  -1.338   0.439  -1.799
    1LIG   HC12   46  -1.564   0.424  -1.700
    1LIG   HC13   47  -1.038   0.365  -1.450
    1LIG   HC14   48  -1.128   0.550  -1.314
    1LIG   HC15   49  -1.031   0.436  -1.218
    1LIG   HC16   50  -1.208   0.431  -1.208
    1LIG   HC17   51  -1.123   0.135  -1.424
    1LIG   HC18   52  -1.205   0.184  -1.274
    1LIG   HC19   53  -1.028   0.189  -1.284
    1LIG   HC20   54  -1.479   0.809  -1.389
    1LIG   HC21   55  -1.516   0.922  -1.520
    1LIG   HC22   56  -1.439   0.811  -1.757
    1LIG   HC23   57  -1.030   0.721  -1.503
    1LIG   HC24   58  -1.241   0.757  -1.383
    1LIG   HC25   59  -0.791   0.794  -1.777
    1LIG   HC26   60  -0.921   0.913  -1.803
    1LIG   HC27   61  -0.874   0.867  -1.638
    1LIG    LP1   62  -1.265   0.805  -2.147
   0.00000   0.00000   0.00000
