GROtesk MACabre and Sinister
   67
    1LIG      S    1  -1.092   0.371  -1.752
    1LIG     O1    2  -0.975   0.287  -1.792
    1LIG     C1    3  -1.091   0.520  -1.854
    1LIG     C2    4  -1.221   0.602  -1.844
    1LIG     C3    5  -1.345   0.517  -1.885
    1LIG     C4    6  -1.363   0.380  -1.813
    1LIG     C5    7  -1.238   0.293  -1.829
    1LIG     C6    8  -1.247   0.670  -1.709
    1LIG     C7    9  -1.364   0.762  -1.697
    1LIG     C8   10  -1.469   0.726  -1.610
    1LIG     C9   11  -1.582   0.806  -1.592
    1LIG    C10   12  -1.591   0.926  -1.665
    1LIG    C11   13  -1.489   0.958  -1.757
    1LIG     F1   14  -1.499   1.068  -1.832
    1LIG    C12   15  -1.375   0.879  -1.771
    1LIG     O2   16  -1.675   0.779  -1.494
    1LIG    C13   17  -1.758   0.660  -1.510
    1LIG    C14   18  -1.740   0.551  -1.404
    1LIG     F2   19  -1.836   0.455  -1.407
    1LIG     F3   20  -1.622   0.486  -1.410
    1LIG     F4   21  -1.748   0.606  -1.279
    1LIG    C15   22  -1.906   0.702  -1.502
    1LIG     O3   23  -1.935   0.818  -1.580
    1LIG    C16   24  -1.997   0.780  -1.703
    1LIG     N1   25  -1.710   1.001  -1.666
    1LIG     H1   26  -1.765   0.991  -1.581
    1LIG     H2   27  -1.764   0.989  -1.751
    1LIG     O4   28  -1.346   0.494  -2.026
    1LIG     H3   29  -1.261   0.457  -2.059
    1LIG     N2   30  -1.401   0.387  -1.666
    1LIG     H4   31  -1.334   0.451  -1.621
    1LIG     H5   32  -1.491   0.434  -1.650
    1LIG    C17   33  -1.398   0.260  -1.585
    1LIG    C18   34  -1.339   0.279  -1.449
    1LIG    C19   35  -1.332   0.170  -1.360
    1LIG    C20   36  -1.285   0.188  -1.230
    1LIG    C21   37  -1.231   0.311  -1.194
    1LIG    C22   38  -1.233   0.419  -1.282
    1LIG    C23   39  -1.289   0.404  -1.409
    1LIG     O5   40  -1.280   0.090  -1.135
    1LIG    C24   41  -1.200  -0.025  -1.159
    1LIG     F5   42  -1.237  -0.094  -1.270
    1LIG     F6   43  -1.071   0.012  -1.174
    1LIG     F7   44  -1.210  -0.108  -1.054
    1LIG    HC2   45  -1.076   0.491  -1.958
    1LIG    HC3   46  -1.008   0.583  -1.823
    1LIG     HC   47  -1.213   0.682  -1.918
    1LIG    HC1   48  -1.433   0.577  -1.861
    1LIG    HC4   49  -1.444   0.328  -1.864
    1LIG    HC5   50  -1.218   0.279  -1.935
    1LIG    HC6   51  -1.256   0.196  -1.782
    1LIG    HC7   52  -1.261   0.590  -1.635
    1LIG    HC8   53  -1.157   0.725  -1.681
    1LIG    HC9   54  -1.461   0.633  -1.556
    1LIG   HC10   55  -1.296   0.908  -1.839
    1LIG   HC11   56  -1.739   0.617  -1.609
    1LIG   HC12   57  -1.930   0.723  -1.398
    1LIG   HC13   58  -1.968   0.619  -1.537
    1LIG   HC14   59  -1.339   0.186  -1.639
    1LIG   HC15   60  -1.500   0.223  -1.574
    1LIG   HC16   61  -1.365   0.073  -1.392
    1LIG   HC17   62  -1.188   0.324  -1.095
    1LIG   HC18   63  -1.191   0.514  -1.253
    1LIG   HC19   64  -1.294   0.488  -1.477
    1LIG   HC20   65  -2.019   0.869  -1.761
    1LIG   HC21   66  -1.929   0.716  -1.759
    1LIG   HC22   67  -2.089   0.727  -1.682
   0.00000   0.00000   0.00000
