; Created by cgenff_charmm2gmx.py

[ moleculetype ]
; Name			   nrexcl
LIG				 3

[ atoms ]
;	 nr		  type	resnr residue  atom   cgnr	   charge		mass  typeB    chargeB		massB
; residue	 1 LIG rtp LIG q	qsum
     1      SG3O3      1    LIG      S      1      0.407     32.060   ;
     2      OG2P1      1    LIG     O1      2     -0.514     15.999   ;
     3      CG321      1    LIG     C1      3     -0.117     12.011   ;
     4      CG311      1    LIG     C2      4     -0.074     12.011   ;
     5      CG311      1    LIG     C3      5      0.092     12.011   ;
     6      CG314      1    LIG     C4      6     -0.011     12.011   ;
     7      CG321      1    LIG     C5      7      0.061     12.011   ;
     8      CG321      1    LIG     C6      8     -0.123     12.011   ;
     9     CG2R61      1    LIG     C7      9      0.006     12.011   ;
    10     CG2R61      1    LIG     C8     10     -0.111     12.011   ;
    11     CG2R61      1    LIG     C9     11      0.227     12.011   ;
    12     CG2R61      1    LIG    C10     12     -0.028     12.011   ;
    13     CG2R66      1    LIG    C11     13      0.028     12.011   ;
    14       FGR1      1    LIG     F1     14     -0.230     18.998   ;
    15     CG2R61      1    LIG    C12     15     -0.121     12.011   ;
    16      OG301      1    LIG     O2     16     -0.317     15.999   ;
    17      CG311      1    LIG    C13     17      0.350     12.011   ;
    18      CG302      1    LIG    C14     18      0.178     12.011   ;
    19       FGA3      1    LIG     F2     19     -0.115     18.998   ;
    20       FGA3      1    LIG     F3     20     -0.115     18.998   ;
    21       FGA3      1    LIG     F4     21     -0.115     18.998   ;
    22      CG321      1    LIG    C15     22     -0.044     12.011   ;
    23      OG301      1    LIG     O3     23     -0.326     15.999   ;
    24      CG331      1    LIG    C16     24     -0.100     12.011   ;
    25      NG2S3      1    LIG     N1     25     -0.731     14.007   ;
    26       HGP4      1    LIG     H1     26      0.357      1.008   ;
    27       HGP4      1    LIG     H2     27      0.357      1.008   ;
    28      OG311      1    LIG     O4     28     -0.595     15.999   ;
    29       HGP1      1    LIG     H3     29      0.422      1.008   ;
    30      NG3P2      1    LIG     N2     30     -0.444     14.007   ;
    31       HGP2      1    LIG     H4     31      0.346      1.008   ;
    32       HGP2      1    LIG     H5     32      0.346      1.008   ;
    33      CG324      1    LIG    C17     33      0.178     12.011   ;
    34     CG2R61      1    LIG    C18     34      0.036     12.011   ;
    35     CG2R61      1    LIG    C19     35     -0.122     12.011   ;
    36     CG2R61      1    LIG    C20     36      0.222     12.011   ;
    37     CG2R61      1    LIG    C21     37     -0.119     12.011   ;
    38     CG2R61      1    LIG    C22     38     -0.108     12.011   ;
    39     CG2R61      1    LIG    C23     39     -0.119     12.011   ;
    40      OG301      1    LIG     O5     40     -0.303     15.999   ;
    41      CG302      1    LIG    C24     41      0.464     12.011   ;
    42       FGA3      1    LIG     F5     42     -0.126     18.998   ;
    43       FGA3      1    LIG     F6     43     -0.126     18.998   ;
    44       FGA3      1    LIG     F7     44     -0.126     18.998   ;
    45       HGA2      1    LIG    HC2     45      0.090      1.008   ;
    46       HGA2      1    LIG    HC3     46      0.090      1.008   ;
    47       HGA1      1    LIG     HC     47      0.090      1.008   ;
    48       HGA1      1    LIG    HC1     48      0.090      1.008   ;
    49       HGA1      1    LIG    HC4     49      0.109      1.008   ;
    50       HGA2      1    LIG    HC5     50      0.090      1.008   ;
    51       HGA2      1    LIG    HC6     51      0.090      1.008   ;
    52       HGA2      1    LIG    HC7     52      0.090      1.008   ;
    53       HGA2      1    LIG    HC8     53      0.090      1.008   ;
    54      HGR61      1    LIG    HC9     54      0.116      1.008   ;
    55      HGR62      1    LIG   HC10     55      0.174      1.008   ;
    56       HGA1      1    LIG   HC11     56      0.090      1.008   ;
    57       HGA2      1    LIG   HC12     57      0.090      1.008   ;
    58       HGA2      1    LIG   HC13     58      0.090      1.008   ;
    59       HGA2      1    LIG   HC14     59      0.090      1.008   ;
    60       HGA2      1    LIG   HC15     60      0.090      1.008   ;
    61      HGR61      1    LIG   HC16     61      0.116      1.008   ;
    62      HGR61      1    LIG   HC17     62      0.116      1.008   ;
    63      HGR61      1    LIG   HC18     63      0.116      1.008   ;
    64      HGR61      1    LIG   HC19     64      0.116      1.008   ;
    65       HGA3      1    LIG   HC20     65      0.090      1.008   ;
    66       HGA3      1    LIG   HC21     66      0.090      1.008   ;
    67       HGA3      1    LIG   HC22     67      0.090      1.008   ;

[ bonds ]
;	ai	  aj funct			  c0			c1			  c2			c3
    1     2	 1 ;       SG3O3      OG2P1
    1     3	 1 ;       SG3O3      CG321
    1     7	 1 ;       SG3O3      CG321
    3     4	 1 ;       CG321      CG311
    3    45	 1 ;       CG321       HGA2
    3    46	 1 ;       CG321       HGA2
    4     5	 1 ;       CG311      CG311
    4     8	 1 ;       CG311      CG321
    4    47	 1 ;       CG311       HGA1
    5    28	 1 ;       CG311      OG311
    5     6	 1 ;       CG311      CG314
    5    48	 1 ;       CG311       HGA1
    6     7	 1 ;       CG314      CG321
    6    30	 1 ;       CG314      NG3P2
    6    49	 1 ;       CG314       HGA1
    7    50	 1 ;       CG321       HGA2
    7    51	 1 ;       CG321       HGA2
    8     9	 1 ;       CG321     CG2R61
    8    52	 1 ;       CG321       HGA2
    8    53	 1 ;       CG321       HGA2
    9    15	 1 ;      CG2R61     CG2R61
    9    10	 1 ;      CG2R61     CG2R61
   10    11	 1 ;      CG2R61     CG2R61
   10    54	 1 ;      CG2R61      HGR61
   11    12	 1 ;      CG2R61     CG2R61
   11    16	 1 ;      CG2R61      OG301
   12    13	 1 ;      CG2R61     CG2R66
   12    25	 1 ;      CG2R61      NG2S3
   13    15	 1 ;      CG2R66     CG2R61
   13    14	 1 ;      CG2R66       FGR1
   15    55	 1 ;      CG2R61      HGR62
   16    17	 1 ;       OG301      CG311
   17    18	 1 ;       CG311      CG302
   17    22	 1 ;       CG311      CG321
   17    56	 1 ;       CG311       HGA1
   18    20	 1 ;       CG302       FGA3
   18    19	 1 ;       CG302       FGA3
   18    21	 1 ;       CG302       FGA3
   22    23	 1 ;       CG321      OG301
   22    57	 1 ;       CG321       HGA2
   22    58	 1 ;       CG321       HGA2
   23    24	 1 ;       OG301      CG331
   24    65	 1 ;       CG331       HGA3
   24    66	 1 ;       CG331       HGA3
   24    67	 1 ;       CG331       HGA3
   25    27	 1 ;       NG2S3       HGP4
   25    26	 1 ;       NG2S3       HGP4
   28    29	 1 ;       OG311       HGP1
   30    31	 1 ;       NG3P2       HGP2
   30    33	 1 ;       NG3P2      CG324
   30    32	 1 ;       NG3P2       HGP2
   33    34	 1 ;       CG324     CG2R61
   33    59	 1 ;       CG324       HGA2
   33    60	 1 ;       CG324       HGA2
   34    39	 1 ;      CG2R61     CG2R61
   34    35	 1 ;      CG2R61     CG2R61
   35    36	 1 ;      CG2R61     CG2R61
   35    61	 1 ;      CG2R61      HGR61
   36    37	 1 ;      CG2R61     CG2R61
   36    40	 1 ;      CG2R61      OG301
   37    38	 1 ;      CG2R61     CG2R61
   37    62	 1 ;      CG2R61      HGR61
   38    39	 1 ;      CG2R61     CG2R61
   38    63	 1 ;      CG2R61      HGR61
   39    64	 1 ;      CG2R61      HGR61
   40    41	 1 ;       OG301      CG302
   41    43	 1 ;       CG302       FGA3
   41    42	 1 ;       CG302       FGA3
   41    44	 1 ;       CG302       FGA3

[ pairs ]
;	ai	  aj funct			  c0			c1			  c2			c3
    1     5	 1
    1     8	 1
    1    47	 1
    1    30	 1
    1    49	 1
    2     4	 1
    2    45	 1
    2    46	 1
    2     6	 1
    2    50	 1
    2    51	 1
    3     6	 1
    3    50	 1
    3    51	 1
    3    28	 1
    3    48	 1
    3     9	 1
    3    52	 1
    3    53	 1
    4     7	 1
    4    29	 1
    4    30	 1
    4    49	 1
    4    15	 1
    4    10	 1
    5    45	 1
    5    46	 1
    5     9	 1
    5    52	 1
    5    53	 1
    5    50	 1
    5    51	 1
    5    31	 1
    5    33	 1
    5    32	 1
    6     8	 1
    6    47	 1
    6    29	 1
    6    34	 1
    6    59	 1
    6    60	 1
    7    45	 1
    7    46	 1
    7    28	 1
    7    48	 1
    7    31	 1
    7    33	 1
    7    32	 1
    8    45	 1
    8    46	 1
    8    28	 1
    8    48	 1
    8    13	 1
    8    55	 1
    8    11	 1
    8    54	 1
    9    47	 1
    9    12	 1
    9    16	 1
    9    14	 1
   10    52	 1
   10    53	 1
   10    13	 1
   10    55	 1
   10    25	 1
   10    17	 1
   11    15	 1
   11    14	 1
   11    27	 1
   11    26	 1
   11    18	 1
   11    22	 1
   11    56	 1
   12    54	 1
   12    17	 1
   12    55	 1
   13    16	 1
   13    27	 1
   13    26	 1
   14    25	 1
   14    55	 1
   15    52	 1
   15    53	 1
   15    54	 1
   15    25	 1
   16    54	 1
   16    25	 1
   16    20	 1
   16    19	 1
   16    21	 1
   16    23	 1
   16    57	 1
   16    58	 1
   17    24	 1
   18    23	 1
   18    57	 1
   18    58	 1
   19    22	 1
   19    56	 1
   20    22	 1
   20    56	 1
   21    22	 1
   21    56	 1
   22    65	 1
   22    66	 1
   22    67	 1
   23    56	 1
   24    57	 1
   24    58	 1
   28    47	 1
   28    30	 1
   28    49	 1
   29    48	 1
   30    48	 1
   30    50	 1
   30    51	 1
   30    39	 1
   30    35	 1
   31    49	 1
   31    34	 1
   31    59	 1
   31    60	 1
   32    49	 1
   32    34	 1
   32    59	 1
   32    60	 1
   33    49	 1
   33    38	 1
   33    64	 1
   33    36	 1
   33    61	 1
   34    37	 1
   34    40	 1
   34    63	 1
   35    59	 1
   35    60	 1
   35    38	 1
   35    64	 1
   35    62	 1
   35    41	 1
   36    39	 1
   36    63	 1
   36    43	 1
   36    42	 1
   36    44	 1
   37    61	 1
   37    41	 1
   37    64	 1
   38    40	 1
   39    59	 1
   39    60	 1
   39    61	 1
   39    62	 1
   40    61	 1
   40    62	 1
   45    47	 1
   46    47	 1
   47    48	 1
   47    52	 1
   47    53	 1
   48    49	 1
   49    50	 1
   49    51	 1
   56    57	 1
   56    58	 1
   62    63	 1
   63    64	 1

[ angles ]
;	ai	  aj	ak funct			c0			  c1			c2			  c3
    2     1     3	5 ;      OG2P1      SG3O3      CG321
    2     1     7	5 ;      OG2P1      SG3O3      CG321
    3     1     7	5 ;      CG321      SG3O3      CG321
    1     3     4	5 ;      SG3O3      CG321      CG311
    1     3    45	5 ;      SG3O3      CG321       HGA2
    1     3    46	5 ;      SG3O3      CG321       HGA2
    4     3    45	5 ;      CG311      CG321       HGA2
    4     3    46	5 ;      CG311      CG321       HGA2
   45     3    46	5 ;       HGA2      CG321       HGA2
    3     4     5	5 ;      CG321      CG311      CG311
    3     4     8	5 ;      CG321      CG311      CG321
    3     4    47	5 ;      CG321      CG311       HGA1
    5     4     8	5 ;      CG311      CG311      CG321
    5     4    47	5 ;      CG311      CG311       HGA1
    8     4    47	5 ;      CG321      CG311       HGA1
   28     5     4	5 ;      OG311      CG311      CG311
   28     5     6	5 ;      OG311      CG311      CG314
   28     5    48	5 ;      OG311      CG311       HGA1
    4     5     6	5 ;      CG311      CG311      CG314
    4     5    48	5 ;      CG311      CG311       HGA1
    6     5    48	5 ;      CG314      CG311       HGA1
    7     6     5	5 ;      CG321      CG314      CG311
    7     6    30	5 ;      CG321      CG314      NG3P2
    7     6    49	5 ;      CG321      CG314       HGA1
    5     6    30	5 ;      CG311      CG314      NG3P2
    5     6    49	5 ;      CG311      CG314       HGA1
   30     6    49	5 ;      NG3P2      CG314       HGA1
    1     7     6	5 ;      SG3O3      CG321      CG314
    1     7    50	5 ;      SG3O3      CG321       HGA2
    1     7    51	5 ;      SG3O3      CG321       HGA2
    6     7    50	5 ;      CG314      CG321       HGA2
    6     7    51	5 ;      CG314      CG321       HGA2
   50     7    51	5 ;       HGA2      CG321       HGA2
    4     8     9	5 ;      CG311      CG321     CG2R61
    4     8    52	5 ;      CG311      CG321       HGA2
    4     8    53	5 ;      CG311      CG321       HGA2
    9     8    52	5 ;     CG2R61      CG321       HGA2
    9     8    53	5 ;     CG2R61      CG321       HGA2
   52     8    53	5 ;       HGA2      CG321       HGA2
    8     9    15	5 ;      CG321     CG2R61     CG2R61
    8     9    10	5 ;      CG321     CG2R61     CG2R61
   15     9    10	5 ;     CG2R61     CG2R61     CG2R61
    9    10    11	5 ;     CG2R61     CG2R61     CG2R61
    9    10    54	5 ;     CG2R61     CG2R61      HGR61
   11    10    54	5 ;     CG2R61     CG2R61      HGR61
   10    11    12	5 ;     CG2R61     CG2R61     CG2R61
   10    11    16	5 ;     CG2R61     CG2R61      OG301
   12    11    16	5 ;     CG2R61     CG2R61      OG301
   13    12    11	5 ;     CG2R66     CG2R61     CG2R61
   13    12    25	5 ;     CG2R66     CG2R61      NG2S3
   11    12    25	5 ;     CG2R61     CG2R61      NG2S3
   15    13    14	5 ;     CG2R61     CG2R66       FGR1
   15    13    12	5 ;     CG2R61     CG2R66     CG2R61
   14    13    12	5 ;       FGR1     CG2R66     CG2R61
    9    15    13	5 ;     CG2R61     CG2R61     CG2R66
    9    15    55	5 ;     CG2R61     CG2R61      HGR62
   13    15    55	5 ;     CG2R66     CG2R61      HGR62
   11    16    17	5 ;     CG2R61      OG301      CG311
   16    17    18	5 ;      OG301      CG311      CG302
   16    17    22	5 ;      OG301      CG311      CG321
   16    17    56	5 ;      OG301      CG311       HGA1
   18    17    22	5 ;      CG302      CG311      CG321
   18    17    56	5 ;      CG302      CG311       HGA1
   22    17    56	5 ;      CG321      CG311       HGA1
   20    18    17	5 ;       FGA3      CG302      CG311
   20    18    19	5 ;       FGA3      CG302       FGA3
   20    18    21	5 ;       FGA3      CG302       FGA3
   17    18    19	5 ;      CG311      CG302       FGA3
   17    18    21	5 ;      CG311      CG302       FGA3
   19    18    21	5 ;       FGA3      CG302       FGA3
   17    22    23	5 ;      CG311      CG321      OG301
   17    22    57	5 ;      CG311      CG321       HGA2
   17    22    58	5 ;      CG311      CG321       HGA2
   23    22    57	5 ;      OG301      CG321       HGA2
   23    22    58	5 ;      OG301      CG321       HGA2
   57    22    58	5 ;       HGA2      CG321       HGA2
   24    23    22	5 ;      CG331      OG301      CG321
   23    24    65	5 ;      OG301      CG331       HGA3
   23    24    66	5 ;      OG301      CG331       HGA3
   23    24    67	5 ;      OG301      CG331       HGA3
   65    24    66	5 ;       HGA3      CG331       HGA3
   65    24    67	5 ;       HGA3      CG331       HGA3
   66    24    67	5 ;       HGA3      CG331       HGA3
   12    25    27	5 ;     CG2R61      NG2S3       HGP4
   12    25    26	5 ;     CG2R61      NG2S3       HGP4
   27    25    26	5 ;       HGP4      NG2S3       HGP4
   29    28     5	5 ;       HGP1      OG311      CG311
    6    30    31	5 ;      CG314      NG3P2       HGP2
    6    30    33	5 ;      CG314      NG3P2      CG324
    6    30    32	5 ;      CG314      NG3P2       HGP2
   31    30    33	5 ;       HGP2      NG3P2      CG324
   31    30    32	5 ;       HGP2      NG3P2       HGP2
   33    30    32	5 ;      CG324      NG3P2       HGP2
   30    33    34	5 ;      NG3P2      CG324     CG2R61
   30    33    59	5 ;      NG3P2      CG324       HGA2
   30    33    60	5 ;      NG3P2      CG324       HGA2
   34    33    59	5 ;     CG2R61      CG324       HGA2
   34    33    60	5 ;     CG2R61      CG324       HGA2
   59    33    60	5 ;       HGA2      CG324       HGA2
   33    34    39	5 ;      CG324     CG2R61     CG2R61
   33    34    35	5 ;      CG324     CG2R61     CG2R61
   39    34    35	5 ;     CG2R61     CG2R61     CG2R61
   34    35    36	5 ;     CG2R61     CG2R61     CG2R61
   34    35    61	5 ;     CG2R61     CG2R61      HGR61
   36    35    61	5 ;     CG2R61     CG2R61      HGR61
   35    36    37	5 ;     CG2R61     CG2R61     CG2R61
   35    36    40	5 ;     CG2R61     CG2R61      OG301
   37    36    40	5 ;     CG2R61     CG2R61      OG301
   38    37    36	5 ;     CG2R61     CG2R61     CG2R61
   38    37    62	5 ;     CG2R61     CG2R61      HGR61
   36    37    62	5 ;     CG2R61     CG2R61      HGR61
   39    38    37	5 ;     CG2R61     CG2R61     CG2R61
   39    38    63	5 ;     CG2R61     CG2R61      HGR61
   37    38    63	5 ;     CG2R61     CG2R61      HGR61
   34    39    38	5 ;     CG2R61     CG2R61     CG2R61
   34    39    64	5 ;     CG2R61     CG2R61      HGR61
   38    39    64	5 ;     CG2R61     CG2R61      HGR61
   41    40    36	5 ;      CG302      OG301     CG2R61
   43    41    42	5 ;       FGA3      CG302       FGA3
   43    41    44	5 ;       FGA3      CG302       FGA3
   43    41    40	5 ;       FGA3      CG302      OG301
   42    41    44	5 ;       FGA3      CG302       FGA3
   42    41    40	5 ;       FGA3      CG302      OG301
   44    41    40	5 ;       FGA3      CG302      OG301

[ dihedrals ]
;	ai	  aj	ak	  al funct			  c0			c1			  c2			c3			  c4			c5
    2     1     3     4	 9 ;      OG2P1      SG3O3      CG321      CG311
    2     1     3    45	 9 ;      OG2P1      SG3O3      CG321       HGA2
    2     1     3    46	 9 ;      OG2P1      SG3O3      CG321       HGA2
    7     1     3     4	 9 ;      CG321      SG3O3      CG321      CG311
    7     1     3    45	 9 ;      CG321      SG3O3      CG321       HGA2
    7     1     3    46	 9 ;      CG321      SG3O3      CG321       HGA2
    2     1     7     6	 9 ;      OG2P1      SG3O3      CG321      CG314
    2     1     7    50	 9 ;      OG2P1      SG3O3      CG321       HGA2
    2     1     7    51	 9 ;      OG2P1      SG3O3      CG321       HGA2
    3     1     7     6	 9 ;      CG321      SG3O3      CG321      CG314
    3     1     7    50	 9 ;      CG321      SG3O3      CG321       HGA2
    3     1     7    51	 9 ;      CG321      SG3O3      CG321       HGA2
    1     3     4     5	 9 ;      SG3O3      CG321      CG311      CG311
    1     3     4     8	 9 ;      SG3O3      CG321      CG311      CG321
    1     3     4    47	 9 ;      SG3O3      CG321      CG311       HGA1
   45     3     4     5	 9 ;       HGA2      CG321      CG311      CG311
   45     3     4     8	 9 ;       HGA2      CG321      CG311      CG321
   45     3     4    47	 9 ;       HGA2      CG321      CG311       HGA1
   46     3     4     5	 9 ;       HGA2      CG321      CG311      CG311
   46     3     4     8	 9 ;       HGA2      CG321      CG311      CG321
   46     3     4    47	 9 ;       HGA2      CG321      CG311       HGA1
    3     4     5    28	 9 ;      CG321      CG311      CG311      OG311
    3     4     5     6	 9 ;      CG321      CG311      CG311      CG314
    3     4     5    48	 9 ;      CG321      CG311      CG311       HGA1
    8     4     5    28	 9 ;      CG321      CG311      CG311      OG311
    8     4     5     6	 9 ;      CG321      CG311      CG311      CG314
    8     4     5    48	 9 ;      CG321      CG311      CG311       HGA1
   47     4     5    28	 9 ;       HGA1      CG311      CG311      OG311
   47     4     5     6	 9 ;       HGA1      CG311      CG311      CG314
   47     4     5    48	 9 ;       HGA1      CG311      CG311       HGA1
    3     4     8     9	 9 ;      CG321      CG311      CG321     CG2R61
    3     4     8    52	 9 ;      CG321      CG311      CG321       HGA2
    3     4     8    53	 9 ;      CG321      CG311      CG321       HGA2
    5     4     8     9	 9 ;      CG311      CG311      CG321     CG2R61
    5     4     8    52	 9 ;      CG311      CG311      CG321       HGA2
    5     4     8    53	 9 ;      CG311      CG311      CG321       HGA2
   47     4     8     9	 9 ;       HGA1      CG311      CG321     CG2R61
   47     4     8    52	 9 ;       HGA1      CG311      CG321       HGA2
   47     4     8    53	 9 ;       HGA1      CG311      CG321       HGA2
    4     5    28    29	 9 ;      CG311      CG311      OG311       HGP1
    6     5    28    29	 9 ;      CG314      CG311      OG311       HGP1
   48     5    28    29	 9 ;       HGA1      CG311      OG311       HGP1
   28     5     6     7	 9 ;      OG311      CG311      CG314      CG321
   28     5     6    30	 9 ;      OG311      CG311      CG314      NG3P2
   28     5     6    49	 9 ;      OG311      CG311      CG314       HGA1
    4     5     6     7	 9 ;      CG311      CG311      CG314      CG321
    4     5     6    30	 9 ;      CG311      CG311      CG314      NG3P2
    4     5     6    49	 9 ;      CG311      CG311      CG314       HGA1
   48     5     6     7	 9 ;       HGA1      CG311      CG314      CG321
   48     5     6    30	 9 ;       HGA1      CG311      CG314      NG3P2
   48     5     6    49	 9 ;       HGA1      CG311      CG314       HGA1
    5     6     7     1	 9 ;      CG311      CG314      CG321      SG3O3
    5     6     7    50	 9 ;      CG311      CG314      CG321       HGA2
    5     6     7    51	 9 ;      CG311      CG314      CG321       HGA2
   30     6     7     1	 9 ;      NG3P2      CG314      CG321      SG3O3
   30     6     7    50	 9 ;      NG3P2      CG314      CG321       HGA2
   30     6     7    51	 9 ;      NG3P2      CG314      CG321       HGA2
   49     6     7     1	 9 ;       HGA1      CG314      CG321      SG3O3
   49     6     7    50	 9 ;       HGA1      CG314      CG321       HGA2
   49     6     7    51	 9 ;       HGA1      CG314      CG321       HGA2
    7     6    30    31	 9 ;      CG321      CG314      NG3P2       HGP2
    7     6    30    33	 9 ;      CG321      CG314      NG3P2      CG324
    7     6    30    32	 9 ;      CG321      CG314      NG3P2       HGP2
    5     6    30    31	 9 ;      CG311      CG314      NG3P2       HGP2
    5     6    30    33	 9 ;      CG311      CG314      NG3P2      CG324
    5     6    30    32	 9 ;      CG311      CG314      NG3P2       HGP2
   49     6    30    31	 9 ;       HGA1      CG314      NG3P2       HGP2
   49     6    30    33	 9 ;       HGA1      CG314      NG3P2      CG324
   49     6    30    32	 9 ;       HGA1      CG314      NG3P2       HGP2
    4     8     9    15	 9 ;      CG311      CG321     CG2R61     CG2R61
    4     8     9    10	 9 ;      CG311      CG321     CG2R61     CG2R61
   52     8     9    15	 9 ;       HGA2      CG321     CG2R61     CG2R61
   52     8     9    10	 9 ;       HGA2      CG321     CG2R61     CG2R61
   53     8     9    15	 9 ;       HGA2      CG321     CG2R61     CG2R61
   53     8     9    10	 9 ;       HGA2      CG321     CG2R61     CG2R61
    8     9    15    13	 9 ;      CG321     CG2R61     CG2R61     CG2R66
    8     9    15    55	 9 ;      CG321     CG2R61     CG2R61      HGR62
   10     9    15    13	 9 ;     CG2R61     CG2R61     CG2R61     CG2R66
   10     9    15    55	 9 ;     CG2R61     CG2R61     CG2R61      HGR62
    8     9    10    11	 9 ;      CG321     CG2R61     CG2R61     CG2R61
    8     9    10    54	 9 ;      CG321     CG2R61     CG2R61      HGR61
   15     9    10    11	 9 ;     CG2R61     CG2R61     CG2R61     CG2R61
   15     9    10    54	 9 ;     CG2R61     CG2R61     CG2R61      HGR61
    9    10    11    12	 9 ;     CG2R61     CG2R61     CG2R61     CG2R61
    9    10    11    16	 9 ;     CG2R61     CG2R61     CG2R61      OG301
   54    10    11    12	 9 ;      HGR61     CG2R61     CG2R61     CG2R61
   54    10    11    16	 9 ;      HGR61     CG2R61     CG2R61      OG301
   10    11    12    13	 9 ;     CG2R61     CG2R61     CG2R61     CG2R66
   10    11    12    25	 9 ;     CG2R61     CG2R61     CG2R61      NG2S3
   16    11    12    13	 9 ;      OG301     CG2R61     CG2R61     CG2R66
   16    11    12    25	 9 ;      OG301     CG2R61     CG2R61      NG2S3
   10    11    16    17	 9 ;     CG2R61     CG2R61      OG301      CG311
   12    11    16    17	 9 ;     CG2R61     CG2R61      OG301      CG311
   11    12    13    15	 9 ;     CG2R61     CG2R61     CG2R66     CG2R61
   11    12    13    14	 9 ;     CG2R61     CG2R61     CG2R66       FGR1
   25    12    13    15	 9 ;      NG2S3     CG2R61     CG2R66     CG2R61
   25    12    13    14	 9 ;      NG2S3     CG2R61     CG2R66       FGR1
   13    12    25    27	 9 ;     CG2R66     CG2R61      NG2S3       HGP4
   13    12    25    26	 9 ;     CG2R66     CG2R61      NG2S3       HGP4
   11    12    25    27	 9 ;     CG2R61     CG2R61      NG2S3       HGP4
   11    12    25    26	 9 ;     CG2R61     CG2R61      NG2S3       HGP4
   14    13    15     9	 9 ;       FGR1     CG2R66     CG2R61     CG2R61
   14    13    15    55	 9 ;       FGR1     CG2R66     CG2R61      HGR62
   12    13    15     9	 9 ;     CG2R61     CG2R66     CG2R61     CG2R61
   12    13    15    55	 9 ;     CG2R61     CG2R66     CG2R61      HGR62
   11    16    17    18	 9 ;     CG2R61      OG301      CG311      CG302
   11    16    17    22	 9 ;     CG2R61      OG301      CG311      CG321
   11    16    17    56	 9 ;     CG2R61      OG301      CG311       HGA1
   16    17    18    20	 9 ;      OG301      CG311      CG302       FGA3
   16    17    18    19	 9 ;      OG301      CG311      CG302       FGA3
   16    17    18    21	 9 ;      OG301      CG311      CG302       FGA3
   22    17    18    20	 9 ;      CG321      CG311      CG302       FGA3
   22    17    18    19	 9 ;      CG321      CG311      CG302       FGA3
   22    17    18    21	 9 ;      CG321      CG311      CG302       FGA3
   56    17    18    20	 9 ;       HGA1      CG311      CG302       FGA3
   56    17    18    19	 9 ;       HGA1      CG311      CG302       FGA3
   56    17    18    21	 9 ;       HGA1      CG311      CG302       FGA3
   16    17    22    23	 9 ;      OG301      CG311      CG321      OG301
   16    17    22    57	 9 ;      OG301      CG311      CG321       HGA2
   16    17    22    58	 9 ;      OG301      CG311      CG321       HGA2
   18    17    22    23	 9 ;      CG302      CG311      CG321      OG301
   18    17    22    57	 9 ;      CG302      CG311      CG321       HGA2
   18    17    22    58	 9 ;      CG302      CG311      CG321       HGA2
   56    17    22    23	 9 ;       HGA1      CG311      CG321      OG301
   56    17    22    57	 9 ;       HGA1      CG311      CG321       HGA2
   56    17    22    58	 9 ;       HGA1      CG311      CG321       HGA2
   17    22    23    24	 9 ;      CG311      CG321      OG301      CG331
   57    22    23    24	 9 ;       HGA2      CG321      OG301      CG331
   58    22    23    24	 9 ;       HGA2      CG321      OG301      CG331
   22    23    24    65	 9 ;      CG321      OG301      CG331       HGA3
   22    23    24    66	 9 ;      CG321      OG301      CG331       HGA3
   22    23    24    67	 9 ;      CG321      OG301      CG331       HGA3
    6    30    33    34	 9 ;      CG314      NG3P2      CG324     CG2R61
    6    30    33    59	 9 ;      CG314      NG3P2      CG324       HGA2
    6    30    33    60	 9 ;      CG314      NG3P2      CG324       HGA2
   31    30    33    34	 9 ;       HGP2      NG3P2      CG324     CG2R61
   31    30    33    59	 9 ;       HGP2      NG3P2      CG324       HGA2
   31    30    33    60	 9 ;       HGP2      NG3P2      CG324       HGA2
   32    30    33    34	 9 ;       HGP2      NG3P2      CG324     CG2R61
   32    30    33    59	 9 ;       HGP2      NG3P2      CG324       HGA2
   32    30    33    60	 9 ;       HGP2      NG3P2      CG324       HGA2
   30    33    34    39	 9 ;      NG3P2      CG324     CG2R61     CG2R61
   30    33    34    35	 9 ;      NG3P2      CG324     CG2R61     CG2R61
   59    33    34    39	 9 ;       HGA2      CG324     CG2R61     CG2R61
   59    33    34    35	 9 ;       HGA2      CG324     CG2R61     CG2R61
   60    33    34    39	 9 ;       HGA2      CG324     CG2R61     CG2R61
   60    33    34    35	 9 ;       HGA2      CG324     CG2R61     CG2R61
   33    34    39    38	 9 ;      CG324     CG2R61     CG2R61     CG2R61
   33    34    39    64	 9 ;      CG324     CG2R61     CG2R61      HGR61
   35    34    39    38	 9 ;     CG2R61     CG2R61     CG2R61     CG2R61
   35    34    39    64	 9 ;     CG2R61     CG2R61     CG2R61      HGR61
   33    34    35    36	 9 ;      CG324     CG2R61     CG2R61     CG2R61
   33    34    35    61	 9 ;      CG324     CG2R61     CG2R61      HGR61
   39    34    35    36	 9 ;     CG2R61     CG2R61     CG2R61     CG2R61
   39    34    35    61	 9 ;     CG2R61     CG2R61     CG2R61      HGR61
   34    35    36    37	 9 ;     CG2R61     CG2R61     CG2R61     CG2R61
   34    35    36    40	 9 ;     CG2R61     CG2R61     CG2R61      OG301
   61    35    36    37	 9 ;      HGR61     CG2R61     CG2R61     CG2R61
   61    35    36    40	 9 ;      HGR61     CG2R61     CG2R61      OG301
   35    36    37    38	 9 ;     CG2R61     CG2R61     CG2R61     CG2R61
   35    36    37    62	 9 ;     CG2R61     CG2R61     CG2R61      HGR61
   40    36    37    38	 9 ;      OG301     CG2R61     CG2R61     CG2R61
   40    36    37    62	 9 ;      OG301     CG2R61     CG2R61      HGR61
   35    36    40    41	 9 ;     CG2R61     CG2R61      OG301      CG302
   37    36    40    41	 9 ;     CG2R61     CG2R61      OG301      CG302
   36    37    38    39	 9 ;     CG2R61     CG2R61     CG2R61     CG2R61
   36    37    38    63	 9 ;     CG2R61     CG2R61     CG2R61      HGR61
   62    37    38    39	 9 ;      HGR61     CG2R61     CG2R61     CG2R61
   62    37    38    63	 9 ;      HGR61     CG2R61     CG2R61      HGR61
   37    38    39    34	 9 ;     CG2R61     CG2R61     CG2R61     CG2R61
   37    38    39    64	 9 ;     CG2R61     CG2R61     CG2R61      HGR61
   63    38    39    34	 9 ;      HGR61     CG2R61     CG2R61     CG2R61
   63    38    39    64	 9 ;      HGR61     CG2R61     CG2R61      HGR61
   36    40    41    43	 9 ;     CG2R61      OG301      CG302       FGA3
   36    40    41    42	 9 ;     CG2R61      OG301      CG302       FGA3
   36    40    41    44	 9 ;     CG2R61      OG301      CG302       FGA3

[ dihedrals ]
;	ai	  aj	ak	  al funct			  c0			c1			  c2			c3
   25    26    27    12	 2

