Guyana Rwanda Oman Macau Angola Cameroon Senegal
   42
    1LIG     C1    1   8.534   1.728   9.503
    1LIG     O5    2   8.658   1.482   9.503
    1LIG     C3    3   8.540   1.408   9.311
    1LIG     C4    4   8.447   1.440   9.211
    1LIG     C5    5   8.610   1.287   9.308
    1LIG     C6    6   8.426   1.349   9.107
    1LIG     C7    7   8.586   1.198   9.204
    1LIG     C8    8   8.495   1.227   9.104
    1LIG     C9    9   8.484   1.628   9.429
    1LIG    C10   10   8.354   1.622   9.355
    1LIG    C11   11   8.569   1.504   9.421
    1LIG    C12   12   8.374   1.572   9.212
    1LIG     N1   13   8.377   1.857   9.625
    1LIG     O4   14   8.491   1.956   9.452
    1LIG     C2   15   8.468   1.859   9.522
    1LIG     H3   16   8.343   1.764   9.649
    1LIG    C13   17   8.285   1.971   9.645
    1LIG    C15   18   8.218   1.972   9.785
    1LIG    C16   19   8.314   1.936   9.899
    1LIG    C17   20   8.157   2.110   9.816
    1LIG     O2   21   8.089   1.871   9.536
    1LIG    C14   22   8.175   1.958   9.538
    1LIG     O3   23   8.188   2.049   9.437
    1LIG     H2   24   8.280   2.083   9.430
    1LIG     O1   25   8.652   1.078   9.197
    1LIG     H1   26   8.736   1.085   9.245
    1LIG     H4   27   8.624   1.712   9.551
    1LIG     H5   28   8.679   1.264   9.382
    1LIG     H6   29   8.359   1.371   9.032
    1LIG     H7   30   8.478   1.160   9.028
    1LIG     H8   31   8.287   1.555   9.406
    1LIG     H9   32   8.312   1.720   9.351
    1LIG    H10   33   8.279   1.559   9.165
    1LIG    H11   34   8.433   1.643   9.159
    1LIG     HA   35   8.340   2.062   9.637
    1LIG     HB   36   8.142   1.897   9.781
    1LIG   HG21   37   8.392   2.009   9.905
    1LIG   HG22   38   8.358   1.840   9.879
    1LIG   HG23   39   8.260   1.932   9.991
    1LIG   HG11   40   8.235   2.183   9.820
    1LIG   HG12   41   8.107   2.106   9.910
    1LIG   HG13   42   8.088   2.136   9.739
   0.00000   0.00000   0.00000
