; Created by cgenff_charmm2gmx.py

[ moleculetype ]
; Name			   nrexcl
LIG				 3

[ atoms ]
;	 nr		  type	resnr residue  atom   cgnr	   charge		mass  typeB    chargeB		massB
; residue	 1 LIG rtp LIG q	qsum
     1     CG3C50      1    LIG     C1      1      1.599     12.011   ;
     2      NG3P2      1    LIG     N1      2     -0.701     14.007   ;
     3       HGP2      1    LIG     HN      3      0.353      1.008   ;
     4     CG3C53      1    LIG     C2      4      0.784     12.011   ;
     5     NG2R53      1    LIG     N2      5     -0.171     14.007   ;
     6      CG331      1    LIG     C3      6     -0.169     12.011   ;
     7     CG2R53      1    LIG     C4      7     -0.361     12.011   ;
     8      OG2D1      1    LIG     O1      8     -0.342     15.999   ;
     9     CG2R61      1    LIG     C5      9     -0.126     12.011   ;
    10     CG2R61      1    LIG     C6     10     -0.166     12.011   ;
    11     CG2R61      1    LIG     C7     11     -0.072     12.011   ;
    12     CG2R66      1    LIG     C8     12      0.024     12.011   ;
    13       FGR1      1    LIG     F1     13     -0.169     18.998   ;
    14     CG2R61      1    LIG     C9     14      0.227     12.011   ;
    15     CG2R61      1    LIG    C10     15     -0.165     12.011   ;
    16      CG1T1      1    LIG    C11     16     -0.076     12.011   ;
    17      CG1T1      1    LIG    C12     17     -0.198     12.011   ;
    18      CG321      1    LIG    C13     18     -0.013     12.011   ;
    19      CG321      1    LIG    C14     19     -0.198     12.011   ;
    20      CG322      1    LIG    C15     20      0.077     12.011   ;
    21       FGA1      1    LIG     F2     21     -0.216     18.998   ;
    22     CG2R61      1    LIG    C16     22     -0.154     12.011   ;
    23     CG2R61      1    LIG    C17     23     -0.128     12.011   ;
    24     CG2R61      1    LIG    C18     24     -0.108     12.011   ;
    25     CG2R61      1    LIG    C19     25      0.217     12.011   ;
    26     CG2R61      1    LIG    C20     26     -0.108     12.011   ;
    27     CG2R61      1    LIG    C21     27     -0.128     12.011   ;
    28      OG301      1    LIG     O2     28     -0.272     15.999   ;
    29      CG312      1    LIG    C22     29      0.216     12.011   ;
    30       FGA2      1    LIG     F3     30     -0.160     18.998   ;
    31       FGA2      1    LIG     F4     31     -0.160     18.998   ;
    32      NG3P3      1    LIG     N3     32     -0.267     14.007   ;
    33       HGP2      1    LIG     H1     33      0.301      1.008   ;
    34       HGP2      1    LIG     H2     34      0.301      1.008   ;
    35       HGP2      1    LIG    HN2     35      0.353      1.008   ;
    36       HGA1      1    LIG     HC     36      0.073      1.008   ;
    37      HGR61      1    LIG    HC1     37      0.116      1.008   ;
    38      HGR62      1    LIG    HC2     38      0.179      1.008   ;
    39      HGR61      1    LIG    HC3     39      0.116      1.008   ;
    40       HGA2      1    LIG    HC4     40      0.090      1.008   ;
    41       HGA2      1    LIG    HC5     41      0.090      1.008   ;
    42       HGA2      1    LIG    HC6     42      0.090      1.008   ;
    43       HGA2      1    LIG    HC7     43      0.090      1.008   ;
    44       HGA6      1    LIG    HC8     44      0.069      1.008   ;
    45       HGA6      1    LIG    HC9     45      0.069      1.008   ;
    46      HGR61      1    LIG   HC10     46      0.116      1.008   ;
    47      HGR61      1    LIG   HC11     47      0.116      1.008   ;
    48      HGR61      1    LIG   HC12     48      0.116      1.008   ;
    49      HGR61      1    LIG   HC13     49      0.116      1.008   ;
    50       HGA7      1    LIG   HC14     50      0.159      1.008   ;
    51       HGP2      1    LIG    HN1     51      0.301      1.008   ;
    52       HGA3      1    LIG   HC15     52      0.090      1.008   ;
    53       HGA3      1    LIG   HC16     53      0.090      1.008   ;
    54       HGA3      1    LIG   HC17     54      0.090      1.008   ;

[ bonds ]
;	ai	  aj funct			  c0			c1			  c2			c3
    1     7	 1 ;      CG3C50     CG2R53
    1     2	 1 ;      CG3C50      NG3P2
    1    22	 1 ;      CG3C50     CG2R61
    1     9	 1 ;      CG3C50     CG2R61
    2     4	 1 ;       NG3P2     CG3C53
    2     3	 1 ;       NG3P2       HGP2
    2    35	 1 ;       NG3P2       HGP2
    4    32	 1 ;      CG3C53      NG3P3
    4     5	 1 ;      CG3C53     NG2R53
    4    36	 1 ;      CG3C53       HGA1
    5     6	 1 ;      NG2R53      CG331
    5     7	 1 ;      NG2R53     CG2R53
    6    52	 1 ;       CG331       HGA3
    6    53	 1 ;       CG331       HGA3
    6    54	 1 ;       CG331       HGA3
    7     8	 1 ;      CG2R53      OG2D1
    9    10	 1 ;      CG2R61     CG2R61
    9    15	 1 ;      CG2R61     CG2R61
   10    11	 1 ;      CG2R61     CG2R61
   10    37	 1 ;      CG2R61      HGR61
   11    12	 1 ;      CG2R61     CG2R66
   11    38	 1 ;      CG2R61      HGR62
   12    14	 1 ;      CG2R66     CG2R61
   12    13	 1 ;      CG2R66       FGR1
   14    15	 1 ;      CG2R61     CG2R61
   14    16	 1 ;      CG2R61      CG1T1
   15    39	 1 ;      CG2R61      HGR61
   16    17	 1 ;       CG1T1      CG1T1
   17    18	 1 ;       CG1T1      CG321
   18    19	 1 ;       CG321      CG321
   18    40	 1 ;       CG321       HGA2
   18    41	 1 ;       CG321       HGA2
   19    20	 1 ;       CG321      CG322
   19    42	 1 ;       CG321       HGA2
   19    43	 1 ;       CG321       HGA2
   20    21	 1 ;       CG322       FGA1
   20    44	 1 ;       CG322       HGA6
   20    45	 1 ;       CG322       HGA6
   22    23	 1 ;      CG2R61     CG2R61
   22    27	 1 ;      CG2R61     CG2R61
   23    24	 1 ;      CG2R61     CG2R61
   23    46	 1 ;      CG2R61      HGR61
   24    25	 1 ;      CG2R61     CG2R61
   24    47	 1 ;      CG2R61      HGR61
   25    26	 1 ;      CG2R61     CG2R61
   25    28	 1 ;      CG2R61      OG301
   26    27	 1 ;      CG2R61     CG2R61
   26    48	 1 ;      CG2R61      HGR61
   27    49	 1 ;      CG2R61      HGR61
   28    29	 1 ;       OG301      CG312
   29    30	 1 ;       CG312       FGA2
   29    31	 1 ;       CG312       FGA2
   29    50	 1 ;       CG312       HGA7
   32    34	 1 ;       NG3P3       HGP2
   32    33	 1 ;       NG3P3       HGP2
   32    51	 1 ;       NG3P3       HGP2

[ pairs ]
;	ai	  aj funct			  c0			c1			  c2			c3
    1    32	 1
    1    36	 1
    1     6	 1
    1    11	 1
    1    37	 1
    1    14	 1
    1    39	 1
    1    24	 1
    1    46	 1
    1    26	 1
    1    49	 1
    2     8	 1
    2    23	 1
    2    27	 1
    2    10	 1
    2    15	 1
    2    34	 1
    2    33	 1
    2    51	 1
    2     6	 1
    3     7	 1
    3    22	 1
    3     9	 1
    3    32	 1
    3     5	 1
    3    36	 1
    4    22	 1
    4     9	 1
    4    52	 1
    4    53	 1
    4    54	 1
    4     8	 1
    5    22	 1
    5     9	 1
    5    35	 1
    5    34	 1
    5    33	 1
    5    51	 1
    6    32	 1
    6    36	 1
    6     8	 1
    7    35	 1
    7    23	 1
    7    27	 1
    7    10	 1
    7    15	 1
    7    32	 1
    7    36	 1
    7    52	 1
    7    53	 1
    7    54	 1
    8    22	 1
    8     9	 1
    9    35	 1
    9    23	 1
    9    27	 1
    9    12	 1
    9    38	 1
    9    16	 1
   10    22	 1
   10    14	 1
   10    39	 1
   10    13	 1
   11    15	 1
   11    16	 1
   12    37	 1
   12    39	 1
   12    17	 1
   13    38	 1
   13    15	 1
   13    16	 1
   14    38	 1
   14    18	 1
   15    22	 1
   15    37	 1
   15    17	 1
   16    39	 1
   16    19	 1
   16    40	 1
   16    41	 1
   17    20	 1
   17    42	 1
   17    43	 1
   18    21	 1
   18    44	 1
   18    45	 1
   20    40	 1
   20    41	 1
   21    42	 1
   21    43	 1
   22    35	 1
   22    25	 1
   22    47	 1
   22    48	 1
   23    26	 1
   23    49	 1
   23    28	 1
   24    27	 1
   24    48	 1
   24    29	 1
   25    46	 1
   25    49	 1
   25    30	 1
   25    31	 1
   25    50	 1
   26    47	 1
   26    29	 1
   27    46	 1
   27    28	 1
   28    47	 1
   28    48	 1
   32    35	 1
   33    36	 1
   34    36	 1
   35    36	 1
   36    51	 1
   37    38	 1
   40    42	 1
   40    43	 1
   41    42	 1
   41    43	 1
   42    44	 1
   42    45	 1
   43    44	 1
   43    45	 1
   46    47	 1
   48    49	 1

[ angles ]
;	ai	  aj	ak funct			c0			  c1			c2			  c3
    7     1     2	5 ;     CG2R53     CG3C50      NG3P2
    7     1    22	5 ;     CG2R53     CG3C50     CG2R61
    7     1     9	5 ;     CG2R53     CG3C50     CG2R61
    2     1    22	5 ;      NG3P2     CG3C50     CG2R61
    2     1     9	5 ;      NG3P2     CG3C50     CG2R61
   22     1     9	5 ;     CG2R61     CG3C50     CG2R61
    4     2     3	5 ;     CG3C53      NG3P2       HGP2
    4     2     1	5 ;     CG3C53      NG3P2     CG3C50
    4     2    35	5 ;     CG3C53      NG3P2       HGP2
    3     2     1	5 ;       HGP2      NG3P2     CG3C50
    3     2    35	5 ;       HGP2      NG3P2       HGP2
    1     2    35	5 ;     CG3C50      NG3P2       HGP2
   32     4     5	5 ;      NG3P3     CG3C53     NG2R53
   32     4     2	5 ;      NG3P3     CG3C53      NG3P2
   32     4    36	5 ;      NG3P3     CG3C53       HGA1
    5     4     2	5 ;     NG2R53     CG3C53      NG3P2
    5     4    36	5 ;     NG2R53     CG3C53       HGA1
    2     4    36	5 ;      NG3P2     CG3C53       HGA1
    6     5     4	5 ;      CG331     NG2R53     CG3C53
    6     5     7	5 ;      CG331     NG2R53     CG2R53
    4     5     7	5 ;     CG3C53     NG2R53     CG2R53
    5     6    52	5 ;     NG2R53      CG331       HGA3
    5     6    53	5 ;     NG2R53      CG331       HGA3
    5     6    54	5 ;     NG2R53      CG331       HGA3
   52     6    53	5 ;       HGA3      CG331       HGA3
   52     6    54	5 ;       HGA3      CG331       HGA3
   53     6    54	5 ;       HGA3      CG331       HGA3
    5     7     8	5 ;     NG2R53     CG2R53      OG2D1
    5     7     1	5 ;     NG2R53     CG2R53     CG3C50
    8     7     1	5 ;      OG2D1     CG2R53     CG3C50
    1     9    10	5 ;     CG3C50     CG2R61     CG2R61
    1     9    15	5 ;     CG3C50     CG2R61     CG2R61
   10     9    15	5 ;     CG2R61     CG2R61     CG2R61
    9    10    11	5 ;     CG2R61     CG2R61     CG2R61
    9    10    37	5 ;     CG2R61     CG2R61      HGR61
   11    10    37	5 ;     CG2R61     CG2R61      HGR61
   10    11    12	5 ;     CG2R61     CG2R61     CG2R66
   10    11    38	5 ;     CG2R61     CG2R61      HGR62
   12    11    38	5 ;     CG2R66     CG2R61      HGR62
   11    12    14	5 ;     CG2R61     CG2R66     CG2R61
   11    12    13	5 ;     CG2R61     CG2R66       FGR1
   14    12    13	5 ;     CG2R61     CG2R66       FGR1
   15    14    12	5 ;     CG2R61     CG2R61     CG2R66
   15    14    16	5 ;     CG2R61     CG2R61      CG1T1
   12    14    16	5 ;     CG2R66     CG2R61      CG1T1
    9    15    14	5 ;     CG2R61     CG2R61     CG2R61
    9    15    39	5 ;     CG2R61     CG2R61      HGR61
   14    15    39	5 ;     CG2R61     CG2R61      HGR61
   14    16    17	5 ;     CG2R61      CG1T1      CG1T1
   16    17    18	5 ;      CG1T1      CG1T1      CG321
   17    18    19	5 ;      CG1T1      CG321      CG321
   17    18    40	5 ;      CG1T1      CG321       HGA2
   17    18    41	5 ;      CG1T1      CG321       HGA2
   19    18    40	5 ;      CG321      CG321       HGA2
   19    18    41	5 ;      CG321      CG321       HGA2
   40    18    41	5 ;       HGA2      CG321       HGA2
   18    19    20	5 ;      CG321      CG321      CG322
   18    19    42	5 ;      CG321      CG321       HGA2
   18    19    43	5 ;      CG321      CG321       HGA2
   20    19    42	5 ;      CG322      CG321       HGA2
   20    19    43	5 ;      CG322      CG321       HGA2
   42    19    43	5 ;       HGA2      CG321       HGA2
   19    20    21	5 ;      CG321      CG322       FGA1
   19    20    44	5 ;      CG321      CG322       HGA6
   19    20    45	5 ;      CG321      CG322       HGA6
   21    20    44	5 ;       FGA1      CG322       HGA6
   21    20    45	5 ;       FGA1      CG322       HGA6
   44    20    45	5 ;       HGA6      CG322       HGA6
    1    22    23	5 ;     CG3C50     CG2R61     CG2R61
    1    22    27	5 ;     CG3C50     CG2R61     CG2R61
   23    22    27	5 ;     CG2R61     CG2R61     CG2R61
   22    23    24	5 ;     CG2R61     CG2R61     CG2R61
   22    23    46	5 ;     CG2R61     CG2R61      HGR61
   24    23    46	5 ;     CG2R61     CG2R61      HGR61
   23    24    25	5 ;     CG2R61     CG2R61     CG2R61
   23    24    47	5 ;     CG2R61     CG2R61      HGR61
   25    24    47	5 ;     CG2R61     CG2R61      HGR61
   24    25    26	5 ;     CG2R61     CG2R61     CG2R61
   24    25    28	5 ;     CG2R61     CG2R61      OG301
   26    25    28	5 ;     CG2R61     CG2R61      OG301
   27    26    25	5 ;     CG2R61     CG2R61     CG2R61
   27    26    48	5 ;     CG2R61     CG2R61      HGR61
   25    26    48	5 ;     CG2R61     CG2R61      HGR61
   22    27    26	5 ;     CG2R61     CG2R61     CG2R61
   22    27    49	5 ;     CG2R61     CG2R61      HGR61
   26    27    49	5 ;     CG2R61     CG2R61      HGR61
   29    28    25	5 ;      CG312      OG301     CG2R61
   30    29    31	5 ;       FGA2      CG312       FGA2
   30    29    28	5 ;       FGA2      CG312      OG301
   30    29    50	5 ;       FGA2      CG312       HGA7
   31    29    28	5 ;       FGA2      CG312      OG301
   31    29    50	5 ;       FGA2      CG312       HGA7
   28    29    50	5 ;      OG301      CG312       HGA7
   34    32    33	5 ;       HGP2      NG3P3       HGP2
   34    32     4	5 ;       HGP2      NG3P3     CG3C53
   34    32    51	5 ;       HGP2      NG3P3       HGP2
   33    32     4	5 ;       HGP2      NG3P3     CG3C53
   33    32    51	5 ;       HGP2      NG3P3       HGP2
    4    32    51	5 ;     CG3C53      NG3P3       HGP2

[ dihedrals ]
;	ai	  aj	ak	  al funct			  c0			c1			  c2			c3			  c4			c5
    2     1     7     5	 9 ;      NG3P2     CG3C50     CG2R53     NG2R53
    2     1     7     8	 9 ;      NG3P2     CG3C50     CG2R53      OG2D1
   22     1     7     5	 9 ;     CG2R61     CG3C50     CG2R53     NG2R53
   22     1     7     8	 9 ;     CG2R61     CG3C50     CG2R53      OG2D1
    9     1     7     5	 9 ;     CG2R61     CG3C50     CG2R53     NG2R53
    9     1     7     8	 9 ;     CG2R61     CG3C50     CG2R53      OG2D1
    7     1     2     4	 9 ;     CG2R53     CG3C50      NG3P2     CG3C53
    7     1     2     3	 9 ;     CG2R53     CG3C50      NG3P2       HGP2
    7     1     2    35	 9 ;     CG2R53     CG3C50      NG3P2       HGP2
   22     1     2     4	 9 ;     CG2R61     CG3C50      NG3P2     CG3C53
   22     1     2     3	 9 ;     CG2R61     CG3C50      NG3P2       HGP2
   22     1     2    35	 9 ;     CG2R61     CG3C50      NG3P2       HGP2
    9     1     2     4	 9 ;     CG2R61     CG3C50      NG3P2     CG3C53
    9     1     2     3	 9 ;     CG2R61     CG3C50      NG3P2       HGP2
    9     1     2    35	 9 ;     CG2R61     CG3C50      NG3P2       HGP2
    7     1    22    23	 9 ;     CG2R53     CG3C50     CG2R61     CG2R61
    7     1    22    27	 9 ;     CG2R53     CG3C50     CG2R61     CG2R61
    2     1    22    23	 9 ;      NG3P2     CG3C50     CG2R61     CG2R61
    2     1    22    27	 9 ;      NG3P2     CG3C50     CG2R61     CG2R61
    9     1    22    23	 9 ;     CG2R61     CG3C50     CG2R61     CG2R61
    9     1    22    27	 9 ;     CG2R61     CG3C50     CG2R61     CG2R61
    7     1     9    10	 9 ;     CG2R53     CG3C50     CG2R61     CG2R61
    7     1     9    15	 9 ;     CG2R53     CG3C50     CG2R61     CG2R61
    2     1     9    10	 9 ;      NG3P2     CG3C50     CG2R61     CG2R61
    2     1     9    15	 9 ;      NG3P2     CG3C50     CG2R61     CG2R61
   22     1     9    10	 9 ;     CG2R61     CG3C50     CG2R61     CG2R61
   22     1     9    15	 9 ;     CG2R61     CG3C50     CG2R61     CG2R61
    3     2     4    32	 9 ;       HGP2      NG3P2     CG3C53      NG3P3
    3     2     4     5	 9 ;       HGP2      NG3P2     CG3C53     NG2R53
    3     2     4    36	 9 ;       HGP2      NG3P2     CG3C53       HGA1
    1     2     4    32	 9 ;     CG3C50      NG3P2     CG3C53      NG3P3
    1     2     4     5	 9 ;     CG3C50      NG3P2     CG3C53     NG2R53
    1     2     4    36	 9 ;     CG3C50      NG3P2     CG3C53       HGA1
   35     2     4    32	 9 ;       HGP2      NG3P2     CG3C53      NG3P3
   35     2     4     5	 9 ;       HGP2      NG3P2     CG3C53     NG2R53
   35     2     4    36	 9 ;       HGP2      NG3P2     CG3C53       HGA1
    5     4    32    34	 9 ;     NG2R53     CG3C53      NG3P3       HGP2
    5     4    32    33	 9 ;     NG2R53     CG3C53      NG3P3       HGP2
    5     4    32    51	 9 ;     NG2R53     CG3C53      NG3P3       HGP2
    2     4    32    34	 9 ;      NG3P2     CG3C53      NG3P3       HGP2
    2     4    32    33	 9 ;      NG3P2     CG3C53      NG3P3       HGP2
    2     4    32    51	 9 ;      NG3P2     CG3C53      NG3P3       HGP2
   36     4    32    34	 9 ;       HGA1     CG3C53      NG3P3       HGP2
   36     4    32    33	 9 ;       HGA1     CG3C53      NG3P3       HGP2
   36     4    32    51	 9 ;       HGA1     CG3C53      NG3P3       HGP2
   32     4     5     6	 9 ;      NG3P3     CG3C53     NG2R53      CG331
   32     4     5     7	 9 ;      NG3P3     CG3C53     NG2R53     CG2R53
    2     4     5     6	 9 ;      NG3P2     CG3C53     NG2R53      CG331
    2     4     5     7	 9 ;      NG3P2     CG3C53     NG2R53     CG2R53
   36     4     5     6	 9 ;       HGA1     CG3C53     NG2R53      CG331
   36     4     5     7	 9 ;       HGA1     CG3C53     NG2R53     CG2R53
    4     5     6    52	 9 ;     CG3C53     NG2R53      CG331       HGA3
    4     5     6    53	 9 ;     CG3C53     NG2R53      CG331       HGA3
    4     5     6    54	 9 ;     CG3C53     NG2R53      CG331       HGA3
    7     5     6    52	 9 ;     CG2R53     NG2R53      CG331       HGA3
    7     5     6    53	 9 ;     CG2R53     NG2R53      CG331       HGA3
    7     5     6    54	 9 ;     CG2R53     NG2R53      CG331       HGA3
    6     5     7     8	 9 ;      CG331     NG2R53     CG2R53      OG2D1
    6     5     7     1	 9 ;      CG331     NG2R53     CG2R53     CG3C50
    4     5     7     8	 9 ;     CG3C53     NG2R53     CG2R53      OG2D1
    4     5     7     1	 9 ;     CG3C53     NG2R53     CG2R53     CG3C50
    1     9    10    11	 9 ;     CG3C50     CG2R61     CG2R61     CG2R61
    1     9    10    37	 9 ;     CG3C50     CG2R61     CG2R61      HGR61
   15     9    10    11	 9 ;     CG2R61     CG2R61     CG2R61     CG2R61
   15     9    10    37	 9 ;     CG2R61     CG2R61     CG2R61      HGR61
    1     9    15    14	 9 ;     CG3C50     CG2R61     CG2R61     CG2R61
    1     9    15    39	 9 ;     CG3C50     CG2R61     CG2R61      HGR61
   10     9    15    14	 9 ;     CG2R61     CG2R61     CG2R61     CG2R61
   10     9    15    39	 9 ;     CG2R61     CG2R61     CG2R61      HGR61
    9    10    11    12	 9 ;     CG2R61     CG2R61     CG2R61     CG2R66
    9    10    11    38	 9 ;     CG2R61     CG2R61     CG2R61      HGR62
   37    10    11    12	 9 ;      HGR61     CG2R61     CG2R61     CG2R66
   37    10    11    38	 9 ;      HGR61     CG2R61     CG2R61      HGR62
   10    11    12    14	 9 ;     CG2R61     CG2R61     CG2R66     CG2R61
   10    11    12    13	 9 ;     CG2R61     CG2R61     CG2R66       FGR1
   38    11    12    14	 9 ;      HGR62     CG2R61     CG2R66     CG2R61
   38    11    12    13	 9 ;      HGR62     CG2R61     CG2R66       FGR1
   11    12    14    15	 9 ;     CG2R61     CG2R66     CG2R61     CG2R61
   11    12    14    16	 9 ;     CG2R61     CG2R66     CG2R61      CG1T1
   13    12    14    15	 9 ;       FGR1     CG2R66     CG2R61     CG2R61
   13    12    14    16	 9 ;       FGR1     CG2R66     CG2R61      CG1T1
   12    14    15     9	 9 ;     CG2R66     CG2R61     CG2R61     CG2R61
   12    14    15    39	 9 ;     CG2R66     CG2R61     CG2R61      HGR61
   16    14    15     9	 9 ;      CG1T1     CG2R61     CG2R61     CG2R61
   16    14    15    39	 9 ;      CG1T1     CG2R61     CG2R61      HGR61
   17    18    19    20	 9 ;      CG1T1      CG321      CG321      CG322
   17    18    19    42	 9 ;      CG1T1      CG321      CG321       HGA2
   17    18    19    43	 9 ;      CG1T1      CG321      CG321       HGA2
   40    18    19    20	 9 ;       HGA2      CG321      CG321      CG322
   40    18    19    42	 9 ;       HGA2      CG321      CG321       HGA2
   40    18    19    43	 9 ;       HGA2      CG321      CG321       HGA2
   41    18    19    20	 9 ;       HGA2      CG321      CG321      CG322
   41    18    19    42	 9 ;       HGA2      CG321      CG321       HGA2
   41    18    19    43	 9 ;       HGA2      CG321      CG321       HGA2
   18    19    20    21	 9 ;      CG321      CG321      CG322       FGA1
   18    19    20    44	 9 ;      CG321      CG321      CG322       HGA6
   18    19    20    45	 9 ;      CG321      CG321      CG322       HGA6
   42    19    20    21	 9 ;       HGA2      CG321      CG322       FGA1
   42    19    20    44	 9 ;       HGA2      CG321      CG322       HGA6
   42    19    20    45	 9 ;       HGA2      CG321      CG322       HGA6
   43    19    20    21	 9 ;       HGA2      CG321      CG322       FGA1
   43    19    20    44	 9 ;       HGA2      CG321      CG322       HGA6
   43    19    20    45	 9 ;       HGA2      CG321      CG322       HGA6
    1    22    23    24	 9 ;     CG3C50     CG2R61     CG2R61     CG2R61
    1    22    23    46	 9 ;     CG3C50     CG2R61     CG2R61      HGR61
   27    22    23    24	 9 ;     CG2R61     CG2R61     CG2R61     CG2R61
   27    22    23    46	 9 ;     CG2R61     CG2R61     CG2R61      HGR61
    1    22    27    26	 9 ;     CG3C50     CG2R61     CG2R61     CG2R61
    1    22    27    49	 9 ;     CG3C50     CG2R61     CG2R61      HGR61
   23    22    27    26	 9 ;     CG2R61     CG2R61     CG2R61     CG2R61
   23    22    27    49	 9 ;     CG2R61     CG2R61     CG2R61      HGR61
   22    23    24    25	 9 ;     CG2R61     CG2R61     CG2R61     CG2R61
   22    23    24    47	 9 ;     CG2R61     CG2R61     CG2R61      HGR61
   46    23    24    25	 9 ;      HGR61     CG2R61     CG2R61     CG2R61
   46    23    24    47	 9 ;      HGR61     CG2R61     CG2R61      HGR61
   23    24    25    26	 9 ;     CG2R61     CG2R61     CG2R61     CG2R61
   23    24    25    28	 9 ;     CG2R61     CG2R61     CG2R61      OG301
   47    24    25    26	 9 ;      HGR61     CG2R61     CG2R61     CG2R61
   47    24    25    28	 9 ;      HGR61     CG2R61     CG2R61      OG301
   24    25    26    27	 9 ;     CG2R61     CG2R61     CG2R61     CG2R61
   24    25    26    48	 9 ;     CG2R61     CG2R61     CG2R61      HGR61
   28    25    26    27	 9 ;      OG301     CG2R61     CG2R61     CG2R61
   28    25    26    48	 9 ;      OG301     CG2R61     CG2R61      HGR61
   24    25    28    29	 9 ;     CG2R61     CG2R61      OG301      CG312
   26    25    28    29	 9 ;     CG2R61     CG2R61      OG301      CG312
   25    26    27    22	 9 ;     CG2R61     CG2R61     CG2R61     CG2R61
   25    26    27    49	 9 ;     CG2R61     CG2R61     CG2R61      HGR61
   48    26    27    22	 9 ;      HGR61     CG2R61     CG2R61     CG2R61
   48    26    27    49	 9 ;      HGR61     CG2R61     CG2R61      HGR61
   25    28    29    30	 9 ;     CG2R61      OG301      CG312       FGA2
   25    28    29    31	 9 ;     CG2R61      OG301      CG312       FGA2
   25    28    29    50	 9 ;     CG2R61      OG301      CG312       HGA7

[ dihedrals ]
;	ai	  aj	ak	  al funct			  c0			c1			  c2			c3
    7     1     5     8	 2

