GRoups of Organic Molecules in ACtion for Science
   54
    1LIG     C1    1  -1.387   0.391  -1.628
    1LIG     N1    2  -1.457   0.347  -1.755
    1LIG     HN    3  -1.554   0.317  -1.765
    1LIG     C2    4  -1.368   0.354  -1.849
    1LIG     N2    5  -1.250   0.410  -1.816
    1LIG     C3    6  -1.131   0.417  -1.896
    1LIG     C4    7  -1.256   0.451  -1.686
    1LIG     O1    8  -1.170   0.516  -1.628
    1LIG     C5    9  -1.475   0.492  -1.551
    1LIG     C6   10  -1.470   0.630  -1.576
    1LIG     C7   11  -1.552   0.720  -1.506
    1LIG     C8   12  -1.641   0.673  -1.411
    1LIG     F1   13  -1.721   0.760  -1.348
    1LIG     C9   14  -1.646   0.537  -1.380
    1LIG    C10   15  -1.563   0.447  -1.449
    1LIG    C11   16  -1.738   0.490  -1.281
    1LIG    C12   17  -1.825   0.451  -1.192
    1LIG    C13   18  -1.927   0.405  -1.088
    1LIG    C14   19  -2.042   0.332  -1.156
    1LIG    C15   20  -2.138   0.267  -1.057
    1LIG     F2   21  -2.118   0.133  -1.058
    1LIG    C16   22  -1.348   0.268  -1.543
    1LIG    C17   23  -1.398   0.140  -1.572
    1LIG    C18   24  -1.355   0.028  -1.501
    1LIG    C19   25  -1.261   0.040  -1.399
    1LIG    C20   26  -1.212   0.167  -1.367
    1LIG    C21   27  -1.254   0.279  -1.439
    1LIG     O2   28  -1.229  -0.077  -1.337
    1LIG    C22   29  -1.211  -0.188  -1.422
    1LIG     F3   30  -1.083  -0.190  -1.465
    1LIG     F4   31  -1.228  -0.299  -1.345
    1LIG     N3   32  -1.394   0.310  -1.974
    1LIG     H1   33  -1.437   0.380  -2.033
    1LIG     H2   34  -1.321   0.258  -2.021
    1LIG    HN2   35  -1.429   0.251  -1.737
    1LIG     HC   36  -1.330   0.256  -1.821
    1LIG    HC1   37  -1.401   0.668  -1.649
    1LIG    HC2   38  -1.547   0.826  -1.528
    1LIG    HC3   39  -1.566   0.342  -1.424
    1LIG    HC4   40  -1.878   0.338  -1.018
    1LIG    HC5   41  -1.965   0.492  -1.035
    1LIG    HC6   42  -2.001   0.255  -1.221
    1LIG    HC7   43  -2.098   0.403  -1.217
    1LIG    HC8   44  -2.241   0.289  -1.085
    1LIG    HC9   45  -2.118   0.306  -0.957
    1LIG   HC10   46  -1.470   0.128  -1.651
    1LIG   HC11   47  -1.395  -0.069  -1.526
    1LIG   HC12   48  -1.141   0.177  -1.286
    1LIG   HC13   49  -1.213   0.376  -1.414
    1LIG   HC14   50  -1.281  -0.186  -1.505
    1LIG    HN1   51  -1.467   0.242  -1.960
    1LIG   HC15   52  -1.052   0.469  -1.841
    1LIG   HC16   53  -1.097   0.317  -1.922
    1LIG   HC17   54  -1.152   0.473  -1.988
   0.00000   0.00000   0.00000
