Gallium Rubidium Oxygen Manganese Argon Carbon Silicon
   76
    1LIG     N1    1  -1.589   0.438  -1.749
    1LIG     H1    2  -1.634   0.370  -1.812
    1LIG     H2    3  -1.493   0.450  -1.785
    1LIG     C1    4  -1.666   0.580  -1.774
    1LIG     C2    5  -1.571   0.708  -1.797
    1LIG     C3    6  -1.486   0.777  -1.673
    1LIG     C4    7  -1.337   0.802  -1.705
    1LIG     C5    8  -1.251   0.693  -1.649
    1LIG     C6    9  -1.281   0.639  -1.524
    1LIG     C7   10  -1.191   0.551  -1.466
    1LIG     F1   11  -1.220   0.504  -1.342
    1LIG     C8   12  -1.075   0.512  -1.528
    1LIG     C9   13  -1.048   0.561  -1.655
    1LIG    C10   14  -1.136   0.650  -1.717
    1LIG     F2   15  -0.936   0.525  -1.718
    1LIG     N2   16  -1.547   0.896  -1.612
    1LIG    C11   17  -1.587   1.015  -1.667
    1LIG     O1   18  -1.640   1.097  -1.593
    1LIG    C12   19  -1.569   1.047  -1.815
    1LIG     H3   20  -1.562   0.897  -1.511
    1LIG     O2   21  -1.481   0.681  -1.906
    1LIG     H4   22  -1.507   0.739  -1.981
    1LIG    C13   23  -1.588   0.370  -1.602
    1LIG    C14   24  -1.708   0.273  -1.586
    1LIG    C15   25  -1.842   0.338  -1.552
    1LIG     N3   26  -1.838   0.423  -1.434
    1LIG    C16   27  -1.732   0.521  -1.429
    1LIG    C17   28  -1.957   0.435  -1.362
    1LIG    C18   29  -1.597   0.472  -1.482
    1LIG     O3   30  -2.057   0.369  -1.387
    1LIG     N4   31  -1.959   0.521  -1.258
    1LIG     H5   32  -1.903   0.604  -1.255
    1LIG     H6   33  -2.050   0.530  -1.215
    1LIG    C19   34  -1.449   0.302  -1.584
    1LIG    C20   35  -1.411   0.247  -1.460
    1LIG    C21   36  -1.287   0.182  -1.441
    1LIG    C22   37  -1.199   0.176  -1.550
    1LIG    C23   38  -1.231   0.234  -1.672
    1LIG    C24   39  -1.355   0.295  -1.689
    1LIG    C25   40  -1.252   0.114  -1.307
    1LIG    C26   41  -1.099   0.111  -1.279
    1LIG    C27   42  -1.319   0.195  -1.195
    1LIG    C28   43  -1.301  -0.032  -1.303
    1LIG    HC2   44  -1.729   0.600  -1.687
    1LIG    HC3   45  -1.731   0.569  -1.861
    1LIG     HC   46  -1.637   0.786  -1.834
    1LIG    HC1   47  -1.485   0.701  -1.595
    1LIG    HC4   48  -1.308   0.898  -1.662
    1LIG    HC5   49  -1.324   0.807  -1.813
    1LIG    HC6   50  -1.373   0.666  -1.474
    1LIG    HC7   51  -1.006   0.446  -1.478
    1LIG    HC8   52  -1.115   0.685  -1.817
    1LIG    HC9   53  -1.683   0.203  -1.507
    1LIG   HC10   54  -1.719   0.217  -1.679
    1LIG   HC11   55  -1.874   0.398  -1.637
    1LIG   HC12   56  -1.916   0.259  -1.536
    1LIG   HC13   57  -1.763   0.607  -1.488
    1LIG   HC14   58  -1.719   0.553  -1.326
    1LIG   HC15   59  -1.542   0.561  -1.513
    1LIG   HC16   60  -1.543   0.428  -1.398
    1LIG   HC17   61  -1.479   0.255  -1.377
    1LIG   HC18   62  -1.104   0.125  -1.538
    1LIG   HC19   63  -1.161   0.232  -1.753
    1LIG   HC20   64  -1.380   0.338  -1.785
    1LIG   HC21   65  -1.567   1.155  -1.829
    1LIG   HC22   66  -1.475   1.004  -1.850
    1LIG   HC23   67  -1.651   1.004  -1.872
    1LIG   HC24   68  -1.408  -0.034  -1.322
    1LIG   HC25   69  -1.281  -0.073  -1.204
    1LIG   HC26   70  -1.249  -0.090  -1.378
    1LIG   HC27   71  -1.060   0.213  -1.281
    1LIG   HC28   72  -1.082   0.068  -1.181
    1LIG   HC29   73  -1.050   0.051  -1.355
    1LIG   HC30   74  -1.275   0.167  -1.099
    1LIG   HC31   75  -1.426   0.175  -1.194
    1LIG   HC32   76  -1.303   0.302  -1.212
   0.00000   0.00000   0.00000
