Georgetown Riga Oslo Madrid Amsterdam Chisinau Stockholm
   49
    1LIG     C1    1  -1.380   0.516  -1.637
    1LIG     C2    2  -1.504   0.597  -1.604
    1LIG     C3    3  -1.519   0.456  -1.656
    1LIG     C4    4  -1.599   0.352  -1.577
    1LIG     N1    5  -1.735   0.364  -1.631
    1LIG     C5    6  -1.832   0.412  -1.561
    1LIG     HN    7  -1.753   0.334  -1.726
    1LIG     N2    8  -1.824   0.442  -1.428
    1LIG     C6    9  -1.938   0.497  -1.356
    1LIG     C7   10  -1.717   0.399  -1.352
    1LIG      O   11  -1.722   0.390  -1.230
    1LIG     C8   12  -1.594   0.353  -1.425
    1LIG     C9   13  -1.549   0.213  -1.623
    1LIG     N3   14  -1.949   0.431  -1.628
    1LIG     H1   15  -1.962   0.518  -1.677
    1LIG     H2   16  -2.029   0.407  -1.569
    1LIG    C10   17  -1.281   0.486  -1.527
    1LIG    C11   18  -1.231   0.356  -1.508
    1LIG    C12   19  -1.129   0.328  -1.416
    1LIG    C13   20  -1.084   0.431  -1.333
    1LIG    C14   21  -1.141   0.558  -1.342
    1LIG    C15   22  -1.238   0.586  -1.438
    1LIG    C16   23  -1.067   0.195  -1.412
    1LIG    C17   24  -0.970   0.156  -1.503
    1LIG      S   25  -0.912  -0.002  -1.475
    1LIG    C18   26  -1.013  -0.021  -1.339
    1LIG    C19   27  -1.089   0.090  -1.316
    1LIG     HC   28  -1.332   0.546  -1.731
    1LIG    HC2   29  -1.532   0.681  -1.668
    1LIG    HC3   30  -1.524   0.610  -1.498
    1LIG    HC1   31  -1.548   0.456  -1.761
    1LIG    HN2   32  -1.713   0.457  -1.664
    1LIG    HC4   33  -1.801   0.514  -1.587
    1LIG    HC5   34  -1.910   0.513  -1.252
    1LIG    HC6   35  -1.967   0.591  -1.401
    1LIG    HC7   36  -2.021   0.426  -1.360
    1LIG    HC8   37  -1.512   0.418  -1.395
    1LIG    HC9   38  -1.571   0.252  -1.391
    1LIG   HC10   39  -1.603   0.134  -1.570
    1LIG   HC11   40  -1.442   0.204  -1.602
    1LIG   HC12   41  -1.565   0.202  -1.730
    1LIG    HN1   42  -1.949   0.360  -1.700
    1LIG   HC13   43  -1.272   0.276  -1.567
    1LIG   HC14   44  -1.006   0.412  -1.261
    1LIG   HC15   45  -1.109   0.636  -1.273
    1LIG   HC16   46  -1.280   0.685  -1.444
    1LIG   HC17   47  -0.935   0.219  -1.583
    1LIG   HC18   48  -1.016  -0.111  -1.279
    1LIG   HC19   49  -1.159   0.099  -1.234
   0.00000   0.00000   0.00000
