Gyas ROwers Mature At Cryogenic Speed
   42
    1LIG     C1    1  -1.358   0.516  -1.713
    1LIG     O5    2  -1.099   0.433  -1.753
    1LIG     C3    3  -1.148   0.209  -1.694
    1LIG     C4    4  -1.247   0.116  -1.655
    1LIG     C5    5  -1.018   0.167  -1.723
    1LIG     C6    6  -1.211  -0.020  -1.651
    1LIG     C7    7  -0.984   0.032  -1.715
    1LIG     C8    8  -1.081  -0.061  -1.679
    1LIG     C9    9  -1.317   0.398  -1.664
    1LIG    C10   10  -1.387   0.306  -1.570
    1LIG    C11   11  -1.181   0.354  -1.708
    1LIG    C12   12  -1.387   0.163  -1.623
    1LIG     N1   13  -1.480   0.701  -1.627
    1LIG     O4   14  -1.596   0.519  -1.710
    1LIG     C2   15  -1.491   0.576  -1.685
    1LIG     H3   16  -1.391   0.717  -1.581
    1LIG    C13   17  -1.600   0.766  -1.571
    1LIG    C15   18  -1.644   0.892  -1.651
    1LIG    C16   19  -1.577   0.904  -1.787
    1LIG    C17   20  -1.796   0.893  -1.672
    1LIG     O2   21  -1.556   0.730  -1.332
    1LIG    C14   22  -1.565   0.807  -1.427
    1LIG     O3   23  -1.553   0.942  -1.411
    1LIG     H2   24  -1.572   0.991  -1.494
    1LIG     O1   25  -1.299  -0.119  -1.620
    1LIG     H1   26  -1.389  -0.083  -1.613
    1LIG     H4   27  -1.294   0.569  -1.774
    1LIG     H5   28  -0.947   0.236  -1.751
    1LIG     H6   29  -0.887   0.002  -1.735
    1LIG     H7   30  -1.056  -0.161  -1.672
    1LIG     H8   31  -1.488   0.338  -1.558
    1LIG     H9   32  -1.336   0.308  -1.476
    1LIG    H10   33  -1.429   0.098  -1.549
    1LIG    H11   34  -1.444   0.160  -1.713
    1LIG     HA   35  -1.682   0.697  -1.575
    1LIG     HB   36  -1.614   0.975  -1.591
    1LIG   HG11   37  -1.605   0.822  -1.849
    1LIG   HG12   38  -1.470   0.904  -1.774
    1LIG   HG13   39  -1.607   0.996  -1.834
    1LIG   HG21   40  -1.825   0.809  -1.732
    1LIG   HG22   41  -1.825   0.983  -1.721
    1LIG   HG23   42  -1.846   0.887  -1.577
   0.00000   0.00000   0.00000
