Glycine aRginine prOline Methionine Alanine Cystine Serine
   48
    1LIG     C2    1  -1.513   0.254  -1.566
    1LIG     O5    2  -1.702   0.240  -1.367
    1LIG     C4    3  -1.708   0.474  -1.336
    1LIG     C5    4  -1.666   0.601  -1.381
    1LIG     C6    5  -1.806   0.463  -1.236
    1LIG     C7    6  -1.725   0.716  -1.326
    1LIG     C8    7  -1.862   0.578  -1.181
    1LIG     C9    8  -1.822   0.704  -1.226
    1LIG    C10    9  -1.538   0.362  -1.491
    1LIG    C11   10  -1.466   0.493  -1.487
    1LIG    C12   11  -1.653   0.349  -1.396
    1LIG    C13   12  -1.563   0.611  -1.491
    1LIG     N1   13  -1.287   0.195  -1.612
    1LIG     O4   14  -1.418   0.268  -1.785
    1LIG     C3   15  -1.405   0.241  -1.667
    1LIG     H4   16  -1.276   0.199  -1.512
    1LIG    C14   17  -1.163   0.194  -1.691
    1LIG    C16   18  -1.075   0.073  -1.653
    1LIG    C17   19  -1.156  -0.057  -1.652
    1LIG    C18   20  -0.956   0.057  -1.748
    1LIG     O2   21  -1.031   0.349  -1.555
    1LIG    C15   22  -1.092   0.326  -1.660
    1LIG     O3   23  -1.102   0.413  -1.764
    1LIG    C19   24  -1.174   0.532  -1.734
    1LIG     C1   25  -1.766   0.901  -1.472
    1LIG     O1   26  -1.682   0.836  -1.377
    1LIG     H1   27  -1.575   0.172  -1.553
    1LIG     H2   28  -1.836   0.370  -1.204
    1LIG     H3   29  -1.933   0.569  -1.107
    1LIG     H5   30  -1.865   0.788  -1.185
    1LIG     H6   31  -1.401   0.500  -1.572
    1LIG     H7   32  -1.410   0.498  -1.396
    1LIG     H8   33  -1.613   0.612  -1.585
    1LIG     H9   34  -1.507   0.701  -1.476
    1LIG    H10   35  -1.183   0.185  -1.795
    1LIG    H11   36  -1.037   0.093  -1.554
    1LIG    H12   37  -1.193  -0.076  -1.751
    1LIG    H13   38  -1.238  -0.047  -1.584
    1LIG    H14   39  -1.094  -0.138  -1.621
    1LIG    H15   40  -0.992   0.038  -1.847
    1LIG    H16   41  -0.895  -0.025  -1.715
    1LIG    H17   42  -0.898   0.147  -1.748
    1LIG    H18   43  -1.178   0.595  -1.821
    1LIG    H19   44  -1.125   0.585  -1.655
    1LIG    H20   45  -1.274   0.507  -1.704
    1LIG    H21   46  -1.720   0.992  -1.503
    1LIG    H22   47  -1.860   0.923  -1.427
    1LIG    H23   48  -1.780   0.838  -1.557
   0.00000   0.00000   0.00000
