; Created by cgenff_charmm2gmx.py

[ moleculetype ]
; Name			   nrexcl
LIG				 3

[ atoms ]
;	 nr		  type	resnr residue  atom   cgnr	   charge		mass  typeB    chargeB		massB
; residue	 1 LIG rtp LIG q	qsum
     1      NG3P2      1    LIG     N1      1     -0.450     14.007   ;
     2       HGP2      1    LIG     H1      2      0.341      1.008   ;
     3       HGP2      1    LIG     H2      3      0.341      1.008   ;
     4      CG301      1    LIG     C1      4      0.295     12.011   ;
     5      CG321      1    LIG     C2      5     -0.147     12.011   ;
     6      CG321      1    LIG     C3      6     -0.202     12.011   ;
     7      CG321      1    LIG     C4      7     -0.176     12.011   ;
     8      CG321      1    LIG     C5      8     -0.202     12.011   ;
     9      CG321      1    LIG     C6      9     -0.147     12.011   ;
    10     CG2R61      1    LIG     C7     10      0.085     12.011   ;
    11     CG2R61      1    LIG     C8     11     -0.115     12.011   ;
    12     CG2R61      1    LIG     C9     12      0.197     12.011   ;
    13     CG2R61      1    LIG    C10     13     -0.102     12.011   ;
    14     CG2R61      1    LIG    C11     14     -0.110     12.011   ;
    15     CG2R61      1    LIG    C12     15     -0.129     12.011   ;
    16      SG3O2      1    LIG      S     16      0.116     32.060   ;
    17      OG2P1      1    LIG     O1     17     -0.369     15.999   ;
    18      OG2P1      1    LIG     O2     18     -0.369     15.999   ;
    19      CG331      1    LIG    C13     19      0.124     12.011   ;
    20      CG324      1    LIG    C14     20      0.208     12.011   ;
    21      CG311      1    LIG    C15     21      0.089     12.011   ;
    22      OG311      1    LIG     O3     22     -0.625     15.999   ;
    23       HGP1      1    LIG     H3     23      0.415      1.008   ;
    24      CG311      1    LIG    C16     24     -0.007     12.011   ;
    25      CG321      1    LIG    C17     25     -0.153     12.011   ;
    26     CG2R61      1    LIG    C18     26      0.057     12.011   ;
    27     CG2R61      1    LIG    C19     27     -0.218     12.011   ;
    28     CG2R66      1    LIG    C20     28      0.261     12.011   ;
    29       FGR1      1    LIG     F1     29     -0.210     18.998   ;
    30     CG2R61      1    LIG    C21     30     -0.240     12.011   ;
    31     CG2R66      1    LIG    C22     31      0.261     12.011   ;
    32       FGR1      1    LIG     F2     32     -0.210     18.998   ;
    33     CG2R61      1    LIG    C23     33     -0.218     12.011   ;
    34      NG2S1      1    LIG     N2     34     -0.339     14.007   ;
    35      CG2O1      1    LIG    C24     35      0.488     12.011   ;
    36      OG2D1      1    LIG     O4     36     -0.509     15.999   ;
    37      CG331      1    LIG    C25     37     -0.270     12.011   ;
    38       HGP1      1    LIG     H4     38      0.261      1.008   ;
    39       HGA2      1    LIG    HC2     39      0.090      1.008   ;
    40       HGA2      1    LIG    HC3     40      0.090      1.008   ;
    41       HGA2      1    LIG    HC4     41      0.090      1.008   ;
    42       HGA2      1    LIG    HC5     42      0.090      1.008   ;
    43       HGA2      1    LIG    HC6     43      0.090      1.008   ;
    44       HGA2      1    LIG    HC7     44      0.090      1.008   ;
    45       HGA2      1    LIG    HC8     45      0.090      1.008   ;
    46       HGA2      1    LIG    HC9     46      0.090      1.008   ;
    47       HGA2      1    LIG   HC10     47      0.090      1.008   ;
    48       HGA2      1    LIG   HC11     48      0.090      1.008   ;
    49      HGR61      1    LIG     HC     49      0.116      1.008   ;
    50      HGR61      1    LIG    HC1     50      0.116      1.008   ;
    51      HGR61      1    LIG   HC12     51      0.116      1.008   ;
    52      HGR61      1    LIG   HC13     52      0.116      1.008   ;
    53       HGA3      1    LIG   HC14     53      0.090      1.008   ;
    54       HGA3      1    LIG   HC15     54      0.090      1.008   ;
    55       HGA3      1    LIG   HC16     55      0.090      1.008   ;
    56       HGA2      1    LIG   HC17     56      0.090      1.008   ;
    57       HGA2      1    LIG   HC18     57      0.090      1.008   ;
    58       HGA1      1    LIG   HC19     58      0.090      1.008   ;
    59       HGA1      1    LIG   HC20     59      0.090      1.008   ;
    60       HGA2      1    LIG   HC21     60      0.090      1.008   ;
    61       HGA2      1    LIG   HC22     61      0.090      1.008   ;
    62      HGR62      1    LIG   HC23     62      0.174      1.008   ;
    63      HGR62      1    LIG   HC24     63      0.186      1.008   ;
    64      HGR62      1    LIG   HC25     64      0.174      1.008   ;
    65       HGA3      1    LIG   HC26     65      0.090      1.008   ;
    66       HGA3      1    LIG   HC27     66      0.090      1.008   ;
    67       HGA3      1    LIG   HC28     67      0.090      1.008   ;

[ bonds ]
;	ai	  aj funct			  c0			c1			  c2			c3
    1     3	 1 ;       NG3P2       HGP2
    1    20	 1 ;       NG3P2      CG324
    1     4	 1 ;       NG3P2      CG301
    1     2	 1 ;       NG3P2       HGP2
    4    10	 1 ;       CG301     CG2R61
    4     5	 1 ;       CG301      CG321
    4     9	 1 ;       CG301      CG321
    5     6	 1 ;       CG321      CG321
    5    39	 1 ;       CG321       HGA2
    5    40	 1 ;       CG321       HGA2
    6     7	 1 ;       CG321      CG321
    6    41	 1 ;       CG321       HGA2
    6    42	 1 ;       CG321       HGA2
    7     8	 1 ;       CG321      CG321
    7    43	 1 ;       CG321       HGA2
    7    44	 1 ;       CG321       HGA2
    8     9	 1 ;       CG321      CG321
    8    45	 1 ;       CG321       HGA2
    8    46	 1 ;       CG321       HGA2
    9    47	 1 ;       CG321       HGA2
    9    48	 1 ;       CG321       HGA2
   10    15	 1 ;      CG2R61     CG2R61
   10    11	 1 ;      CG2R61     CG2R61
   11    12	 1 ;      CG2R61     CG2R61
   11    49	 1 ;      CG2R61      HGR61
   12    13	 1 ;      CG2R61     CG2R61
   12    16	 1 ;      CG2R61      SG3O2
   13    14	 1 ;      CG2R61     CG2R61
   13    50	 1 ;      CG2R61      HGR61
   14    15	 1 ;      CG2R61     CG2R61
   14    51	 1 ;      CG2R61      HGR61
   15    52	 1 ;      CG2R61      HGR61
   16    19	 1 ;       SG3O2      CG331
   16    17	 1 ;       SG3O2      OG2P1
   16    18	 1 ;       SG3O2      OG2P1
   19    53	 1 ;       CG331       HGA3
   19    54	 1 ;       CG331       HGA3
   19    55	 1 ;       CG331       HGA3
   20    21	 1 ;       CG324      CG311
   20    56	 1 ;       CG324       HGA2
   20    57	 1 ;       CG324       HGA2
   21    24	 1 ;       CG311      CG311
   21    22	 1 ;       CG311      OG311
   21    58	 1 ;       CG311       HGA1
   22    23	 1 ;       OG311       HGP1
   24    25	 1 ;       CG311      CG321
   24    34	 1 ;       CG311      NG2S1
   24    59	 1 ;       CG311       HGA1
   25    26	 1 ;       CG321     CG2R61
   25    60	 1 ;       CG321       HGA2
   25    61	 1 ;       CG321       HGA2
   26    27	 1 ;      CG2R61     CG2R61
   26    33	 1 ;      CG2R61     CG2R61
   27    28	 1 ;      CG2R61     CG2R66
   27    62	 1 ;      CG2R61      HGR62
   28    29	 1 ;      CG2R66       FGR1
   28    30	 1 ;      CG2R66     CG2R61
   30    31	 1 ;      CG2R61     CG2R66
   30    63	 1 ;      CG2R61      HGR62
   31    33	 1 ;      CG2R66     CG2R61
   31    32	 1 ;      CG2R66       FGR1
   33    64	 1 ;      CG2R61      HGR62
   34    38	 1 ;       NG2S1       HGP1
   34    35	 1 ;       NG2S1      CG2O1
   35    36	 1 ;       CG2O1      OG2D1
   35    37	 1 ;       CG2O1      CG331
   37    65	 1 ;       CG331       HGA3
   37    66	 1 ;       CG331       HGA3
   37    67	 1 ;       CG331       HGA3

[ pairs ]
;	ai	  aj funct			  c0			c1			  c2			c3
    1    15	 1
    1    11	 1
    1     6	 1
    1    39	 1
    1    40	 1
    1     8	 1
    1    47	 1
    1    48	 1
    1    24	 1
    1    22	 1
    1    58	 1
    2    21	 1
    2    56	 1
    2    57	 1
    2    10	 1
    2     5	 1
    2     9	 1
    3    21	 1
    3    56	 1
    3    57	 1
    3    10	 1
    3     5	 1
    3     9	 1
    4    21	 1
    4    56	 1
    4    57	 1
    4     7	 1
    4    41	 1
    4    42	 1
    4    45	 1
    4    46	 1
    4    14	 1
    4    52	 1
    4    12	 1
    4    49	 1
    5    20	 1
    5    15	 1
    5    11	 1
    5     8	 1
    5    47	 1
    5    48	 1
    5    43	 1
    5    44	 1
    6    10	 1
    6     9	 1
    6    45	 1
    6    46	 1
    7    39	 1
    7    40	 1
    7    47	 1
    7    48	 1
    8    10	 1
    8    41	 1
    8    42	 1
    9    20	 1
    9    15	 1
    9    11	 1
    9    39	 1
    9    40	 1
    9    43	 1
    9    44	 1
   10    20	 1
   10    39	 1
   10    40	 1
   10    47	 1
   10    48	 1
   10    13	 1
   10    16	 1
   10    51	 1
   11    14	 1
   11    52	 1
   11    50	 1
   11    19	 1
   11    17	 1
   11    18	 1
   12    15	 1
   12    51	 1
   12    53	 1
   12    54	 1
   12    55	 1
   13    49	 1
   13    19	 1
   13    17	 1
   13    18	 1
   13    52	 1
   14    16	 1
   15    49	 1
   15    50	 1
   16    49	 1
   16    50	 1
   17    53	 1
   17    54	 1
   17    55	 1
   18    53	 1
   18    54	 1
   18    55	 1
   20    25	 1
   20    34	 1
   20    59	 1
   20    23	 1
   21    26	 1
   21    60	 1
   21    61	 1
   21    38	 1
   21    35	 1
   22    56	 1
   22    57	 1
   22    25	 1
   22    34	 1
   22    59	 1
   23    24	 1
   23    58	 1
   24    56	 1
   24    57	 1
   24    27	 1
   24    33	 1
   24    36	 1
   24    37	 1
   25    58	 1
   25    38	 1
   25    35	 1
   25    28	 1
   25    62	 1
   25    31	 1
   25    64	 1
   26    34	 1
   26    59	 1
   26    29	 1
   26    30	 1
   26    32	 1
   27    60	 1
   27    61	 1
   27    31	 1
   27    64	 1
   27    63	 1
   28    33	 1
   28    32	 1
   29    62	 1
   29    31	 1
   29    63	 1
   30    62	 1
   30    64	 1
   32    63	 1
   32    64	 1
   33    60	 1
   33    61	 1
   33    62	 1
   33    63	 1
   34    58	 1
   34    60	 1
   34    61	 1
   34    65	 1
   34    66	 1
   34    67	 1
   35    59	 1
   36    38	 1
   36    65	 1
   36    66	 1
   36    67	 1
   37    38	 1
   38    59	 1
   39    41	 1
   39    42	 1
   40    41	 1
   40    42	 1
   41    43	 1
   41    44	 1
   42    43	 1
   42    44	 1
   43    45	 1
   43    46	 1
   44    45	 1
   44    46	 1
   45    47	 1
   45    48	 1
   46    47	 1
   46    48	 1
   50    51	 1
   51    52	 1
   56    58	 1
   57    58	 1
   58    59	 1
   59    60	 1
   59    61	 1

[ angles ]
;	ai	  aj	ak funct			c0			  c1			c2			  c3
    3     1    20	5 ;       HGP2      NG3P2      CG324
    3     1     4	5 ;       HGP2      NG3P2      CG301
    3     1     2	5 ;       HGP2      NG3P2       HGP2
   20     1     4	5 ;      CG324      NG3P2      CG301
   20     1     2	5 ;      CG324      NG3P2       HGP2
    4     1     2	5 ;      CG301      NG3P2       HGP2
   10     4     1	5 ;     CG2R61      CG301      NG3P2
   10     4     5	5 ;     CG2R61      CG301      CG321
   10     4     9	5 ;     CG2R61      CG301      CG321
    1     4     5	5 ;      NG3P2      CG301      CG321
    1     4     9	5 ;      NG3P2      CG301      CG321
    5     4     9	5 ;      CG321      CG301      CG321
    4     5     6	5 ;      CG301      CG321      CG321
    4     5    39	5 ;      CG301      CG321       HGA2
    4     5    40	5 ;      CG301      CG321       HGA2
    6     5    39	5 ;      CG321      CG321       HGA2
    6     5    40	5 ;      CG321      CG321       HGA2
   39     5    40	5 ;       HGA2      CG321       HGA2
    5     6     7	5 ;      CG321      CG321      CG321
    5     6    41	5 ;      CG321      CG321       HGA2
    5     6    42	5 ;      CG321      CG321       HGA2
    7     6    41	5 ;      CG321      CG321       HGA2
    7     6    42	5 ;      CG321      CG321       HGA2
   41     6    42	5 ;       HGA2      CG321       HGA2
    6     7     8	5 ;      CG321      CG321      CG321
    6     7    43	5 ;      CG321      CG321       HGA2
    6     7    44	5 ;      CG321      CG321       HGA2
    8     7    43	5 ;      CG321      CG321       HGA2
    8     7    44	5 ;      CG321      CG321       HGA2
   43     7    44	5 ;       HGA2      CG321       HGA2
    9     8     7	5 ;      CG321      CG321      CG321
    9     8    45	5 ;      CG321      CG321       HGA2
    9     8    46	5 ;      CG321      CG321       HGA2
    7     8    45	5 ;      CG321      CG321       HGA2
    7     8    46	5 ;      CG321      CG321       HGA2
   45     8    46	5 ;       HGA2      CG321       HGA2
    4     9     8	5 ;      CG301      CG321      CG321
    4     9    47	5 ;      CG301      CG321       HGA2
    4     9    48	5 ;      CG301      CG321       HGA2
    8     9    47	5 ;      CG321      CG321       HGA2
    8     9    48	5 ;      CG321      CG321       HGA2
   47     9    48	5 ;       HGA2      CG321       HGA2
   15    10    11	5 ;     CG2R61     CG2R61     CG2R61
   15    10     4	5 ;     CG2R61     CG2R61      CG301
   11    10     4	5 ;     CG2R61     CG2R61      CG301
   12    11    10	5 ;     CG2R61     CG2R61     CG2R61
   12    11    49	5 ;     CG2R61     CG2R61      HGR61
   10    11    49	5 ;     CG2R61     CG2R61      HGR61
   13    12    16	5 ;     CG2R61     CG2R61      SG3O2
   13    12    11	5 ;     CG2R61     CG2R61     CG2R61
   16    12    11	5 ;      SG3O2     CG2R61     CG2R61
   14    13    12	5 ;     CG2R61     CG2R61     CG2R61
   14    13    50	5 ;     CG2R61     CG2R61      HGR61
   12    13    50	5 ;     CG2R61     CG2R61      HGR61
   13    14    15	5 ;     CG2R61     CG2R61     CG2R61
   13    14    51	5 ;     CG2R61     CG2R61      HGR61
   15    14    51	5 ;     CG2R61     CG2R61      HGR61
   14    15    10	5 ;     CG2R61     CG2R61     CG2R61
   14    15    52	5 ;     CG2R61     CG2R61      HGR61
   10    15    52	5 ;     CG2R61     CG2R61      HGR61
   19    16    12	5 ;      CG331      SG3O2     CG2R61
   19    16    17	5 ;      CG331      SG3O2      OG2P1
   19    16    18	5 ;      CG331      SG3O2      OG2P1
   12    16    17	5 ;     CG2R61      SG3O2      OG2P1
   12    16    18	5 ;     CG2R61      SG3O2      OG2P1
   17    16    18	5 ;      OG2P1      SG3O2      OG2P1
   16    19    53	5 ;      SG3O2      CG331       HGA3
   16    19    54	5 ;      SG3O2      CG331       HGA3
   16    19    55	5 ;      SG3O2      CG331       HGA3
   53    19    54	5 ;       HGA3      CG331       HGA3
   53    19    55	5 ;       HGA3      CG331       HGA3
   54    19    55	5 ;       HGA3      CG331       HGA3
   21    20     1	5 ;      CG311      CG324      NG3P2
   21    20    56	5 ;      CG311      CG324       HGA2
   21    20    57	5 ;      CG311      CG324       HGA2
    1    20    56	5 ;      NG3P2      CG324       HGA2
    1    20    57	5 ;      NG3P2      CG324       HGA2
   56    20    57	5 ;       HGA2      CG324       HGA2
   24    21    22	5 ;      CG311      CG311      OG311
   24    21    20	5 ;      CG311      CG311      CG324
   24    21    58	5 ;      CG311      CG311       HGA1
   22    21    20	5 ;      OG311      CG311      CG324
   22    21    58	5 ;      OG311      CG311       HGA1
   20    21    58	5 ;      CG324      CG311       HGA1
   23    22    21	5 ;       HGP1      OG311      CG311
   25    24    34	5 ;      CG321      CG311      NG2S1
   25    24    21	5 ;      CG321      CG311      CG311
   25    24    59	5 ;      CG321      CG311       HGA1
   34    24    21	5 ;      NG2S1      CG311      CG311
   34    24    59	5 ;      NG2S1      CG311       HGA1
   21    24    59	5 ;      CG311      CG311       HGA1
   26    25    24	5 ;     CG2R61      CG321      CG311
   26    25    60	5 ;     CG2R61      CG321       HGA2
   26    25    61	5 ;     CG2R61      CG321       HGA2
   24    25    60	5 ;      CG311      CG321       HGA2
   24    25    61	5 ;      CG311      CG321       HGA2
   60    25    61	5 ;       HGA2      CG321       HGA2
   27    26    25	5 ;     CG2R61     CG2R61      CG321
   27    26    33	5 ;     CG2R61     CG2R61     CG2R61
   25    26    33	5 ;      CG321     CG2R61     CG2R61
   26    27    28	5 ;     CG2R61     CG2R61     CG2R66
   26    27    62	5 ;     CG2R61     CG2R61      HGR62
   28    27    62	5 ;     CG2R66     CG2R61      HGR62
   27    28    29	5 ;     CG2R61     CG2R66       FGR1
   27    28    30	5 ;     CG2R61     CG2R66     CG2R61
   29    28    30	5 ;       FGR1     CG2R66     CG2R61
   28    30    31	5 ;     CG2R66     CG2R61     CG2R66
   28    30    63	5 ;     CG2R66     CG2R61      HGR62
   31    30    63	5 ;     CG2R66     CG2R61      HGR62
   33    31    30	5 ;     CG2R61     CG2R66     CG2R61
   33    31    32	5 ;     CG2R61     CG2R66       FGR1
   30    31    32	5 ;     CG2R61     CG2R66       FGR1
   26    33    31	5 ;     CG2R61     CG2R61     CG2R66
   26    33    64	5 ;     CG2R61     CG2R61      HGR62
   31    33    64	5 ;     CG2R66     CG2R61      HGR62
   38    34    35	5 ;       HGP1      NG2S1      CG2O1
   38    34    24	5 ;       HGP1      NG2S1      CG311
   35    34    24	5 ;      CG2O1      NG2S1      CG311
   36    35    34	5 ;      OG2D1      CG2O1      NG2S1
   36    35    37	5 ;      OG2D1      CG2O1      CG331
   34    35    37	5 ;      NG2S1      CG2O1      CG331
   35    37    65	5 ;      CG2O1      CG331       HGA3
   35    37    66	5 ;      CG2O1      CG331       HGA3
   35    37    67	5 ;      CG2O1      CG331       HGA3
   65    37    66	5 ;       HGA3      CG331       HGA3
   65    37    67	5 ;       HGA3      CG331       HGA3
   66    37    67	5 ;       HGA3      CG331       HGA3

[ dihedrals ]
;	ai	  aj	ak	  al funct			  c0			c1			  c2			c3			  c4			c5
    3     1    20    21	 9 ;       HGP2      NG3P2      CG324      CG311
    3     1    20    56	 9 ;       HGP2      NG3P2      CG324       HGA2
    3     1    20    57	 9 ;       HGP2      NG3P2      CG324       HGA2
    4     1    20    21	 9 ;      CG301      NG3P2      CG324      CG311
    4     1    20    56	 9 ;      CG301      NG3P2      CG324       HGA2
    4     1    20    57	 9 ;      CG301      NG3P2      CG324       HGA2
    2     1    20    21	 9 ;       HGP2      NG3P2      CG324      CG311
    2     1    20    56	 9 ;       HGP2      NG3P2      CG324       HGA2
    2     1    20    57	 9 ;       HGP2      NG3P2      CG324       HGA2
    3     1     4    10	 9 ;       HGP2      NG3P2      CG301     CG2R61
    3     1     4     5	 9 ;       HGP2      NG3P2      CG301      CG321
    3     1     4     9	 9 ;       HGP2      NG3P2      CG301      CG321
   20     1     4    10	 9 ;      CG324      NG3P2      CG301     CG2R61
   20     1     4     5	 9 ;      CG324      NG3P2      CG301      CG321
   20     1     4     9	 9 ;      CG324      NG3P2      CG301      CG321
    2     1     4    10	 9 ;       HGP2      NG3P2      CG301     CG2R61
    2     1     4     5	 9 ;       HGP2      NG3P2      CG301      CG321
    2     1     4     9	 9 ;       HGP2      NG3P2      CG301      CG321
    1     4    10    15	 9 ;      NG3P2      CG301     CG2R61     CG2R61
    1     4    10    11	 9 ;      NG3P2      CG301     CG2R61     CG2R61
    5     4    10    15	 9 ;      CG321      CG301     CG2R61     CG2R61
    5     4    10    11	 9 ;      CG321      CG301     CG2R61     CG2R61
    9     4    10    15	 9 ;      CG321      CG301     CG2R61     CG2R61
    9     4    10    11	 9 ;      CG321      CG301     CG2R61     CG2R61
   10     4     5     6	 9 ;     CG2R61      CG301      CG321      CG321
   10     4     5    39	 9 ;     CG2R61      CG301      CG321       HGA2
   10     4     5    40	 9 ;     CG2R61      CG301      CG321       HGA2
    1     4     5     6	 9 ;      NG3P2      CG301      CG321      CG321
    1     4     5    39	 9 ;      NG3P2      CG301      CG321       HGA2
    1     4     5    40	 9 ;      NG3P2      CG301      CG321       HGA2
    9     4     5     6	 9 ;      CG321      CG301      CG321      CG321
    9     4     5    39	 9 ;      CG321      CG301      CG321       HGA2
    9     4     5    40	 9 ;      CG321      CG301      CG321       HGA2
   10     4     9     8	 9 ;     CG2R61      CG301      CG321      CG321
   10     4     9    47	 9 ;     CG2R61      CG301      CG321       HGA2
   10     4     9    48	 9 ;     CG2R61      CG301      CG321       HGA2
    1     4     9     8	 9 ;      NG3P2      CG301      CG321      CG321
    1     4     9    47	 9 ;      NG3P2      CG301      CG321       HGA2
    1     4     9    48	 9 ;      NG3P2      CG301      CG321       HGA2
    5     4     9     8	 9 ;      CG321      CG301      CG321      CG321
    5     4     9    47	 9 ;      CG321      CG301      CG321       HGA2
    5     4     9    48	 9 ;      CG321      CG301      CG321       HGA2
    4     5     6     7	 9 ;      CG301      CG321      CG321      CG321
    4     5     6    41	 9 ;      CG301      CG321      CG321       HGA2
    4     5     6    42	 9 ;      CG301      CG321      CG321       HGA2
   39     5     6     7	 9 ;       HGA2      CG321      CG321      CG321
   39     5     6    41	 9 ;       HGA2      CG321      CG321       HGA2
   39     5     6    42	 9 ;       HGA2      CG321      CG321       HGA2
   40     5     6     7	 9 ;       HGA2      CG321      CG321      CG321
   40     5     6    41	 9 ;       HGA2      CG321      CG321       HGA2
   40     5     6    42	 9 ;       HGA2      CG321      CG321       HGA2
    5     6     7     8	 9 ;      CG321      CG321      CG321      CG321
    5     6     7    43	 9 ;      CG321      CG321      CG321       HGA2
    5     6     7    44	 9 ;      CG321      CG321      CG321       HGA2
   41     6     7     8	 9 ;       HGA2      CG321      CG321      CG321
   41     6     7    43	 9 ;       HGA2      CG321      CG321       HGA2
   41     6     7    44	 9 ;       HGA2      CG321      CG321       HGA2
   42     6     7     8	 9 ;       HGA2      CG321      CG321      CG321
   42     6     7    43	 9 ;       HGA2      CG321      CG321       HGA2
   42     6     7    44	 9 ;       HGA2      CG321      CG321       HGA2
    6     7     8     9	 9 ;      CG321      CG321      CG321      CG321
    6     7     8    45	 9 ;      CG321      CG321      CG321       HGA2
    6     7     8    46	 9 ;      CG321      CG321      CG321       HGA2
   43     7     8     9	 9 ;       HGA2      CG321      CG321      CG321
   43     7     8    45	 9 ;       HGA2      CG321      CG321       HGA2
   43     7     8    46	 9 ;       HGA2      CG321      CG321       HGA2
   44     7     8     9	 9 ;       HGA2      CG321      CG321      CG321
   44     7     8    45	 9 ;       HGA2      CG321      CG321       HGA2
   44     7     8    46	 9 ;       HGA2      CG321      CG321       HGA2
    7     8     9     4	 9 ;      CG321      CG321      CG321      CG301
    7     8     9    47	 9 ;      CG321      CG321      CG321       HGA2
    7     8     9    48	 9 ;      CG321      CG321      CG321       HGA2
   45     8     9     4	 9 ;       HGA2      CG321      CG321      CG301
   45     8     9    47	 9 ;       HGA2      CG321      CG321       HGA2
   45     8     9    48	 9 ;       HGA2      CG321      CG321       HGA2
   46     8     9     4	 9 ;       HGA2      CG321      CG321      CG301
   46     8     9    47	 9 ;       HGA2      CG321      CG321       HGA2
   46     8     9    48	 9 ;       HGA2      CG321      CG321       HGA2
   11    10    15    14	 9 ;     CG2R61     CG2R61     CG2R61     CG2R61
   11    10    15    52	 9 ;     CG2R61     CG2R61     CG2R61      HGR61
    4    10    15    14	 9 ;      CG301     CG2R61     CG2R61     CG2R61
    4    10    15    52	 9 ;      CG301     CG2R61     CG2R61      HGR61
   15    10    11    12	 9 ;     CG2R61     CG2R61     CG2R61     CG2R61
   15    10    11    49	 9 ;     CG2R61     CG2R61     CG2R61      HGR61
    4    10    11    12	 9 ;      CG301     CG2R61     CG2R61     CG2R61
    4    10    11    49	 9 ;      CG301     CG2R61     CG2R61      HGR61
   10    11    12    13	 9 ;     CG2R61     CG2R61     CG2R61     CG2R61
   10    11    12    16	 9 ;     CG2R61     CG2R61     CG2R61      SG3O2
   49    11    12    13	 9 ;      HGR61     CG2R61     CG2R61     CG2R61
   49    11    12    16	 9 ;      HGR61     CG2R61     CG2R61      SG3O2
   16    12    13    14	 9 ;      SG3O2     CG2R61     CG2R61     CG2R61
   16    12    13    50	 9 ;      SG3O2     CG2R61     CG2R61      HGR61
   11    12    13    14	 9 ;     CG2R61     CG2R61     CG2R61     CG2R61
   11    12    13    50	 9 ;     CG2R61     CG2R61     CG2R61      HGR61
   13    12    16    19	 9 ;     CG2R61     CG2R61      SG3O2      CG331
   13    12    16    17	 9 ;     CG2R61     CG2R61      SG3O2      OG2P1
   13    12    16    18	 9 ;     CG2R61     CG2R61      SG3O2      OG2P1
   11    12    16    19	 9 ;     CG2R61     CG2R61      SG3O2      CG331
   11    12    16    17	 9 ;     CG2R61     CG2R61      SG3O2      OG2P1
   11    12    16    18	 9 ;     CG2R61     CG2R61      SG3O2      OG2P1
   12    13    14    15	 9 ;     CG2R61     CG2R61     CG2R61     CG2R61
   12    13    14    51	 9 ;     CG2R61     CG2R61     CG2R61      HGR61
   50    13    14    15	 9 ;      HGR61     CG2R61     CG2R61     CG2R61
   50    13    14    51	 9 ;      HGR61     CG2R61     CG2R61      HGR61
   13    14    15    10	 9 ;     CG2R61     CG2R61     CG2R61     CG2R61
   13    14    15    52	 9 ;     CG2R61     CG2R61     CG2R61      HGR61
   51    14    15    10	 9 ;      HGR61     CG2R61     CG2R61     CG2R61
   51    14    15    52	 9 ;      HGR61     CG2R61     CG2R61      HGR61
   12    16    19    53	 9 ;     CG2R61      SG3O2      CG331       HGA3
   12    16    19    54	 9 ;     CG2R61      SG3O2      CG331       HGA3
   12    16    19    55	 9 ;     CG2R61      SG3O2      CG331       HGA3
   17    16    19    53	 9 ;      OG2P1      SG3O2      CG331       HGA3
   17    16    19    54	 9 ;      OG2P1      SG3O2      CG331       HGA3
   17    16    19    55	 9 ;      OG2P1      SG3O2      CG331       HGA3
   18    16    19    53	 9 ;      OG2P1      SG3O2      CG331       HGA3
   18    16    19    54	 9 ;      OG2P1      SG3O2      CG331       HGA3
   18    16    19    55	 9 ;      OG2P1      SG3O2      CG331       HGA3
    1    20    21    24	 9 ;      NG3P2      CG324      CG311      CG311
    1    20    21    22	 9 ;      NG3P2      CG324      CG311      OG311
    1    20    21    58	 9 ;      NG3P2      CG324      CG311       HGA1
   56    20    21    24	 9 ;       HGA2      CG324      CG311      CG311
   56    20    21    22	 9 ;       HGA2      CG324      CG311      OG311
   56    20    21    58	 9 ;       HGA2      CG324      CG311       HGA1
   57    20    21    24	 9 ;       HGA2      CG324      CG311      CG311
   57    20    21    22	 9 ;       HGA2      CG324      CG311      OG311
   57    20    21    58	 9 ;       HGA2      CG324      CG311       HGA1
   22    21    24    25	 9 ;      OG311      CG311      CG311      CG321
   22    21    24    34	 9 ;      OG311      CG311      CG311      NG2S1
   22    21    24    59	 9 ;      OG311      CG311      CG311       HGA1
   20    21    24    25	 9 ;      CG324      CG311      CG311      CG321
   20    21    24    34	 9 ;      CG324      CG311      CG311      NG2S1
   20    21    24    59	 9 ;      CG324      CG311      CG311       HGA1
   58    21    24    25	 9 ;       HGA1      CG311      CG311      CG321
   58    21    24    34	 9 ;       HGA1      CG311      CG311      NG2S1
   58    21    24    59	 9 ;       HGA1      CG311      CG311       HGA1
   24    21    22    23	 9 ;      CG311      CG311      OG311       HGP1
   20    21    22    23	 9 ;      CG324      CG311      OG311       HGP1
   58    21    22    23	 9 ;       HGA1      CG311      OG311       HGP1
   34    24    25    26	 9 ;      NG2S1      CG311      CG321     CG2R61
   34    24    25    60	 9 ;      NG2S1      CG311      CG321       HGA2
   34    24    25    61	 9 ;      NG2S1      CG311      CG321       HGA2
   21    24    25    26	 9 ;      CG311      CG311      CG321     CG2R61
   21    24    25    60	 9 ;      CG311      CG311      CG321       HGA2
   21    24    25    61	 9 ;      CG311      CG311      CG321       HGA2
   59    24    25    26	 9 ;       HGA1      CG311      CG321     CG2R61
   59    24    25    60	 9 ;       HGA1      CG311      CG321       HGA2
   59    24    25    61	 9 ;       HGA1      CG311      CG321       HGA2
   25    24    34    38	 9 ;      CG321      CG311      NG2S1       HGP1
   25    24    34    35	 9 ;      CG321      CG311      NG2S1      CG2O1
   21    24    34    38	 9 ;      CG311      CG311      NG2S1       HGP1
   21    24    34    35	 9 ;      CG311      CG311      NG2S1      CG2O1
   59    24    34    38	 9 ;       HGA1      CG311      NG2S1       HGP1
   59    24    34    35	 9 ;       HGA1      CG311      NG2S1      CG2O1
   24    25    26    27	 9 ;      CG311      CG321     CG2R61     CG2R61
   24    25    26    33	 9 ;      CG311      CG321     CG2R61     CG2R61
   60    25    26    27	 9 ;       HGA2      CG321     CG2R61     CG2R61
   60    25    26    33	 9 ;       HGA2      CG321     CG2R61     CG2R61
   61    25    26    27	 9 ;       HGA2      CG321     CG2R61     CG2R61
   61    25    26    33	 9 ;       HGA2      CG321     CG2R61     CG2R61
   25    26    27    28	 9 ;      CG321     CG2R61     CG2R61     CG2R66
   25    26    27    62	 9 ;      CG321     CG2R61     CG2R61      HGR62
   33    26    27    28	 9 ;     CG2R61     CG2R61     CG2R61     CG2R66
   33    26    27    62	 9 ;     CG2R61     CG2R61     CG2R61      HGR62
   27    26    33    31	 9 ;     CG2R61     CG2R61     CG2R61     CG2R66
   27    26    33    64	 9 ;     CG2R61     CG2R61     CG2R61      HGR62
   25    26    33    31	 9 ;      CG321     CG2R61     CG2R61     CG2R66
   25    26    33    64	 9 ;      CG321     CG2R61     CG2R61      HGR62
   26    27    28    29	 9 ;     CG2R61     CG2R61     CG2R66       FGR1
   26    27    28    30	 9 ;     CG2R61     CG2R61     CG2R66     CG2R61
   62    27    28    29	 9 ;      HGR62     CG2R61     CG2R66       FGR1
   62    27    28    30	 9 ;      HGR62     CG2R61     CG2R66     CG2R61
   27    28    30    31	 9 ;     CG2R61     CG2R66     CG2R61     CG2R66
   27    28    30    63	 9 ;     CG2R61     CG2R66     CG2R61      HGR62
   29    28    30    31	 9 ;       FGR1     CG2R66     CG2R61     CG2R66
   29    28    30    63	 9 ;       FGR1     CG2R66     CG2R61      HGR62
   28    30    31    33	 9 ;     CG2R66     CG2R61     CG2R66     CG2R61
   28    30    31    32	 9 ;     CG2R66     CG2R61     CG2R66       FGR1
   63    30    31    33	 9 ;      HGR62     CG2R61     CG2R66     CG2R61
   63    30    31    32	 9 ;      HGR62     CG2R61     CG2R66       FGR1
   30    31    33    26	 9 ;     CG2R61     CG2R66     CG2R61     CG2R61
   30    31    33    64	 9 ;     CG2R61     CG2R66     CG2R61      HGR62
   32    31    33    26	 9 ;       FGR1     CG2R66     CG2R61     CG2R61
   32    31    33    64	 9 ;       FGR1     CG2R66     CG2R61      HGR62
   38    34    35    36	 9 ;       HGP1      NG2S1      CG2O1      OG2D1
   38    34    35    37	 9 ;       HGP1      NG2S1      CG2O1      CG331
   24    34    35    36	 9 ;      CG311      NG2S1      CG2O1      OG2D1
   24    34    35    37	 9 ;      CG311      NG2S1      CG2O1      CG331
   36    35    37    65	 9 ;      OG2D1      CG2O1      CG331       HGA3
   36    35    37    66	 9 ;      OG2D1      CG2O1      CG331       HGA3
   36    35    37    67	 9 ;      OG2D1      CG2O1      CG331       HGA3
   34    35    37    65	 9 ;      NG2S1      CG2O1      CG331       HGA3
   34    35    37    66	 9 ;      NG2S1      CG2O1      CG331       HGA3
   34    35    37    67	 9 ;      NG2S1      CG2O1      CG331       HGA3

[ dihedrals ]
;	ai	  aj	ak	  al funct			  c0			c1			  c2			c3
   35    37    34    36	 2

