Getting the Right Output Means no Artefacts in Calculating Stuff
   67
    1LIG     N1    1  -1.692   0.329  -1.596
    1LIG     H1    2  -1.729   0.240  -1.561
    1LIG     H2    3  -1.660   0.303  -1.691
    1LIG     C1    4  -1.803   0.434  -1.607
    1LIG     C2    5  -1.923   0.364  -1.678
    1LIG     C3    6  -1.987   0.251  -1.596
    1LIG     C4    7  -2.027   0.296  -1.456
    1LIG     C5    8  -1.911   0.361  -1.382
    1LIG     C6    9  -1.850   0.474  -1.464
    1LIG     C7   10  -1.749   0.556  -1.686
    1LIG     C8   11  -1.767   0.687  -1.639
    1LIG     C9   12  -1.736   0.797  -1.721
    1LIG    C10   13  -1.689   0.779  -1.851
    1LIG    C11   14  -1.663   0.651  -1.896
    1LIG    C12   15  -1.691   0.541  -1.814
    1LIG      S   16  -1.759   0.964  -1.663
    1LIG     O1   17  -1.872   1.016  -1.737
    1LIG     O2   18  -1.761   0.956  -1.518
    1LIG    C13   19  -1.611   1.049  -1.713
    1LIG    C14   20  -1.567   0.364  -1.520
    1LIG    C15   21  -1.441   0.342  -1.608
    1LIG     O3   22  -1.469   0.227  -1.689
    1LIG     H3   23  -1.418   0.233  -1.772
    1LIG    C16   24  -1.303   0.326  -1.534
    1LIG    C17   25  -1.211   0.226  -1.607
    1LIG    C18   26  -1.165   0.105  -1.530
    1LIG    C19   27  -1.054   0.109  -1.444
    1LIG    C20   28  -1.025   0.000  -1.362
    1LIG     F1   29  -0.921   0.009  -1.278
    1LIG    C21   30  -1.101  -0.115  -1.364
    1LIG    C22   31  -1.209  -0.121  -1.452
    1LIG     F2   32  -1.285  -0.231  -1.455
    1LIG    C23   33  -1.241  -0.014  -1.534
    1LIG     N2   34  -1.237   0.456  -1.515
    1LIG    C24   35  -1.206   0.516  -1.396
    1LIG     O4   36  -1.184   0.637  -1.398
    1LIG    C25   37  -1.199   0.434  -1.269
    1LIG     H4   38  -1.214   0.516  -1.593
    1LIG    HC2   39  -1.887   0.322  -1.772
    1LIG    HC3   40  -1.999   0.440  -1.700
    1LIG    HC4   41  -2.076   0.216  -1.648
    1LIG    HC5   42  -1.916   0.169  -1.587
    1LIG    HC6   43  -2.061   0.210  -1.399
    1LIG    HC7   44  -2.109   0.368  -1.463
    1LIG    HC8   45  -1.947   0.401  -1.287
    1LIG    HC9   46  -1.835   0.285  -1.362
    1LIG   HC10   47  -1.763   0.511  -1.409
    1LIG   HC11   48  -1.923   0.554  -1.472
    1LIG     HC   49  -1.805   0.704  -1.539
    1LIG    HC1   50  -1.672   0.864  -1.916
    1LIG   HC12   51  -1.621   0.635  -1.994
    1LIG   HC13   52  -1.667   0.442  -1.850
    1LIG   HC14   53  -1.600   1.140  -1.654
    1LIG   HC15   54  -1.525   0.984  -1.696
    1LIG   HC16   55  -1.617   1.074  -1.819
    1LIG   HC17   56  -1.571   0.469  -1.490
    1LIG   HC18   57  -1.560   0.301  -1.431
    1LIG   HC19   58  -1.433   0.427  -1.675
    1LIG   HC20   59  -1.324   0.285  -1.435
    1LIG   HC21   60  -1.122   0.281  -1.638
    1LIG   HC22   61  -1.263   0.192  -1.697
    1LIG   HC23   62  -0.992   0.198  -1.441
    1LIG   HC24   63  -1.078  -0.198  -1.299
    1LIG   HC25   64  -1.325  -0.021  -1.602
    1LIG   HC26   65  -1.158   0.495  -1.189
    1LIG   HC27   66  -1.135   0.348  -1.285
    1LIG   HC28   67  -1.299   0.401  -1.242
   0.00000   0.00000   0.00000
