Great Red Oystrich Makes All Chemists Sane
   97
    1LIG     C1    1  -1.258   0.732  -1.569
    1LIG     O1    2  -1.183   0.773  -1.480
    1LIG     N1    3  -1.387   0.776  -1.564
    1LIG     H1    4  -1.399   0.837  -1.483
    1LIG     C2    5  -1.206   0.627  -1.670
    1LIG     C3    6  -1.052   0.637  -1.683
    1LIG      S    7  -1.002   0.686  -1.849
    1LIG     O2    8  -1.084   0.607  -1.939
    1LIG     O3    9  -1.010   0.831  -1.856
    1LIG     C4   10  -0.834   0.634  -1.890
    1LIG     C5   11  -0.743   0.639  -1.763
    1LIG     C6   12  -0.596   0.683  -1.779
    1LIG     C7   13  -0.500   0.572  -1.738
    1LIG     C8   14  -0.815   0.503  -1.968
    1LIG     C9   15  -0.798   0.374  -1.887
    1LIG    C10   16  -0.919   0.281  -1.885
    1LIG     N2   17  -1.243   0.494  -1.614
    1LIG    C11   18  -1.261   0.381  -1.689
    1LIG     O4   19  -1.253   0.378  -1.811
    1LIG     H2   20  -1.253   0.484  -1.514
    1LIG     O5   21  -1.289   0.275  -1.609
    1LIG    C12   22  -1.234   0.275  -1.475
    1LIG    C13   23  -1.171   0.141  -1.445
    1LIG    C14   24  -1.230   0.022  -1.490
    1LIG    C15   25  -1.176  -0.102  -1.453
    1LIG    C16   26  -1.062  -0.108  -1.373
    1LIG    C17   27  -1.000   0.010  -1.332
    1LIG    C18   28  -1.054   0.133  -1.368
    1LIG    C19   29  -1.510   0.737  -1.636
    1LIG    C20   30  -1.580   0.613  -1.573
    1LIG    C21   31  -1.600   0.483  -1.647
    1LIG    C22   32  -1.618   0.359  -1.585
    1LIG    C23   33  -1.641   0.245  -1.663
    1LIG    C24   34  -1.646   0.254  -1.802
    1LIG    C25   35  -1.625   0.376  -1.865
    1LIG    C26   36  -1.602   0.490  -1.788
    1LIG    C27   37  -1.618   0.850  -1.637
    1LIG    C28   38  -1.762   0.803  -1.602
    1LIG     N3   39  -1.834   0.758  -1.727
    1LIG     H3   40  -1.834   0.833  -1.797
    1LIG     H4   41  -1.776   0.681  -1.765
    1LIG    C29   42  -1.972   0.705  -1.708
    1LIG    C30   43  -1.975   0.558  -1.679
    1LIG    C31   44  -1.975   0.511  -1.546
    1LIG    C32   45  -1.983   0.374  -1.520
    1LIG    C33   46  -1.992   0.284  -1.625
    1LIG    C34   47  -1.989   0.329  -1.757
    1LIG    C35   48  -1.980   0.465  -1.784
    1LIG     O6   49  -1.990   0.317  -1.395
    1LIG    C36   50  -2.072   0.203  -1.382
    1LIG     O7   51  -1.589   0.957  -1.549
    1LIG     H5   52  -1.523   0.931  -1.482
    1LIG     HC   53  -1.253   0.642  -1.767
    1LIG    HC2   54  -1.008   0.540  -1.661
    1LIG    HC3   55  -1.015   0.711  -1.612
    1LIG    HC1   56  -0.795   0.712  -1.955
    1LIG    HC4   57  -0.790   0.709  -1.692
    1LIG    HC5   58  -0.743   0.540  -1.717
    1LIG    HC6   59  -0.578   0.771  -1.715
    1LIG    HC7   60  -0.578   0.711  -1.883
    1LIG    HC8   61  -0.397   0.607  -1.751
    1LIG    HC9   62  -0.516   0.545  -1.634
    1LIG   HC10   63  -0.517   0.485  -1.801
    1LIG   HC11   64  -0.902   0.491  -2.033
    1LIG   HC12   65  -0.727   0.515  -2.032
    1LIG   HC13   66  -0.714   0.319  -1.928
    1LIG   HC14   67  -0.775   0.401  -1.784
    1LIG   HC15   68  -0.896   0.193  -1.825
    1LIG   HC16   69  -1.005   0.333  -1.843
    1LIG   HC17   70  -0.942   0.250  -1.987
    1LIG   HC18   71  -1.314   0.294  -1.403
    1LIG   HC19   72  -1.158   0.353  -1.467
    1LIG   HC20   73  -1.317   0.025  -1.553
    1LIG   HC21   74  -1.222  -0.193  -1.487
    1LIG   HC22   75  -1.022  -0.204  -1.342
    1LIG   HC23   76  -0.910   0.005  -1.273
    1LIG   HC24   77  -1.005   0.224  -1.336
    1LIG   HC25   78  -1.483   0.714  -1.739
    1LIG   HC26   79  -1.523   0.588  -1.484
    1LIG   HC27   80  -1.679   0.646  -1.539
    1LIG   HC28   81  -1.613   0.352  -1.478
    1LIG   HC29   82  -1.656   0.150  -1.614
    1LIG   HC30   83  -1.666   0.165  -1.861
    1LIG   HC31   84  -1.626   0.382  -1.972
    1LIG   HC32   85  -1.585   0.584  -1.837
    1LIG   HC33   86  -1.621   0.891  -1.738
    1LIG   HC34   87  -1.816   0.886  -1.557
    1LIG   HC35   88  -1.756   0.720  -1.531
    1LIG   HC36   89  -2.029   0.724  -1.799
    1LIG   HC37   90  -2.019   0.759  -1.625
    1LIG   HC38   91  -1.968   0.581  -1.464
    1LIG   HC39   92  -2.001   0.178  -1.605
    1LIG   HC40   93  -1.993   0.258  -1.839
    1LIG   HC41   94  -1.976   0.500  -1.886
    1LIG   HC42   95  -2.094   0.185  -1.277
    1LIG   HC43   96  -2.165   0.218  -1.436
    1LIG   HC44   97  -2.021   0.116  -1.423
   0.00000   0.00000   0.00000
