; Created by cgenff_charmm2gmx.py

[ moleculetype ]
; Name			   nrexcl
LIG				 3

[ atoms ]
;	 nr		  type	resnr residue  atom   cgnr	   charge		mass  typeB    chargeB		massB
; residue	 1 LIG rtp LIG q	qsum
     1      CG2O1      1    LIG     C1      1      0.511     12.011   ;
     2      OG2D1      1    LIG     O1      2     -0.509     15.999   ;
     3      NG2S1      1    LIG     N1      3     -0.385     14.007   ;
     4       HGP1      1    LIG     H1      4      0.269      1.008   ;
     5      CG311      1    LIG     C2      5      0.142     12.011   ;
     6      CG321      1    LIG     C3      6      0.132     12.011   ;
     7      SG3O2      1    LIG      S      7     -0.138     32.060   ;
     8      OG2P1      1    LIG     O2      8     -0.344     15.999   ;
     9      OG2P1      1    LIG     O3      9     -0.344     15.999   ;
    10      CG311      1    LIG     C4     10      0.247     12.011   ;
    11      CG321      1    LIG     C5     11     -0.124     12.011   ;
    12      CG321      1    LIG     C6     12     -0.174     12.011   ;
    13      CG331      1    LIG     C7     13     -0.270     12.011   ;
    14      CG321      1    LIG     C8     14     -0.124     12.011   ;
    15      CG321      1    LIG     C9     15     -0.174     12.011   ;
    16      CG331      1    LIG    C10     16     -0.270     12.011   ;
    17      NG2S1      1    LIG     N2     17     -0.317     14.007   ;
    18      CG2O6      1    LIG    C11     18      0.233     12.011   ;
    19      OG2D1      1    LIG     O4     19     -0.395     15.999   ;
    20       HGP1      1    LIG     H2     20      0.329      1.008   ;
    21      OG302      1    LIG     O5     21     -0.345     15.999   ;
    22      CG321      1    LIG    C12     22      0.146     12.011   ;
    23     CG2R61      1    LIG    C13     23      0.007     12.011   ;
    24     CG2R61      1    LIG    C14     24     -0.123     12.011   ;
    25     CG2R61      1    LIG    C15     25     -0.112     12.011   ;
    26     CG2R61      1    LIG    C16     26     -0.116     12.011   ;
    27     CG2R61      1    LIG    C17     27     -0.112     12.011   ;
    28     CG2R61      1    LIG    C18     28     -0.123     12.011   ;
    29      CG311      1    LIG    C19     29     -0.003     12.011   ;
    30      CG321      1    LIG    C20     30     -0.111     12.011   ;
    31     CG2R61      1    LIG    C21     31     -0.019     12.011   ;
    32     CG2R61      1    LIG    C22     32     -0.123     12.011   ;
    33     CG2R61      1    LIG    C23     33     -0.112     12.011   ;
    34     CG2R61      1    LIG    C24     34     -0.116     12.011   ;
    35     CG2R61      1    LIG    C25     35     -0.112     12.011   ;
    36     CG2R61      1    LIG    C26     36     -0.123     12.011   ;
    37      CG311      1    LIG    C27     37      0.094     12.011   ;
    38      CG324      1    LIG    C28     38      0.178     12.011   ;
    39      NG3P2      1    LIG     N3     39     -0.444     14.007   ;
    40       HGP2      1    LIG     H3     40      0.348      1.008   ;
    41       HGP2      1    LIG     H4     41      0.348      1.008   ;
    42      CG324      1    LIG    C29     42      0.171     12.011   ;
    43     CG2R61      1    LIG    C30     43      0.036     12.011   ;
    44     CG2R61      1    LIG    C31     44     -0.124     12.011   ;
    45     CG2R61      1    LIG    C32     45      0.216     12.011   ;
    46     CG2R61      1    LIG    C33     46     -0.121     12.011   ;
    47     CG2R61      1    LIG    C34     47     -0.108     12.011   ;
    48     CG2R61      1    LIG    C35     48     -0.119     12.011   ;
    49      OG301      1    LIG     O6     49     -0.383     15.999   ;
    50      CG331      1    LIG    C36     50     -0.094     12.011   ;
    51      OG311      1    LIG     O7     51     -0.625     15.999   ;
    52       HGP1      1    LIG     H5     52      0.415      1.008   ;
    53       HGA1      1    LIG     HC     53      0.090      1.008   ;
    54       HGA2      1    LIG    HC2     54      0.090      1.008   ;
    55       HGA2      1    LIG    HC3     55      0.090      1.008   ;
    56       HGA1      1    LIG    HC1     56      0.090      1.008   ;
    57       HGA2      1    LIG    HC4     57      0.090      1.008   ;
    58       HGA2      1    LIG    HC5     58      0.090      1.008   ;
    59       HGA2      1    LIG    HC6     59      0.090      1.008   ;
    60       HGA2      1    LIG    HC7     60      0.090      1.008   ;
    61       HGA3      1    LIG    HC8     61      0.090      1.008   ;
    62       HGA3      1    LIG    HC9     62      0.090      1.008   ;
    63       HGA3      1    LIG   HC10     63      0.090      1.008   ;
    64       HGA2      1    LIG   HC11     64      0.090      1.008   ;
    65       HGA2      1    LIG   HC12     65      0.090      1.008   ;
    66       HGA2      1    LIG   HC13     66      0.090      1.008   ;
    67       HGA2      1    LIG   HC14     67      0.090      1.008   ;
    68       HGA3      1    LIG   HC15     68      0.090      1.008   ;
    69       HGA3      1    LIG   HC16     69      0.090      1.008   ;
    70       HGA3      1    LIG   HC17     70      0.090      1.008   ;
    71       HGA2      1    LIG   HC18     71      0.090      1.008   ;
    72       HGA2      1    LIG   HC19     72      0.090      1.008   ;
    73      HGR61      1    LIG   HC20     73      0.116      1.008   ;
    74      HGR61      1    LIG   HC21     74      0.116      1.008   ;
    75      HGR61      1    LIG   HC22     75      0.116      1.008   ;
    76      HGR61      1    LIG   HC23     76      0.116      1.008   ;
    77      HGR61      1    LIG   HC24     77      0.116      1.008   ;
    78       HGA1      1    LIG   HC25     78      0.090      1.008   ;
    79       HGA2      1    LIG   HC26     79      0.090      1.008   ;
    80       HGA2      1    LIG   HC27     80      0.090      1.008   ;
    81      HGR61      1    LIG   HC28     81      0.116      1.008   ;
    82      HGR61      1    LIG   HC29     82      0.116      1.008   ;
    83      HGR61      1    LIG   HC30     83      0.116      1.008   ;
    84      HGR61      1    LIG   HC31     84      0.116      1.008   ;
    85      HGR61      1    LIG   HC32     85      0.116      1.008   ;
    86       HGA1      1    LIG   HC33     86      0.090      1.008   ;
    87       HGA2      1    LIG   HC34     87      0.090      1.008   ;
    88       HGA2      1    LIG   HC35     88      0.090      1.008   ;
    89       HGA2      1    LIG   HC36     89      0.090      1.008   ;
    90       HGA2      1    LIG   HC37     90      0.090      1.008   ;
    91      HGR61      1    LIG   HC38     91      0.116      1.008   ;
    92      HGR61      1    LIG   HC39     92      0.116      1.008   ;
    93      HGR61      1    LIG   HC40     93      0.116      1.008   ;
    94      HGR61      1    LIG   HC41     94      0.116      1.008   ;
    95       HGA3      1    LIG   HC42     95      0.090      1.008   ;
    96       HGA3      1    LIG   HC43     96      0.090      1.008   ;
    97       HGA3      1    LIG   HC44     97      0.090      1.008   ;

[ bonds ]
;	ai	  aj funct			  c0			c1			  c2			c3
    1     5	 1 ;       CG2O1      CG311
    1     2	 1 ;       CG2O1      OG2D1
    1     3	 1 ;       CG2O1      NG2S1
    3     4	 1 ;       NG2S1       HGP1
    3    29	 1 ;       NG2S1      CG311
    5     6	 1 ;       CG311      CG321
    5    17	 1 ;       CG311      NG2S1
    5    53	 1 ;       CG311       HGA1
    6     7	 1 ;       CG321      SG3O2
    6    54	 1 ;       CG321       HGA2
    6    55	 1 ;       CG321       HGA2
    7    10	 1 ;       SG3O2      CG311
    7     9	 1 ;       SG3O2      OG2P1
    7     8	 1 ;       SG3O2      OG2P1
   10    14	 1 ;       CG311      CG321
   10    11	 1 ;       CG311      CG321
   10    56	 1 ;       CG311       HGA1
   11    12	 1 ;       CG321      CG321
   11    57	 1 ;       CG321       HGA2
   11    58	 1 ;       CG321       HGA2
   12    13	 1 ;       CG321      CG331
   12    59	 1 ;       CG321       HGA2
   12    60	 1 ;       CG321       HGA2
   13    61	 1 ;       CG331       HGA3
   13    62	 1 ;       CG331       HGA3
   13    63	 1 ;       CG331       HGA3
   14    15	 1 ;       CG321      CG321
   14    64	 1 ;       CG321       HGA2
   14    65	 1 ;       CG321       HGA2
   15    16	 1 ;       CG321      CG331
   15    66	 1 ;       CG321       HGA2
   15    67	 1 ;       CG321       HGA2
   16    68	 1 ;       CG331       HGA3
   16    69	 1 ;       CG331       HGA3
   16    70	 1 ;       CG331       HGA3
   17    18	 1 ;       NG2S1      CG2O6
   17    20	 1 ;       NG2S1       HGP1
   18    19	 1 ;       CG2O6      OG2D1
   18    21	 1 ;       CG2O6      OG302
   21    22	 1 ;       OG302      CG321
   22    23	 1 ;       CG321     CG2R61
   22    71	 1 ;       CG321       HGA2
   22    72	 1 ;       CG321       HGA2
   23    28	 1 ;      CG2R61     CG2R61
   23    24	 1 ;      CG2R61     CG2R61
   24    25	 1 ;      CG2R61     CG2R61
   24    73	 1 ;      CG2R61      HGR61
   25    26	 1 ;      CG2R61     CG2R61
   25    74	 1 ;      CG2R61      HGR61
   26    27	 1 ;      CG2R61     CG2R61
   26    75	 1 ;      CG2R61      HGR61
   27    28	 1 ;      CG2R61     CG2R61
   27    76	 1 ;      CG2R61      HGR61
   28    77	 1 ;      CG2R61      HGR61
   29    37	 1 ;       CG311      CG311
   29    30	 1 ;       CG311      CG321
   29    78	 1 ;       CG311       HGA1
   30    31	 1 ;       CG321     CG2R61
   30    79	 1 ;       CG321       HGA2
   30    80	 1 ;       CG321       HGA2
   31    36	 1 ;      CG2R61     CG2R61
   31    32	 1 ;      CG2R61     CG2R61
   32    33	 1 ;      CG2R61     CG2R61
   32    81	 1 ;      CG2R61      HGR61
   33    34	 1 ;      CG2R61     CG2R61
   33    82	 1 ;      CG2R61      HGR61
   34    35	 1 ;      CG2R61     CG2R61
   34    83	 1 ;      CG2R61      HGR61
   35    36	 1 ;      CG2R61     CG2R61
   35    84	 1 ;      CG2R61      HGR61
   36    85	 1 ;      CG2R61      HGR61
   37    51	 1 ;       CG311      OG311
   37    38	 1 ;       CG311      CG324
   37    86	 1 ;       CG311       HGA1
   38    39	 1 ;       CG324      NG3P2
   38    87	 1 ;       CG324       HGA2
   38    88	 1 ;       CG324       HGA2
   39    40	 1 ;       NG3P2       HGP2
   39    41	 1 ;       NG3P2       HGP2
   39    42	 1 ;       NG3P2      CG324
   42    43	 1 ;       CG324     CG2R61
   42    89	 1 ;       CG324       HGA2
   42    90	 1 ;       CG324       HGA2
   43    48	 1 ;      CG2R61     CG2R61
   43    44	 1 ;      CG2R61     CG2R61
   44    45	 1 ;      CG2R61     CG2R61
   44    91	 1 ;      CG2R61      HGR61
   45    46	 1 ;      CG2R61     CG2R61
   45    49	 1 ;      CG2R61      OG301
   46    47	 1 ;      CG2R61     CG2R61
   46    92	 1 ;      CG2R61      HGR61
   47    48	 1 ;      CG2R61     CG2R61
   47    93	 1 ;      CG2R61      HGR61
   48    94	 1 ;      CG2R61      HGR61
   49    50	 1 ;       OG301      CG331
   50    95	 1 ;       CG331       HGA3
   50    96	 1 ;       CG331       HGA3
   50    97	 1 ;       CG331       HGA3
   51    52	 1 ;       OG311       HGP1

[ pairs ]
;	ai	  aj funct			  c0			c1			  c2			c3
    1    37	 1
    1    30	 1
    1    78	 1
    1     7	 1
    1    54	 1
    1    55	 1
    1    18	 1
    1    20	 1
    2     6	 1
    2    17	 1
    2    53	 1
    2     4	 1
    2    29	 1
    3     6	 1
    3    17	 1
    3    53	 1
    3    51	 1
    3    38	 1
    3    86	 1
    3    31	 1
    3    79	 1
    3    80	 1
    4     5	 1
    4    37	 1
    4    30	 1
    4    78	 1
    5    29	 1
    5    10	 1
    5     9	 1
    5     8	 1
    5    19	 1
    5    21	 1
    6    18	 1
    6    20	 1
    6    14	 1
    6    11	 1
    6    56	 1
    7    17	 1
    7    53	 1
    7    15	 1
    7    64	 1
    7    65	 1
    7    12	 1
    7    57	 1
    7    58	 1
    8    54	 1
    8    55	 1
    8    14	 1
    8    11	 1
    8    56	 1
    9    54	 1
    9    55	 1
    9    14	 1
    9    11	 1
    9    56	 1
   10    54	 1
   10    55	 1
   10    13	 1
   10    59	 1
   10    60	 1
   10    16	 1
   10    66	 1
   10    67	 1
   11    15	 1
   11    64	 1
   11    65	 1
   11    61	 1
   11    62	 1
   11    63	 1
   12    14	 1
   12    56	 1
   13    57	 1
   13    58	 1
   14    57	 1
   14    58	 1
   14    68	 1
   14    69	 1
   14    70	 1
   15    56	 1
   16    64	 1
   16    65	 1
   17    54	 1
   17    55	 1
   17    22	 1
   18    53	 1
   18    23	 1
   18    71	 1
   18    72	 1
   19    20	 1
   19    22	 1
   20    53	 1
   20    21	 1
   21    28	 1
   21    24	 1
   22    27	 1
   22    77	 1
   22    25	 1
   22    73	 1
   23    26	 1
   23    74	 1
   23    76	 1
   24    71	 1
   24    72	 1
   24    27	 1
   24    77	 1
   24    75	 1
   25    28	 1
   25    76	 1
   26    73	 1
   26    77	 1
   27    74	 1
   28    71	 1
   28    72	 1
   28    73	 1
   28    75	 1
   29    36	 1
   29    32	 1
   29    52	 1
   29    39	 1
   29    87	 1
   29    88	 1
   30    51	 1
   30    38	 1
   30    86	 1
   30    35	 1
   30    85	 1
   30    33	 1
   30    81	 1
   31    37	 1
   31    78	 1
   31    34	 1
   31    82	 1
   31    84	 1
   32    79	 1
   32    80	 1
   32    35	 1
   32    85	 1
   32    83	 1
   33    36	 1
   33    84	 1
   34    81	 1
   34    85	 1
   35    82	 1
   36    79	 1
   36    80	 1
   36    81	 1
   36    83	 1
   37    79	 1
   37    80	 1
   37    40	 1
   37    41	 1
   37    42	 1
   38    78	 1
   38    52	 1
   38    43	 1
   38    89	 1
   38    90	 1
   39    51	 1
   39    86	 1
   39    48	 1
   39    44	 1
   40    87	 1
   40    88	 1
   40    43	 1
   40    89	 1
   40    90	 1
   41    87	 1
   41    88	 1
   41    43	 1
   41    89	 1
   41    90	 1
   42    87	 1
   42    88	 1
   42    47	 1
   42    94	 1
   42    45	 1
   42    91	 1
   43    46	 1
   43    49	 1
   43    93	 1
   44    89	 1
   44    90	 1
   44    47	 1
   44    94	 1
   44    92	 1
   44    50	 1
   45    48	 1
   45    93	 1
   45    95	 1
   45    96	 1
   45    97	 1
   46    91	 1
   46    50	 1
   46    94	 1
   47    49	 1
   48    89	 1
   48    90	 1
   48    91	 1
   48    92	 1
   49    91	 1
   49    92	 1
   51    78	 1
   51    87	 1
   51    88	 1
   52    86	 1
   53    54	 1
   53    55	 1
   56    64	 1
   56    65	 1
   56    57	 1
   56    58	 1
   57    59	 1
   57    60	 1
   58    59	 1
   58    60	 1
   59    61	 1
   59    62	 1
   59    63	 1
   60    61	 1
   60    62	 1
   60    63	 1
   64    66	 1
   64    67	 1
   65    66	 1
   65    67	 1
   66    68	 1
   66    69	 1
   66    70	 1
   67    68	 1
   67    69	 1
   67    70	 1
   73    74	 1
   74    75	 1
   75    76	 1
   76    77	 1
   78    86	 1
   78    79	 1
   78    80	 1
   81    82	 1
   82    83	 1
   83    84	 1
   84    85	 1
   86    87	 1
   86    88	 1
   92    93	 1
   93    94	 1

[ angles ]
;	ai	  aj	ak funct			c0			  c1			c2			  c3
    5     1     2	5 ;      CG311      CG2O1      OG2D1
    5     1     3	5 ;      CG311      CG2O1      NG2S1
    2     1     3	5 ;      OG2D1      CG2O1      NG2S1
    1     3     4	5 ;      CG2O1      NG2S1       HGP1
    1     3    29	5 ;      CG2O1      NG2S1      CG311
    4     3    29	5 ;       HGP1      NG2S1      CG311
    6     5     1	5 ;      CG321      CG311      CG2O1
    6     5    17	5 ;      CG321      CG311      NG2S1
    6     5    53	5 ;      CG321      CG311       HGA1
    1     5    17	5 ;      CG2O1      CG311      NG2S1
    1     5    53	5 ;      CG2O1      CG311       HGA1
   17     5    53	5 ;      NG2S1      CG311       HGA1
    7     6     5	5 ;      SG3O2      CG321      CG311
    7     6    54	5 ;      SG3O2      CG321       HGA2
    7     6    55	5 ;      SG3O2      CG321       HGA2
    5     6    54	5 ;      CG311      CG321       HGA2
    5     6    55	5 ;      CG311      CG321       HGA2
   54     6    55	5 ;       HGA2      CG321       HGA2
   10     7     9	5 ;      CG311      SG3O2      OG2P1
   10     7     8	5 ;      CG311      SG3O2      OG2P1
   10     7     6	5 ;      CG311      SG3O2      CG321
    9     7     8	5 ;      OG2P1      SG3O2      OG2P1
    9     7     6	5 ;      OG2P1      SG3O2      CG321
    8     7     6	5 ;      OG2P1      SG3O2      CG321
   14    10    11	5 ;      CG321      CG311      CG321
   14    10     7	5 ;      CG321      CG311      SG3O2
   14    10    56	5 ;      CG321      CG311       HGA1
   11    10     7	5 ;      CG321      CG311      SG3O2
   11    10    56	5 ;      CG321      CG311       HGA1
    7    10    56	5 ;      SG3O2      CG311       HGA1
   12    11    10	5 ;      CG321      CG321      CG311
   12    11    57	5 ;      CG321      CG321       HGA2
   12    11    58	5 ;      CG321      CG321       HGA2
   10    11    57	5 ;      CG311      CG321       HGA2
   10    11    58	5 ;      CG311      CG321       HGA2
   57    11    58	5 ;       HGA2      CG321       HGA2
   13    12    11	5 ;      CG331      CG321      CG321
   13    12    59	5 ;      CG331      CG321       HGA2
   13    12    60	5 ;      CG331      CG321       HGA2
   11    12    59	5 ;      CG321      CG321       HGA2
   11    12    60	5 ;      CG321      CG321       HGA2
   59    12    60	5 ;       HGA2      CG321       HGA2
   12    13    61	5 ;      CG321      CG331       HGA3
   12    13    62	5 ;      CG321      CG331       HGA3
   12    13    63	5 ;      CG321      CG331       HGA3
   61    13    62	5 ;       HGA3      CG331       HGA3
   61    13    63	5 ;       HGA3      CG331       HGA3
   62    13    63	5 ;       HGA3      CG331       HGA3
   10    14    15	5 ;      CG311      CG321      CG321
   10    14    64	5 ;      CG311      CG321       HGA2
   10    14    65	5 ;      CG311      CG321       HGA2
   15    14    64	5 ;      CG321      CG321       HGA2
   15    14    65	5 ;      CG321      CG321       HGA2
   64    14    65	5 ;       HGA2      CG321       HGA2
   14    15    16	5 ;      CG321      CG321      CG331
   14    15    66	5 ;      CG321      CG321       HGA2
   14    15    67	5 ;      CG321      CG321       HGA2
   16    15    66	5 ;      CG331      CG321       HGA2
   16    15    67	5 ;      CG331      CG321       HGA2
   66    15    67	5 ;       HGA2      CG321       HGA2
   15    16    68	5 ;      CG321      CG331       HGA3
   15    16    69	5 ;      CG321      CG331       HGA3
   15    16    70	5 ;      CG321      CG331       HGA3
   68    16    69	5 ;       HGA3      CG331       HGA3
   68    16    70	5 ;       HGA3      CG331       HGA3
   69    16    70	5 ;       HGA3      CG331       HGA3
    5    17    18	5 ;      CG311      NG2S1      CG2O6
    5    17    20	5 ;      CG311      NG2S1       HGP1
   18    17    20	5 ;      CG2O6      NG2S1       HGP1
   19    18    17	5 ;      OG2D1      CG2O6      NG2S1
   19    18    21	5 ;      OG2D1      CG2O6      OG302
   17    18    21	5 ;      NG2S1      CG2O6      OG302
   18    21    22	5 ;      CG2O6      OG302      CG321
   21    22    23	5 ;      OG302      CG321     CG2R61
   21    22    71	5 ;      OG302      CG321       HGA2
   21    22    72	5 ;      OG302      CG321       HGA2
   23    22    71	5 ;     CG2R61      CG321       HGA2
   23    22    72	5 ;     CG2R61      CG321       HGA2
   71    22    72	5 ;       HGA2      CG321       HGA2
   28    23    22	5 ;     CG2R61     CG2R61      CG321
   28    23    24	5 ;     CG2R61     CG2R61     CG2R61
   22    23    24	5 ;      CG321     CG2R61     CG2R61
   23    24    25	5 ;     CG2R61     CG2R61     CG2R61
   23    24    73	5 ;     CG2R61     CG2R61      HGR61
   25    24    73	5 ;     CG2R61     CG2R61      HGR61
   26    25    24	5 ;     CG2R61     CG2R61     CG2R61
   26    25    74	5 ;     CG2R61     CG2R61      HGR61
   24    25    74	5 ;     CG2R61     CG2R61      HGR61
   27    26    25	5 ;     CG2R61     CG2R61     CG2R61
   27    26    75	5 ;     CG2R61     CG2R61      HGR61
   25    26    75	5 ;     CG2R61     CG2R61      HGR61
   28    27    26	5 ;     CG2R61     CG2R61     CG2R61
   28    27    76	5 ;     CG2R61     CG2R61      HGR61
   26    27    76	5 ;     CG2R61     CG2R61      HGR61
   27    28    23	5 ;     CG2R61     CG2R61     CG2R61
   27    28    77	5 ;     CG2R61     CG2R61      HGR61
   23    28    77	5 ;     CG2R61     CG2R61      HGR61
    3    29    37	5 ;      NG2S1      CG311      CG311
    3    29    30	5 ;      NG2S1      CG311      CG321
    3    29    78	5 ;      NG2S1      CG311       HGA1
   37    29    30	5 ;      CG311      CG311      CG321
   37    29    78	5 ;      CG311      CG311       HGA1
   30    29    78	5 ;      CG321      CG311       HGA1
   29    30    31	5 ;      CG311      CG321     CG2R61
   29    30    79	5 ;      CG311      CG321       HGA2
   29    30    80	5 ;      CG311      CG321       HGA2
   31    30    79	5 ;     CG2R61      CG321       HGA2
   31    30    80	5 ;     CG2R61      CG321       HGA2
   79    30    80	5 ;       HGA2      CG321       HGA2
   36    31    30	5 ;     CG2R61     CG2R61      CG321
   36    31    32	5 ;     CG2R61     CG2R61     CG2R61
   30    31    32	5 ;      CG321     CG2R61     CG2R61
   31    32    33	5 ;     CG2R61     CG2R61     CG2R61
   31    32    81	5 ;     CG2R61     CG2R61      HGR61
   33    32    81	5 ;     CG2R61     CG2R61      HGR61
   34    33    32	5 ;     CG2R61     CG2R61     CG2R61
   34    33    82	5 ;     CG2R61     CG2R61      HGR61
   32    33    82	5 ;     CG2R61     CG2R61      HGR61
   35    34    33	5 ;     CG2R61     CG2R61     CG2R61
   35    34    83	5 ;     CG2R61     CG2R61      HGR61
   33    34    83	5 ;     CG2R61     CG2R61      HGR61
   36    35    34	5 ;     CG2R61     CG2R61     CG2R61
   36    35    84	5 ;     CG2R61     CG2R61      HGR61
   34    35    84	5 ;     CG2R61     CG2R61      HGR61
   35    36    31	5 ;     CG2R61     CG2R61     CG2R61
   35    36    85	5 ;     CG2R61     CG2R61      HGR61
   31    36    85	5 ;     CG2R61     CG2R61      HGR61
   29    37    51	5 ;      CG311      CG311      OG311
   29    37    38	5 ;      CG311      CG311      CG324
   29    37    86	5 ;      CG311      CG311       HGA1
   51    37    38	5 ;      OG311      CG311      CG324
   51    37    86	5 ;      OG311      CG311       HGA1
   38    37    86	5 ;      CG324      CG311       HGA1
   37    38    39	5 ;      CG311      CG324      NG3P2
   37    38    87	5 ;      CG311      CG324       HGA2
   37    38    88	5 ;      CG311      CG324       HGA2
   39    38    87	5 ;      NG3P2      CG324       HGA2
   39    38    88	5 ;      NG3P2      CG324       HGA2
   87    38    88	5 ;       HGA2      CG324       HGA2
   40    39    41	5 ;       HGP2      NG3P2       HGP2
   40    39    38	5 ;       HGP2      NG3P2      CG324
   40    39    42	5 ;       HGP2      NG3P2      CG324
   41    39    38	5 ;       HGP2      NG3P2      CG324
   41    39    42	5 ;       HGP2      NG3P2      CG324
   38    39    42	5 ;      CG324      NG3P2      CG324
   39    42    43	5 ;      NG3P2      CG324     CG2R61
   39    42    89	5 ;      NG3P2      CG324       HGA2
   39    42    90	5 ;      NG3P2      CG324       HGA2
   43    42    89	5 ;     CG2R61      CG324       HGA2
   43    42    90	5 ;     CG2R61      CG324       HGA2
   89    42    90	5 ;       HGA2      CG324       HGA2
   42    43    48	5 ;      CG324     CG2R61     CG2R61
   42    43    44	5 ;      CG324     CG2R61     CG2R61
   48    43    44	5 ;     CG2R61     CG2R61     CG2R61
   43    44    45	5 ;     CG2R61     CG2R61     CG2R61
   43    44    91	5 ;     CG2R61     CG2R61      HGR61
   45    44    91	5 ;     CG2R61     CG2R61      HGR61
   44    45    46	5 ;     CG2R61     CG2R61     CG2R61
   44    45    49	5 ;     CG2R61     CG2R61      OG301
   46    45    49	5 ;     CG2R61     CG2R61      OG301
   47    46    45	5 ;     CG2R61     CG2R61     CG2R61
   47    46    92	5 ;     CG2R61     CG2R61      HGR61
   45    46    92	5 ;     CG2R61     CG2R61      HGR61
   48    47    46	5 ;     CG2R61     CG2R61     CG2R61
   48    47    93	5 ;     CG2R61     CG2R61      HGR61
   46    47    93	5 ;     CG2R61     CG2R61      HGR61
   43    48    47	5 ;     CG2R61     CG2R61     CG2R61
   43    48    94	5 ;     CG2R61     CG2R61      HGR61
   47    48    94	5 ;     CG2R61     CG2R61      HGR61
   45    49    50	5 ;     CG2R61      OG301      CG331
   49    50    95	5 ;      OG301      CG331       HGA3
   49    50    96	5 ;      OG301      CG331       HGA3
   49    50    97	5 ;      OG301      CG331       HGA3
   95    50    96	5 ;       HGA3      CG331       HGA3
   95    50    97	5 ;       HGA3      CG331       HGA3
   96    50    97	5 ;       HGA3      CG331       HGA3
   52    51    37	5 ;       HGP1      OG311      CG311

[ dihedrals ]
;	ai	  aj	ak	  al funct			  c0			c1			  c2			c3			  c4			c5
    2     1     5     6	 9 ;      OG2D1      CG2O1      CG311      CG321
    2     1     5    17	 9 ;      OG2D1      CG2O1      CG311      NG2S1
    2     1     5    53	 9 ;      OG2D1      CG2O1      CG311       HGA1
    3     1     5     6	 9 ;      NG2S1      CG2O1      CG311      CG321
    3     1     5    17	 9 ;      NG2S1      CG2O1      CG311      NG2S1
    3     1     5    53	 9 ;      NG2S1      CG2O1      CG311       HGA1
    5     1     3     4	 9 ;      CG311      CG2O1      NG2S1       HGP1
    5     1     3    29	 9 ;      CG311      CG2O1      NG2S1      CG311
    2     1     3     4	 9 ;      OG2D1      CG2O1      NG2S1       HGP1
    2     1     3    29	 9 ;      OG2D1      CG2O1      NG2S1      CG311
    1     3    29    37	 9 ;      CG2O1      NG2S1      CG311      CG311
    1     3    29    30	 9 ;      CG2O1      NG2S1      CG311      CG321
    1     3    29    78	 9 ;      CG2O1      NG2S1      CG311       HGA1
    4     3    29    37	 9 ;       HGP1      NG2S1      CG311      CG311
    4     3    29    30	 9 ;       HGP1      NG2S1      CG311      CG321
    4     3    29    78	 9 ;       HGP1      NG2S1      CG311       HGA1
    1     5     6     7	 9 ;      CG2O1      CG311      CG321      SG3O2
    1     5     6    54	 9 ;      CG2O1      CG311      CG321       HGA2
    1     5     6    55	 9 ;      CG2O1      CG311      CG321       HGA2
   17     5     6     7	 9 ;      NG2S1      CG311      CG321      SG3O2
   17     5     6    54	 9 ;      NG2S1      CG311      CG321       HGA2
   17     5     6    55	 9 ;      NG2S1      CG311      CG321       HGA2
   53     5     6     7	 9 ;       HGA1      CG311      CG321      SG3O2
   53     5     6    54	 9 ;       HGA1      CG311      CG321       HGA2
   53     5     6    55	 9 ;       HGA1      CG311      CG321       HGA2
    6     5    17    18	 9 ;      CG321      CG311      NG2S1      CG2O6
    6     5    17    20	 9 ;      CG321      CG311      NG2S1       HGP1
    1     5    17    18	 9 ;      CG2O1      CG311      NG2S1      CG2O6
    1     5    17    20	 9 ;      CG2O1      CG311      NG2S1       HGP1
   53     5    17    18	 9 ;       HGA1      CG311      NG2S1      CG2O6
   53     5    17    20	 9 ;       HGA1      CG311      NG2S1       HGP1
    5     6     7    10	 9 ;      CG311      CG321      SG3O2      CG311
    5     6     7     9	 9 ;      CG311      CG321      SG3O2      OG2P1
    5     6     7     8	 9 ;      CG311      CG321      SG3O2      OG2P1
   54     6     7    10	 9 ;       HGA2      CG321      SG3O2      CG311
   54     6     7     9	 9 ;       HGA2      CG321      SG3O2      OG2P1
   54     6     7     8	 9 ;       HGA2      CG321      SG3O2      OG2P1
   55     6     7    10	 9 ;       HGA2      CG321      SG3O2      CG311
   55     6     7     9	 9 ;       HGA2      CG321      SG3O2      OG2P1
   55     6     7     8	 9 ;       HGA2      CG321      SG3O2      OG2P1
    9     7    10    14	 9 ;      OG2P1      SG3O2      CG311      CG321
    9     7    10    11	 9 ;      OG2P1      SG3O2      CG311      CG321
    9     7    10    56	 9 ;      OG2P1      SG3O2      CG311       HGA1
    8     7    10    14	 9 ;      OG2P1      SG3O2      CG311      CG321
    8     7    10    11	 9 ;      OG2P1      SG3O2      CG311      CG321
    8     7    10    56	 9 ;      OG2P1      SG3O2      CG311       HGA1
    6     7    10    14	 9 ;      CG321      SG3O2      CG311      CG321
    6     7    10    11	 9 ;      CG321      SG3O2      CG311      CG321
    6     7    10    56	 9 ;      CG321      SG3O2      CG311       HGA1
   11    10    14    15	 9 ;      CG321      CG311      CG321      CG321
   11    10    14    64	 9 ;      CG321      CG311      CG321       HGA2
   11    10    14    65	 9 ;      CG321      CG311      CG321       HGA2
    7    10    14    15	 9 ;      SG3O2      CG311      CG321      CG321
    7    10    14    64	 9 ;      SG3O2      CG311      CG321       HGA2
    7    10    14    65	 9 ;      SG3O2      CG311      CG321       HGA2
   56    10    14    15	 9 ;       HGA1      CG311      CG321      CG321
   56    10    14    64	 9 ;       HGA1      CG311      CG321       HGA2
   56    10    14    65	 9 ;       HGA1      CG311      CG321       HGA2
   14    10    11    12	 9 ;      CG321      CG311      CG321      CG321
   14    10    11    57	 9 ;      CG321      CG311      CG321       HGA2
   14    10    11    58	 9 ;      CG321      CG311      CG321       HGA2
    7    10    11    12	 9 ;      SG3O2      CG311      CG321      CG321
    7    10    11    57	 9 ;      SG3O2      CG311      CG321       HGA2
    7    10    11    58	 9 ;      SG3O2      CG311      CG321       HGA2
   56    10    11    12	 9 ;       HGA1      CG311      CG321      CG321
   56    10    11    57	 9 ;       HGA1      CG311      CG321       HGA2
   56    10    11    58	 9 ;       HGA1      CG311      CG321       HGA2
   10    11    12    13	 9 ;      CG311      CG321      CG321      CG331
   10    11    12    59	 9 ;      CG311      CG321      CG321       HGA2
   10    11    12    60	 9 ;      CG311      CG321      CG321       HGA2
   57    11    12    13	 9 ;       HGA2      CG321      CG321      CG331
   57    11    12    59	 9 ;       HGA2      CG321      CG321       HGA2
   57    11    12    60	 9 ;       HGA2      CG321      CG321       HGA2
   58    11    12    13	 9 ;       HGA2      CG321      CG321      CG331
   58    11    12    59	 9 ;       HGA2      CG321      CG321       HGA2
   58    11    12    60	 9 ;       HGA2      CG321      CG321       HGA2
   11    12    13    61	 9 ;      CG321      CG321      CG331       HGA3
   11    12    13    62	 9 ;      CG321      CG321      CG331       HGA3
   11    12    13    63	 9 ;      CG321      CG321      CG331       HGA3
   59    12    13    61	 9 ;       HGA2      CG321      CG331       HGA3
   59    12    13    62	 9 ;       HGA2      CG321      CG331       HGA3
   59    12    13    63	 9 ;       HGA2      CG321      CG331       HGA3
   60    12    13    61	 9 ;       HGA2      CG321      CG331       HGA3
   60    12    13    62	 9 ;       HGA2      CG321      CG331       HGA3
   60    12    13    63	 9 ;       HGA2      CG321      CG331       HGA3
   10    14    15    16	 9 ;      CG311      CG321      CG321      CG331
   10    14    15    66	 9 ;      CG311      CG321      CG321       HGA2
   10    14    15    67	 9 ;      CG311      CG321      CG321       HGA2
   64    14    15    16	 9 ;       HGA2      CG321      CG321      CG331
   64    14    15    66	 9 ;       HGA2      CG321      CG321       HGA2
   64    14    15    67	 9 ;       HGA2      CG321      CG321       HGA2
   65    14    15    16	 9 ;       HGA2      CG321      CG321      CG331
   65    14    15    66	 9 ;       HGA2      CG321      CG321       HGA2
   65    14    15    67	 9 ;       HGA2      CG321      CG321       HGA2
   14    15    16    68	 9 ;      CG321      CG321      CG331       HGA3
   14    15    16    69	 9 ;      CG321      CG321      CG331       HGA3
   14    15    16    70	 9 ;      CG321      CG321      CG331       HGA3
   66    15    16    68	 9 ;       HGA2      CG321      CG331       HGA3
   66    15    16    69	 9 ;       HGA2      CG321      CG331       HGA3
   66    15    16    70	 9 ;       HGA2      CG321      CG331       HGA3
   67    15    16    68	 9 ;       HGA2      CG321      CG331       HGA3
   67    15    16    69	 9 ;       HGA2      CG321      CG331       HGA3
   67    15    16    70	 9 ;       HGA2      CG321      CG331       HGA3
    5    17    18    19	 9 ;      CG311      NG2S1      CG2O6      OG2D1
    5    17    18    21	 9 ;      CG311      NG2S1      CG2O6      OG302
   20    17    18    19	 9 ;       HGP1      NG2S1      CG2O6      OG2D1
   20    17    18    21	 9 ;       HGP1      NG2S1      CG2O6      OG302
   19    18    21    22	 9 ;      OG2D1      CG2O6      OG302      CG321
   17    18    21    22	 9 ;      NG2S1      CG2O6      OG302      CG321
   18    21    22    23	 9 ;      CG2O6      OG302      CG321     CG2R61
   18    21    22    71	 9 ;      CG2O6      OG302      CG321       HGA2
   18    21    22    72	 9 ;      CG2O6      OG302      CG321       HGA2
   21    22    23    28	 9 ;      OG302      CG321     CG2R61     CG2R61
   21    22    23    24	 9 ;      OG302      CG321     CG2R61     CG2R61
   71    22    23    28	 9 ;       HGA2      CG321     CG2R61     CG2R61
   71    22    23    24	 9 ;       HGA2      CG321     CG2R61     CG2R61
   72    22    23    28	 9 ;       HGA2      CG321     CG2R61     CG2R61
   72    22    23    24	 9 ;       HGA2      CG321     CG2R61     CG2R61
   22    23    28    27	 9 ;      CG321     CG2R61     CG2R61     CG2R61
   22    23    28    77	 9 ;      CG321     CG2R61     CG2R61      HGR61
   24    23    28    27	 9 ;     CG2R61     CG2R61     CG2R61     CG2R61
   24    23    28    77	 9 ;     CG2R61     CG2R61     CG2R61      HGR61
   28    23    24    25	 9 ;     CG2R61     CG2R61     CG2R61     CG2R61
   28    23    24    73	 9 ;     CG2R61     CG2R61     CG2R61      HGR61
   22    23    24    25	 9 ;      CG321     CG2R61     CG2R61     CG2R61
   22    23    24    73	 9 ;      CG321     CG2R61     CG2R61      HGR61
   23    24    25    26	 9 ;     CG2R61     CG2R61     CG2R61     CG2R61
   23    24    25    74	 9 ;     CG2R61     CG2R61     CG2R61      HGR61
   73    24    25    26	 9 ;      HGR61     CG2R61     CG2R61     CG2R61
   73    24    25    74	 9 ;      HGR61     CG2R61     CG2R61      HGR61
   24    25    26    27	 9 ;     CG2R61     CG2R61     CG2R61     CG2R61
   24    25    26    75	 9 ;     CG2R61     CG2R61     CG2R61      HGR61
   74    25    26    27	 9 ;      HGR61     CG2R61     CG2R61     CG2R61
   74    25    26    75	 9 ;      HGR61     CG2R61     CG2R61      HGR61
   25    26    27    28	 9 ;     CG2R61     CG2R61     CG2R61     CG2R61
   25    26    27    76	 9 ;     CG2R61     CG2R61     CG2R61      HGR61
   75    26    27    28	 9 ;      HGR61     CG2R61     CG2R61     CG2R61
   75    26    27    76	 9 ;      HGR61     CG2R61     CG2R61      HGR61
   26    27    28    23	 9 ;     CG2R61     CG2R61     CG2R61     CG2R61
   26    27    28    77	 9 ;     CG2R61     CG2R61     CG2R61      HGR61
   76    27    28    23	 9 ;      HGR61     CG2R61     CG2R61     CG2R61
   76    27    28    77	 9 ;      HGR61     CG2R61     CG2R61      HGR61
    3    29    37    51	 9 ;      NG2S1      CG311      CG311      OG311
    3    29    37    38	 9 ;      NG2S1      CG311      CG311      CG324
    3    29    37    86	 9 ;      NG2S1      CG311      CG311       HGA1
   30    29    37    51	 9 ;      CG321      CG311      CG311      OG311
   30    29    37    38	 9 ;      CG321      CG311      CG311      CG324
   30    29    37    86	 9 ;      CG321      CG311      CG311       HGA1
   78    29    37    51	 9 ;       HGA1      CG311      CG311      OG311
   78    29    37    38	 9 ;       HGA1      CG311      CG311      CG324
   78    29    37    86	 9 ;       HGA1      CG311      CG311       HGA1
    3    29    30    31	 9 ;      NG2S1      CG311      CG321     CG2R61
    3    29    30    79	 9 ;      NG2S1      CG311      CG321       HGA2
    3    29    30    80	 9 ;      NG2S1      CG311      CG321       HGA2
   37    29    30    31	 9 ;      CG311      CG311      CG321     CG2R61
   37    29    30    79	 9 ;      CG311      CG311      CG321       HGA2
   37    29    30    80	 9 ;      CG311      CG311      CG321       HGA2
   78    29    30    31	 9 ;       HGA1      CG311      CG321     CG2R61
   78    29    30    79	 9 ;       HGA1      CG311      CG321       HGA2
   78    29    30    80	 9 ;       HGA1      CG311      CG321       HGA2
   29    30    31    36	 9 ;      CG311      CG321     CG2R61     CG2R61
   29    30    31    32	 9 ;      CG311      CG321     CG2R61     CG2R61
   79    30    31    36	 9 ;       HGA2      CG321     CG2R61     CG2R61
   79    30    31    32	 9 ;       HGA2      CG321     CG2R61     CG2R61
   80    30    31    36	 9 ;       HGA2      CG321     CG2R61     CG2R61
   80    30    31    32	 9 ;       HGA2      CG321     CG2R61     CG2R61
   30    31    36    35	 9 ;      CG321     CG2R61     CG2R61     CG2R61
   30    31    36    85	 9 ;      CG321     CG2R61     CG2R61      HGR61
   32    31    36    35	 9 ;     CG2R61     CG2R61     CG2R61     CG2R61
   32    31    36    85	 9 ;     CG2R61     CG2R61     CG2R61      HGR61
   36    31    32    33	 9 ;     CG2R61     CG2R61     CG2R61     CG2R61
   36    31    32    81	 9 ;     CG2R61     CG2R61     CG2R61      HGR61
   30    31    32    33	 9 ;      CG321     CG2R61     CG2R61     CG2R61
   30    31    32    81	 9 ;      CG321     CG2R61     CG2R61      HGR61
   31    32    33    34	 9 ;     CG2R61     CG2R61     CG2R61     CG2R61
   31    32    33    82	 9 ;     CG2R61     CG2R61     CG2R61      HGR61
   81    32    33    34	 9 ;      HGR61     CG2R61     CG2R61     CG2R61
   81    32    33    82	 9 ;      HGR61     CG2R61     CG2R61      HGR61
   32    33    34    35	 9 ;     CG2R61     CG2R61     CG2R61     CG2R61
   32    33    34    83	 9 ;     CG2R61     CG2R61     CG2R61      HGR61
   82    33    34    35	 9 ;      HGR61     CG2R61     CG2R61     CG2R61
   82    33    34    83	 9 ;      HGR61     CG2R61     CG2R61      HGR61
   33    34    35    36	 9 ;     CG2R61     CG2R61     CG2R61     CG2R61
   33    34    35    84	 9 ;     CG2R61     CG2R61     CG2R61      HGR61
   83    34    35    36	 9 ;      HGR61     CG2R61     CG2R61     CG2R61
   83    34    35    84	 9 ;      HGR61     CG2R61     CG2R61      HGR61
   34    35    36    31	 9 ;     CG2R61     CG2R61     CG2R61     CG2R61
   34    35    36    85	 9 ;     CG2R61     CG2R61     CG2R61      HGR61
   84    35    36    31	 9 ;      HGR61     CG2R61     CG2R61     CG2R61
   84    35    36    85	 9 ;      HGR61     CG2R61     CG2R61      HGR61
   29    37    51    52	 9 ;      CG311      CG311      OG311       HGP1
   38    37    51    52	 9 ;      CG324      CG311      OG311       HGP1
   86    37    51    52	 9 ;       HGA1      CG311      OG311       HGP1
   29    37    38    39	 9 ;      CG311      CG311      CG324      NG3P2
   29    37    38    87	 9 ;      CG311      CG311      CG324       HGA2
   29    37    38    88	 9 ;      CG311      CG311      CG324       HGA2
   51    37    38    39	 9 ;      OG311      CG311      CG324      NG3P2
   51    37    38    87	 9 ;      OG311      CG311      CG324       HGA2
   51    37    38    88	 9 ;      OG311      CG311      CG324       HGA2
   86    37    38    39	 9 ;       HGA1      CG311      CG324      NG3P2
   86    37    38    87	 9 ;       HGA1      CG311      CG324       HGA2
   86    37    38    88	 9 ;       HGA1      CG311      CG324       HGA2
   37    38    39    40	 9 ;      CG311      CG324      NG3P2       HGP2
   37    38    39    41	 9 ;      CG311      CG324      NG3P2       HGP2
   37    38    39    42	 9 ;      CG311      CG324      NG3P2      CG324
   87    38    39    40	 9 ;       HGA2      CG324      NG3P2       HGP2
   87    38    39    41	 9 ;       HGA2      CG324      NG3P2       HGP2
   87    38    39    42	 9 ;       HGA2      CG324      NG3P2      CG324
   88    38    39    40	 9 ;       HGA2      CG324      NG3P2       HGP2
   88    38    39    41	 9 ;       HGA2      CG324      NG3P2       HGP2
   88    38    39    42	 9 ;       HGA2      CG324      NG3P2      CG324
   40    39    42    43	 9 ;       HGP2      NG3P2      CG324     CG2R61
   40    39    42    89	 9 ;       HGP2      NG3P2      CG324       HGA2
   40    39    42    90	 9 ;       HGP2      NG3P2      CG324       HGA2
   41    39    42    43	 9 ;       HGP2      NG3P2      CG324     CG2R61
   41    39    42    89	 9 ;       HGP2      NG3P2      CG324       HGA2
   41    39    42    90	 9 ;       HGP2      NG3P2      CG324       HGA2
   38    39    42    43	 9 ;      CG324      NG3P2      CG324     CG2R61
   38    39    42    89	 9 ;      CG324      NG3P2      CG324       HGA2
   38    39    42    90	 9 ;      CG324      NG3P2      CG324       HGA2
   39    42    43    48	 9 ;      NG3P2      CG324     CG2R61     CG2R61
   39    42    43    44	 9 ;      NG3P2      CG324     CG2R61     CG2R61
   89    42    43    48	 9 ;       HGA2      CG324     CG2R61     CG2R61
   89    42    43    44	 9 ;       HGA2      CG324     CG2R61     CG2R61
   90    42    43    48	 9 ;       HGA2      CG324     CG2R61     CG2R61
   90    42    43    44	 9 ;       HGA2      CG324     CG2R61     CG2R61
   42    43    48    47	 9 ;      CG324     CG2R61     CG2R61     CG2R61
   42    43    48    94	 9 ;      CG324     CG2R61     CG2R61      HGR61
   44    43    48    47	 9 ;     CG2R61     CG2R61     CG2R61     CG2R61
   44    43    48    94	 9 ;     CG2R61     CG2R61     CG2R61      HGR61
   42    43    44    45	 9 ;      CG324     CG2R61     CG2R61     CG2R61
   42    43    44    91	 9 ;      CG324     CG2R61     CG2R61      HGR61
   48    43    44    45	 9 ;     CG2R61     CG2R61     CG2R61     CG2R61
   48    43    44    91	 9 ;     CG2R61     CG2R61     CG2R61      HGR61
   43    44    45    46	 9 ;     CG2R61     CG2R61     CG2R61     CG2R61
   43    44    45    49	 9 ;     CG2R61     CG2R61     CG2R61      OG301
   91    44    45    46	 9 ;      HGR61     CG2R61     CG2R61     CG2R61
   91    44    45    49	 9 ;      HGR61     CG2R61     CG2R61      OG301
   44    45    46    47	 9 ;     CG2R61     CG2R61     CG2R61     CG2R61
   44    45    46    92	 9 ;     CG2R61     CG2R61     CG2R61      HGR61
   49    45    46    47	 9 ;      OG301     CG2R61     CG2R61     CG2R61
   49    45    46    92	 9 ;      OG301     CG2R61     CG2R61      HGR61
   44    45    49    50	 9 ;     CG2R61     CG2R61      OG301      CG331
   46    45    49    50	 9 ;     CG2R61     CG2R61      OG301      CG331
   45    46    47    48	 9 ;     CG2R61     CG2R61     CG2R61     CG2R61
   45    46    47    93	 9 ;     CG2R61     CG2R61     CG2R61      HGR61
   92    46    47    48	 9 ;      HGR61     CG2R61     CG2R61     CG2R61
   92    46    47    93	 9 ;      HGR61     CG2R61     CG2R61      HGR61
   46    47    48    43	 9 ;     CG2R61     CG2R61     CG2R61     CG2R61
   46    47    48    94	 9 ;     CG2R61     CG2R61     CG2R61      HGR61
   93    47    48    43	 9 ;      HGR61     CG2R61     CG2R61     CG2R61
   93    47    48    94	 9 ;      HGR61     CG2R61     CG2R61      HGR61
   45    49    50    95	 9 ;     CG2R61      OG301      CG331       HGA3
   45    49    50    96	 9 ;     CG2R61      OG301      CG331       HGA3
   45    49    50    97	 9 ;     CG2R61      OG301      CG331       HGA3

[ dihedrals ]
;	ai	  aj	ak	  al funct			  c0			c1			  c2			c3
    1     5     3     2	 2
   18    17    19    21	 2

