Good ROcking Metal Altar for Chronical Sinners
   94
    1LIG     C1    1  -1.297   0.746  -1.855
    1LIG     C2    2  -1.152   0.778  -1.899
    1LIG     C3    3  -1.043   0.788  -1.793
    1LIG     C4    4  -0.936   0.877  -1.815
    1LIG     C5    5  -0.837   0.897  -1.719
    1LIG     C6    6  -0.845   0.830  -1.597
    1LIG     C7    7  -0.950   0.742  -1.574
    1LIG     C8    8  -1.049   0.721  -1.671
    1LIG     C9    9  -1.384   0.877  -1.856
    1LIG    C10   10  -1.432   0.935  -1.720
    1LIG     N1   11  -1.441   0.827  -1.617
    1LIG     H1   12  -1.392   0.743  -1.650
    1LIG     H2   13  -1.381   0.860  -1.538
    1LIG    C11   14  -1.579   0.790  -1.560
    1LIG    C12   15  -1.667   0.913  -1.581
    1LIG    C13   16  -1.645   0.669  -1.630
    1LIG     O1   17  -1.625   0.646  -1.749
    1LIG     N2   18  -1.731   0.594  -1.551
    1LIG     H3   19  -1.727   0.599  -1.450
    1LIG    C14   20  -1.818   0.490  -1.607
    1LIG    C15   21  -1.955   0.487  -1.538
    1LIG    C16   22  -2.046   0.382  -1.601
    1LIG    C17   23  -1.982   0.243  -1.599
    1LIG    C18   24  -1.843   0.245  -1.661
    1LIG    C19   25  -1.753   0.351  -1.599
    1LIG     O2   26  -1.313   0.983  -1.922
    1LIG     H4   27  -1.258   0.944  -1.993
    1LIG     N3   28  -1.353   0.641  -1.941
    1LIG    C20   29  -1.361   0.505  -1.929
    1LIG     O3   30  -1.457   0.454  -1.987
    1LIG     H5   31  -1.400   0.671  -2.026
    1LIG    C21   32  -1.266   0.418  -1.854
    1LIG    C22   33  -1.293   0.358  -1.730
    1LIG    C23   34  -1.188   0.302  -1.656
    1LIG    C24   35  -1.058   0.297  -1.710
    1LIG    C25   36  -1.027   0.362  -1.829
    1LIG    C26   37  -1.133   0.422  -1.899
    1LIG     N4   38  -1.207   0.268  -1.516
    1LIG      S   39  -1.301   0.364  -1.415
    1LIG     O4   40  -1.297   0.308  -1.281
    1LIG     O5   41  -1.428   0.392  -1.479
    1LIG    C27   42  -1.206   0.516  -1.413
    1LIG    C28   43  -1.160   0.140  -1.470
    1LIG    C29   44  -1.049   0.130  -1.384
    1LIG    C30   45  -1.009   0.007  -1.333
    1LIG    C31   46  -1.076  -0.109  -1.372
    1LIG    C32   47  -1.183  -0.101  -1.461
    1LIG    C33   48  -1.225   0.023  -1.510
    1LIG     N5   49  -0.897   0.385  -1.871
    1LIG     H6   50  -0.825   0.332  -1.821
    1LIG    C34   51  -0.849   0.511  -1.924
    1LIG    C35   52  -0.731   0.560  -1.842
    1LIG     HC   53  -1.294   0.708  -1.753
    1LIG    HC2   54  -1.121   0.699  -1.968
    1LIG    HC3   55  -1.154   0.872  -1.954
    1LIG    HC1   56  -0.930   0.930  -1.909
    1LIG    HC4   57  -0.756   0.965  -1.738
    1LIG    HC5   58  -0.769   0.845  -1.522
    1LIG    HC6   59  -0.955   0.689  -1.480
    1LIG    HC7   60  -1.130   0.653  -1.650
    1LIG    HC8   61  -1.473   0.856  -1.916
    1LIG    HC9   62  -1.362   1.011  -1.687
    1LIG   HC10   63  -1.531   0.980  -1.733
    1LIG   HC11   64  -1.569   0.770  -1.454
    1LIG   HC12   65  -1.759   0.902  -1.525
    1LIG   HC13   66  -1.614   1.002  -1.547
    1LIG   HC14   67  -1.690   0.924  -1.687
    1LIG   HC15   68  -1.834   0.513  -1.713
    1LIG   HC16   69  -2.002   0.585  -1.548
    1LIG   HC17   70  -1.942   0.465  -1.433
    1LIG   HC18   71  -2.140   0.378  -1.545
    1LIG   HC19   72  -2.068   0.410  -1.704
    1LIG   HC20   73  -2.045   0.174  -1.655
    1LIG   HC21   74  -1.974   0.209  -1.496
    1LIG   HC22   75  -1.797   0.147  -1.647
    1LIG   HC23   76  -1.852   0.264  -1.768
    1LIG   HC24   77  -1.658   0.353  -1.653
    1LIG   HC25   78  -1.735   0.326  -1.495
    1LIG   HC26   79  -1.394   0.354  -1.692
    1LIG   HC27   80  -0.981   0.242  -1.658
    1LIG   HC28   81  -1.111   0.472  -1.992
    1LIG   HC29   82  -1.185   0.545  -1.310
    1LIG   HC30   83  -1.112   0.502  -1.467
    1LIG   HC31   84  -1.264   0.595  -1.461
    1LIG   HC32   85  -0.994   0.220  -1.357
    1LIG   HC33   86  -0.926   0.001  -1.264
    1LIG   HC34   87  -1.046  -0.205  -1.332
    1LIG   HC35   88  -1.233  -0.191  -1.493
    1LIG   HC36   89  -1.308   0.029  -1.579
    1LIG   HC37   90  -0.817   0.498  -2.027
    1LIG   HC38   91  -0.929   0.585  -1.920
    1LIG   HC39   92  -0.695   0.655  -1.882
    1LIG   HC40   93  -0.762   0.574  -1.738
    1LIG   HC41   94  -0.650   0.486  -1.846
   0.00000   0.00000   0.00000
