; Created by cgenff_charmm2gmx.py

[ moleculetype ]
; Name			   nrexcl
LIG				 3

[ atoms ]
;	 nr		  type	resnr residue  atom   cgnr	   charge		mass  typeB    chargeB		massB
; residue	 1 LIG rtp LIG q	qsum
     1      CG311      1    LIG     C1      1      0.010     12.011   ;
     2      CG321      1    LIG     C2      2     -0.111     12.011   ;
     3     CG2R61      1    LIG     C3      3     -0.019     12.011   ;
     4     CG2R61      1    LIG     C4      4     -0.123     12.011   ;
     5     CG2R61      1    LIG     C5      5     -0.112     12.011   ;
     6     CG2R61      1    LIG     C6      6     -0.116     12.011   ;
     7     CG2R61      1    LIG     C7      7     -0.112     12.011   ;
     8     CG2R61      1    LIG     C8      8     -0.123     12.011   ;
     9      CG311      1    LIG     C9      9      0.089     12.011   ;
    10      CG324      1    LIG    C10     10      0.198     12.011   ;
    11      NG3P2      1    LIG     N1     11     -0.406     14.007   ;
    12       HGP2      1    LIG     H1     12      0.329      1.008   ;
    13       HGP2      1    LIG     H2     13      0.329      1.008   ;
    14      CG314      1    LIG    C11     14      0.189     12.011   ;
    15      CG331      1    LIG    C12     15     -0.216     12.011   ;
    16      CG2O1      1    LIG    C13     16      0.385     12.011   ;
    17      OG2D1      1    LIG     O1     17     -0.443     15.999   ;
    18      NG2S1      1    LIG     N2     18     -0.285     14.007   ;
    19       HGP1      1    LIG     H3     19      0.319      1.008   ;
    20      CG311      1    LIG    C14     20     -0.146     12.011   ;
    21      CG321      1    LIG    C15     21     -0.115     12.011   ;
    22      CG321      1    LIG    C16     22     -0.198     12.011   ;
    23      CG321      1    LIG    C17     23     -0.154     12.011   ;
    24      CG321      1    LIG    C18     24     -0.198     12.011   ;
    25      CG321      1    LIG    C19     25     -0.115     12.011   ;
    26      OG311      1    LIG     O2     26     -0.625     15.999   ;
    27       HGP1      1    LIG     H4     27      0.415      1.008   ;
    28      NG2S1      1    LIG     N3     28     -0.226     14.007   ;
    29      CG2O1      1    LIG    C20     29      0.302     12.011   ;
    30      OG2D1      1    LIG     O3     30     -0.463     15.999   ;
    31       HGP1      1    LIG     H5     31      0.262      1.008   ;
    32     CG2R61      1    LIG    C21     32     -0.100     12.011   ;
    33     CG2R61      1    LIG    C22     33     -0.067     12.011   ;
    34     CG2R61      1    LIG    C23     34      0.154     12.011   ;
    35     CG2R61      1    LIG    C24     35     -0.135     12.011   ;
    36     CG2R61      1    LIG    C25     36      0.071     12.011   ;
    37     CG2R61      1    LIG    C26     37     -0.072     12.011   ;
    38      NG301      1    LIG     N4     38     -0.231     14.007   ;
    39      SG3O2      1    LIG      S     39      0.466     32.060   ;
    40      OG2P1      1    LIG     O4     40     -0.412     15.999   ;
    41      OG2P1      1    LIG     O5     41     -0.412     15.999   ;
    42      CG331      1    LIG    C27     42      0.033     12.011   ;
    43     CG2R61      1    LIG    C28     43      0.149     12.011   ;
    44     CG2R61      1    LIG    C29     44     -0.123     12.011   ;
    45     CG2R61      1    LIG    C30     45     -0.112     12.011   ;
    46     CG2R61      1    LIG    C31     46     -0.116     12.011   ;
    47     CG2R61      1    LIG    C32     47     -0.112     12.011   ;
    48     CG2R61      1    LIG    C33     48     -0.123     12.011   ;
    49      NG311      1    LIG     N5     49     -0.508     14.007   ;
    50     HGPAM1      1    LIG     H6     50      0.367      1.008   ;
    51      CG321      1    LIG    C34     51     -0.120     12.011   ;
    52      CG331      1    LIG    C35     52     -0.236     12.011   ;
    53       HGA1      1    LIG     HC     53      0.090      1.008   ;
    54       HGA2      1    LIG    HC2     54      0.090      1.008   ;
    55       HGA2      1    LIG    HC3     55      0.090      1.008   ;
    56      HGR61      1    LIG    HC1     56      0.116      1.008   ;
    57      HGR61      1    LIG    HC4     57      0.116      1.008   ;
    58      HGR61      1    LIG    HC5     58      0.116      1.008   ;
    59      HGR61      1    LIG    HC6     59      0.116      1.008   ;
    60      HGR61      1    LIG    HC7     60      0.116      1.008   ;
    61       HGA1      1    LIG    HC8     61      0.090      1.008   ;
    62       HGA2      1    LIG    HC9     62      0.090      1.008   ;
    63       HGA2      1    LIG   HC10     63      0.090      1.008   ;
    64       HGA1      1    LIG   HC11     64      0.090      1.008   ;
    65       HGA3      1    LIG   HC12     65      0.090      1.008   ;
    66       HGA3      1    LIG   HC13     66      0.090      1.008   ;
    67       HGA3      1    LIG   HC14     67      0.090      1.008   ;
    68       HGA1      1    LIG   HC15     68      0.090      1.008   ;
    69       HGA2      1    LIG   HC16     69      0.090      1.008   ;
    70       HGA2      1    LIG   HC17     70      0.090      1.008   ;
    71       HGA2      1    LIG   HC18     71      0.090      1.008   ;
    72       HGA2      1    LIG   HC19     72      0.090      1.008   ;
    73       HGA2      1    LIG   HC20     73      0.090      1.008   ;
    74       HGA2      1    LIG   HC21     74      0.090      1.008   ;
    75       HGA2      1    LIG   HC22     75      0.090      1.008   ;
    76       HGA2      1    LIG   HC23     76      0.090      1.008   ;
    77       HGA2      1    LIG   HC24     77      0.090      1.008   ;
    78       HGA2      1    LIG   HC25     78      0.090      1.008   ;
    79      HGR61      1    LIG   HC26     79      0.116      1.008   ;
    80      HGR61      1    LIG   HC27     80      0.116      1.008   ;
    81      HGR61      1    LIG   HC28     81      0.116      1.008   ;
    82       HGA3      1    LIG   HC29     82      0.090      1.008   ;
    83       HGA3      1    LIG   HC30     83      0.090      1.008   ;
    84       HGA3      1    LIG   HC31     84      0.090      1.008   ;
    85      HGR61      1    LIG   HC32     85      0.116      1.008   ;
    86      HGR61      1    LIG   HC33     86      0.116      1.008   ;
    87      HGR61      1    LIG   HC34     87      0.116      1.008   ;
    88      HGR61      1    LIG   HC35     88      0.116      1.008   ;
    89      HGR61      1    LIG   HC36     89      0.116      1.008   ;
    90       HGA2      1    LIG   HC37     90      0.090      1.008   ;
    91       HGA2      1    LIG   HC38     91      0.090      1.008   ;
    92       HGA3      1    LIG   HC39     92      0.090      1.008   ;
    93       HGA3      1    LIG   HC40     93      0.090      1.008   ;
    94       HGA3      1    LIG   HC41     94      0.090      1.008   ;

[ bonds ]
;	ai	  aj funct			  c0			c1			  c2			c3
    1     9	 1 ;       CG311      CG311
    1    28	 1 ;       CG311      NG2S1
    1     2	 1 ;       CG311      CG321
    1    53	 1 ;       CG311       HGA1
    2     3	 1 ;       CG321     CG2R61
    2    54	 1 ;       CG321       HGA2
    2    55	 1 ;       CG321       HGA2
    3     8	 1 ;      CG2R61     CG2R61
    3     4	 1 ;      CG2R61     CG2R61
    4     5	 1 ;      CG2R61     CG2R61
    4    56	 1 ;      CG2R61      HGR61
    5     6	 1 ;      CG2R61     CG2R61
    5    57	 1 ;      CG2R61      HGR61
    6     7	 1 ;      CG2R61     CG2R61
    6    58	 1 ;      CG2R61      HGR61
    7     8	 1 ;      CG2R61     CG2R61
    7    59	 1 ;      CG2R61      HGR61
    8    60	 1 ;      CG2R61      HGR61
    9    10	 1 ;       CG311      CG324
    9    26	 1 ;       CG311      OG311
    9    61	 1 ;       CG311       HGA1
   10    11	 1 ;       CG324      NG3P2
   10    62	 1 ;       CG324       HGA2
   10    63	 1 ;       CG324       HGA2
   11    14	 1 ;       NG3P2      CG314
   11    12	 1 ;       NG3P2       HGP2
   11    13	 1 ;       NG3P2       HGP2
   14    15	 1 ;       CG314      CG331
   14    16	 1 ;       CG314      CG2O1
   14    64	 1 ;       CG314       HGA1
   15    65	 1 ;       CG331       HGA3
   15    66	 1 ;       CG331       HGA3
   15    67	 1 ;       CG331       HGA3
   16    18	 1 ;       CG2O1      NG2S1
   16    17	 1 ;       CG2O1      OG2D1
   18    19	 1 ;       NG2S1       HGP1
   18    20	 1 ;       NG2S1      CG311
   20    21	 1 ;       CG311      CG321
   20    25	 1 ;       CG311      CG321
   20    68	 1 ;       CG311       HGA1
   21    22	 1 ;       CG321      CG321
   21    69	 1 ;       CG321       HGA2
   21    70	 1 ;       CG321       HGA2
   22    23	 1 ;       CG321      CG321
   22    71	 1 ;       CG321       HGA2
   22    72	 1 ;       CG321       HGA2
   23    24	 1 ;       CG321      CG321
   23    73	 1 ;       CG321       HGA2
   23    74	 1 ;       CG321       HGA2
   24    25	 1 ;       CG321      CG321
   24    75	 1 ;       CG321       HGA2
   24    76	 1 ;       CG321       HGA2
   25    77	 1 ;       CG321       HGA2
   25    78	 1 ;       CG321       HGA2
   26    27	 1 ;       OG311       HGP1
   28    29	 1 ;       NG2S1      CG2O1
   28    31	 1 ;       NG2S1       HGP1
   29    30	 1 ;       CG2O1      OG2D1
   29    32	 1 ;       CG2O1     CG2R61
   32    33	 1 ;      CG2R61     CG2R61
   32    37	 1 ;      CG2R61     CG2R61
   33    34	 1 ;      CG2R61     CG2R61
   33    79	 1 ;      CG2R61      HGR61
   34    38	 1 ;      CG2R61      NG301
   34    35	 1 ;      CG2R61     CG2R61
   35    36	 1 ;      CG2R61     CG2R61
   35    80	 1 ;      CG2R61      HGR61
   36    37	 1 ;      CG2R61     CG2R61
   36    49	 1 ;      CG2R61      NG311
   37    81	 1 ;      CG2R61      HGR61
   38    39	 1 ;       NG301      SG3O2
   38    43	 1 ;       NG301     CG2R61
   39    40	 1 ;       SG3O2      OG2P1
   39    41	 1 ;       SG3O2      OG2P1
   39    42	 1 ;       SG3O2      CG331
   42    82	 1 ;       CG331       HGA3
   42    83	 1 ;       CG331       HGA3
   42    84	 1 ;       CG331       HGA3
   43    48	 1 ;      CG2R61     CG2R61
   43    44	 1 ;      CG2R61     CG2R61
   44    45	 1 ;      CG2R61     CG2R61
   44    85	 1 ;      CG2R61      HGR61
   45    46	 1 ;      CG2R61     CG2R61
   45    86	 1 ;      CG2R61      HGR61
   46    47	 1 ;      CG2R61     CG2R61
   46    87	 1 ;      CG2R61      HGR61
   47    48	 1 ;      CG2R61     CG2R61
   47    88	 1 ;      CG2R61      HGR61
   48    89	 1 ;      CG2R61      HGR61
   49    50	 1 ;       NG311     HGPAM1
   49    51	 1 ;       NG311      CG321
   51    52	 1 ;       CG321      CG331
   51    90	 1 ;       CG321       HGA2
   51    91	 1 ;       CG321       HGA2
   52    92	 1 ;       CG331       HGA3
   52    93	 1 ;       CG331       HGA3
   52    94	 1 ;       CG331       HGA3

[ pairs ]
;	ai	  aj funct			  c0			c1			  c2			c3
    1     8	 1
    1     4	 1
    1    11	 1
    1    62	 1
    1    63	 1
    1    27	 1
    1    30	 1
    1    32	 1
    2    10	 1
    2    26	 1
    2    61	 1
    2    29	 1
    2    31	 1
    2     7	 1
    2    60	 1
    2     5	 1
    2    56	 1
    3     9	 1
    3    28	 1
    3    53	 1
    3     6	 1
    3    57	 1
    3    59	 1
    4    54	 1
    4    55	 1
    4     7	 1
    4    60	 1
    4    58	 1
    5     8	 1
    5    59	 1
    6    56	 1
    6    60	 1
    7    57	 1
    8    54	 1
    8    55	 1
    8    56	 1
    8    58	 1
    9    29	 1
    9    31	 1
    9    54	 1
    9    55	 1
    9    14	 1
    9    12	 1
    9    13	 1
   10    28	 1
   10    53	 1
   10    27	 1
   10    15	 1
   10    16	 1
   10    64	 1
   11    26	 1
   11    61	 1
   11    65	 1
   11    66	 1
   11    67	 1
   11    18	 1
   11    17	 1
   12    62	 1
   12    63	 1
   12    15	 1
   12    16	 1
   12    64	 1
   13    62	 1
   13    63	 1
   13    15	 1
   13    16	 1
   13    64	 1
   14    62	 1
   14    63	 1
   14    19	 1
   14    20	 1
   15    18	 1
   15    17	 1
   16    65	 1
   16    66	 1
   16    67	 1
   16    21	 1
   16    25	 1
   16    68	 1
   17    64	 1
   17    19	 1
   17    20	 1
   18    64	 1
   18    22	 1
   18    69	 1
   18    70	 1
   18    24	 1
   18    77	 1
   18    78	 1
   19    21	 1
   19    25	 1
   19    68	 1
   20    23	 1
   20    71	 1
   20    72	 1
   20    75	 1
   20    76	 1
   21    24	 1
   21    77	 1
   21    78	 1
   21    73	 1
   21    74	 1
   22    25	 1
   22    68	 1
   22    75	 1
   22    76	 1
   23    69	 1
   23    70	 1
   23    77	 1
   23    78	 1
   24    68	 1
   24    71	 1
   24    72	 1
   25    69	 1
   25    70	 1
   25    73	 1
   25    74	 1
   26    28	 1
   26    53	 1
   26    62	 1
   26    63	 1
   27    61	 1
   28    61	 1
   28    54	 1
   28    55	 1
   28    33	 1
   28    37	 1
   29    53	 1
   29    34	 1
   29    79	 1
   29    36	 1
   29    81	 1
   30    31	 1
   30    33	 1
   30    37	 1
   31    53	 1
   31    32	 1
   32    38	 1
   32    35	 1
   32    49	 1
   33    36	 1
   33    81	 1
   33    39	 1
   33    43	 1
   33    80	 1
   34    37	 1
   34    49	 1
   34    40	 1
   34    41	 1
   34    42	 1
   34    48	 1
   34    44	 1
   35    79	 1
   35    39	 1
   35    43	 1
   35    81	 1
   35    50	 1
   35    51	 1
   36    38	 1
   36    52	 1
   36    90	 1
   36    91	 1
   37    79	 1
   37    80	 1
   37    50	 1
   37    51	 1
   38    79	 1
   38    80	 1
   38    82	 1
   38    83	 1
   38    84	 1
   38    47	 1
   38    89	 1
   38    45	 1
   38    85	 1
   39    48	 1
   39    44	 1
   40    43	 1
   40    82	 1
   40    83	 1
   40    84	 1
   41    43	 1
   41    82	 1
   41    83	 1
   41    84	 1
   42    43	 1
   43    46	 1
   43    86	 1
   43    88	 1
   44    47	 1
   44    89	 1
   44    87	 1
   45    48	 1
   45    88	 1
   46    85	 1
   46    89	 1
   47    86	 1
   48    85	 1
   48    87	 1
   49    80	 1
   49    81	 1
   49    92	 1
   49    93	 1
   49    94	 1
   50    52	 1
   50    90	 1
   50    91	 1
   53    61	 1
   53    54	 1
   53    55	 1
   56    57	 1
   57    58	 1
   58    59	 1
   59    60	 1
   61    62	 1
   61    63	 1
   64    65	 1
   64    66	 1
   64    67	 1
   68    69	 1
   68    70	 1
   68    77	 1
   68    78	 1
   69    71	 1
   69    72	 1
   70    71	 1
   70    72	 1
   71    73	 1
   71    74	 1
   72    73	 1
   72    74	 1
   73    75	 1
   73    76	 1
   74    75	 1
   74    76	 1
   75    77	 1
   75    78	 1
   76    77	 1
   76    78	 1
   85    86	 1
   86    87	 1
   87    88	 1
   88    89	 1
   90    92	 1
   90    93	 1
   90    94	 1
   91    92	 1
   91    93	 1
   91    94	 1

[ angles ]
;	ai	  aj	ak funct			c0			  c1			c2			  c3
    9     1    28	5 ;      CG311      CG311      NG2S1
    9     1     2	5 ;      CG311      CG311      CG321
    9     1    53	5 ;      CG311      CG311       HGA1
   28     1     2	5 ;      NG2S1      CG311      CG321
   28     1    53	5 ;      NG2S1      CG311       HGA1
    2     1    53	5 ;      CG321      CG311       HGA1
    1     2     3	5 ;      CG311      CG321     CG2R61
    1     2    54	5 ;      CG311      CG321       HGA2
    1     2    55	5 ;      CG311      CG321       HGA2
    3     2    54	5 ;     CG2R61      CG321       HGA2
    3     2    55	5 ;     CG2R61      CG321       HGA2
   54     2    55	5 ;       HGA2      CG321       HGA2
    2     3     8	5 ;      CG321     CG2R61     CG2R61
    2     3     4	5 ;      CG321     CG2R61     CG2R61
    8     3     4	5 ;     CG2R61     CG2R61     CG2R61
    3     4     5	5 ;     CG2R61     CG2R61     CG2R61
    3     4    56	5 ;     CG2R61     CG2R61      HGR61
    5     4    56	5 ;     CG2R61     CG2R61      HGR61
    4     5     6	5 ;     CG2R61     CG2R61     CG2R61
    4     5    57	5 ;     CG2R61     CG2R61      HGR61
    6     5    57	5 ;     CG2R61     CG2R61      HGR61
    5     6     7	5 ;     CG2R61     CG2R61     CG2R61
    5     6    58	5 ;     CG2R61     CG2R61      HGR61
    7     6    58	5 ;     CG2R61     CG2R61      HGR61
    6     7     8	5 ;     CG2R61     CG2R61     CG2R61
    6     7    59	5 ;     CG2R61     CG2R61      HGR61
    8     7    59	5 ;     CG2R61     CG2R61      HGR61
    3     8     7	5 ;     CG2R61     CG2R61     CG2R61
    3     8    60	5 ;     CG2R61     CG2R61      HGR61
    7     8    60	5 ;     CG2R61     CG2R61      HGR61
    1     9    10	5 ;      CG311      CG311      CG324
    1     9    26	5 ;      CG311      CG311      OG311
    1     9    61	5 ;      CG311      CG311       HGA1
   10     9    26	5 ;      CG324      CG311      OG311
   10     9    61	5 ;      CG324      CG311       HGA1
   26     9    61	5 ;      OG311      CG311       HGA1
    9    10    11	5 ;      CG311      CG324      NG3P2
    9    10    62	5 ;      CG311      CG324       HGA2
    9    10    63	5 ;      CG311      CG324       HGA2
   11    10    62	5 ;      NG3P2      CG324       HGA2
   11    10    63	5 ;      NG3P2      CG324       HGA2
   62    10    63	5 ;       HGA2      CG324       HGA2
   10    11    14	5 ;      CG324      NG3P2      CG314
   10    11    12	5 ;      CG324      NG3P2       HGP2
   10    11    13	5 ;      CG324      NG3P2       HGP2
   14    11    12	5 ;      CG314      NG3P2       HGP2
   14    11    13	5 ;      CG314      NG3P2       HGP2
   12    11    13	5 ;       HGP2      NG3P2       HGP2
   11    14    15	5 ;      NG3P2      CG314      CG331
   11    14    16	5 ;      NG3P2      CG314      CG2O1
   11    14    64	5 ;      NG3P2      CG314       HGA1
   15    14    16	5 ;      CG331      CG314      CG2O1
   15    14    64	5 ;      CG331      CG314       HGA1
   16    14    64	5 ;      CG2O1      CG314       HGA1
   14    15    65	5 ;      CG314      CG331       HGA3
   14    15    66	5 ;      CG314      CG331       HGA3
   14    15    67	5 ;      CG314      CG331       HGA3
   65    15    66	5 ;       HGA3      CG331       HGA3
   65    15    67	5 ;       HGA3      CG331       HGA3
   66    15    67	5 ;       HGA3      CG331       HGA3
   14    16    18	5 ;      CG314      CG2O1      NG2S1
   14    16    17	5 ;      CG314      CG2O1      OG2D1
   18    16    17	5 ;      NG2S1      CG2O1      OG2D1
   16    18    19	5 ;      CG2O1      NG2S1       HGP1
   16    18    20	5 ;      CG2O1      NG2S1      CG311
   19    18    20	5 ;       HGP1      NG2S1      CG311
   18    20    21	5 ;      NG2S1      CG311      CG321
   18    20    25	5 ;      NG2S1      CG311      CG321
   18    20    68	5 ;      NG2S1      CG311       HGA1
   21    20    25	5 ;      CG321      CG311      CG321
   21    20    68	5 ;      CG321      CG311       HGA1
   25    20    68	5 ;      CG321      CG311       HGA1
   20    21    22	5 ;      CG311      CG321      CG321
   20    21    69	5 ;      CG311      CG321       HGA2
   20    21    70	5 ;      CG311      CG321       HGA2
   22    21    69	5 ;      CG321      CG321       HGA2
   22    21    70	5 ;      CG321      CG321       HGA2
   69    21    70	5 ;       HGA2      CG321       HGA2
   21    22    23	5 ;      CG321      CG321      CG321
   21    22    71	5 ;      CG321      CG321       HGA2
   21    22    72	5 ;      CG321      CG321       HGA2
   23    22    71	5 ;      CG321      CG321       HGA2
   23    22    72	5 ;      CG321      CG321       HGA2
   71    22    72	5 ;       HGA2      CG321       HGA2
   22    23    24	5 ;      CG321      CG321      CG321
   22    23    73	5 ;      CG321      CG321       HGA2
   22    23    74	5 ;      CG321      CG321       HGA2
   24    23    73	5 ;      CG321      CG321       HGA2
   24    23    74	5 ;      CG321      CG321       HGA2
   73    23    74	5 ;       HGA2      CG321       HGA2
   23    24    25	5 ;      CG321      CG321      CG321
   23    24    75	5 ;      CG321      CG321       HGA2
   23    24    76	5 ;      CG321      CG321       HGA2
   25    24    75	5 ;      CG321      CG321       HGA2
   25    24    76	5 ;      CG321      CG321       HGA2
   75    24    76	5 ;       HGA2      CG321       HGA2
   20    25    24	5 ;      CG311      CG321      CG321
   20    25    77	5 ;      CG311      CG321       HGA2
   20    25    78	5 ;      CG311      CG321       HGA2
   24    25    77	5 ;      CG321      CG321       HGA2
   24    25    78	5 ;      CG321      CG321       HGA2
   77    25    78	5 ;       HGA2      CG321       HGA2
    9    26    27	5 ;      CG311      OG311       HGP1
    1    28    29	5 ;      CG311      NG2S1      CG2O1
    1    28    31	5 ;      CG311      NG2S1       HGP1
   29    28    31	5 ;      CG2O1      NG2S1       HGP1
   28    29    30	5 ;      NG2S1      CG2O1      OG2D1
   28    29    32	5 ;      NG2S1      CG2O1     CG2R61
   30    29    32	5 ;      OG2D1      CG2O1     CG2R61
   29    32    33	5 ;      CG2O1     CG2R61     CG2R61
   29    32    37	5 ;      CG2O1     CG2R61     CG2R61
   33    32    37	5 ;     CG2R61     CG2R61     CG2R61
   32    33    34	5 ;     CG2R61     CG2R61     CG2R61
   32    33    79	5 ;     CG2R61     CG2R61      HGR61
   34    33    79	5 ;     CG2R61     CG2R61      HGR61
   33    34    38	5 ;     CG2R61     CG2R61      NG301
   33    34    35	5 ;     CG2R61     CG2R61     CG2R61
   38    34    35	5 ;      NG301     CG2R61     CG2R61
   34    35    36	5 ;     CG2R61     CG2R61     CG2R61
   34    35    80	5 ;     CG2R61     CG2R61      HGR61
   36    35    80	5 ;     CG2R61     CG2R61      HGR61
   35    36    37	5 ;     CG2R61     CG2R61     CG2R61
   35    36    49	5 ;     CG2R61     CG2R61      NG311
   37    36    49	5 ;     CG2R61     CG2R61      NG311
   36    37    32	5 ;     CG2R61     CG2R61     CG2R61
   36    37    81	5 ;     CG2R61     CG2R61      HGR61
   32    37    81	5 ;     CG2R61     CG2R61      HGR61
   34    38    39	5 ;     CG2R61      NG301      SG3O2
   34    38    43	5 ;     CG2R61      NG301     CG2R61
   39    38    43	5 ;      SG3O2      NG301     CG2R61
   38    39    40	5 ;      NG301      SG3O2      OG2P1
   38    39    41	5 ;      NG301      SG3O2      OG2P1
   38    39    42	5 ;      NG301      SG3O2      CG331
   40    39    41	5 ;      OG2P1      SG3O2      OG2P1
   40    39    42	5 ;      OG2P1      SG3O2      CG331
   41    39    42	5 ;      OG2P1      SG3O2      CG331
   39    42    82	5 ;      SG3O2      CG331       HGA3
   39    42    83	5 ;      SG3O2      CG331       HGA3
   39    42    84	5 ;      SG3O2      CG331       HGA3
   82    42    83	5 ;       HGA3      CG331       HGA3
   82    42    84	5 ;       HGA3      CG331       HGA3
   83    42    84	5 ;       HGA3      CG331       HGA3
   38    43    48	5 ;      NG301     CG2R61     CG2R61
   38    43    44	5 ;      NG301     CG2R61     CG2R61
   48    43    44	5 ;     CG2R61     CG2R61     CG2R61
   43    44    45	5 ;     CG2R61     CG2R61     CG2R61
   43    44    85	5 ;     CG2R61     CG2R61      HGR61
   45    44    85	5 ;     CG2R61     CG2R61      HGR61
   44    45    46	5 ;     CG2R61     CG2R61     CG2R61
   44    45    86	5 ;     CG2R61     CG2R61      HGR61
   46    45    86	5 ;     CG2R61     CG2R61      HGR61
   45    46    47	5 ;     CG2R61     CG2R61     CG2R61
   45    46    87	5 ;     CG2R61     CG2R61      HGR61
   47    46    87	5 ;     CG2R61     CG2R61      HGR61
   46    47    48	5 ;     CG2R61     CG2R61     CG2R61
   46    47    88	5 ;     CG2R61     CG2R61      HGR61
   48    47    88	5 ;     CG2R61     CG2R61      HGR61
   43    48    47	5 ;     CG2R61     CG2R61     CG2R61
   43    48    89	5 ;     CG2R61     CG2R61      HGR61
   47    48    89	5 ;     CG2R61     CG2R61      HGR61
   36    49    50	5 ;     CG2R61      NG311     HGPAM1
   36    49    51	5 ;     CG2R61      NG311      CG321
   50    49    51	5 ;     HGPAM1      NG311      CG321
   49    51    52	5 ;      NG311      CG321      CG331
   49    51    90	5 ;      NG311      CG321       HGA2
   49    51    91	5 ;      NG311      CG321       HGA2
   52    51    90	5 ;      CG331      CG321       HGA2
   52    51    91	5 ;      CG331      CG321       HGA2
   90    51    91	5 ;       HGA2      CG321       HGA2
   51    52    92	5 ;      CG321      CG331       HGA3
   51    52    93	5 ;      CG321      CG331       HGA3
   51    52    94	5 ;      CG321      CG331       HGA3
   92    52    93	5 ;       HGA3      CG331       HGA3
   92    52    94	5 ;       HGA3      CG331       HGA3
   93    52    94	5 ;       HGA3      CG331       HGA3

[ dihedrals ]
;	ai	  aj	ak	  al funct			  c0			c1			  c2			c3			  c4			c5
   28     1     9    10	 9 ;      NG2S1      CG311      CG311      CG324
   28     1     9    26	 9 ;      NG2S1      CG311      CG311      OG311
   28     1     9    61	 9 ;      NG2S1      CG311      CG311       HGA1
    2     1     9    10	 9 ;      CG321      CG311      CG311      CG324
    2     1     9    26	 9 ;      CG321      CG311      CG311      OG311
    2     1     9    61	 9 ;      CG321      CG311      CG311       HGA1
   53     1     9    10	 9 ;       HGA1      CG311      CG311      CG324
   53     1     9    26	 9 ;       HGA1      CG311      CG311      OG311
   53     1     9    61	 9 ;       HGA1      CG311      CG311       HGA1
    9     1    28    29	 9 ;      CG311      CG311      NG2S1      CG2O1
    9     1    28    31	 9 ;      CG311      CG311      NG2S1       HGP1
    2     1    28    29	 9 ;      CG321      CG311      NG2S1      CG2O1
    2     1    28    31	 9 ;      CG321      CG311      NG2S1       HGP1
   53     1    28    29	 9 ;       HGA1      CG311      NG2S1      CG2O1
   53     1    28    31	 9 ;       HGA1      CG311      NG2S1       HGP1
    9     1     2     3	 9 ;      CG311      CG311      CG321     CG2R61
    9     1     2    54	 9 ;      CG311      CG311      CG321       HGA2
    9     1     2    55	 9 ;      CG311      CG311      CG321       HGA2
   28     1     2     3	 9 ;      NG2S1      CG311      CG321     CG2R61
   28     1     2    54	 9 ;      NG2S1      CG311      CG321       HGA2
   28     1     2    55	 9 ;      NG2S1      CG311      CG321       HGA2
   53     1     2     3	 9 ;       HGA1      CG311      CG321     CG2R61
   53     1     2    54	 9 ;       HGA1      CG311      CG321       HGA2
   53     1     2    55	 9 ;       HGA1      CG311      CG321       HGA2
    1     2     3     8	 9 ;      CG311      CG321     CG2R61     CG2R61
    1     2     3     4	 9 ;      CG311      CG321     CG2R61     CG2R61
   54     2     3     8	 9 ;       HGA2      CG321     CG2R61     CG2R61
   54     2     3     4	 9 ;       HGA2      CG321     CG2R61     CG2R61
   55     2     3     8	 9 ;       HGA2      CG321     CG2R61     CG2R61
   55     2     3     4	 9 ;       HGA2      CG321     CG2R61     CG2R61
    2     3     8     7	 9 ;      CG321     CG2R61     CG2R61     CG2R61
    2     3     8    60	 9 ;      CG321     CG2R61     CG2R61      HGR61
    4     3     8     7	 9 ;     CG2R61     CG2R61     CG2R61     CG2R61
    4     3     8    60	 9 ;     CG2R61     CG2R61     CG2R61      HGR61
    2     3     4     5	 9 ;      CG321     CG2R61     CG2R61     CG2R61
    2     3     4    56	 9 ;      CG321     CG2R61     CG2R61      HGR61
    8     3     4     5	 9 ;     CG2R61     CG2R61     CG2R61     CG2R61
    8     3     4    56	 9 ;     CG2R61     CG2R61     CG2R61      HGR61
    3     4     5     6	 9 ;     CG2R61     CG2R61     CG2R61     CG2R61
    3     4     5    57	 9 ;     CG2R61     CG2R61     CG2R61      HGR61
   56     4     5     6	 9 ;      HGR61     CG2R61     CG2R61     CG2R61
   56     4     5    57	 9 ;      HGR61     CG2R61     CG2R61      HGR61
    4     5     6     7	 9 ;     CG2R61     CG2R61     CG2R61     CG2R61
    4     5     6    58	 9 ;     CG2R61     CG2R61     CG2R61      HGR61
   57     5     6     7	 9 ;      HGR61     CG2R61     CG2R61     CG2R61
   57     5     6    58	 9 ;      HGR61     CG2R61     CG2R61      HGR61
    5     6     7     8	 9 ;     CG2R61     CG2R61     CG2R61     CG2R61
    5     6     7    59	 9 ;     CG2R61     CG2R61     CG2R61      HGR61
   58     6     7     8	 9 ;      HGR61     CG2R61     CG2R61     CG2R61
   58     6     7    59	 9 ;      HGR61     CG2R61     CG2R61      HGR61
    6     7     8     3	 9 ;     CG2R61     CG2R61     CG2R61     CG2R61
    6     7     8    60	 9 ;     CG2R61     CG2R61     CG2R61      HGR61
   59     7     8     3	 9 ;      HGR61     CG2R61     CG2R61     CG2R61
   59     7     8    60	 9 ;      HGR61     CG2R61     CG2R61      HGR61
    1     9    10    11	 9 ;      CG311      CG311      CG324      NG3P2
    1     9    10    62	 9 ;      CG311      CG311      CG324       HGA2
    1     9    10    63	 9 ;      CG311      CG311      CG324       HGA2
   26     9    10    11	 9 ;      OG311      CG311      CG324      NG3P2
   26     9    10    62	 9 ;      OG311      CG311      CG324       HGA2
   26     9    10    63	 9 ;      OG311      CG311      CG324       HGA2
   61     9    10    11	 9 ;       HGA1      CG311      CG324      NG3P2
   61     9    10    62	 9 ;       HGA1      CG311      CG324       HGA2
   61     9    10    63	 9 ;       HGA1      CG311      CG324       HGA2
    1     9    26    27	 9 ;      CG311      CG311      OG311       HGP1
   10     9    26    27	 9 ;      CG324      CG311      OG311       HGP1
   61     9    26    27	 9 ;       HGA1      CG311      OG311       HGP1
    9    10    11    14	 9 ;      CG311      CG324      NG3P2      CG314
    9    10    11    12	 9 ;      CG311      CG324      NG3P2       HGP2
    9    10    11    13	 9 ;      CG311      CG324      NG3P2       HGP2
   62    10    11    14	 9 ;       HGA2      CG324      NG3P2      CG314
   62    10    11    12	 9 ;       HGA2      CG324      NG3P2       HGP2
   62    10    11    13	 9 ;       HGA2      CG324      NG3P2       HGP2
   63    10    11    14	 9 ;       HGA2      CG324      NG3P2      CG314
   63    10    11    12	 9 ;       HGA2      CG324      NG3P2       HGP2
   63    10    11    13	 9 ;       HGA2      CG324      NG3P2       HGP2
   10    11    14    15	 9 ;      CG324      NG3P2      CG314      CG331
   10    11    14    16	 9 ;      CG324      NG3P2      CG314      CG2O1
   10    11    14    64	 9 ;      CG324      NG3P2      CG314       HGA1
   12    11    14    15	 9 ;       HGP2      NG3P2      CG314      CG331
   12    11    14    16	 9 ;       HGP2      NG3P2      CG314      CG2O1
   12    11    14    64	 9 ;       HGP2      NG3P2      CG314       HGA1
   13    11    14    15	 9 ;       HGP2      NG3P2      CG314      CG331
   13    11    14    16	 9 ;       HGP2      NG3P2      CG314      CG2O1
   13    11    14    64	 9 ;       HGP2      NG3P2      CG314       HGA1
   11    14    15    65	 9 ;      NG3P2      CG314      CG331       HGA3
   11    14    15    66	 9 ;      NG3P2      CG314      CG331       HGA3
   11    14    15    67	 9 ;      NG3P2      CG314      CG331       HGA3
   16    14    15    65	 9 ;      CG2O1      CG314      CG331       HGA3
   16    14    15    66	 9 ;      CG2O1      CG314      CG331       HGA3
   16    14    15    67	 9 ;      CG2O1      CG314      CG331       HGA3
   64    14    15    65	 9 ;       HGA1      CG314      CG331       HGA3
   64    14    15    66	 9 ;       HGA1      CG314      CG331       HGA3
   64    14    15    67	 9 ;       HGA1      CG314      CG331       HGA3
   11    14    16    18	 9 ;      NG3P2      CG314      CG2O1      NG2S1
   11    14    16    17	 9 ;      NG3P2      CG314      CG2O1      OG2D1
   15    14    16    18	 9 ;      CG331      CG314      CG2O1      NG2S1
   15    14    16    17	 9 ;      CG331      CG314      CG2O1      OG2D1
   64    14    16    18	 9 ;       HGA1      CG314      CG2O1      NG2S1
   64    14    16    17	 9 ;       HGA1      CG314      CG2O1      OG2D1
   14    16    18    19	 9 ;      CG314      CG2O1      NG2S1       HGP1
   14    16    18    20	 9 ;      CG314      CG2O1      NG2S1      CG311
   17    16    18    19	 9 ;      OG2D1      CG2O1      NG2S1       HGP1
   17    16    18    20	 9 ;      OG2D1      CG2O1      NG2S1      CG311
   16    18    20    21	 9 ;      CG2O1      NG2S1      CG311      CG321
   16    18    20    25	 9 ;      CG2O1      NG2S1      CG311      CG321
   16    18    20    68	 9 ;      CG2O1      NG2S1      CG311       HGA1
   19    18    20    21	 9 ;       HGP1      NG2S1      CG311      CG321
   19    18    20    25	 9 ;       HGP1      NG2S1      CG311      CG321
   19    18    20    68	 9 ;       HGP1      NG2S1      CG311       HGA1
   18    20    21    22	 9 ;      NG2S1      CG311      CG321      CG321
   18    20    21    69	 9 ;      NG2S1      CG311      CG321       HGA2
   18    20    21    70	 9 ;      NG2S1      CG311      CG321       HGA2
   25    20    21    22	 9 ;      CG321      CG311      CG321      CG321
   25    20    21    69	 9 ;      CG321      CG311      CG321       HGA2
   25    20    21    70	 9 ;      CG321      CG311      CG321       HGA2
   68    20    21    22	 9 ;       HGA1      CG311      CG321      CG321
   68    20    21    69	 9 ;       HGA1      CG311      CG321       HGA2
   68    20    21    70	 9 ;       HGA1      CG311      CG321       HGA2
   18    20    25    24	 9 ;      NG2S1      CG311      CG321      CG321
   18    20    25    77	 9 ;      NG2S1      CG311      CG321       HGA2
   18    20    25    78	 9 ;      NG2S1      CG311      CG321       HGA2
   21    20    25    24	 9 ;      CG321      CG311      CG321      CG321
   21    20    25    77	 9 ;      CG321      CG311      CG321       HGA2
   21    20    25    78	 9 ;      CG321      CG311      CG321       HGA2
   68    20    25    24	 9 ;       HGA1      CG311      CG321      CG321
   68    20    25    77	 9 ;       HGA1      CG311      CG321       HGA2
   68    20    25    78	 9 ;       HGA1      CG311      CG321       HGA2
   20    21    22    23	 9 ;      CG311      CG321      CG321      CG321
   20    21    22    71	 9 ;      CG311      CG321      CG321       HGA2
   20    21    22    72	 9 ;      CG311      CG321      CG321       HGA2
   69    21    22    23	 9 ;       HGA2      CG321      CG321      CG321
   69    21    22    71	 9 ;       HGA2      CG321      CG321       HGA2
   69    21    22    72	 9 ;       HGA2      CG321      CG321       HGA2
   70    21    22    23	 9 ;       HGA2      CG321      CG321      CG321
   70    21    22    71	 9 ;       HGA2      CG321      CG321       HGA2
   70    21    22    72	 9 ;       HGA2      CG321      CG321       HGA2
   21    22    23    24	 9 ;      CG321      CG321      CG321      CG321
   21    22    23    73	 9 ;      CG321      CG321      CG321       HGA2
   21    22    23    74	 9 ;      CG321      CG321      CG321       HGA2
   71    22    23    24	 9 ;       HGA2      CG321      CG321      CG321
   71    22    23    73	 9 ;       HGA2      CG321      CG321       HGA2
   71    22    23    74	 9 ;       HGA2      CG321      CG321       HGA2
   72    22    23    24	 9 ;       HGA2      CG321      CG321      CG321
   72    22    23    73	 9 ;       HGA2      CG321      CG321       HGA2
   72    22    23    74	 9 ;       HGA2      CG321      CG321       HGA2
   22    23    24    25	 9 ;      CG321      CG321      CG321      CG321
   22    23    24    75	 9 ;      CG321      CG321      CG321       HGA2
   22    23    24    76	 9 ;      CG321      CG321      CG321       HGA2
   73    23    24    25	 9 ;       HGA2      CG321      CG321      CG321
   73    23    24    75	 9 ;       HGA2      CG321      CG321       HGA2
   73    23    24    76	 9 ;       HGA2      CG321      CG321       HGA2
   74    23    24    25	 9 ;       HGA2      CG321      CG321      CG321
   74    23    24    75	 9 ;       HGA2      CG321      CG321       HGA2
   74    23    24    76	 9 ;       HGA2      CG321      CG321       HGA2
   23    24    25    20	 9 ;      CG321      CG321      CG321      CG311
   23    24    25    77	 9 ;      CG321      CG321      CG321       HGA2
   23    24    25    78	 9 ;      CG321      CG321      CG321       HGA2
   75    24    25    20	 9 ;       HGA2      CG321      CG321      CG311
   75    24    25    77	 9 ;       HGA2      CG321      CG321       HGA2
   75    24    25    78	 9 ;       HGA2      CG321      CG321       HGA2
   76    24    25    20	 9 ;       HGA2      CG321      CG321      CG311
   76    24    25    77	 9 ;       HGA2      CG321      CG321       HGA2
   76    24    25    78	 9 ;       HGA2      CG321      CG321       HGA2
    1    28    29    30	 9 ;      CG311      NG2S1      CG2O1      OG2D1
    1    28    29    32	 9 ;      CG311      NG2S1      CG2O1     CG2R61
   31    28    29    30	 9 ;       HGP1      NG2S1      CG2O1      OG2D1
   31    28    29    32	 9 ;       HGP1      NG2S1      CG2O1     CG2R61
   28    29    32    33	 9 ;      NG2S1      CG2O1     CG2R61     CG2R61
   28    29    32    37	 9 ;      NG2S1      CG2O1     CG2R61     CG2R61
   30    29    32    33	 9 ;      OG2D1      CG2O1     CG2R61     CG2R61
   30    29    32    37	 9 ;      OG2D1      CG2O1     CG2R61     CG2R61
   29    32    33    34	 9 ;      CG2O1     CG2R61     CG2R61     CG2R61
   29    32    33    79	 9 ;      CG2O1     CG2R61     CG2R61      HGR61
   37    32    33    34	 9 ;     CG2R61     CG2R61     CG2R61     CG2R61
   37    32    33    79	 9 ;     CG2R61     CG2R61     CG2R61      HGR61
   29    32    37    36	 9 ;      CG2O1     CG2R61     CG2R61     CG2R61
   29    32    37    81	 9 ;      CG2O1     CG2R61     CG2R61      HGR61
   33    32    37    36	 9 ;     CG2R61     CG2R61     CG2R61     CG2R61
   33    32    37    81	 9 ;     CG2R61     CG2R61     CG2R61      HGR61
   32    33    34    38	 9 ;     CG2R61     CG2R61     CG2R61      NG301
   32    33    34    35	 9 ;     CG2R61     CG2R61     CG2R61     CG2R61
   79    33    34    38	 9 ;      HGR61     CG2R61     CG2R61      NG301
   79    33    34    35	 9 ;      HGR61     CG2R61     CG2R61     CG2R61
   33    34    38    39	 9 ;     CG2R61     CG2R61      NG301      SG3O2
   33    34    38    43	 9 ;     CG2R61     CG2R61      NG301     CG2R61
   35    34    38    39	 9 ;     CG2R61     CG2R61      NG301      SG3O2
   35    34    38    43	 9 ;     CG2R61     CG2R61      NG301     CG2R61
   33    34    35    36	 9 ;     CG2R61     CG2R61     CG2R61     CG2R61
   33    34    35    80	 9 ;     CG2R61     CG2R61     CG2R61      HGR61
   38    34    35    36	 9 ;      NG301     CG2R61     CG2R61     CG2R61
   38    34    35    80	 9 ;      NG301     CG2R61     CG2R61      HGR61
   34    35    36    37	 9 ;     CG2R61     CG2R61     CG2R61     CG2R61
   34    35    36    49	 9 ;     CG2R61     CG2R61     CG2R61      NG311
   80    35    36    37	 9 ;      HGR61     CG2R61     CG2R61     CG2R61
   80    35    36    49	 9 ;      HGR61     CG2R61     CG2R61      NG311
   35    36    37    32	 9 ;     CG2R61     CG2R61     CG2R61     CG2R61
   35    36    37    81	 9 ;     CG2R61     CG2R61     CG2R61      HGR61
   49    36    37    32	 9 ;      NG311     CG2R61     CG2R61     CG2R61
   49    36    37    81	 9 ;      NG311     CG2R61     CG2R61      HGR61
   35    36    49    50	 9 ;     CG2R61     CG2R61      NG311     HGPAM1
   35    36    49    51	 9 ;     CG2R61     CG2R61      NG311      CG321
   37    36    49    50	 9 ;     CG2R61     CG2R61      NG311     HGPAM1
   37    36    49    51	 9 ;     CG2R61     CG2R61      NG311      CG321
   34    38    39    40	 9 ;     CG2R61      NG301      SG3O2      OG2P1
   34    38    39    41	 9 ;     CG2R61      NG301      SG3O2      OG2P1
   34    38    39    42	 9 ;     CG2R61      NG301      SG3O2      CG331
   43    38    39    40	 9 ;     CG2R61      NG301      SG3O2      OG2P1
   43    38    39    41	 9 ;     CG2R61      NG301      SG3O2      OG2P1
   43    38    39    42	 9 ;     CG2R61      NG301      SG3O2      CG331
   34    38    43    48	 9 ;     CG2R61      NG301     CG2R61     CG2R61
   34    38    43    44	 9 ;     CG2R61      NG301     CG2R61     CG2R61
   39    38    43    48	 9 ;      SG3O2      NG301     CG2R61     CG2R61
   39    38    43    44	 9 ;      SG3O2      NG301     CG2R61     CG2R61
   38    39    42    82	 9 ;      NG301      SG3O2      CG331       HGA3
   38    39    42    83	 9 ;      NG301      SG3O2      CG331       HGA3
   38    39    42    84	 9 ;      NG301      SG3O2      CG331       HGA3
   40    39    42    82	 9 ;      OG2P1      SG3O2      CG331       HGA3
   40    39    42    83	 9 ;      OG2P1      SG3O2      CG331       HGA3
   40    39    42    84	 9 ;      OG2P1      SG3O2      CG331       HGA3
   41    39    42    82	 9 ;      OG2P1      SG3O2      CG331       HGA3
   41    39    42    83	 9 ;      OG2P1      SG3O2      CG331       HGA3
   41    39    42    84	 9 ;      OG2P1      SG3O2      CG331       HGA3
   38    43    48    47	 9 ;      NG301     CG2R61     CG2R61     CG2R61
   38    43    48    89	 9 ;      NG301     CG2R61     CG2R61      HGR61
   44    43    48    47	 9 ;     CG2R61     CG2R61     CG2R61     CG2R61
   44    43    48    89	 9 ;     CG2R61     CG2R61     CG2R61      HGR61
   38    43    44    45	 9 ;      NG301     CG2R61     CG2R61     CG2R61
   38    43    44    85	 9 ;      NG301     CG2R61     CG2R61      HGR61
   48    43    44    45	 9 ;     CG2R61     CG2R61     CG2R61     CG2R61
   48    43    44    85	 9 ;     CG2R61     CG2R61     CG2R61      HGR61
   43    44    45    46	 9 ;     CG2R61     CG2R61     CG2R61     CG2R61
   43    44    45    86	 9 ;     CG2R61     CG2R61     CG2R61      HGR61
   85    44    45    46	 9 ;      HGR61     CG2R61     CG2R61     CG2R61
   85    44    45    86	 9 ;      HGR61     CG2R61     CG2R61      HGR61
   44    45    46    47	 9 ;     CG2R61     CG2R61     CG2R61     CG2R61
   44    45    46    87	 9 ;     CG2R61     CG2R61     CG2R61      HGR61
   86    45    46    47	 9 ;      HGR61     CG2R61     CG2R61     CG2R61
   86    45    46    87	 9 ;      HGR61     CG2R61     CG2R61      HGR61
   45    46    47    48	 9 ;     CG2R61     CG2R61     CG2R61     CG2R61
   45    46    47    88	 9 ;     CG2R61     CG2R61     CG2R61      HGR61
   87    46    47    48	 9 ;      HGR61     CG2R61     CG2R61     CG2R61
   87    46    47    88	 9 ;      HGR61     CG2R61     CG2R61      HGR61
   46    47    48    43	 9 ;     CG2R61     CG2R61     CG2R61     CG2R61
   46    47    48    89	 9 ;     CG2R61     CG2R61     CG2R61      HGR61
   88    47    48    43	 9 ;      HGR61     CG2R61     CG2R61     CG2R61
   88    47    48    89	 9 ;      HGR61     CG2R61     CG2R61      HGR61
   36    49    51    52	 9 ;     CG2R61      NG311      CG321      CG331
   36    49    51    90	 9 ;     CG2R61      NG311      CG321       HGA2
   36    49    51    91	 9 ;     CG2R61      NG311      CG321       HGA2
   50    49    51    52	 9 ;     HGPAM1      NG311      CG321      CG331
   50    49    51    90	 9 ;     HGPAM1      NG311      CG321       HGA2
   50    49    51    91	 9 ;     HGPAM1      NG311      CG321       HGA2
   49    51    52    92	 9 ;      NG311      CG321      CG331       HGA3
   49    51    52    93	 9 ;      NG311      CG321      CG331       HGA3
   49    51    52    94	 9 ;      NG311      CG321      CG331       HGA3
   90    51    52    92	 9 ;       HGA2      CG321      CG331       HGA3
   90    51    52    93	 9 ;       HGA2      CG321      CG331       HGA3
   90    51    52    94	 9 ;       HGA2      CG321      CG331       HGA3
   91    51    52    92	 9 ;       HGA2      CG321      CG331       HGA3
   91    51    52    93	 9 ;       HGA2      CG321      CG331       HGA3
   91    51    52    94	 9 ;       HGA2      CG321      CG331       HGA3

[ dihedrals ]
;	ai	  aj	ak	  al funct			  c0			c1			  c2			c3
   16    14    18    17	 2
   29    32    28    30	 2

