; Created by cgenff_charmm2gmx.py

[ moleculetype ]
; Name			   nrexcl
LIG				 3

[ atoms ]
;	 nr		  type	resnr residue  atom   cgnr	   charge		mass  typeB    chargeB		massB
; residue	 1 LIG rtp LIG q	qsum
     1      CG311      1    LIG     C1      1      0.210     12.011   ;
     2      CG321      1    LIG     C2      2     -0.211     12.011   ;
     3     CG2R61      1    LIG     C3      3      0.002     12.011   ;
     4     CG2R61      1    LIG     C4      4     -0.123     12.011   ;
     5     CG2R61      1    LIG     C5      5     -0.112     12.011   ;
     6     CG2R61      1    LIG     C6      6     -0.116     12.011   ;
     7     CG2R61      1    LIG     C7      7     -0.112     12.011   ;
     8     CG2R61      1    LIG     C8      8     -0.123     12.011   ;
     9      NG311      1    LIG     N1      9     -0.787     14.007   ;
    10     HGPAM1      1    LIG     H1     10      0.359      1.008   ;
    11      CG311      1    LIG     C9     11      0.302     12.011   ;
    12      NG311      1    LIG     N2     12     -0.864     14.007   ;
    13      CG301      1    LIG    C10     13      0.375     12.011   ;
    14     HGPAM1      1    LIG    HN1     14      0.350      1.008   ;
    15      CG321      1    LIG    C11     15     -0.230     12.011   ;
    16      CG331      1    LIG    C12     16     -0.295     12.011   ;
    17      CG331      1    LIG    C13     17     -0.295     12.011   ;
    18     CG2R61      1    LIG    C14     18      0.075     12.011   ;
    19     CG2R61      1    LIG    C15     19     -0.052     12.011   ;
    20     CG2R61      1    LIG    C16     20     -0.121     12.011   ;
    21     CG2R61      1    LIG    C17     21     -0.108     12.011   ;
    22     CG2R61      1    LIG    C18     22     -0.099     12.011   ;
    23     CG2R61      1    LIG    C19     23      0.048     12.011   ;
    24      CLGR1      1    LIG     CL     24     -0.200     35.453   ;
    25      CG311      1    LIG    C20     25      0.110     12.011   ;
    26      NG311      1    LIG     N3     26     -0.430     14.007   ;
    27     CG2D1O      1    LIG    C21     27     -0.186     12.011   ;
    28     HGPAM1      1    LIG    HN2     28      0.375      1.008   ;
    29     CG2DC1      1    LIG    C22     29      0.150     12.011   ;
    30       IGR1      1    LIG      I     30     -0.028    126.904   ;
    31      CG2O1      1    LIG    C23     31      0.387     12.011   ;
    32      NG2S1      1    LIG     N4     32     -0.373     14.007   ;
    33      OG2D1      1    LIG      O     33     -0.515     15.999   ;
    34       HGP1      1    LIG     H2     34      0.226      1.008   ;
    35       HGA1      1    LIG     HC     35      0.090      1.008   ;
    36       HGA2      1    LIG    HC2     36      0.090      1.008   ;
    37       HGA2      1    LIG    HC3     37      0.090      1.008   ;
    38      HGR61      1    LIG    HC1     38      0.116      1.008   ;
    39      HGR61      1    LIG    HC4     39      0.116      1.008   ;
    40      HGR61      1    LIG    HC5     40      0.116      1.008   ;
    41      HGR61      1    LIG    HC6     41      0.116      1.008   ;
    42      HGR61      1    LIG    HC7     42      0.116      1.008   ;
    43       HGA2      1    LIG    HC8     43      0.090      1.008   ;
    44       HGA2      1    LIG    HC9     44      0.090      1.008   ;
    45       HGA3      1    LIG   HC10     45      0.090      1.008   ;
    46       HGA3      1    LIG   HC11     46      0.090      1.008   ;
    47       HGA3      1    LIG   HC12     47      0.090      1.008   ;
    48       HGA3      1    LIG   HC13     48      0.090      1.008   ;
    49       HGA3      1    LIG   HC14     49      0.090      1.008   ;
    50       HGA3      1    LIG   HC15     50      0.090      1.008   ;
    51      HGR62      1    LIG   HC16     51      0.145      1.008   ;
    52      HGR61      1    LIG   HC17     52      0.116      1.008   ;
    53      HGR62      1    LIG   HC18     53      0.150      1.008   ;
    54       HGA1      1    LIG   HC19     54      0.090      1.008   ;
    55       HGA4      1    LIG   HC20     55      0.150      1.008   ;
    56       HGA1      1    LIG    H26     56      0.090      1.008   ;
    57        LPH      1    LIG    LP1     57      0.050      0.000   ;
    58        LPH      1    LIG    LP2     58      0.050      0.000   ;

[ bonds ]
;	ai	  aj funct			  c0			c1			  c2			c3
    1     9	 1 ;       CG311      NG311
    1     2	 1 ;       CG311      CG321
    1    25	 1 ;       CG311      CG311
    1    35	 1 ;       CG311       HGA1
    2     3	 1 ;       CG321     CG2R61
    2    36	 1 ;       CG321       HGA2
    2    37	 1 ;       CG321       HGA2
    3     8	 1 ;      CG2R61     CG2R61
    3     4	 1 ;      CG2R61     CG2R61
    4     5	 1 ;      CG2R61     CG2R61
    4    38	 1 ;      CG2R61      HGR61
    5     6	 1 ;      CG2R61     CG2R61
    5    39	 1 ;      CG2R61      HGR61
    6     7	 1 ;      CG2R61     CG2R61
    6    40	 1 ;      CG2R61      HGR61
    7     8	 1 ;      CG2R61     CG2R61
    7    41	 1 ;      CG2R61      HGR61
    8    42	 1 ;      CG2R61      HGR61
    9    11	 1 ;       NG311      CG311
    9    10	 1 ;       NG311     HGPAM1
   11    12	 1 ;       CG311      NG311
   11    19	 1 ;       CG311     CG2R61
   11    56	 1 ;       CG311       HGA1
   12    14	 1 ;       NG311     HGPAM1
   12    13	 1 ;       NG311      CG301
   13    17	 1 ;       CG301      CG331
   13    16	 1 ;       CG301      CG331
   13    15	 1 ;       CG301      CG321
   15    18	 1 ;       CG321     CG2R61
   15    43	 1 ;       CG321       HGA2
   15    44	 1 ;       CG321       HGA2
   16    45	 1 ;       CG331       HGA3
   16    46	 1 ;       CG331       HGA3
   16    47	 1 ;       CG331       HGA3
   17    48	 1 ;       CG331       HGA3
   17    49	 1 ;       CG331       HGA3
   17    50	 1 ;       CG331       HGA3
   18    19	 1 ;      CG2R61     CG2R61
   18    20	 1 ;      CG2R61     CG2R61
   19    21	 1 ;      CG2R61     CG2R61
   20    23	 1 ;      CG2R61     CG2R61
   20    51	 1 ;      CG2R61      HGR62
   21    22	 1 ;      CG2R61     CG2R61
   21    52	 1 ;      CG2R61      HGR61
   22    23	 1 ;      CG2R61     CG2R61
   22    53	 1 ;      CG2R61      HGR62
   23    24	 1 ;      CG2R61      CLGR1
   25    26	 1 ;       CG311      NG311
   25    32	 1 ;       CG311      NG2S1
   25    54	 1 ;       CG311       HGA1
   26    28	 1 ;       NG311     HGPAM1
   26    27	 1 ;       NG311     CG2D1O
   27    29	 1 ;      CG2D1O     CG2DC1
   27    55	 1 ;      CG2D1O       HGA4
   29    31	 1 ;      CG2DC1      CG2O1
   29    30	 1 ;      CG2DC1       IGR1
   31    32	 1 ;       CG2O1      NG2S1
   31    33	 1 ;       CG2O1      OG2D1
   32    34	 1 ;       NG2S1       HGP1

[ pairs ]
;	ai	  aj funct			  c0			c1			  c2			c3
    1     8	 1
    1     4	 1
    1    12	 1
    1    19	 1
    1    56	 1
    1    28	 1
    1    27	 1
    1    34	 1
    1    31	 1
    2    11	 1
    2    10	 1
    2    26	 1
    2    32	 1
    2    54	 1
    2     7	 1
    2    42	 1
    2     5	 1
    2    38	 1
    3     9	 1
    3    25	 1
    3    35	 1
    3     6	 1
    3    39	 1
    3    41	 1
    4    36	 1
    4    37	 1
    4     7	 1
    4    42	 1
    4    40	 1
    5     8	 1
    5    41	 1
    6    38	 1
    6    42	 1
    7    39	 1
    8    36	 1
    8    37	 1
    8    38	 1
    8    40	 1
    9    36	 1
    9    37	 1
    9    26	 1
    9    32	 1
    9    54	 1
    9    14	 1
    9    13	 1
    9    18	 1
    9    21	 1
   10    25	 1
   10    35	 1
   10    12	 1
   10    19	 1
   10    56	 1
   11    25	 1
   11    35	 1
   11    17	 1
   11    16	 1
   11    15	 1
   11    20	 1
   11    22	 1
   11    52	 1
   12    18	 1
   12    21	 1
   12    48	 1
   12    49	 1
   12    50	 1
   12    45	 1
   12    46	 1
   12    47	 1
   12    43	 1
   12    44	 1
   13    19	 1
   13    56	 1
   13    20	 1
   14    19	 1
   14    56	 1
   14    17	 1
   14    16	 1
   14    15	 1
   15    48	 1
   15    49	 1
   15    50	 1
   15    45	 1
   15    46	 1
   15    47	 1
   15    21	 1
   15    23	 1
   15    51	 1
   16    48	 1
   16    49	 1
   16    50	 1
   16    18	 1
   16    43	 1
   16    44	 1
   17    45	 1
   17    46	 1
   17    47	 1
   17    18	 1
   17    43	 1
   17    44	 1
   18    56	 1
   18    22	 1
   18    52	 1
   18    24	 1
   57    18	 1
   19    43	 1
   19    44	 1
   19    23	 1
   19    51	 1
   19    53	 1
   20    43	 1
   20    44	 1
   20    21	 1
   20    53	 1
   21    56	 1
   21    24	 1
   57    21	 1
   22    51	 1
   23    52	 1
   24    51	 1
   57    51	 1
   24    53	 1
   57    53	 1
   25    36	 1
   25    37	 1
   25    29	 1
   25    55	 1
   25    33	 1
   26    35	 1
   26    34	 1
   26    31	 1
   26    30	 1
   58    26	 1
   27    32	 1
   27    54	 1
   27    33	 1
   28    32	 1
   28    54	 1
   28    29	 1
   28    55	 1
   29    34	 1
   30    55	 1
   58    55	 1
   30    32	 1
   58    32	 1
   30    33	 1
   58    33	 1
   31    54	 1
   31    55	 1
   32    35	 1
   33    34	 1
   34    54	 1
   35    36	 1
   35    37	 1
   35    54	 1
   38    39	 1
   39    40	 1
   40    41	 1
   41    42	 1
   52    53	 1

[ angles ]
;	ai	  aj	ak funct			c0			  c1			c2			  c3
    9     1     2	5 ;      NG311      CG311      CG321
    9     1    25	5 ;      NG311      CG311      CG311
    9     1    35	5 ;      NG311      CG311       HGA1
    2     1    25	5 ;      CG321      CG311      CG311
    2     1    35	5 ;      CG321      CG311       HGA1
   25     1    35	5 ;      CG311      CG311       HGA1
    3     2     1	5 ;     CG2R61      CG321      CG311
    3     2    36	5 ;     CG2R61      CG321       HGA2
    3     2    37	5 ;     CG2R61      CG321       HGA2
    1     2    36	5 ;      CG311      CG321       HGA2
    1     2    37	5 ;      CG311      CG321       HGA2
   36     2    37	5 ;       HGA2      CG321       HGA2
    8     3     2	5 ;     CG2R61     CG2R61      CG321
    8     3     4	5 ;     CG2R61     CG2R61     CG2R61
    2     3     4	5 ;      CG321     CG2R61     CG2R61
    3     4     5	5 ;     CG2R61     CG2R61     CG2R61
    3     4    38	5 ;     CG2R61     CG2R61      HGR61
    5     4    38	5 ;     CG2R61     CG2R61      HGR61
    6     5     4	5 ;     CG2R61     CG2R61     CG2R61
    6     5    39	5 ;     CG2R61     CG2R61      HGR61
    4     5    39	5 ;     CG2R61     CG2R61      HGR61
    7     6     5	5 ;     CG2R61     CG2R61     CG2R61
    7     6    40	5 ;     CG2R61     CG2R61      HGR61
    5     6    40	5 ;     CG2R61     CG2R61      HGR61
    8     7     6	5 ;     CG2R61     CG2R61     CG2R61
    8     7    41	5 ;     CG2R61     CG2R61      HGR61
    6     7    41	5 ;     CG2R61     CG2R61      HGR61
    7     8     3	5 ;     CG2R61     CG2R61     CG2R61
    7     8    42	5 ;     CG2R61     CG2R61      HGR61
    3     8    42	5 ;     CG2R61     CG2R61      HGR61
   11     9    10	5 ;      CG311      NG311     HGPAM1
   11     9     1	5 ;      CG311      NG311      CG311
   10     9     1	5 ;     HGPAM1      NG311      CG311
   12    11     9	5 ;      NG311      CG311      NG311
   12    11    19	5 ;      NG311      CG311     CG2R61
   12    11    56	5 ;      NG311      CG311       HGA1
    9    11    19	5 ;      NG311      CG311     CG2R61
    9    11    56	5 ;      NG311      CG311       HGA1
   19    11    56	5 ;     CG2R61      CG311       HGA1
   14    12    13	5 ;     HGPAM1      NG311      CG301
   14    12    11	5 ;     HGPAM1      NG311      CG311
   13    12    11	5 ;      CG301      NG311      CG311
   17    13    16	5 ;      CG331      CG301      CG331
   17    13    12	5 ;      CG331      CG301      NG311
   17    13    15	5 ;      CG331      CG301      CG321
   16    13    12	5 ;      CG331      CG301      NG311
   16    13    15	5 ;      CG331      CG301      CG321
   12    13    15	5 ;      NG311      CG301      CG321
   13    15    18	5 ;      CG301      CG321     CG2R61
   13    15    43	5 ;      CG301      CG321       HGA2
   13    15    44	5 ;      CG301      CG321       HGA2
   18    15    43	5 ;     CG2R61      CG321       HGA2
   18    15    44	5 ;     CG2R61      CG321       HGA2
   43    15    44	5 ;       HGA2      CG321       HGA2
   13    16    45	5 ;      CG301      CG331       HGA3
   13    16    46	5 ;      CG301      CG331       HGA3
   13    16    47	5 ;      CG301      CG331       HGA3
   45    16    46	5 ;       HGA3      CG331       HGA3
   45    16    47	5 ;       HGA3      CG331       HGA3
   46    16    47	5 ;       HGA3      CG331       HGA3
   13    17    48	5 ;      CG301      CG331       HGA3
   13    17    49	5 ;      CG301      CG331       HGA3
   13    17    50	5 ;      CG301      CG331       HGA3
   48    17    49	5 ;       HGA3      CG331       HGA3
   48    17    50	5 ;       HGA3      CG331       HGA3
   49    17    50	5 ;       HGA3      CG331       HGA3
   15    18    19	5 ;      CG321     CG2R61     CG2R61
   15    18    20	5 ;      CG321     CG2R61     CG2R61
   19    18    20	5 ;     CG2R61     CG2R61     CG2R61
   11    19    18	5 ;      CG311     CG2R61     CG2R61
   11    19    21	5 ;      CG311     CG2R61     CG2R61
   18    19    21	5 ;     CG2R61     CG2R61     CG2R61
   18    20    23	5 ;     CG2R61     CG2R61     CG2R61
   18    20    51	5 ;     CG2R61     CG2R61      HGR62
   23    20    51	5 ;     CG2R61     CG2R61      HGR62
   19    21    22	5 ;     CG2R61     CG2R61     CG2R61
   19    21    52	5 ;     CG2R61     CG2R61      HGR61
   22    21    52	5 ;     CG2R61     CG2R61      HGR61
   21    22    23	5 ;     CG2R61     CG2R61     CG2R61
   21    22    53	5 ;     CG2R61     CG2R61      HGR62
   23    22    53	5 ;     CG2R61     CG2R61      HGR62
   20    23    22	5 ;     CG2R61     CG2R61     CG2R61
   20    23    24	5 ;     CG2R61     CG2R61      CLGR1
   22    23    24	5 ;     CG2R61     CG2R61      CLGR1
    1    25    26	5 ;      CG311      CG311      NG311
    1    25    32	5 ;      CG311      CG311      NG2S1
    1    25    54	5 ;      CG311      CG311       HGA1
   26    25    32	5 ;      NG311      CG311      NG2S1
   26    25    54	5 ;      NG311      CG311       HGA1
   32    25    54	5 ;      NG2S1      CG311       HGA1
   28    26    25	5 ;     HGPAM1      NG311      CG311
   28    26    27	5 ;     HGPAM1      NG311     CG2D1O
   25    26    27	5 ;      CG311      NG311     CG2D1O
   26    27    29	5 ;      NG311     CG2D1O     CG2DC1
   26    27    55	5 ;      NG311     CG2D1O       HGA4
   29    27    55	5 ;     CG2DC1     CG2D1O       HGA4
   27    29    31	5 ;     CG2D1O     CG2DC1      CG2O1
   27    29    30	5 ;     CG2D1O     CG2DC1       IGR1
   31    29    30	5 ;      CG2O1     CG2DC1       IGR1
   32    31    29	5 ;      NG2S1      CG2O1     CG2DC1
   32    31    33	5 ;      NG2S1      CG2O1      OG2D1
   29    31    33	5 ;     CG2DC1      CG2O1      OG2D1
   25    32    34	5 ;      CG311      NG2S1       HGP1
   25    32    31	5 ;      CG311      NG2S1      CG2O1
   34    32    31	5 ;       HGP1      NG2S1      CG2O1

[ dihedrals ]
;	ai	  aj	ak	  al funct			  c0			c1			  c2			c3			  c4			c5
    2     1     9    11	 9 ;      CG321      CG311      NG311      CG311
    2     1     9    10	 9 ;      CG321      CG311      NG311     HGPAM1
   25     1     9    11	 9 ;      CG311      CG311      NG311      CG311
   25     1     9    10	 9 ;      CG311      CG311      NG311     HGPAM1
   35     1     9    11	 9 ;       HGA1      CG311      NG311      CG311
   35     1     9    10	 9 ;       HGA1      CG311      NG311     HGPAM1
    9     1     2     3	 9 ;      NG311      CG311      CG321     CG2R61
    9     1     2    36	 9 ;      NG311      CG311      CG321       HGA2
    9     1     2    37	 9 ;      NG311      CG311      CG321       HGA2
   25     1     2     3	 9 ;      CG311      CG311      CG321     CG2R61
   25     1     2    36	 9 ;      CG311      CG311      CG321       HGA2
   25     1     2    37	 9 ;      CG311      CG311      CG321       HGA2
   35     1     2     3	 9 ;       HGA1      CG311      CG321     CG2R61
   35     1     2    36	 9 ;       HGA1      CG311      CG321       HGA2
   35     1     2    37	 9 ;       HGA1      CG311      CG321       HGA2
    9     1    25    26	 9 ;      NG311      CG311      CG311      NG311
    9     1    25    32	 9 ;      NG311      CG311      CG311      NG2S1
    9     1    25    54	 9 ;      NG311      CG311      CG311       HGA1
    2     1    25    26	 9 ;      CG321      CG311      CG311      NG311
    2     1    25    32	 9 ;      CG321      CG311      CG311      NG2S1
    2     1    25    54	 9 ;      CG321      CG311      CG311       HGA1
   35     1    25    26	 9 ;       HGA1      CG311      CG311      NG311
   35     1    25    32	 9 ;       HGA1      CG311      CG311      NG2S1
   35     1    25    54	 9 ;       HGA1      CG311      CG311       HGA1
    1     2     3     8	 9 ;      CG311      CG321     CG2R61     CG2R61
    1     2     3     4	 9 ;      CG311      CG321     CG2R61     CG2R61
   36     2     3     8	 9 ;       HGA2      CG321     CG2R61     CG2R61
   36     2     3     4	 9 ;       HGA2      CG321     CG2R61     CG2R61
   37     2     3     8	 9 ;       HGA2      CG321     CG2R61     CG2R61
   37     2     3     4	 9 ;       HGA2      CG321     CG2R61     CG2R61
    2     3     8     7	 9 ;      CG321     CG2R61     CG2R61     CG2R61
    2     3     8    42	 9 ;      CG321     CG2R61     CG2R61      HGR61
    4     3     8     7	 9 ;     CG2R61     CG2R61     CG2R61     CG2R61
    4     3     8    42	 9 ;     CG2R61     CG2R61     CG2R61      HGR61
    8     3     4     5	 9 ;     CG2R61     CG2R61     CG2R61     CG2R61
    8     3     4    38	 9 ;     CG2R61     CG2R61     CG2R61      HGR61
    2     3     4     5	 9 ;      CG321     CG2R61     CG2R61     CG2R61
    2     3     4    38	 9 ;      CG321     CG2R61     CG2R61      HGR61
    3     4     5     6	 9 ;     CG2R61     CG2R61     CG2R61     CG2R61
    3     4     5    39	 9 ;     CG2R61     CG2R61     CG2R61      HGR61
   38     4     5     6	 9 ;      HGR61     CG2R61     CG2R61     CG2R61
   38     4     5    39	 9 ;      HGR61     CG2R61     CG2R61      HGR61
    4     5     6     7	 9 ;     CG2R61     CG2R61     CG2R61     CG2R61
    4     5     6    40	 9 ;     CG2R61     CG2R61     CG2R61      HGR61
   39     5     6     7	 9 ;      HGR61     CG2R61     CG2R61     CG2R61
   39     5     6    40	 9 ;      HGR61     CG2R61     CG2R61      HGR61
    5     6     7     8	 9 ;     CG2R61     CG2R61     CG2R61     CG2R61
    5     6     7    41	 9 ;     CG2R61     CG2R61     CG2R61      HGR61
   40     6     7     8	 9 ;      HGR61     CG2R61     CG2R61     CG2R61
   40     6     7    41	 9 ;      HGR61     CG2R61     CG2R61      HGR61
    6     7     8     3	 9 ;     CG2R61     CG2R61     CG2R61     CG2R61
    6     7     8    42	 9 ;     CG2R61     CG2R61     CG2R61      HGR61
   41     7     8     3	 9 ;      HGR61     CG2R61     CG2R61     CG2R61
   41     7     8    42	 9 ;      HGR61     CG2R61     CG2R61      HGR61
   10     9    11    12	 9 ;     HGPAM1      NG311      CG311      NG311
   10     9    11    19	 9 ;     HGPAM1      NG311      CG311     CG2R61
   10     9    11    56	 9 ;     HGPAM1      NG311      CG311       HGA1
    1     9    11    12	 9 ;      CG311      NG311      CG311      NG311
    1     9    11    19	 9 ;      CG311      NG311      CG311     CG2R61
    1     9    11    56	 9 ;      CG311      NG311      CG311       HGA1
    9    11    12    14	 9 ;      NG311      CG311      NG311     HGPAM1
    9    11    12    13	 9 ;      NG311      CG311      NG311      CG301
   19    11    12    14	 9 ;     CG2R61      CG311      NG311     HGPAM1
   19    11    12    13	 9 ;     CG2R61      CG311      NG311      CG301
   56    11    12    14	 9 ;       HGA1      CG311      NG311     HGPAM1
   56    11    12    13	 9 ;       HGA1      CG311      NG311      CG301
   12    11    19    18	 9 ;      NG311      CG311     CG2R61     CG2R61
   12    11    19    21	 9 ;      NG311      CG311     CG2R61     CG2R61
    9    11    19    18	 9 ;      NG311      CG311     CG2R61     CG2R61
    9    11    19    21	 9 ;      NG311      CG311     CG2R61     CG2R61
   56    11    19    18	 9 ;       HGA1      CG311     CG2R61     CG2R61
   56    11    19    21	 9 ;       HGA1      CG311     CG2R61     CG2R61
   14    12    13    17	 9 ;     HGPAM1      NG311      CG301      CG331
   14    12    13    16	 9 ;     HGPAM1      NG311      CG301      CG331
   14    12    13    15	 9 ;     HGPAM1      NG311      CG301      CG321
   11    12    13    17	 9 ;      CG311      NG311      CG301      CG331
   11    12    13    16	 9 ;      CG311      NG311      CG301      CG331
   11    12    13    15	 9 ;      CG311      NG311      CG301      CG321
   16    13    17    48	 9 ;      CG331      CG301      CG331       HGA3
   16    13    17    49	 9 ;      CG331      CG301      CG331       HGA3
   16    13    17    50	 9 ;      CG331      CG301      CG331       HGA3
   12    13    17    48	 9 ;      NG311      CG301      CG331       HGA3
   12    13    17    49	 9 ;      NG311      CG301      CG331       HGA3
   12    13    17    50	 9 ;      NG311      CG301      CG331       HGA3
   15    13    17    48	 9 ;      CG321      CG301      CG331       HGA3
   15    13    17    49	 9 ;      CG321      CG301      CG331       HGA3
   15    13    17    50	 9 ;      CG321      CG301      CG331       HGA3
   17    13    16    45	 9 ;      CG331      CG301      CG331       HGA3
   17    13    16    46	 9 ;      CG331      CG301      CG331       HGA3
   17    13    16    47	 9 ;      CG331      CG301      CG331       HGA3
   12    13    16    45	 9 ;      NG311      CG301      CG331       HGA3
   12    13    16    46	 9 ;      NG311      CG301      CG331       HGA3
   12    13    16    47	 9 ;      NG311      CG301      CG331       HGA3
   15    13    16    45	 9 ;      CG321      CG301      CG331       HGA3
   15    13    16    46	 9 ;      CG321      CG301      CG331       HGA3
   15    13    16    47	 9 ;      CG321      CG301      CG331       HGA3
   17    13    15    18	 9 ;      CG331      CG301      CG321     CG2R61
   17    13    15    43	 9 ;      CG331      CG301      CG321       HGA2
   17    13    15    44	 9 ;      CG331      CG301      CG321       HGA2
   16    13    15    18	 9 ;      CG331      CG301      CG321     CG2R61
   16    13    15    43	 9 ;      CG331      CG301      CG321       HGA2
   16    13    15    44	 9 ;      CG331      CG301      CG321       HGA2
   12    13    15    18	 9 ;      NG311      CG301      CG321     CG2R61
   12    13    15    43	 9 ;      NG311      CG301      CG321       HGA2
   12    13    15    44	 9 ;      NG311      CG301      CG321       HGA2
   13    15    18    19	 9 ;      CG301      CG321     CG2R61     CG2R61
   13    15    18    20	 9 ;      CG301      CG321     CG2R61     CG2R61
   43    15    18    19	 9 ;       HGA2      CG321     CG2R61     CG2R61
   43    15    18    20	 9 ;       HGA2      CG321     CG2R61     CG2R61
   44    15    18    19	 9 ;       HGA2      CG321     CG2R61     CG2R61
   44    15    18    20	 9 ;       HGA2      CG321     CG2R61     CG2R61
   15    18    19    11	 9 ;      CG321     CG2R61     CG2R61      CG311
   15    18    19    21	 9 ;      CG321     CG2R61     CG2R61     CG2R61
   20    18    19    11	 9 ;     CG2R61     CG2R61     CG2R61      CG311
   20    18    19    21	 9 ;     CG2R61     CG2R61     CG2R61     CG2R61
   15    18    20    23	 9 ;      CG321     CG2R61     CG2R61     CG2R61
   15    18    20    51	 9 ;      CG321     CG2R61     CG2R61      HGR62
   19    18    20    23	 9 ;     CG2R61     CG2R61     CG2R61     CG2R61
   19    18    20    51	 9 ;     CG2R61     CG2R61     CG2R61      HGR62
   11    19    21    22	 9 ;      CG311     CG2R61     CG2R61     CG2R61
   11    19    21    52	 9 ;      CG311     CG2R61     CG2R61      HGR61
   18    19    21    22	 9 ;     CG2R61     CG2R61     CG2R61     CG2R61
   18    19    21    52	 9 ;     CG2R61     CG2R61     CG2R61      HGR61
   18    20    23    22	 9 ;     CG2R61     CG2R61     CG2R61     CG2R61
   18    20    23    24	 9 ;     CG2R61     CG2R61     CG2R61      CLGR1
   51    20    23    22	 9 ;      HGR62     CG2R61     CG2R61     CG2R61
   51    20    23    24	 9 ;      HGR62     CG2R61     CG2R61      CLGR1
   19    21    22    23	 9 ;     CG2R61     CG2R61     CG2R61     CG2R61
   19    21    22    53	 9 ;     CG2R61     CG2R61     CG2R61      HGR62
   52    21    22    23	 9 ;      HGR61     CG2R61     CG2R61     CG2R61
   52    21    22    53	 9 ;      HGR61     CG2R61     CG2R61      HGR62
   21    22    23    20	 9 ;     CG2R61     CG2R61     CG2R61     CG2R61
   21    22    23    24	 9 ;     CG2R61     CG2R61     CG2R61      CLGR1
   53    22    23    20	 9 ;      HGR62     CG2R61     CG2R61     CG2R61
   53    22    23    24	 9 ;      HGR62     CG2R61     CG2R61      CLGR1
    1    25    26    28	 9 ;      CG311      CG311      NG311     HGPAM1
    1    25    26    27	 9 ;      CG311      CG311      NG311     CG2D1O
   32    25    26    28	 9 ;      NG2S1      CG311      NG311     HGPAM1
   32    25    26    27	 9 ;      NG2S1      CG311      NG311     CG2D1O
   54    25    26    28	 9 ;       HGA1      CG311      NG311     HGPAM1
   54    25    26    27	 9 ;       HGA1      CG311      NG311     CG2D1O
    1    25    32    34	 9 ;      CG311      CG311      NG2S1       HGP1
    1    25    32    31	 9 ;      CG311      CG311      NG2S1      CG2O1
   26    25    32    34	 9 ;      NG311      CG311      NG2S1       HGP1
   26    25    32    31	 9 ;      NG311      CG311      NG2S1      CG2O1
   54    25    32    34	 9 ;       HGA1      CG311      NG2S1       HGP1
   54    25    32    31	 9 ;       HGA1      CG311      NG2S1      CG2O1
   28    26    27    29	 9 ;     HGPAM1      NG311     CG2D1O     CG2DC1
   28    26    27    55	 9 ;     HGPAM1      NG311     CG2D1O       HGA4
   25    26    27    29	 9 ;      CG311      NG311     CG2D1O     CG2DC1
   25    26    27    55	 9 ;      CG311      NG311     CG2D1O       HGA4
   26    27    29    31	 9 ;      NG311     CG2D1O     CG2DC1      CG2O1
   26    27    29    30	 9 ;      NG311     CG2D1O     CG2DC1       IGR1
   55    27    29    31	 9 ;       HGA4     CG2D1O     CG2DC1      CG2O1
   55    27    29    30	 9 ;       HGA4     CG2D1O     CG2DC1       IGR1
   27    29    31    32	 9 ;     CG2D1O     CG2DC1      CG2O1      NG2S1
   27    29    31    33	 9 ;     CG2D1O     CG2DC1      CG2O1      OG2D1
   30    29    31    32	 9 ;       IGR1     CG2DC1      CG2O1      NG2S1
   30    29    31    33	 9 ;       IGR1     CG2DC1      CG2O1      OG2D1
   29    31    32    25	 9 ;     CG2DC1      CG2O1      NG2S1      CG311
   29    31    32    34	 9 ;     CG2DC1      CG2O1      NG2S1       HGP1
   33    31    32    25	 9 ;      OG2D1      CG2O1      NG2S1      CG311
   33    31    32    34	 9 ;      OG2D1      CG2O1      NG2S1       HGP1

[ dihedrals ]
;	ai	  aj	ak	  al funct			  c0			c1			  c2			c3
   27    29    26    55	 2
   31    29    32    33	 2

[ virtual_sites2 ]
; Site   from				funct a
   57    24    23     2   -0.164
   58    30    29     2   -0.220

[ exclusions ]
;	ai	  aj
   24    57
   30    58
   57    23
   58    29
   57    20
   57    22
   58    27
   58    31
   57    18
   57    21
   57    51
   57    53
   58    26
   58    55
   58    32
   58    33

