Georgetown Riga Oslo Madrid Amsterdam Chisinau Stockholm
   58
    1LIG     C1    1  -1.328   0.285  -1.602
    1LIG     C2    2  -1.283   0.137  -1.617
    1LIG     C3    3  -1.192   0.071  -1.516
    1LIG     C4    4  -1.202  -0.064  -1.480
    1LIG     C5    5  -1.120  -0.115  -1.378
    1LIG     C6    6  -1.028  -0.033  -1.313
    1LIG     C7    7  -1.015   0.100  -1.352
    1LIG     C8    8  -1.096   0.151  -1.453
    1LIG     N1    9  -1.271   0.373  -1.706
    1LIG     H1   10  -1.312   0.354  -1.797
    1LIG     C9   11  -1.238   0.506  -1.683
    1LIG     N2   12  -1.115   0.542  -1.657
    1LIG    C10   13  -1.094   0.688  -1.628
    1LIG    HN1   14  -1.038   0.476  -1.658
    1LIG    C11   15  -1.202   0.731  -1.526
    1LIG    C12   16  -0.957   0.709  -1.562
    1LIG    C13   17  -1.094   0.770  -1.759
    1LIG    C14   18  -1.335   0.716  -1.594
    1LIG    C15   19  -1.351   0.606  -1.679
    1LIG    C16   20  -1.434   0.814  -1.584
    1LIG    C17   21  -1.463   0.599  -1.763
    1LIG    C18   22  -1.559   0.701  -1.757
    1LIG    C19   23  -1.545   0.807  -1.666
    1LIG     CL   24  -1.662   0.932  -1.661
    1LIG    C20   25  -1.482   0.286  -1.616
    1LIG     N3   26  -1.541   0.229  -1.717
    1LIG    C21   27  -1.678   0.235  -1.721
    1LIG    HN2   28  -1.488   0.181  -1.790
    1LIG    C22   29  -1.756   0.297  -1.633
    1LIG      I   30  -1.959   0.300  -1.647
    1LIG    C23   31  -1.687   0.369  -1.523
    1LIG     N4   32  -1.551   0.353  -1.519
    1LIG      O   33  -1.744   0.440  -1.441
    1LIG     H2   34  -1.499   0.409  -1.452
    1LIG     HC   35  -1.300   0.322  -1.503
    1LIG    HC2   36  -1.232   0.131  -1.713
    1LIG    HC3   37  -1.373   0.077  -1.624
    1LIG    HC1   38  -1.271  -0.129  -1.531
    1LIG    HC4   39  -1.129  -0.219  -1.350
    1LIG    HC5   40  -0.967  -0.073  -1.234
    1LIG    HC6   41  -0.941   0.163  -1.304
    1LIG    HC7   42  -1.085   0.254  -1.483
    1LIG    HC8   43  -1.198   0.667  -1.438
    1LIG    HC9   44  -1.187   0.835  -1.497
    1LIG   HC10   45  -0.952   0.653  -1.469
    1LIG   HC11   46  -0.943   0.815  -1.541
    1LIG   HC12   47  -0.879   0.674  -1.629
    1LIG   HC13   48  -1.190   0.757  -1.809
    1LIG   HC14   49  -1.014   0.734  -1.824
    1LIG   HC15   50  -1.078   0.875  -1.736
    1LIG   HC16   51  -1.424   0.895  -1.512
    1LIG   HC17   52  -1.475   0.516  -1.831
    1LIG   HC18   53  -1.644   0.698  -1.823
    1LIG   HC19   54  -1.489   0.194  -1.559
    1LIG   HC20   55  -1.727   0.184  -1.803
    1LIG    H26   56  -1.223   0.523  -1.789
    1LIG    LP1   57  -1.774   1.052  -1.657
    1LIG    LP2   58  -2.179   0.303  -1.663
   0.00000   0.00000   0.00000
