; Created by cgenff_charmm2gmx.py

[ moleculetype ]
; Name			   nrexcl
LIG				 3

[ atoms ]
;	 nr		  type	resnr residue  atom   cgnr	   charge		mass  typeB    chargeB		massB
; residue	 1 LIG rtp LIG q	qsum
     1      OG2D1      1    LIG      O      1     -0.325     15.999   ;
     2     CG2R53      1    LIG     C1      2     -0.445     12.011   ;
     3     NG2R53      1    LIG     N1      3     -0.178     14.007   ;
     4      CG331      1    LIG     C2      4     -0.169     12.011   ;
     5     CG3C53      1    LIG     C3      5      0.785     12.011   ;
     6      NG3P2      1    LIG     N2      6     -0.588     14.007   ;
     7       HGP2      1    LIG     HN      7      0.336      1.008   ;
     8     CG3C50      1    LIG     C4      8      1.440     12.011   ;
     9      CG311      1    LIG     C5      9     -0.044     12.011   ;
    10      CG321      1    LIG     C6     10     -0.129     12.011   ;
    11      CG321      1    LIG     C7     11     -0.241     12.011   ;
    12      CG321      1    LIG     C8     12     -0.154     12.011   ;
    13      CG321      1    LIG     C9     13     -0.241     12.011   ;
    14      CG321      1    LIG    C10     14     -0.129     12.011   ;
    15     CG2R61      1    LIG    C11     15     -0.215     12.011   ;
    16     CG2R61      1    LIG    C12     16     -0.131     12.011   ;
    17     CG2R61      1    LIG    C13     17     -0.105     12.011   ;
    18     CG2R61      1    LIG    C14     18     -0.116     12.011   ;
    19     CG2R61      1    LIG    C15     19     -0.105     12.011   ;
    20     CG2R61      1    LIG    C16     20     -0.131     12.011   ;
    21      NG3P3      1    LIG     N3     21     -0.267     14.007   ;
    22       HGP2      1    LIG     H1     22      0.301      1.008   ;
    23       HGP2      1    LIG     H2     23      0.301      1.008   ;
    24       HGA3      1    LIG    HC1     24      0.090      1.008   ;
    25       HGA3      1    LIG    HC2     25      0.090      1.008   ;
    26       HGA3      1    LIG    HC3     26      0.090      1.008   ;
    27       HGA1      1    LIG     HC     27      0.073      1.008   ;
    28       HGP2      1    LIG    HN2     28      0.336      1.008   ;
    29       HGA1      1    LIG    HC4     29      0.090      1.008   ;
    30       HGA2      1    LIG    HC5     30      0.090      1.008   ;
    31       HGA2      1    LIG    HC6     31      0.090      1.008   ;
    32       HGA2      1    LIG    HC7     32      0.090      1.008   ;
    33       HGA2      1    LIG    HC8     33      0.090      1.008   ;
    34       HGA2      1    LIG    HC9     34      0.090      1.008   ;
    35       HGA2      1    LIG   HC10     35      0.090      1.008   ;
    36       HGA2      1    LIG   HC11     36      0.090      1.008   ;
    37       HGA2      1    LIG   HC12     37      0.090      1.008   ;
    38       HGA2      1    LIG   HC13     38      0.090      1.008   ;
    39       HGA2      1    LIG   HC14     39      0.090      1.008   ;
    40      HGR61      1    LIG   HC15     40      0.116      1.008   ;
    41      HGR61      1    LIG   HC16     41      0.116      1.008   ;
    42      HGR61      1    LIG   HC17     42      0.116      1.008   ;
    43      HGR61      1    LIG   HC18     43      0.116      1.008   ;
    44      HGR61      1    LIG   HC19     44      0.116      1.008   ;
    45       HGP2      1    LIG    HN1     45      0.301      1.008   ;

[ bonds ]
;	ai	  aj funct			  c0			c1			  c2			c3
    1     2	 1 ;       OG2D1     CG2R53
    2     3	 1 ;      CG2R53     NG2R53
    2     8	 1 ;      CG2R53     CG3C50
    3     4	 1 ;      NG2R53      CG331
    3     5	 1 ;      NG2R53     CG3C53
    4    24	 1 ;       CG331       HGA3
    4    25	 1 ;       CG331       HGA3
    4    26	 1 ;       CG331       HGA3
    5    21	 1 ;      CG3C53      NG3P3
    5     6	 1 ;      CG3C53      NG3P2
    5    27	 1 ;      CG3C53       HGA1
    6     8	 1 ;       NG3P2     CG3C50
    6     7	 1 ;       NG3P2       HGP2
    6    28	 1 ;       NG3P2       HGP2
    8    15	 1 ;      CG3C50     CG2R61
    8     9	 1 ;      CG3C50      CG311
    9    14	 1 ;       CG311      CG321
    9    10	 1 ;       CG311      CG321
    9    29	 1 ;       CG311       HGA1
   10    11	 1 ;       CG321      CG321
   10    30	 1 ;       CG321       HGA2
   10    31	 1 ;       CG321       HGA2
   11    12	 1 ;       CG321      CG321
   11    32	 1 ;       CG321       HGA2
   11    33	 1 ;       CG321       HGA2
   12    13	 1 ;       CG321      CG321
   12    34	 1 ;       CG321       HGA2
   12    35	 1 ;       CG321       HGA2
   13    14	 1 ;       CG321      CG321
   13    36	 1 ;       CG321       HGA2
   13    37	 1 ;       CG321       HGA2
   14    38	 1 ;       CG321       HGA2
   14    39	 1 ;       CG321       HGA2
   15    20	 1 ;      CG2R61     CG2R61
   15    16	 1 ;      CG2R61     CG2R61
   16    17	 1 ;      CG2R61     CG2R61
   16    40	 1 ;      CG2R61      HGR61
   17    18	 1 ;      CG2R61     CG2R61
   17    41	 1 ;      CG2R61      HGR61
   18    19	 1 ;      CG2R61     CG2R61
   18    42	 1 ;      CG2R61      HGR61
   19    20	 1 ;      CG2R61     CG2R61
   19    43	 1 ;      CG2R61      HGR61
   20    44	 1 ;      CG2R61      HGR61
   21    23	 1 ;       NG3P3       HGP2
   21    22	 1 ;       NG3P3       HGP2
   21    45	 1 ;       NG3P3       HGP2

[ pairs ]
;	ai	  aj funct			  c0			c1			  c2			c3
    1     4	 1
    1     5	 1
    1     6	 1
    1    15	 1
    1     9	 1
    2    24	 1
    2    25	 1
    2    26	 1
    2    21	 1
    2    27	 1
    2     7	 1
    2    28	 1
    2    20	 1
    2    16	 1
    2    14	 1
    2    10	 1
    2    29	 1
    3    15	 1
    3     9	 1
    3    23	 1
    3    22	 1
    3    45	 1
    3     7	 1
    3    28	 1
    4     8	 1
    4    21	 1
    4     6	 1
    4    27	 1
    5    24	 1
    5    25	 1
    5    26	 1
    5    15	 1
    5     9	 1
    6    23	 1
    6    22	 1
    6    45	 1
    6    20	 1
    6    16	 1
    6    14	 1
    6    10	 1
    6    29	 1
    7    21	 1
    7    27	 1
    7    15	 1
    7     9	 1
    8    21	 1
    8    27	 1
    8    13	 1
    8    38	 1
    8    39	 1
    8    11	 1
    8    30	 1
    8    31	 1
    8    19	 1
    8    44	 1
    8    17	 1
    8    40	 1
    9    28	 1
    9    20	 1
    9    16	 1
    9    12	 1
    9    32	 1
    9    33	 1
    9    36	 1
    9    37	 1
   10    15	 1
   10    13	 1
   10    38	 1
   10    39	 1
   10    34	 1
   10    35	 1
   11    14	 1
   11    29	 1
   11    36	 1
   11    37	 1
   12    30	 1
   12    31	 1
   12    38	 1
   12    39	 1
   13    29	 1
   13    32	 1
   13    33	 1
   14    15	 1
   14    30	 1
   14    31	 1
   14    34	 1
   14    35	 1
   15    28	 1
   15    29	 1
   15    18	 1
   15    41	 1
   15    43	 1
   16    19	 1
   16    44	 1
   16    42	 1
   17    20	 1
   17    43	 1
   18    40	 1
   18    44	 1
   19    41	 1
   20    40	 1
   20    42	 1
   21    28	 1
   22    27	 1
   23    27	 1
   27    45	 1
   27    28	 1
   29    38	 1
   29    39	 1
   29    30	 1
   29    31	 1
   30    32	 1
   30    33	 1
   31    32	 1
   31    33	 1
   32    34	 1
   32    35	 1
   33    34	 1
   33    35	 1
   34    36	 1
   34    37	 1
   35    36	 1
   35    37	 1
   36    38	 1
   36    39	 1
   37    38	 1
   37    39	 1
   40    41	 1
   41    42	 1
   42    43	 1
   43    44	 1

[ angles ]
;	ai	  aj	ak funct			c0			  c1			c2			  c3
    1     2     3	5 ;      OG2D1     CG2R53     NG2R53
    1     2     8	5 ;      OG2D1     CG2R53     CG3C50
    3     2     8	5 ;     NG2R53     CG2R53     CG3C50
    4     3     2	5 ;      CG331     NG2R53     CG2R53
    4     3     5	5 ;      CG331     NG2R53     CG3C53
    2     3     5	5 ;     CG2R53     NG2R53     CG3C53
    3     4    24	5 ;     NG2R53      CG331       HGA3
    3     4    25	5 ;     NG2R53      CG331       HGA3
    3     4    26	5 ;     NG2R53      CG331       HGA3
   24     4    25	5 ;       HGA3      CG331       HGA3
   24     4    26	5 ;       HGA3      CG331       HGA3
   25     4    26	5 ;       HGA3      CG331       HGA3
    3     5    21	5 ;     NG2R53     CG3C53      NG3P3
    3     5     6	5 ;     NG2R53     CG3C53      NG3P2
    3     5    27	5 ;     NG2R53     CG3C53       HGA1
   21     5     6	5 ;      NG3P3     CG3C53      NG3P2
   21     5    27	5 ;      NG3P3     CG3C53       HGA1
    6     5    27	5 ;      NG3P2     CG3C53       HGA1
    5     6     8	5 ;     CG3C53      NG3P2     CG3C50
    5     6     7	5 ;     CG3C53      NG3P2       HGP2
    5     6    28	5 ;     CG3C53      NG3P2       HGP2
    8     6     7	5 ;     CG3C50      NG3P2       HGP2
    8     6    28	5 ;     CG3C50      NG3P2       HGP2
    7     6    28	5 ;       HGP2      NG3P2       HGP2
    2     8     6	5 ;     CG2R53     CG3C50      NG3P2
    2     8    15	5 ;     CG2R53     CG3C50     CG2R61
    2     8     9	5 ;     CG2R53     CG3C50      CG311
    6     8    15	5 ;      NG3P2     CG3C50     CG2R61
    6     8     9	5 ;      NG3P2     CG3C50      CG311
   15     8     9	5 ;     CG2R61     CG3C50      CG311
    8     9    14	5 ;     CG3C50      CG311      CG321
    8     9    10	5 ;     CG3C50      CG311      CG321
    8     9    29	5 ;     CG3C50      CG311       HGA1
   14     9    10	5 ;      CG321      CG311      CG321
   14     9    29	5 ;      CG321      CG311       HGA1
   10     9    29	5 ;      CG321      CG311       HGA1
    9    10    11	5 ;      CG311      CG321      CG321
    9    10    30	5 ;      CG311      CG321       HGA2
    9    10    31	5 ;      CG311      CG321       HGA2
   11    10    30	5 ;      CG321      CG321       HGA2
   11    10    31	5 ;      CG321      CG321       HGA2
   30    10    31	5 ;       HGA2      CG321       HGA2
   10    11    12	5 ;      CG321      CG321      CG321
   10    11    32	5 ;      CG321      CG321       HGA2
   10    11    33	5 ;      CG321      CG321       HGA2
   12    11    32	5 ;      CG321      CG321       HGA2
   12    11    33	5 ;      CG321      CG321       HGA2
   32    11    33	5 ;       HGA2      CG321       HGA2
   13    12    11	5 ;      CG321      CG321      CG321
   13    12    34	5 ;      CG321      CG321       HGA2
   13    12    35	5 ;      CG321      CG321       HGA2
   11    12    34	5 ;      CG321      CG321       HGA2
   11    12    35	5 ;      CG321      CG321       HGA2
   34    12    35	5 ;       HGA2      CG321       HGA2
   14    13    12	5 ;      CG321      CG321      CG321
   14    13    36	5 ;      CG321      CG321       HGA2
   14    13    37	5 ;      CG321      CG321       HGA2
   12    13    36	5 ;      CG321      CG321       HGA2
   12    13    37	5 ;      CG321      CG321       HGA2
   36    13    37	5 ;       HGA2      CG321       HGA2
    9    14    13	5 ;      CG311      CG321      CG321
    9    14    38	5 ;      CG311      CG321       HGA2
    9    14    39	5 ;      CG311      CG321       HGA2
   13    14    38	5 ;      CG321      CG321       HGA2
   13    14    39	5 ;      CG321      CG321       HGA2
   38    14    39	5 ;       HGA2      CG321       HGA2
   20    15     8	5 ;     CG2R61     CG2R61     CG3C50
   20    15    16	5 ;     CG2R61     CG2R61     CG2R61
    8    15    16	5 ;     CG3C50     CG2R61     CG2R61
   15    16    17	5 ;     CG2R61     CG2R61     CG2R61
   15    16    40	5 ;     CG2R61     CG2R61      HGR61
   17    16    40	5 ;     CG2R61     CG2R61      HGR61
   18    17    16	5 ;     CG2R61     CG2R61     CG2R61
   18    17    41	5 ;     CG2R61     CG2R61      HGR61
   16    17    41	5 ;     CG2R61     CG2R61      HGR61
   19    18    17	5 ;     CG2R61     CG2R61     CG2R61
   19    18    42	5 ;     CG2R61     CG2R61      HGR61
   17    18    42	5 ;     CG2R61     CG2R61      HGR61
   20    19    18	5 ;     CG2R61     CG2R61     CG2R61
   20    19    43	5 ;     CG2R61     CG2R61      HGR61
   18    19    43	5 ;     CG2R61     CG2R61      HGR61
   19    20    15	5 ;     CG2R61     CG2R61     CG2R61
   19    20    44	5 ;     CG2R61     CG2R61      HGR61
   15    20    44	5 ;     CG2R61     CG2R61      HGR61
   23    21     5	5 ;       HGP2      NG3P3     CG3C53
   23    21    22	5 ;       HGP2      NG3P3       HGP2
   23    21    45	5 ;       HGP2      NG3P3       HGP2
    5    21    22	5 ;     CG3C53      NG3P3       HGP2
    5    21    45	5 ;     CG3C53      NG3P3       HGP2
   22    21    45	5 ;       HGP2      NG3P3       HGP2

[ dihedrals ]
;	ai	  aj	ak	  al funct			  c0			c1			  c2			c3			  c4			c5
    1     2     3     4	 9 ;      OG2D1     CG2R53     NG2R53      CG331
    1     2     3     5	 9 ;      OG2D1     CG2R53     NG2R53     CG3C53
    8     2     3     4	 9 ;     CG3C50     CG2R53     NG2R53      CG331
    8     2     3     5	 9 ;     CG3C50     CG2R53     NG2R53     CG3C53
    1     2     8     6	 9 ;      OG2D1     CG2R53     CG3C50      NG3P2
    1     2     8    15	 9 ;      OG2D1     CG2R53     CG3C50     CG2R61
    1     2     8     9	 9 ;      OG2D1     CG2R53     CG3C50      CG311
    3     2     8     6	 9 ;     NG2R53     CG2R53     CG3C50      NG3P2
    3     2     8    15	 9 ;     NG2R53     CG2R53     CG3C50     CG2R61
    3     2     8     9	 9 ;     NG2R53     CG2R53     CG3C50      CG311
    2     3     4    24	 9 ;     CG2R53     NG2R53      CG331       HGA3
    2     3     4    25	 9 ;     CG2R53     NG2R53      CG331       HGA3
    2     3     4    26	 9 ;     CG2R53     NG2R53      CG331       HGA3
    5     3     4    24	 9 ;     CG3C53     NG2R53      CG331       HGA3
    5     3     4    25	 9 ;     CG3C53     NG2R53      CG331       HGA3
    5     3     4    26	 9 ;     CG3C53     NG2R53      CG331       HGA3
    4     3     5    21	 9 ;      CG331     NG2R53     CG3C53      NG3P3
    4     3     5     6	 9 ;      CG331     NG2R53     CG3C53      NG3P2
    4     3     5    27	 9 ;      CG331     NG2R53     CG3C53       HGA1
    2     3     5    21	 9 ;     CG2R53     NG2R53     CG3C53      NG3P3
    2     3     5     6	 9 ;     CG2R53     NG2R53     CG3C53      NG3P2
    2     3     5    27	 9 ;     CG2R53     NG2R53     CG3C53       HGA1
    3     5    21    23	 9 ;     NG2R53     CG3C53      NG3P3       HGP2
    3     5    21    22	 9 ;     NG2R53     CG3C53      NG3P3       HGP2
    3     5    21    45	 9 ;     NG2R53     CG3C53      NG3P3       HGP2
    6     5    21    23	 9 ;      NG3P2     CG3C53      NG3P3       HGP2
    6     5    21    22	 9 ;      NG3P2     CG3C53      NG3P3       HGP2
    6     5    21    45	 9 ;      NG3P2     CG3C53      NG3P3       HGP2
   27     5    21    23	 9 ;       HGA1     CG3C53      NG3P3       HGP2
   27     5    21    22	 9 ;       HGA1     CG3C53      NG3P3       HGP2
   27     5    21    45	 9 ;       HGA1     CG3C53      NG3P3       HGP2
    3     5     6     8	 9 ;     NG2R53     CG3C53      NG3P2     CG3C50
    3     5     6     7	 9 ;     NG2R53     CG3C53      NG3P2       HGP2
    3     5     6    28	 9 ;     NG2R53     CG3C53      NG3P2       HGP2
   21     5     6     8	 9 ;      NG3P3     CG3C53      NG3P2     CG3C50
   21     5     6     7	 9 ;      NG3P3     CG3C53      NG3P2       HGP2
   21     5     6    28	 9 ;      NG3P3     CG3C53      NG3P2       HGP2
   27     5     6     8	 9 ;       HGA1     CG3C53      NG3P2     CG3C50
   27     5     6     7	 9 ;       HGA1     CG3C53      NG3P2       HGP2
   27     5     6    28	 9 ;       HGA1     CG3C53      NG3P2       HGP2
    5     6     8     2	 9 ;     CG3C53      NG3P2     CG3C50     CG2R53
    5     6     8    15	 9 ;     CG3C53      NG3P2     CG3C50     CG2R61
    5     6     8     9	 9 ;     CG3C53      NG3P2     CG3C50      CG311
    7     6     8     2	 9 ;       HGP2      NG3P2     CG3C50     CG2R53
    7     6     8    15	 9 ;       HGP2      NG3P2     CG3C50     CG2R61
    7     6     8     9	 9 ;       HGP2      NG3P2     CG3C50      CG311
   28     6     8     2	 9 ;       HGP2      NG3P2     CG3C50     CG2R53
   28     6     8    15	 9 ;       HGP2      NG3P2     CG3C50     CG2R61
   28     6     8     9	 9 ;       HGP2      NG3P2     CG3C50      CG311
    2     8    15    20	 9 ;     CG2R53     CG3C50     CG2R61     CG2R61
    2     8    15    16	 9 ;     CG2R53     CG3C50     CG2R61     CG2R61
    6     8    15    20	 9 ;      NG3P2     CG3C50     CG2R61     CG2R61
    6     8    15    16	 9 ;      NG3P2     CG3C50     CG2R61     CG2R61
    9     8    15    20	 9 ;      CG311     CG3C50     CG2R61     CG2R61
    9     8    15    16	 9 ;      CG311     CG3C50     CG2R61     CG2R61
    2     8     9    14	 9 ;     CG2R53     CG3C50      CG311      CG321
    2     8     9    10	 9 ;     CG2R53     CG3C50      CG311      CG321
    2     8     9    29	 9 ;     CG2R53     CG3C50      CG311       HGA1
    6     8     9    14	 9 ;      NG3P2     CG3C50      CG311      CG321
    6     8     9    10	 9 ;      NG3P2     CG3C50      CG311      CG321
    6     8     9    29	 9 ;      NG3P2     CG3C50      CG311       HGA1
   15     8     9    14	 9 ;     CG2R61     CG3C50      CG311      CG321
   15     8     9    10	 9 ;     CG2R61     CG3C50      CG311      CG321
   15     8     9    29	 9 ;     CG2R61     CG3C50      CG311       HGA1
    8     9    14    13	 9 ;     CG3C50      CG311      CG321      CG321
    8     9    14    38	 9 ;     CG3C50      CG311      CG321       HGA2
    8     9    14    39	 9 ;     CG3C50      CG311      CG321       HGA2
   10     9    14    13	 9 ;      CG321      CG311      CG321      CG321
   10     9    14    38	 9 ;      CG321      CG311      CG321       HGA2
   10     9    14    39	 9 ;      CG321      CG311      CG321       HGA2
   29     9    14    13	 9 ;       HGA1      CG311      CG321      CG321
   29     9    14    38	 9 ;       HGA1      CG311      CG321       HGA2
   29     9    14    39	 9 ;       HGA1      CG311      CG321       HGA2
    8     9    10    11	 9 ;     CG3C50      CG311      CG321      CG321
    8     9    10    30	 9 ;     CG3C50      CG311      CG321       HGA2
    8     9    10    31	 9 ;     CG3C50      CG311      CG321       HGA2
   14     9    10    11	 9 ;      CG321      CG311      CG321      CG321
   14     9    10    30	 9 ;      CG321      CG311      CG321       HGA2
   14     9    10    31	 9 ;      CG321      CG311      CG321       HGA2
   29     9    10    11	 9 ;       HGA1      CG311      CG321      CG321
   29     9    10    30	 9 ;       HGA1      CG311      CG321       HGA2
   29     9    10    31	 9 ;       HGA1      CG311      CG321       HGA2
    9    10    11    12	 9 ;      CG311      CG321      CG321      CG321
    9    10    11    32	 9 ;      CG311      CG321      CG321       HGA2
    9    10    11    33	 9 ;      CG311      CG321      CG321       HGA2
   30    10    11    12	 9 ;       HGA2      CG321      CG321      CG321
   30    10    11    32	 9 ;       HGA2      CG321      CG321       HGA2
   30    10    11    33	 9 ;       HGA2      CG321      CG321       HGA2
   31    10    11    12	 9 ;       HGA2      CG321      CG321      CG321
   31    10    11    32	 9 ;       HGA2      CG321      CG321       HGA2
   31    10    11    33	 9 ;       HGA2      CG321      CG321       HGA2
   10    11    12    13	 9 ;      CG321      CG321      CG321      CG321
   10    11    12    34	 9 ;      CG321      CG321      CG321       HGA2
   10    11    12    35	 9 ;      CG321      CG321      CG321       HGA2
   32    11    12    13	 9 ;       HGA2      CG321      CG321      CG321
   32    11    12    34	 9 ;       HGA2      CG321      CG321       HGA2
   32    11    12    35	 9 ;       HGA2      CG321      CG321       HGA2
   33    11    12    13	 9 ;       HGA2      CG321      CG321      CG321
   33    11    12    34	 9 ;       HGA2      CG321      CG321       HGA2
   33    11    12    35	 9 ;       HGA2      CG321      CG321       HGA2
   11    12    13    14	 9 ;      CG321      CG321      CG321      CG321
   11    12    13    36	 9 ;      CG321      CG321      CG321       HGA2
   11    12    13    37	 9 ;      CG321      CG321      CG321       HGA2
   34    12    13    14	 9 ;       HGA2      CG321      CG321      CG321
   34    12    13    36	 9 ;       HGA2      CG321      CG321       HGA2
   34    12    13    37	 9 ;       HGA2      CG321      CG321       HGA2
   35    12    13    14	 9 ;       HGA2      CG321      CG321      CG321
   35    12    13    36	 9 ;       HGA2      CG321      CG321       HGA2
   35    12    13    37	 9 ;       HGA2      CG321      CG321       HGA2
   12    13    14     9	 9 ;      CG321      CG321      CG321      CG311
   12    13    14    38	 9 ;      CG321      CG321      CG321       HGA2
   12    13    14    39	 9 ;      CG321      CG321      CG321       HGA2
   36    13    14     9	 9 ;       HGA2      CG321      CG321      CG311
   36    13    14    38	 9 ;       HGA2      CG321      CG321       HGA2
   36    13    14    39	 9 ;       HGA2      CG321      CG321       HGA2
   37    13    14     9	 9 ;       HGA2      CG321      CG321      CG311
   37    13    14    38	 9 ;       HGA2      CG321      CG321       HGA2
   37    13    14    39	 9 ;       HGA2      CG321      CG321       HGA2
    8    15    20    19	 9 ;     CG3C50     CG2R61     CG2R61     CG2R61
    8    15    20    44	 9 ;     CG3C50     CG2R61     CG2R61      HGR61
   16    15    20    19	 9 ;     CG2R61     CG2R61     CG2R61     CG2R61
   16    15    20    44	 9 ;     CG2R61     CG2R61     CG2R61      HGR61
   20    15    16    17	 9 ;     CG2R61     CG2R61     CG2R61     CG2R61
   20    15    16    40	 9 ;     CG2R61     CG2R61     CG2R61      HGR61
    8    15    16    17	 9 ;     CG3C50     CG2R61     CG2R61     CG2R61
    8    15    16    40	 9 ;     CG3C50     CG2R61     CG2R61      HGR61
   15    16    17    18	 9 ;     CG2R61     CG2R61     CG2R61     CG2R61
   15    16    17    41	 9 ;     CG2R61     CG2R61     CG2R61      HGR61
   40    16    17    18	 9 ;      HGR61     CG2R61     CG2R61     CG2R61
   40    16    17    41	 9 ;      HGR61     CG2R61     CG2R61      HGR61
   16    17    18    19	 9 ;     CG2R61     CG2R61     CG2R61     CG2R61
   16    17    18    42	 9 ;     CG2R61     CG2R61     CG2R61      HGR61
   41    17    18    19	 9 ;      HGR61     CG2R61     CG2R61     CG2R61
   41    17    18    42	 9 ;      HGR61     CG2R61     CG2R61      HGR61
   17    18    19    20	 9 ;     CG2R61     CG2R61     CG2R61     CG2R61
   17    18    19    43	 9 ;     CG2R61     CG2R61     CG2R61      HGR61
   42    18    19    20	 9 ;      HGR61     CG2R61     CG2R61     CG2R61
   42    18    19    43	 9 ;      HGR61     CG2R61     CG2R61      HGR61
   18    19    20    15	 9 ;     CG2R61     CG2R61     CG2R61     CG2R61
   18    19    20    44	 9 ;     CG2R61     CG2R61     CG2R61      HGR61
   43    19    20    15	 9 ;      HGR61     CG2R61     CG2R61     CG2R61
   43    19    20    44	 9 ;      HGR61     CG2R61     CG2R61      HGR61

[ dihedrals ]
;	ai	  aj	ak	  al funct			  c0			c1			  c2			c3
    2     8     3     1	 2

