Good ROcking Metal Altar for Chronical Sinners
   45
    1LIG      O    1  -1.159   0.402  -1.773
    1LIG     C1    2  -1.174   0.454  -1.663
    1LIG     N1    3  -1.149   0.584  -1.631
    1LIG     C2    4  -1.126   0.687  -1.730
    1LIG     C3    5  -1.180   0.603  -1.501
    1LIG     N2    6  -1.229   0.501  -1.437
    1LIG     HN    7  -1.253   0.497  -1.338
    1LIG     C4    8  -1.241   0.391  -1.539
    1LIG     C5    9  -1.394   0.372  -1.572
    1LIG     C6   10  -1.486   0.409  -1.453
    1LIG     C7   11  -1.634   0.392  -1.484
    1LIG     C8   12  -1.664   0.250  -1.528
    1LIG     C9   13  -1.578   0.211  -1.648
    1LIG    C10   14  -1.429   0.230  -1.621
    1LIG    C11   15  -1.172   0.263  -1.490
    1LIG    C12   16  -1.171   0.231  -1.353
    1LIG    C13   17  -1.109   0.115  -1.305
    1LIG    C14   18  -1.044   0.029  -1.393
    1LIG    C15   19  -1.044   0.058  -1.529
    1LIG    C16   20  -1.109   0.172  -1.577
    1LIG     N3   21  -1.163   0.723  -1.441
    1LIG     H1   22  -1.112   0.714  -1.353
    1LIG     H2   23  -1.128   0.798  -1.499
    1LIG    HC1   24  -1.103   0.640  -1.826
    1LIG    HC2   25  -1.043   0.749  -1.699
    1LIG    HC3   26  -1.216   0.748  -1.740
    1LIG     HC   27  -1.079   0.573  -1.472
    1LIG    HN2   28  -1.322   0.532  -1.459
    1LIG    HC4   29  -1.418   0.440  -1.654
    1LIG    HC5   30  -1.468   0.513  -1.426
    1LIG    HC6   31  -1.461   0.346  -1.368
    1LIG    HC7   32  -1.692   0.415  -1.395
    1LIG    HC8   33  -1.662   0.461  -1.564
    1LIG    HC9   34  -1.769   0.242  -1.555
    1LIG   HC10   35  -1.643   0.182  -1.445
    1LIG   HC11   36  -1.597   0.106  -1.671
    1LIG   HC12   37  -1.607   0.273  -1.733
    1LIG   HC13   38  -1.374   0.210  -1.713
    1LIG   HC14   39  -1.397   0.158  -1.545
    1LIG   HC15   40  -1.221   0.297  -1.283
    1LIG   HC16   41  -1.110   0.093  -1.199
    1LIG   HC17   42  -0.994  -0.059  -1.356
    1LIG   HC18   43  -0.995  -0.009  -1.598
    1LIG   HC19   44  -1.110   0.192  -1.684
    1LIG    HN1   45  -1.255   0.752  -1.414
   0.00000   0.00000   0.00000
