S  C  A  M  O  R  G
   43
    1LIG     C1    1  -1.270   0.357  -1.567
    1LIG     N1    2  -1.233   0.374  -1.713
    1LIG     HN    3  -1.256   0.311  -1.790
    1LIG     C2    4  -1.166   0.484  -1.720
    1LIG     N2    5  -1.159   0.558  -1.608
    1LIG     C3    6  -1.078   0.675  -1.585
    1LIG     C4    7  -1.233   0.497  -1.511
    1LIG     O1    8  -1.257   0.543  -1.400
    1LIG     C5    9  -1.419   0.318  -1.554
    1LIG     C6   10  -1.501   0.382  -1.460
    1LIG     C7   11  -1.638   0.353  -1.449
    1LIG     C8   12  -1.696   0.259  -1.533
    1LIG     C9   13  -1.617   0.195  -1.628
    1LIG    C10   14  -1.480   0.224  -1.638
    1LIG     O2   15  -1.828   0.221  -1.533
    1LIG    C11   16  -1.890   0.202  -1.407
    1LIG    C12   17  -1.176   0.255  -1.499
    1LIG    C13   18  -1.175   0.238  -1.359
    1LIG    C14   19  -1.105   0.133  -1.300
    1LIG    C15   20  -1.031   0.045  -1.378
    1LIG    C16   21  -1.026   0.062  -1.516
    1LIG    C17   22  -1.098   0.167  -1.576
    1LIG     N3   23  -1.108   0.524  -1.836
    1LIG     H1   24  -1.013   0.491  -1.845
    1LIG     H2   25  -1.163   0.514  -1.920
    1LIG    HN2   26  -1.319   0.425  -1.729
    1LIG     HC   27  -1.075   0.431  -1.692
    1LIG    HC1   28  -1.095   0.711  -1.484
    1LIG    HC2   29  -0.973   0.649  -1.597
    1LIG    HC3   30  -1.105   0.753  -1.657
    1LIG    HC4   31  -1.457   0.457  -1.394
    1LIG    HC5   32  -1.698   0.403  -1.374
    1LIG    HC6   33  -1.661   0.122  -1.694
    1LIG    HC7   34  -1.421   0.172  -1.712
    1LIG    HC8   35  -1.994   0.172  -1.422
    1LIG    HC9   36  -1.887   0.295  -1.350
    1LIG   HC10   37  -1.837   0.124  -1.352
    1LIG   HC11   38  -1.231   0.306  -1.297
    1LIG   HC12   39  -1.107   0.120  -1.192
    1LIG   HC13   40  -0.978  -0.037  -1.332
    1LIG   HC14   41  -0.967  -0.004  -1.577
    1LIG   HC15   42  -1.093   0.179  -1.683
    1LIG    HN1   43  -1.098   0.624  -1.825
   0.00000   0.00000   0.00000
