; Created by cgenff_charmm2gmx.py

[ moleculetype ]
; Name			   nrexcl
LIG				 3

[ atoms ]
;	 nr		  type	resnr residue  atom   cgnr	   charge		mass  typeB    chargeB		massB
; residue	 1 LIG rtp LIG q	qsum
     1     CG3C50      1    LIG     C1      1      1.599     12.011   ;
     2      NG3P2      1    LIG     N1      2     -0.701     14.007   ;
     3       HGP2      1    LIG     HN      3      0.353      1.008   ;
     4     CG3C53      1    LIG     C2      4      0.784     12.011   ;
     5     NG2R53      1    LIG     N2      5     -0.171     14.007   ;
     6      CG331      1    LIG     C3      6     -0.169     12.011   ;
     7     CG2R53      1    LIG     C4      7     -0.361     12.011   ;
     8      OG2D1      1    LIG     O1      8     -0.342     15.999   ;
     9     CG2R61      1    LIG     C5      9     -0.154     12.011   ;
    10     CG2R61      1    LIG     C6     10     -0.128     12.011   ;
    11     CG2R61      1    LIG     C7     11     -0.110     12.011   ;
    12     CG2R61      1    LIG     C8     12      0.211     12.011   ;
    13     CG2R61      1    LIG     C9     13     -0.110     12.011   ;
    14     CG2R61      1    LIG    C10     14     -0.128     12.011   ;
    15      OG301      1    LIG     O2     15     -0.383     15.999   ;
    16      CG331      1    LIG    C11     16     -0.094     12.011   ;
    17     CG2R61      1    LIG    C12     17     -0.154     12.011   ;
    18     CG2R61      1    LIG    C13     18     -0.131     12.011   ;
    19     CG2R61      1    LIG    C14     19     -0.105     12.011   ;
    20     CG2R61      1    LIG    C15     20     -0.116     12.011   ;
    21     CG2R61      1    LIG    C16     21     -0.105     12.011   ;
    22     CG2R61      1    LIG    C17     22     -0.131     12.011   ;
    23      NG3P3      1    LIG     N3     23     -0.267     14.007   ;
    24       HGP2      1    LIG     H1     24      0.301      1.008   ;
    25       HGP2      1    LIG     H2     25      0.301      1.008   ;
    26       HGP2      1    LIG    HN2     26      0.353      1.008   ;
    27       HGA1      1    LIG     HC     27      0.073      1.008   ;
    28       HGA3      1    LIG    HC1     28      0.090      1.008   ;
    29       HGA3      1    LIG    HC2     29      0.090      1.008   ;
    30       HGA3      1    LIG    HC3     30      0.090      1.008   ;
    31      HGR61      1    LIG    HC4     31      0.116      1.008   ;
    32      HGR61      1    LIG    HC5     32      0.116      1.008   ;
    33      HGR61      1    LIG    HC6     33      0.116      1.008   ;
    34      HGR61      1    LIG    HC7     34      0.116      1.008   ;
    35       HGA3      1    LIG    HC8     35      0.090      1.008   ;
    36       HGA3      1    LIG    HC9     36      0.090      1.008   ;
    37       HGA3      1    LIG   HC10     37      0.090      1.008   ;
    38      HGR61      1    LIG   HC11     38      0.116      1.008   ;
    39      HGR61      1    LIG   HC12     39      0.116      1.008   ;
    40      HGR61      1    LIG   HC13     40      0.116      1.008   ;
    41      HGR61      1    LIG   HC14     41      0.116      1.008   ;
    42      HGR61      1    LIG   HC15     42      0.116      1.008   ;
    43       HGP2      1    LIG    HN1     43      0.301      1.008   ;

[ bonds ]
;	ai	  aj funct			  c0			c1			  c2			c3
    1     2	 1 ;      CG3C50      NG3P2
    1     7	 1 ;      CG3C50     CG2R53
    1    17	 1 ;      CG3C50     CG2R61
    1     9	 1 ;      CG3C50     CG2R61
    2     4	 1 ;       NG3P2     CG3C53
    2     3	 1 ;       NG3P2       HGP2
    2    26	 1 ;       NG3P2       HGP2
    4    23	 1 ;      CG3C53      NG3P3
    4     5	 1 ;      CG3C53     NG2R53
    4    27	 1 ;      CG3C53       HGA1
    5     6	 1 ;      NG2R53      CG331
    5     7	 1 ;      NG2R53     CG2R53
    6    28	 1 ;       CG331       HGA3
    6    29	 1 ;       CG331       HGA3
    6    30	 1 ;       CG331       HGA3
    7     8	 1 ;      CG2R53      OG2D1
    9    14	 1 ;      CG2R61     CG2R61
    9    10	 1 ;      CG2R61     CG2R61
   10    11	 1 ;      CG2R61     CG2R61
   10    31	 1 ;      CG2R61      HGR61
   11    12	 1 ;      CG2R61     CG2R61
   11    32	 1 ;      CG2R61      HGR61
   12    13	 1 ;      CG2R61     CG2R61
   12    15	 1 ;      CG2R61      OG301
   13    14	 1 ;      CG2R61     CG2R61
   13    33	 1 ;      CG2R61      HGR61
   14    34	 1 ;      CG2R61      HGR61
   15    16	 1 ;       OG301      CG331
   16    35	 1 ;       CG331       HGA3
   16    36	 1 ;       CG331       HGA3
   16    37	 1 ;       CG331       HGA3
   17    22	 1 ;      CG2R61     CG2R61
   17    18	 1 ;      CG2R61     CG2R61
   18    19	 1 ;      CG2R61     CG2R61
   18    38	 1 ;      CG2R61      HGR61
   19    20	 1 ;      CG2R61     CG2R61
   19    39	 1 ;      CG2R61      HGR61
   20    21	 1 ;      CG2R61     CG2R61
   20    40	 1 ;      CG2R61      HGR61
   21    22	 1 ;      CG2R61     CG2R61
   21    41	 1 ;      CG2R61      HGR61
   22    42	 1 ;      CG2R61      HGR61
   23    24	 1 ;       NG3P3       HGP2
   23    25	 1 ;       NG3P3       HGP2
   23    43	 1 ;       NG3P3       HGP2

[ pairs ]
;	ai	  aj funct			  c0			c1			  c2			c3
    1    23	 1
    1    27	 1
    1     6	 1
    1    13	 1
    1    34	 1
    1    11	 1
    1    31	 1
    1    21	 1
    1    42	 1
    1    19	 1
    1    38	 1
    2     8	 1
    2    22	 1
    2    18	 1
    2    14	 1
    2    10	 1
    2    24	 1
    2    25	 1
    2    43	 1
    2     6	 1
    3     7	 1
    3    17	 1
    3     9	 1
    3    23	 1
    3     5	 1
    3    27	 1
    4    17	 1
    4     9	 1
    4    28	 1
    4    29	 1
    4    30	 1
    4     8	 1
    5    17	 1
    5     9	 1
    5    26	 1
    5    24	 1
    5    25	 1
    5    43	 1
    6    23	 1
    6    27	 1
    6     8	 1
    7    26	 1
    7    22	 1
    7    18	 1
    7    14	 1
    7    10	 1
    7    23	 1
    7    27	 1
    7    28	 1
    7    29	 1
    7    30	 1
    8    17	 1
    8     9	 1
    9    26	 1
    9    22	 1
    9    18	 1
    9    12	 1
    9    32	 1
    9    33	 1
   10    17	 1
   10    13	 1
   10    34	 1
   10    15	 1
   11    14	 1
   11    33	 1
   11    16	 1
   12    31	 1
   12    34	 1
   12    35	 1
   12    36	 1
   12    37	 1
   13    32	 1
   13    16	 1
   14    17	 1
   14    31	 1
   14    15	 1
   15    32	 1
   15    33	 1
   17    26	 1
   17    20	 1
   17    39	 1
   17    41	 1
   18    21	 1
   18    42	 1
   18    40	 1
   19    22	 1
   19    41	 1
   20    38	 1
   20    42	 1
   21    39	 1
   22    38	 1
   22    40	 1
   23    26	 1
   24    27	 1
   25    27	 1
   26    27	 1
   27    43	 1
   31    32	 1
   33    34	 1
   38    39	 1
   39    40	 1
   40    41	 1
   41    42	 1

[ angles ]
;	ai	  aj	ak funct			c0			  c1			c2			  c3
    2     1     7	5 ;      NG3P2     CG3C50     CG2R53
    2     1    17	5 ;      NG3P2     CG3C50     CG2R61
    2     1     9	5 ;      NG3P2     CG3C50     CG2R61
    7     1    17	5 ;     CG2R53     CG3C50     CG2R61
    7     1     9	5 ;     CG2R53     CG3C50     CG2R61
   17     1     9	5 ;     CG2R61     CG3C50     CG2R61
    4     2     3	5 ;     CG3C53      NG3P2       HGP2
    4     2     1	5 ;     CG3C53      NG3P2     CG3C50
    4     2    26	5 ;     CG3C53      NG3P2       HGP2
    3     2     1	5 ;       HGP2      NG3P2     CG3C50
    3     2    26	5 ;       HGP2      NG3P2       HGP2
    1     2    26	5 ;     CG3C50      NG3P2       HGP2
   23     4     5	5 ;      NG3P3     CG3C53     NG2R53
   23     4     2	5 ;      NG3P3     CG3C53      NG3P2
   23     4    27	5 ;      NG3P3     CG3C53       HGA1
    5     4     2	5 ;     NG2R53     CG3C53      NG3P2
    5     4    27	5 ;     NG2R53     CG3C53       HGA1
    2     4    27	5 ;      NG3P2     CG3C53       HGA1
    6     5     4	5 ;      CG331     NG2R53     CG3C53
    6     5     7	5 ;      CG331     NG2R53     CG2R53
    4     5     7	5 ;     CG3C53     NG2R53     CG2R53
    5     6    28	5 ;     NG2R53      CG331       HGA3
    5     6    29	5 ;     NG2R53      CG331       HGA3
    5     6    30	5 ;     NG2R53      CG331       HGA3
   28     6    29	5 ;       HGA3      CG331       HGA3
   28     6    30	5 ;       HGA3      CG331       HGA3
   29     6    30	5 ;       HGA3      CG331       HGA3
    5     7     1	5 ;     NG2R53     CG2R53     CG3C50
    5     7     8	5 ;     NG2R53     CG2R53      OG2D1
    1     7     8	5 ;     CG3C50     CG2R53      OG2D1
    1     9    14	5 ;     CG3C50     CG2R61     CG2R61
    1     9    10	5 ;     CG3C50     CG2R61     CG2R61
   14     9    10	5 ;     CG2R61     CG2R61     CG2R61
    9    10    11	5 ;     CG2R61     CG2R61     CG2R61
    9    10    31	5 ;     CG2R61     CG2R61      HGR61
   11    10    31	5 ;     CG2R61     CG2R61      HGR61
   10    11    12	5 ;     CG2R61     CG2R61     CG2R61
   10    11    32	5 ;     CG2R61     CG2R61      HGR61
   12    11    32	5 ;     CG2R61     CG2R61      HGR61
   13    12    11	5 ;     CG2R61     CG2R61     CG2R61
   13    12    15	5 ;     CG2R61     CG2R61      OG301
   11    12    15	5 ;     CG2R61     CG2R61      OG301
   14    13    12	5 ;     CG2R61     CG2R61     CG2R61
   14    13    33	5 ;     CG2R61     CG2R61      HGR61
   12    13    33	5 ;     CG2R61     CG2R61      HGR61
    9    14    13	5 ;     CG2R61     CG2R61     CG2R61
    9    14    34	5 ;     CG2R61     CG2R61      HGR61
   13    14    34	5 ;     CG2R61     CG2R61      HGR61
   12    15    16	5 ;     CG2R61      OG301      CG331
   15    16    35	5 ;      OG301      CG331       HGA3
   15    16    36	5 ;      OG301      CG331       HGA3
   15    16    37	5 ;      OG301      CG331       HGA3
   35    16    36	5 ;       HGA3      CG331       HGA3
   35    16    37	5 ;       HGA3      CG331       HGA3
   36    16    37	5 ;       HGA3      CG331       HGA3
   22    17     1	5 ;     CG2R61     CG2R61     CG3C50
   22    17    18	5 ;     CG2R61     CG2R61     CG2R61
    1    17    18	5 ;     CG3C50     CG2R61     CG2R61
   17    18    19	5 ;     CG2R61     CG2R61     CG2R61
   17    18    38	5 ;     CG2R61     CG2R61      HGR61
   19    18    38	5 ;     CG2R61     CG2R61      HGR61
   20    19    18	5 ;     CG2R61     CG2R61     CG2R61
   20    19    39	5 ;     CG2R61     CG2R61      HGR61
   18    19    39	5 ;     CG2R61     CG2R61      HGR61
   21    20    19	5 ;     CG2R61     CG2R61     CG2R61
   21    20    40	5 ;     CG2R61     CG2R61      HGR61
   19    20    40	5 ;     CG2R61     CG2R61      HGR61
   22    21    20	5 ;     CG2R61     CG2R61     CG2R61
   22    21    41	5 ;     CG2R61     CG2R61      HGR61
   20    21    41	5 ;     CG2R61     CG2R61      HGR61
   21    22    17	5 ;     CG2R61     CG2R61     CG2R61
   21    22    42	5 ;     CG2R61     CG2R61      HGR61
   17    22    42	5 ;     CG2R61     CG2R61      HGR61
   24    23    25	5 ;       HGP2      NG3P3       HGP2
   24    23     4	5 ;       HGP2      NG3P3     CG3C53
   24    23    43	5 ;       HGP2      NG3P3       HGP2
   25    23     4	5 ;       HGP2      NG3P3     CG3C53
   25    23    43	5 ;       HGP2      NG3P3       HGP2
    4    23    43	5 ;     CG3C53      NG3P3       HGP2

[ dihedrals ]
;	ai	  aj	ak	  al funct			  c0			c1			  c2			c3			  c4			c5
    7     1     2     4	 9 ;     CG2R53     CG3C50      NG3P2     CG3C53
    7     1     2     3	 9 ;     CG2R53     CG3C50      NG3P2       HGP2
    7     1     2    26	 9 ;     CG2R53     CG3C50      NG3P2       HGP2
   17     1     2     4	 9 ;     CG2R61     CG3C50      NG3P2     CG3C53
   17     1     2     3	 9 ;     CG2R61     CG3C50      NG3P2       HGP2
   17     1     2    26	 9 ;     CG2R61     CG3C50      NG3P2       HGP2
    9     1     2     4	 9 ;     CG2R61     CG3C50      NG3P2     CG3C53
    9     1     2     3	 9 ;     CG2R61     CG3C50      NG3P2       HGP2
    9     1     2    26	 9 ;     CG2R61     CG3C50      NG3P2       HGP2
    2     1     7     5	 9 ;      NG3P2     CG3C50     CG2R53     NG2R53
    2     1     7     8	 9 ;      NG3P2     CG3C50     CG2R53      OG2D1
   17     1     7     5	 9 ;     CG2R61     CG3C50     CG2R53     NG2R53
   17     1     7     8	 9 ;     CG2R61     CG3C50     CG2R53      OG2D1
    9     1     7     5	 9 ;     CG2R61     CG3C50     CG2R53     NG2R53
    9     1     7     8	 9 ;     CG2R61     CG3C50     CG2R53      OG2D1
    2     1    17    22	 9 ;      NG3P2     CG3C50     CG2R61     CG2R61
    2     1    17    18	 9 ;      NG3P2     CG3C50     CG2R61     CG2R61
    7     1    17    22	 9 ;     CG2R53     CG3C50     CG2R61     CG2R61
    7     1    17    18	 9 ;     CG2R53     CG3C50     CG2R61     CG2R61
    9     1    17    22	 9 ;     CG2R61     CG3C50     CG2R61     CG2R61
    9     1    17    18	 9 ;     CG2R61     CG3C50     CG2R61     CG2R61
    2     1     9    14	 9 ;      NG3P2     CG3C50     CG2R61     CG2R61
    2     1     9    10	 9 ;      NG3P2     CG3C50     CG2R61     CG2R61
    7     1     9    14	 9 ;     CG2R53     CG3C50     CG2R61     CG2R61
    7     1     9    10	 9 ;     CG2R53     CG3C50     CG2R61     CG2R61
   17     1     9    14	 9 ;     CG2R61     CG3C50     CG2R61     CG2R61
   17     1     9    10	 9 ;     CG2R61     CG3C50     CG2R61     CG2R61
    3     2     4    23	 9 ;       HGP2      NG3P2     CG3C53      NG3P3
    3     2     4     5	 9 ;       HGP2      NG3P2     CG3C53     NG2R53
    3     2     4    27	 9 ;       HGP2      NG3P2     CG3C53       HGA1
    1     2     4    23	 9 ;     CG3C50      NG3P2     CG3C53      NG3P3
    1     2     4     5	 9 ;     CG3C50      NG3P2     CG3C53     NG2R53
    1     2     4    27	 9 ;     CG3C50      NG3P2     CG3C53       HGA1
   26     2     4    23	 9 ;       HGP2      NG3P2     CG3C53      NG3P3
   26     2     4     5	 9 ;       HGP2      NG3P2     CG3C53     NG2R53
   26     2     4    27	 9 ;       HGP2      NG3P2     CG3C53       HGA1
    5     4    23    24	 9 ;     NG2R53     CG3C53      NG3P3       HGP2
    5     4    23    25	 9 ;     NG2R53     CG3C53      NG3P3       HGP2
    5     4    23    43	 9 ;     NG2R53     CG3C53      NG3P3       HGP2
    2     4    23    24	 9 ;      NG3P2     CG3C53      NG3P3       HGP2
    2     4    23    25	 9 ;      NG3P2     CG3C53      NG3P3       HGP2
    2     4    23    43	 9 ;      NG3P2     CG3C53      NG3P3       HGP2
   27     4    23    24	 9 ;       HGA1     CG3C53      NG3P3       HGP2
   27     4    23    25	 9 ;       HGA1     CG3C53      NG3P3       HGP2
   27     4    23    43	 9 ;       HGA1     CG3C53      NG3P3       HGP2
   23     4     5     6	 9 ;      NG3P3     CG3C53     NG2R53      CG331
   23     4     5     7	 9 ;      NG3P3     CG3C53     NG2R53     CG2R53
    2     4     5     6	 9 ;      NG3P2     CG3C53     NG2R53      CG331
    2     4     5     7	 9 ;      NG3P2     CG3C53     NG2R53     CG2R53
   27     4     5     6	 9 ;       HGA1     CG3C53     NG2R53      CG331
   27     4     5     7	 9 ;       HGA1     CG3C53     NG2R53     CG2R53
    4     5     6    28	 9 ;     CG3C53     NG2R53      CG331       HGA3
    4     5     6    29	 9 ;     CG3C53     NG2R53      CG331       HGA3
    4     5     6    30	 9 ;     CG3C53     NG2R53      CG331       HGA3
    7     5     6    28	 9 ;     CG2R53     NG2R53      CG331       HGA3
    7     5     6    29	 9 ;     CG2R53     NG2R53      CG331       HGA3
    7     5     6    30	 9 ;     CG2R53     NG2R53      CG331       HGA3
    6     5     7     1	 9 ;      CG331     NG2R53     CG2R53     CG3C50
    6     5     7     8	 9 ;      CG331     NG2R53     CG2R53      OG2D1
    4     5     7     1	 9 ;     CG3C53     NG2R53     CG2R53     CG3C50
    4     5     7     8	 9 ;     CG3C53     NG2R53     CG2R53      OG2D1
    1     9    14    13	 9 ;     CG3C50     CG2R61     CG2R61     CG2R61
    1     9    14    34	 9 ;     CG3C50     CG2R61     CG2R61      HGR61
   10     9    14    13	 9 ;     CG2R61     CG2R61     CG2R61     CG2R61
   10     9    14    34	 9 ;     CG2R61     CG2R61     CG2R61      HGR61
    1     9    10    11	 9 ;     CG3C50     CG2R61     CG2R61     CG2R61
    1     9    10    31	 9 ;     CG3C50     CG2R61     CG2R61      HGR61
   14     9    10    11	 9 ;     CG2R61     CG2R61     CG2R61     CG2R61
   14     9    10    31	 9 ;     CG2R61     CG2R61     CG2R61      HGR61
    9    10    11    12	 9 ;     CG2R61     CG2R61     CG2R61     CG2R61
    9    10    11    32	 9 ;     CG2R61     CG2R61     CG2R61      HGR61
   31    10    11    12	 9 ;      HGR61     CG2R61     CG2R61     CG2R61
   31    10    11    32	 9 ;      HGR61     CG2R61     CG2R61      HGR61
   10    11    12    13	 9 ;     CG2R61     CG2R61     CG2R61     CG2R61
   10    11    12    15	 9 ;     CG2R61     CG2R61     CG2R61      OG301
   32    11    12    13	 9 ;      HGR61     CG2R61     CG2R61     CG2R61
   32    11    12    15	 9 ;      HGR61     CG2R61     CG2R61      OG301
   11    12    13    14	 9 ;     CG2R61     CG2R61     CG2R61     CG2R61
   11    12    13    33	 9 ;     CG2R61     CG2R61     CG2R61      HGR61
   15    12    13    14	 9 ;      OG301     CG2R61     CG2R61     CG2R61
   15    12    13    33	 9 ;      OG301     CG2R61     CG2R61      HGR61
   13    12    15    16	 9 ;     CG2R61     CG2R61      OG301      CG331
   11    12    15    16	 9 ;     CG2R61     CG2R61      OG301      CG331
   12    13    14     9	 9 ;     CG2R61     CG2R61     CG2R61     CG2R61
   12    13    14    34	 9 ;     CG2R61     CG2R61     CG2R61      HGR61
   33    13    14     9	 9 ;      HGR61     CG2R61     CG2R61     CG2R61
   33    13    14    34	 9 ;      HGR61     CG2R61     CG2R61      HGR61
   12    15    16    35	 9 ;     CG2R61      OG301      CG331       HGA3
   12    15    16    36	 9 ;     CG2R61      OG301      CG331       HGA3
   12    15    16    37	 9 ;     CG2R61      OG301      CG331       HGA3
    1    17    22    21	 9 ;     CG3C50     CG2R61     CG2R61     CG2R61
    1    17    22    42	 9 ;     CG3C50     CG2R61     CG2R61      HGR61
   18    17    22    21	 9 ;     CG2R61     CG2R61     CG2R61     CG2R61
   18    17    22    42	 9 ;     CG2R61     CG2R61     CG2R61      HGR61
   22    17    18    19	 9 ;     CG2R61     CG2R61     CG2R61     CG2R61
   22    17    18    38	 9 ;     CG2R61     CG2R61     CG2R61      HGR61
    1    17    18    19	 9 ;     CG3C50     CG2R61     CG2R61     CG2R61
    1    17    18    38	 9 ;     CG3C50     CG2R61     CG2R61      HGR61
   17    18    19    20	 9 ;     CG2R61     CG2R61     CG2R61     CG2R61
   17    18    19    39	 9 ;     CG2R61     CG2R61     CG2R61      HGR61
   38    18    19    20	 9 ;      HGR61     CG2R61     CG2R61     CG2R61
   38    18    19    39	 9 ;      HGR61     CG2R61     CG2R61      HGR61
   18    19    20    21	 9 ;     CG2R61     CG2R61     CG2R61     CG2R61
   18    19    20    40	 9 ;     CG2R61     CG2R61     CG2R61      HGR61
   39    19    20    21	 9 ;      HGR61     CG2R61     CG2R61     CG2R61
   39    19    20    40	 9 ;      HGR61     CG2R61     CG2R61      HGR61
   19    20    21    22	 9 ;     CG2R61     CG2R61     CG2R61     CG2R61
   19    20    21    41	 9 ;     CG2R61     CG2R61     CG2R61      HGR61
   40    20    21    22	 9 ;      HGR61     CG2R61     CG2R61     CG2R61
   40    20    21    41	 9 ;      HGR61     CG2R61     CG2R61      HGR61
   20    21    22    17	 9 ;     CG2R61     CG2R61     CG2R61     CG2R61
   20    21    22    42	 9 ;     CG2R61     CG2R61     CG2R61      HGR61
   41    21    22    17	 9 ;      HGR61     CG2R61     CG2R61     CG2R61
   41    21    22    42	 9 ;      HGR61     CG2R61     CG2R61      HGR61

[ dihedrals ]
;	ai	  aj	ak	  al funct			  c0			c1			  c2			c3
    7     1     5     8	 2

