; Created by cgenff_charmm2gmx.py

[ moleculetype ]
; Name			   nrexcl
LIG				 3

[ atoms ]
;	 nr		  type	resnr residue  atom   cgnr	   charge		mass  typeB    chargeB		massB
; residue	 1 LIG rtp LIG q	qsum
     1      CG311      1    LIG     C1      1      0.152     12.011   ;
     2      CG324      1    LIG     C2      2      0.188     12.011   ;
     3      NG3P1      1    LIG      N      3     -0.526     14.007   ;
     4      CG324      1    LIG     C3      4      0.238     12.011   ;
     5      CG321      1    LIG     C4      5     -0.028     12.011   ;
     6     OG3C61      1    LIG     O1      6     -0.320     15.999   ;
     7      CG321      1    LIG     C5      7     -0.028     12.011   ;
     8      CG324      1    LIG     C6      8      0.238     12.011   ;
     9       HGP2      1    LIG     H1      9      0.311      1.008   ;
    10      OG311      1    LIG     O2     10     -0.628     15.999   ;
    11       HGP1      1    LIG     H2     11      0.414      1.008   ;
    12      CG321      1    LIG     C7     12     -0.034     12.011   ;
    13      OG301      1    LIG     O3     13     -0.376     15.999   ;
    14     CG2R61      1    LIG     C8     14      0.232     12.011   ;
    15     CG2R61      1    LIG     C9     15     -0.139     12.011   ;
    16     CG2R61      1    LIG    C10     16      0.037     12.011   ;
    17     CG2R61      1    LIG    C11     17     -0.136     12.011   ;
    18      CG331      1    LIG    C12     18     -0.264     12.011   ;
    19     CG2R61      1    LIG    C13     19     -0.133     12.011   ;
    20     CG2R61      1    LIG    C14     20      0.006     12.011   ;
    21      CG331      1    LIG    C15     21     -0.262     12.011   ;
    22       HGA1      1    LIG     H3     22      0.090      1.008   ;
    23       HGA2      1    LIG     H4     23      0.090      1.008   ;
    24       HGA2      1    LIG     H5     24      0.090      1.008   ;
    25       HGA2      1    LIG     H6     25      0.090      1.008   ;
    26       HGA2      1    LIG     H7     26      0.090      1.008   ;
    27       HGA2      1    LIG     H8     27      0.090      1.008   ;
    28       HGA2      1    LIG     H9     28      0.090      1.008   ;
    29       HGA2      1    LIG    H10     29      0.090      1.008   ;
    30       HGA2      1    LIG    H11     30      0.090      1.008   ;
    31       HGA2      1    LIG    H12     31      0.090      1.008   ;
    32       HGA2      1    LIG    H13     32      0.090      1.008   ;
    33       HGA2      1    LIG    H14     33      0.090      1.008   ;
    34       HGA2      1    LIG    H15     34      0.090      1.008   ;
    35      HGR61      1    LIG    H16     35      0.116      1.008   ;
    36      HGR61      1    LIG    H17     36      0.116      1.008   ;
    37       HGA3      1    LIG    H18     37      0.090      1.008   ;
    38       HGA3      1    LIG    H19     38      0.090      1.008   ;
    39       HGA3      1    LIG    H20     39      0.090      1.008   ;
    40      HGR61      1    LIG    H21     40      0.116      1.008   ;
    41       HGA3      1    LIG    H22     41      0.090      1.008   ;
    42       HGA3      1    LIG    H23     42      0.090      1.008   ;
    43       HGA3      1    LIG    H24     43      0.090      1.008   ;

[ bonds ]
;	ai	  aj funct			  c0			c1			  c2			c3
    1    10	 1 ;       CG311      OG311
    1     2	 1 ;       CG311      CG324
    1    12	 1 ;       CG311      CG321
    1    22	 1 ;       CG311       HGA1
    2     3	 1 ;       CG324      NG3P1
    2    23	 1 ;       CG324       HGA2
    2    24	 1 ;       CG324       HGA2
    3     8	 1 ;       NG3P1      CG324
    3     9	 1 ;       NG3P1       HGP2
    3     4	 1 ;       NG3P1      CG324
    4     5	 1 ;       CG324      CG321
    4    25	 1 ;       CG324       HGA2
    4    26	 1 ;       CG324       HGA2
    5     6	 1 ;       CG321     OG3C61
    5    27	 1 ;       CG321       HGA2
    5    28	 1 ;       CG321       HGA2
    6     7	 1 ;      OG3C61      CG321
    7     8	 1 ;       CG321      CG324
    7    29	 1 ;       CG321       HGA2
    7    30	 1 ;       CG321       HGA2
    8    31	 1 ;       CG324       HGA2
    8    32	 1 ;       CG324       HGA2
   10    11	 1 ;       OG311       HGP1
   12    13	 1 ;       CG321      OG301
   12    33	 1 ;       CG321       HGA2
   12    34	 1 ;       CG321       HGA2
   13    14	 1 ;       OG301     CG2R61
   14    15	 1 ;      CG2R61     CG2R61
   14    20	 1 ;      CG2R61     CG2R61
   15    16	 1 ;      CG2R61     CG2R61
   15    35	 1 ;      CG2R61      HGR61
   16    18	 1 ;      CG2R61      CG331
   16    17	 1 ;      CG2R61     CG2R61
   17    19	 1 ;      CG2R61     CG2R61
   17    36	 1 ;      CG2R61      HGR61
   18    37	 1 ;       CG331       HGA3
   18    38	 1 ;       CG331       HGA3
   18    39	 1 ;       CG331       HGA3
   19    20	 1 ;      CG2R61     CG2R61
   19    40	 1 ;      CG2R61      HGR61
   20    21	 1 ;      CG2R61      CG331
   21    41	 1 ;       CG331       HGA3
   21    42	 1 ;       CG331       HGA3
   21    43	 1 ;       CG331       HGA3

[ pairs ]
;	ai	  aj funct			  c0			c1			  c2			c3
    1     8	 1
    1     9	 1
    1     4	 1
    1    14	 1
    2    11	 1
    2    13	 1
    2    33	 1
    2    34	 1
    2     7	 1
    2    31	 1
    2    32	 1
    2     5	 1
    2    25	 1
    2    26	 1
    3    10	 1
    3    12	 1
    3    22	 1
    3     6	 1
    3    27	 1
    3    28	 1
    3    29	 1
    3    30	 1
    4    23	 1
    4    24	 1
    4     7	 1
    4    31	 1
    4    32	 1
    5     8	 1
    5     9	 1
    5    29	 1
    5    30	 1
    6    25	 1
    6    26	 1
    6    31	 1
    6    32	 1
    7     9	 1
    7    27	 1
    7    28	 1
    8    23	 1
    8    24	 1
    8    25	 1
    8    26	 1
    9    23	 1
    9    24	 1
    9    31	 1
    9    32	 1
    9    25	 1
    9    26	 1
   10    23	 1
   10    24	 1
   10    13	 1
   10    33	 1
   10    34	 1
   11    12	 1
   11    22	 1
   12    23	 1
   12    24	 1
   12    15	 1
   12    20	 1
   13    22	 1
   13    16	 1
   13    35	 1
   13    21	 1
   13    19	 1
   14    33	 1
   14    34	 1
   14    18	 1
   14    17	 1
   14    40	 1
   14    41	 1
   14    42	 1
   14    43	 1
   15    21	 1
   15    19	 1
   15    37	 1
   15    38	 1
   15    39	 1
   15    36	 1
   16    20	 1
   16    40	 1
   17    35	 1
   17    37	 1
   17    38	 1
   17    39	 1
   17    21	 1
   18    35	 1
   18    19	 1
   18    36	 1
   19    41	 1
   19    42	 1
   19    43	 1
   20    35	 1
   20    36	 1
   21    40	 1
   22    23	 1
   22    24	 1
   22    33	 1
   22    34	 1
   25    27	 1
   25    28	 1
   26    27	 1
   26    28	 1
   29    31	 1
   29    32	 1
   30    31	 1
   30    32	 1
   36    40	 1

[ angles ]
;	ai	  aj	ak funct			c0			  c1			c2			  c3
   10     1     2	5 ;      OG311      CG311      CG324
   10     1    12	5 ;      OG311      CG311      CG321
   10     1    22	5 ;      OG311      CG311       HGA1
    2     1    12	5 ;      CG324      CG311      CG321
    2     1    22	5 ;      CG324      CG311       HGA1
   12     1    22	5 ;      CG321      CG311       HGA1
    1     2     3	5 ;      CG311      CG324      NG3P1
    1     2    23	5 ;      CG311      CG324       HGA2
    1     2    24	5 ;      CG311      CG324       HGA2
    3     2    23	5 ;      NG3P1      CG324       HGA2
    3     2    24	5 ;      NG3P1      CG324       HGA2
   23     2    24	5 ;       HGA2      CG324       HGA2
    2     3     8	5 ;      CG324      NG3P1      CG324
    2     3     9	5 ;      CG324      NG3P1       HGP2
    2     3     4	5 ;      CG324      NG3P1      CG324
    8     3     9	5 ;      CG324      NG3P1       HGP2
    8     3     4	5 ;      CG324      NG3P1      CG324
    9     3     4	5 ;       HGP2      NG3P1      CG324
    3     4     5	5 ;      NG3P1      CG324      CG321
    3     4    25	5 ;      NG3P1      CG324       HGA2
    3     4    26	5 ;      NG3P1      CG324       HGA2
    5     4    25	5 ;      CG321      CG324       HGA2
    5     4    26	5 ;      CG321      CG324       HGA2
   25     4    26	5 ;       HGA2      CG324       HGA2
    4     5     6	5 ;      CG324      CG321     OG3C61
    4     5    27	5 ;      CG324      CG321       HGA2
    4     5    28	5 ;      CG324      CG321       HGA2
    6     5    27	5 ;     OG3C61      CG321       HGA2
    6     5    28	5 ;     OG3C61      CG321       HGA2
   27     5    28	5 ;       HGA2      CG321       HGA2
    7     6     5	5 ;      CG321     OG3C61      CG321
    8     7     6	5 ;      CG324      CG321     OG3C61
    8     7    29	5 ;      CG324      CG321       HGA2
    8     7    30	5 ;      CG324      CG321       HGA2
    6     7    29	5 ;     OG3C61      CG321       HGA2
    6     7    30	5 ;     OG3C61      CG321       HGA2
   29     7    30	5 ;       HGA2      CG321       HGA2
    3     8     7	5 ;      NG3P1      CG324      CG321
    3     8    31	5 ;      NG3P1      CG324       HGA2
    3     8    32	5 ;      NG3P1      CG324       HGA2
    7     8    31	5 ;      CG321      CG324       HGA2
    7     8    32	5 ;      CG321      CG324       HGA2
   31     8    32	5 ;       HGA2      CG324       HGA2
   11    10     1	5 ;       HGP1      OG311      CG311
    1    12    13	5 ;      CG311      CG321      OG301
    1    12    33	5 ;      CG311      CG321       HGA2
    1    12    34	5 ;      CG311      CG321       HGA2
   13    12    33	5 ;      OG301      CG321       HGA2
   13    12    34	5 ;      OG301      CG321       HGA2
   33    12    34	5 ;       HGA2      CG321       HGA2
   12    13    14	5 ;      CG321      OG301     CG2R61
   13    14    15	5 ;      OG301     CG2R61     CG2R61
   13    14    20	5 ;      OG301     CG2R61     CG2R61
   15    14    20	5 ;     CG2R61     CG2R61     CG2R61
   14    15    16	5 ;     CG2R61     CG2R61     CG2R61
   14    15    35	5 ;     CG2R61     CG2R61      HGR61
   16    15    35	5 ;     CG2R61     CG2R61      HGR61
   15    16    18	5 ;     CG2R61     CG2R61      CG331
   15    16    17	5 ;     CG2R61     CG2R61     CG2R61
   18    16    17	5 ;      CG331     CG2R61     CG2R61
   16    17    19	5 ;     CG2R61     CG2R61     CG2R61
   16    17    36	5 ;     CG2R61     CG2R61      HGR61
   19    17    36	5 ;     CG2R61     CG2R61      HGR61
   16    18    37	5 ;     CG2R61      CG331       HGA3
   16    18    38	5 ;     CG2R61      CG331       HGA3
   16    18    39	5 ;     CG2R61      CG331       HGA3
   37    18    38	5 ;       HGA3      CG331       HGA3
   37    18    39	5 ;       HGA3      CG331       HGA3
   38    18    39	5 ;       HGA3      CG331       HGA3
   20    19    17	5 ;     CG2R61     CG2R61     CG2R61
   20    19    40	5 ;     CG2R61     CG2R61      HGR61
   17    19    40	5 ;     CG2R61     CG2R61      HGR61
   14    20    21	5 ;     CG2R61     CG2R61      CG331
   14    20    19	5 ;     CG2R61     CG2R61     CG2R61
   21    20    19	5 ;      CG331     CG2R61     CG2R61
   20    21    41	5 ;     CG2R61      CG331       HGA3
   20    21    42	5 ;     CG2R61      CG331       HGA3
   20    21    43	5 ;     CG2R61      CG331       HGA3
   41    21    42	5 ;       HGA3      CG331       HGA3
   41    21    43	5 ;       HGA3      CG331       HGA3
   42    21    43	5 ;       HGA3      CG331       HGA3

[ dihedrals ]
;	ai	  aj	ak	  al funct			  c0			c1			  c2			c3			  c4			c5
    2     1    10    11	 9 ;      CG324      CG311      OG311       HGP1
   12     1    10    11	 9 ;      CG321      CG311      OG311       HGP1
   22     1    10    11	 9 ;       HGA1      CG311      OG311       HGP1
   10     1     2     3	 9 ;      OG311      CG311      CG324      NG3P1
   10     1     2    23	 9 ;      OG311      CG311      CG324       HGA2
   10     1     2    24	 9 ;      OG311      CG311      CG324       HGA2
   12     1     2     3	 9 ;      CG321      CG311      CG324      NG3P1
   12     1     2    23	 9 ;      CG321      CG311      CG324       HGA2
   12     1     2    24	 9 ;      CG321      CG311      CG324       HGA2
   22     1     2     3	 9 ;       HGA1      CG311      CG324      NG3P1
   22     1     2    23	 9 ;       HGA1      CG311      CG324       HGA2
   22     1     2    24	 9 ;       HGA1      CG311      CG324       HGA2
   10     1    12    13	 9 ;      OG311      CG311      CG321      OG301
   10     1    12    33	 9 ;      OG311      CG311      CG321       HGA2
   10     1    12    34	 9 ;      OG311      CG311      CG321       HGA2
    2     1    12    13	 9 ;      CG324      CG311      CG321      OG301
    2     1    12    33	 9 ;      CG324      CG311      CG321       HGA2
    2     1    12    34	 9 ;      CG324      CG311      CG321       HGA2
   22     1    12    13	 9 ;       HGA1      CG311      CG321      OG301
   22     1    12    33	 9 ;       HGA1      CG311      CG321       HGA2
   22     1    12    34	 9 ;       HGA1      CG311      CG321       HGA2
    1     2     3     8	 9 ;      CG311      CG324      NG3P1      CG324
    1     2     3     9	 9 ;      CG311      CG324      NG3P1       HGP2
    1     2     3     4	 9 ;      CG311      CG324      NG3P1      CG324
   23     2     3     8	 9 ;       HGA2      CG324      NG3P1      CG324
   23     2     3     9	 9 ;       HGA2      CG324      NG3P1       HGP2
   23     2     3     4	 9 ;       HGA2      CG324      NG3P1      CG324
   24     2     3     8	 9 ;       HGA2      CG324      NG3P1      CG324
   24     2     3     9	 9 ;       HGA2      CG324      NG3P1       HGP2
   24     2     3     4	 9 ;       HGA2      CG324      NG3P1      CG324
    2     3     8     7	 9 ;      CG324      NG3P1      CG324      CG321
    2     3     8    31	 9 ;      CG324      NG3P1      CG324       HGA2
    2     3     8    32	 9 ;      CG324      NG3P1      CG324       HGA2
    9     3     8     7	 9 ;       HGP2      NG3P1      CG324      CG321
    9     3     8    31	 9 ;       HGP2      NG3P1      CG324       HGA2
    9     3     8    32	 9 ;       HGP2      NG3P1      CG324       HGA2
    4     3     8     7	 9 ;      CG324      NG3P1      CG324      CG321
    4     3     8    31	 9 ;      CG324      NG3P1      CG324       HGA2
    4     3     8    32	 9 ;      CG324      NG3P1      CG324       HGA2
    2     3     4     5	 9 ;      CG324      NG3P1      CG324      CG321
    2     3     4    25	 9 ;      CG324      NG3P1      CG324       HGA2
    2     3     4    26	 9 ;      CG324      NG3P1      CG324       HGA2
    8     3     4     5	 9 ;      CG324      NG3P1      CG324      CG321
    8     3     4    25	 9 ;      CG324      NG3P1      CG324       HGA2
    8     3     4    26	 9 ;      CG324      NG3P1      CG324       HGA2
    9     3     4     5	 9 ;       HGP2      NG3P1      CG324      CG321
    9     3     4    25	 9 ;       HGP2      NG3P1      CG324       HGA2
    9     3     4    26	 9 ;       HGP2      NG3P1      CG324       HGA2
    3     4     5     6	 9 ;      NG3P1      CG324      CG321     OG3C61
    3     4     5    27	 9 ;      NG3P1      CG324      CG321       HGA2
    3     4     5    28	 9 ;      NG3P1      CG324      CG321       HGA2
   25     4     5     6	 9 ;       HGA2      CG324      CG321     OG3C61
   25     4     5    27	 9 ;       HGA2      CG324      CG321       HGA2
   25     4     5    28	 9 ;       HGA2      CG324      CG321       HGA2
   26     4     5     6	 9 ;       HGA2      CG324      CG321     OG3C61
   26     4     5    27	 9 ;       HGA2      CG324      CG321       HGA2
   26     4     5    28	 9 ;       HGA2      CG324      CG321       HGA2
    4     5     6     7	 9 ;      CG324      CG321     OG3C61      CG321
   27     5     6     7	 9 ;       HGA2      CG321     OG3C61      CG321
   28     5     6     7	 9 ;       HGA2      CG321     OG3C61      CG321
    5     6     7     8	 9 ;      CG321     OG3C61      CG321      CG324
    5     6     7    29	 9 ;      CG321     OG3C61      CG321       HGA2
    5     6     7    30	 9 ;      CG321     OG3C61      CG321       HGA2
    6     7     8     3	 9 ;     OG3C61      CG321      CG324      NG3P1
    6     7     8    31	 9 ;     OG3C61      CG321      CG324       HGA2
    6     7     8    32	 9 ;     OG3C61      CG321      CG324       HGA2
   29     7     8     3	 9 ;       HGA2      CG321      CG324      NG3P1
   29     7     8    31	 9 ;       HGA2      CG321      CG324       HGA2
   29     7     8    32	 9 ;       HGA2      CG321      CG324       HGA2
   30     7     8     3	 9 ;       HGA2      CG321      CG324      NG3P1
   30     7     8    31	 9 ;       HGA2      CG321      CG324       HGA2
   30     7     8    32	 9 ;       HGA2      CG321      CG324       HGA2
    1    12    13    14	 9 ;      CG311      CG321      OG301     CG2R61
   33    12    13    14	 9 ;       HGA2      CG321      OG301     CG2R61
   34    12    13    14	 9 ;       HGA2      CG321      OG301     CG2R61
   12    13    14    15	 9 ;      CG321      OG301     CG2R61     CG2R61
   12    13    14    20	 9 ;      CG321      OG301     CG2R61     CG2R61
   13    14    15    16	 9 ;      OG301     CG2R61     CG2R61     CG2R61
   13    14    15    35	 9 ;      OG301     CG2R61     CG2R61      HGR61
   20    14    15    16	 9 ;     CG2R61     CG2R61     CG2R61     CG2R61
   20    14    15    35	 9 ;     CG2R61     CG2R61     CG2R61      HGR61
   13    14    20    21	 9 ;      OG301     CG2R61     CG2R61      CG331
   13    14    20    19	 9 ;      OG301     CG2R61     CG2R61     CG2R61
   15    14    20    21	 9 ;     CG2R61     CG2R61     CG2R61      CG331
   15    14    20    19	 9 ;     CG2R61     CG2R61     CG2R61     CG2R61
   14    15    16    18	 9 ;     CG2R61     CG2R61     CG2R61      CG331
   14    15    16    17	 9 ;     CG2R61     CG2R61     CG2R61     CG2R61
   35    15    16    18	 9 ;      HGR61     CG2R61     CG2R61      CG331
   35    15    16    17	 9 ;      HGR61     CG2R61     CG2R61     CG2R61
   15    16    18    37	 9 ;     CG2R61     CG2R61      CG331       HGA3
   15    16    18    38	 9 ;     CG2R61     CG2R61      CG331       HGA3
   15    16    18    39	 9 ;     CG2R61     CG2R61      CG331       HGA3
   17    16    18    37	 9 ;     CG2R61     CG2R61      CG331       HGA3
   17    16    18    38	 9 ;     CG2R61     CG2R61      CG331       HGA3
   17    16    18    39	 9 ;     CG2R61     CG2R61      CG331       HGA3
   15    16    17    19	 9 ;     CG2R61     CG2R61     CG2R61     CG2R61
   15    16    17    36	 9 ;     CG2R61     CG2R61     CG2R61      HGR61
   18    16    17    19	 9 ;      CG331     CG2R61     CG2R61     CG2R61
   18    16    17    36	 9 ;      CG331     CG2R61     CG2R61      HGR61
   16    17    19    20	 9 ;     CG2R61     CG2R61     CG2R61     CG2R61
   16    17    19    40	 9 ;     CG2R61     CG2R61     CG2R61      HGR61
   36    17    19    20	 9 ;      HGR61     CG2R61     CG2R61     CG2R61
   36    17    19    40	 9 ;      HGR61     CG2R61     CG2R61      HGR61
   17    19    20    14	 9 ;     CG2R61     CG2R61     CG2R61     CG2R61
   17    19    20    21	 9 ;     CG2R61     CG2R61     CG2R61      CG331
   40    19    20    14	 9 ;      HGR61     CG2R61     CG2R61     CG2R61
   40    19    20    21	 9 ;      HGR61     CG2R61     CG2R61      CG331
   14    20    21    41	 9 ;     CG2R61     CG2R61      CG331       HGA3
   14    20    21    42	 9 ;     CG2R61     CG2R61      CG331       HGA3
   14    20    21    43	 9 ;     CG2R61     CG2R61      CG331       HGA3
   19    20    21    41	 9 ;     CG2R61     CG2R61      CG331       HGA3
   19    20    21    42	 9 ;     CG2R61     CG2R61      CG331       HGA3
   19    20    21    43	 9 ;     CG2R61     CG2R61      CG331       HGA3

