GRoups of Organic Molecules in ACtion for Science
   43
    1LIG     C1    1  -1.421   0.301  -2.054
    1LIG     C2    2  -1.380   0.451  -2.045
    1LIG      N    3  -1.344   0.509  -1.908
    1LIG     C3    4  -1.451   0.585  -1.831
    1LIG     C4    5  -1.426   0.736  -1.831
    1LIG     O1    6  -1.295   0.763  -1.780
    1LIG     C5    7  -1.196   0.716  -1.871
    1LIG     C6    8  -1.202   0.564  -1.891
    1LIG     H1    9  -1.338   0.423  -1.853
    1LIG     O2   10  -1.428   0.265  -2.193
    1LIG     H2   11  -1.407   0.170  -2.200
    1LIG     C7   12  -1.329   0.207  -1.976
    1LIG     O3   13  -1.328   0.234  -1.835
    1LIG     C8   14  -1.230   0.185  -1.754
    1LIG     C9   15  -1.148   0.075  -1.781
    1LIG    C10   16  -1.048   0.036  -1.688
    1LIG    C11   17  -1.020   0.116  -1.578
    1LIG    C12   18  -0.984  -0.100  -1.699
    1LIG    C13   19  -1.104   0.222  -1.548
    1LIG    C14   20  -1.215   0.251  -1.630
    1LIG    C15   21  -1.329   0.330  -1.570
    1LIG     H3   22  -1.517   0.291  -2.008
    1LIG     H4   23  -1.463   0.508  -2.082
    1LIG     H5   24  -1.289   0.456  -2.100
    1LIG     H6   25  -1.452   0.550  -1.730
    1LIG     H7   26  -1.545   0.568  -1.879
    1LIG     H8   27  -1.499   0.783  -1.768
    1LIG     H9   28  -1.435   0.773  -1.930
    1LIG    H10   29  -1.211   0.764  -1.966
    1LIG    H11   30  -1.100   0.740  -1.830
    1LIG    H12   31  -1.146   0.539  -1.978
    1LIG    H13   32  -1.164   0.520  -1.801
    1LIG    H14   33  -1.229   0.218  -2.013
    1LIG    H15   34  -1.366   0.107  -1.989
    1LIG    H16   35  -1.160   0.023  -1.868
    1LIG    H17   36  -0.938   0.097  -1.519
    1LIG    H18   37  -1.017  -0.147  -1.789
    1LIG    H19   38  -1.013  -0.159  -1.615
    1LIG    H20   39  -0.878  -0.089  -1.700
    1LIG    H21   40  -1.086   0.281  -1.465
    1LIG    H22   41  -1.405   0.344  -1.643
    1LIG    H23   42  -1.292   0.426  -1.538
    1LIG    H24   43  -1.369   0.277  -1.486
   0.00000   0.00000   0.00000
