GROup of MAchos and Cynical Suckers
   45
    1LIG     C2    1   2.124   3.895  -1.615
    1LIG     O5    2   2.218   3.750  -1.829
    1LIG     C4    3   2.445   3.797  -1.778
    1LIG     C5    4   2.535   3.861  -1.691
    1LIG     C6    5   2.492   3.717  -1.883
    1LIG     C7    6   2.672   3.840  -1.709
    1LIG     C8    7   2.629   3.698  -1.901
    1LIG     C9    8   2.719   3.760  -1.814
    1LIG    C10    9   2.251   3.909  -1.656
    1LIG    C11   10   2.352   4.011  -1.611
    1LIG    C12   11   2.298   3.813  -1.761
    1LIG    C13   12   2.485   3.945  -1.577
    1LIG     N1   13   2.072   3.922  -1.386
    1LIG     O4   14   2.000   4.081  -1.536
    1LIG     C3   15   2.059   3.977  -1.511
    1LIG     H5   16   2.090   3.822  -1.387
    1LIG    C14   17   1.995   3.977  -1.272
    1LIG    C16   18   2.086   4.036  -1.160
    1LIG    C17   19   2.230   4.059  -1.204
    1LIG    C18   20   2.029   4.168  -1.107
    1LIG     O2   21   1.799   3.874  -1.167
    1LIG    C15   22   1.911   3.862  -1.215
    1LIG     O3   23   1.978   3.743  -1.213
    1LIG     H4   24   2.009   3.717  -1.302
    1LIG     C1   25   2.800   3.583  -2.021
    1LIG     O1   26   2.662   3.618  -2.006
    1LIG     H1   27   2.067   3.821  -1.661
    1LIG     H2   28   2.425   3.671  -1.946
    1LIG     H3   29   2.739   3.885  -1.645
    1LIG     H6   30   2.821   3.747  -1.827
    1LIG     H7   31   2.315   4.062  -1.525
    1LIG     H8   32   2.368   4.080  -1.691
    1LIG     H9   33   2.557   4.021  -1.555
    1LIG    H10   34   2.470   3.881  -1.492
    1LIG     HA   35   1.935   4.058  -1.308
    1LIG     HB   36   2.086   3.962  -1.083
    1LIG   HG11   37   2.233   4.133  -1.282
    1LIG   HG12   38   2.272   3.968  -1.241
    1LIG   HG13   39   2.288   4.093  -1.121
    1LIG   HG21   40   2.030   4.241  -1.186
    1LIG   HG22   41   2.089   4.203  -1.026
    1LIG   HG23   42   1.929   4.154  -1.073
    1LIG    H11   43   2.812   3.520  -2.107
    1LIG    H12   44   2.833   3.531  -1.934
    1LIG    H13   45   2.858   3.672  -2.034
   0.00000   0.00000   0.00000
