S  C  A  M  O  R  G
   99
    1LIG     C1    1  -1.319   0.593  -1.594
    1LIG     O1    2  -1.208   0.638  -1.618
    1LIG     N1    3  -1.351   0.458  -1.602
    1LIG     H1    4  -1.446   0.436  -1.579
    1LIG     C2    5  -1.431   0.680  -1.548
    1LIG     C3    6  -1.558   0.628  -1.523
    1LIG     C4    7  -1.661   0.714  -1.483
    1LIG     C5    8  -1.641   0.853  -1.480
    1LIG     C6    9  -1.518   0.906  -1.516
    1LIG     C7   10  -1.411   0.819  -1.542
    1LIG     N2   11  -1.794   0.668  -1.461
    1LIG      S   12  -1.850   0.646  -1.302
    1LIG     O2   13  -1.971   0.566  -1.306
    1LIG     O3   14  -1.846   0.772  -1.231
    1LIG     C8   15  -1.722   0.540  -1.237
    1LIG     C9   16  -1.854   0.592  -1.568
    1LIG    C10   17  -1.938   0.661  -1.657
    1LIG    C11   18  -1.990   0.595  -1.768
    1LIG    C12   19  -1.957   0.461  -1.792
    1LIG    C13   20  -1.874   0.393  -1.703
    1LIG    C14   21  -1.823   0.459  -1.590
    1LIG    C15   22  -1.502   1.052  -1.543
    1LIG     N3   23  -1.536   1.113  -1.653
    1LIG     HN   24  -1.515   1.211  -1.673
    1LIG    C16   25  -1.441   1.139  -1.434
    1LIG     O4   26  -1.604   1.029  -1.743
    1LIG    C17   27  -1.521   0.999  -1.855
    1LIG    C18   28  -1.518   0.850  -1.882
    1LIG    C19   29  -1.400   0.784  -1.919
    1LIG    C20   30  -1.399   0.645  -1.936
    1LIG    C21   31  -1.515   0.571  -1.914
    1LIG    C22   32  -1.632   0.636  -1.875
    1LIG    C23   33  -1.633   0.774  -1.860
    1LIG    C24   34  -1.249   0.352  -1.611
    1LIG    C25   35  -1.255   0.261  -1.486
    1LIG    C26   36  -1.256   0.110  -1.503
    1LIG    C27   37  -1.143   0.030  -1.481
    1LIG    C28   38  -1.149  -0.108  -1.500
    1LIG     F1   39  -1.037  -0.180  -1.490
    1LIG    C29   40  -1.268  -0.172  -1.531
    1LIG    C30   41  -1.382  -0.094  -1.545
    1LIG     F2   42  -1.500  -0.153  -1.569
    1LIG    C31   43  -1.376   0.045  -1.534
    1LIG    C32   44  -1.263   0.278  -1.747
    1LIG     O5   45  -1.398   0.269  -1.791
    1LIG     H2   46  -1.458   0.298  -1.720
    1LIG    C33   47  -1.181   0.341  -1.861
    1LIG     N4   48  -1.076   0.433  -1.808
    1LIG     H3   49  -1.109   0.477  -1.720
    1LIG     H4   50  -0.992   0.380  -1.781
    1LIG    C34   51  -1.031   0.544  -1.897
    1LIG    C35   52  -0.885   0.526  -1.926
    1LIG    C36   53  -0.840   0.414  -1.996
    1LIG    C37   54  -0.706   0.403  -2.033
    1LIG    C38   55  -0.617   0.506  -1.999
    1LIG    C39   56  -0.661   0.617  -1.929
    1LIG    C40   57  -0.794   0.628  -1.892
    1LIG     O6   58  -0.651   0.299  -2.102
    1LIG    C41   59  -0.740   0.204  -2.159
    1LIG     HC   60  -1.576   0.522  -1.533
    1LIG    HC1   61  -1.721   0.918  -1.449
    1LIG    HC2   62  -1.312   0.859  -1.557
    1LIG    HC3   63  -1.963   0.764  -1.639
    1LIG    HC4   64  -2.055   0.647  -1.836
    1LIG    HC5   65  -1.995   0.410  -1.879
    1LIG    HC6   66  -1.849   0.289  -1.720
    1LIG    HC7   67  -1.760   0.406  -1.521
    1LIG    HC8   68  -1.420   1.035  -1.835
    1LIG    HC9   69  -1.560   1.051  -1.943
    1LIG   HC10   70  -1.309   0.840  -1.936
    1LIG   HC11   71  -1.308   0.595  -1.966
    1LIG   HC12   72  -1.514   0.464  -1.928
    1LIG   HC13   73  -1.722   0.578  -1.858
    1LIG   HC14   74  -1.725   0.824  -1.830
    1LIG   HC15   75  -1.152   0.400  -1.611
    1LIG   HC16   76  -1.168   0.285  -1.424
    1LIG   HC17   77  -1.344   0.288  -1.429
    1LIG   HC18   78  -1.051   0.076  -1.449
    1LIG   HC19   79  -1.272  -0.279  -1.544
    1LIG   HC20   80  -1.466   0.103  -1.550
    1LIG   HC21   81  -1.226   0.176  -1.733
    1LIG   HC22   82  -1.134   0.262  -1.919
    1LIG   HC23   83  -1.248   0.398  -1.926
    1LIG   HC24   84  -1.087   0.542  -1.990
    1LIG   HC25   85  -1.046   0.640  -1.847
    1LIG   HC26   86  -0.910   0.335  -2.022
    1LIG   HC27   87  -0.514   0.498  -2.029
    1LIG   HC28   88  -0.591   0.695  -1.903
    1LIG   HC29   89  -0.828   0.714  -1.837
    1LIG   HC30   90  -1.754   0.499  -1.142
    1LIG   HC31   91  -1.703   0.459  -1.308
    1LIG   HC32   92  -1.631   0.598  -1.223
    1LIG   HC33   93  -0.683   0.132  -2.218
    1LIG   HC34   94  -0.793   0.152  -2.079
    1LIG   HC35   95  -0.812   0.255  -2.223
    1LIG   HC36   96  -1.417   1.077  -1.347
    1LIG   HC37   97  -1.350   1.186  -1.471
    1LIG   HC38   98  -1.513   1.216  -1.405
    1LIG    H45   99  -1.601   1.071  -1.502
   0.00000   0.00000   0.00000
