; Created by cgenff_charmm2gmx.py

[ moleculetype ]
; Name			   nrexcl
LIG				 3

[ atoms ]
;	 nr		  type	resnr residue  atom   cgnr	   charge		mass  typeB    chargeB		massB
; residue	 1 LIG rtp LIG q	qsum
     1      CG2O1      1    LIG     C1      1      0.302     12.011   ;
     2      OG2D1      1    LIG     O1      2     -0.463     15.999   ;
     3      NG2S1      1    LIG     N1      3     -0.226     14.007   ;
     4       HGP1      1    LIG     H1      4      0.262      1.008   ;
     5     CG2R61      1    LIG     C2      5     -0.101     12.011   ;
     6     CG2R61      1    LIG     C3      6     -0.067     12.011   ;
     7     CG2R61      1    LIG     C4      7      0.153     12.011   ;
     8     CG2R61      1    LIG     C5      8     -0.120     12.011   ;
     9     CG2R61      1    LIG     C6      9     -0.032     12.011   ;
    10     CG2R61      1    LIG     C7     10     -0.057     12.011   ;
    11      NG301      1    LIG     N2     11     -0.231     14.007   ;
    12      SG3O2      1    LIG      S     12      0.466     32.060   ;
    13      OG2P1      1    LIG     O2     13     -0.412     15.999   ;
    14      OG2P1      1    LIG     O3     14     -0.412     15.999   ;
    15      CG331      1    LIG     C8     15      0.033     12.011   ;
    16     CG2R61      1    LIG     C9     16      0.149     12.011   ;
    17     CG2R61      1    LIG    C10     17     -0.123     12.011   ;
    18     CG2R61      1    LIG    C11     18     -0.112     12.011   ;
    19     CG2R61      1    LIG    C12     19     -0.116     12.011   ;
    20     CG2R61      1    LIG    C13     20     -0.112     12.011   ;
    21     CG2R61      1    LIG    C14     21     -0.123     12.011   ;
    22      CG311      1    LIG    C15     22      0.087     12.011   ;
    23      NG311      1    LIG     N3     23     -0.499     14.007   ;
    24       HGP1      1    LIG     HN     24      0.341      1.008   ;
    25      CG331      1    LIG    C16     25     -0.259     12.011   ;
    26      OG301      1    LIG     O4     26     -0.257     15.999   ;
    27      CG321      1    LIG    C17     27      0.086     12.011   ;
    28     CG2R61      1    LIG    C18     28     -0.005     12.011   ;
    29     CG2R61      1    LIG    C19     29     -0.123     12.011   ;
    30     CG2R61      1    LIG    C20     30     -0.112     12.011   ;
    31     CG2R61      1    LIG    C21     31     -0.116     12.011   ;
    32     CG2R61      1    LIG    C22     32     -0.112     12.011   ;
    33     CG2R61      1    LIG    C23     33     -0.123     12.011   ;
    34      CG311      1    LIG    C24     34      0.010     12.011   ;
    35      CG321      1    LIG    C25     35     -0.153     12.011   ;
    36     CG2R61      1    LIG    C26     36      0.057     12.011   ;
    37     CG2R61      1    LIG    C27     37     -0.218     12.011   ;
    38     CG2R66      1    LIG    C28     38      0.261     12.011   ;
    39       FGR1      1    LIG     F1     39     -0.210     18.998   ;
    40     CG2R61      1    LIG    C29     40     -0.240     12.011   ;
    41     CG2R66      1    LIG    C30     41      0.261     12.011   ;
    42       FGR1      1    LIG     F2     42     -0.210     18.998   ;
    43     CG2R61      1    LIG    C31     43     -0.218     12.011   ;
    44      CG311      1    LIG    C32     44      0.094     12.011   ;
    45      OG311      1    LIG     O5     45     -0.625     15.999   ;
    46       HGP1      1    LIG     H2     46      0.415      1.008   ;
    47      CG324      1    LIG    C33     47      0.178     12.011   ;
    48      NG3P2      1    LIG     N4     48     -0.444     14.007   ;
    49       HGP2      1    LIG     H3     49      0.348      1.008   ;
    50       HGP2      1    LIG     H4     50      0.348      1.008   ;
    51      CG324      1    LIG    C34     51      0.171     12.011   ;
    52     CG2R61      1    LIG    C35     52      0.036     12.011   ;
    53     CG2R61      1    LIG    C36     53     -0.124     12.011   ;
    54     CG2R61      1    LIG    C37     54      0.216     12.011   ;
    55     CG2R61      1    LIG    C38     55     -0.121     12.011   ;
    56     CG2R61      1    LIG    C39     56     -0.108     12.011   ;
    57     CG2R61      1    LIG    C40     57     -0.119     12.011   ;
    58      OG301      1    LIG     O6     58     -0.383     15.999   ;
    59      CG331      1    LIG    C41     59     -0.094     12.011   ;
    60      HGR61      1    LIG     HC     60      0.116      1.008   ;
    61      HGR61      1    LIG    HC1     61      0.116      1.008   ;
    62      HGR61      1    LIG    HC2     62      0.116      1.008   ;
    63      HGR61      1    LIG    HC3     63      0.116      1.008   ;
    64      HGR61      1    LIG    HC4     64      0.116      1.008   ;
    65      HGR61      1    LIG    HC5     65      0.116      1.008   ;
    66      HGR61      1    LIG    HC6     66      0.116      1.008   ;
    67      HGR61      1    LIG    HC7     67      0.116      1.008   ;
    68       HGA2      1    LIG    HC8     68      0.090      1.008   ;
    69       HGA2      1    LIG    HC9     69      0.090      1.008   ;
    70      HGR61      1    LIG   HC10     70      0.116      1.008   ;
    71      HGR61      1    LIG   HC11     71      0.116      1.008   ;
    72      HGR61      1    LIG   HC12     72      0.116      1.008   ;
    73      HGR61      1    LIG   HC13     73      0.116      1.008   ;
    74      HGR61      1    LIG   HC14     74      0.116      1.008   ;
    75       HGA1      1    LIG   HC15     75      0.090      1.008   ;
    76       HGA2      1    LIG   HC16     76      0.090      1.008   ;
    77       HGA2      1    LIG   HC17     77      0.090      1.008   ;
    78      HGR62      1    LIG   HC18     78      0.174      1.008   ;
    79      HGR62      1    LIG   HC19     79      0.186      1.008   ;
    80      HGR62      1    LIG   HC20     80      0.174      1.008   ;
    81       HGA1      1    LIG   HC21     81      0.090      1.008   ;
    82       HGA2      1    LIG   HC22     82      0.090      1.008   ;
    83       HGA2      1    LIG   HC23     83      0.090      1.008   ;
    84       HGA2      1    LIG   HC24     84      0.090      1.008   ;
    85       HGA2      1    LIG   HC25     85      0.090      1.008   ;
    86      HGR61      1    LIG   HC26     86      0.116      1.008   ;
    87      HGR61      1    LIG   HC27     87      0.116      1.008   ;
    88      HGR61      1    LIG   HC28     88      0.116      1.008   ;
    89      HGR61      1    LIG   HC29     89      0.116      1.008   ;
    90       HGA3      1    LIG   HC30     90      0.090      1.008   ;
    91       HGA3      1    LIG   HC31     91      0.090      1.008   ;
    92       HGA3      1    LIG   HC32     92      0.090      1.008   ;
    93       HGA3      1    LIG   HC33     93      0.090      1.008   ;
    94       HGA3      1    LIG   HC34     94      0.090      1.008   ;
    95       HGA3      1    LIG   HC35     95      0.090      1.008   ;
    96       HGA3      1    LIG   HC36     96      0.090      1.008   ;
    97       HGA3      1    LIG   HC37     97      0.090      1.008   ;
    98       HGA3      1    LIG   HC38     98      0.090      1.008   ;
    99       HGA1      1    LIG    H45     99      0.090      1.008   ;

[ bonds ]
;	ai	  aj funct			  c0			c1			  c2			c3
    1     2	 1 ;       CG2O1      OG2D1
    1     3	 1 ;       CG2O1      NG2S1
    1     5	 1 ;       CG2O1     CG2R61
    3    34	 1 ;       NG2S1      CG311
    3     4	 1 ;       NG2S1       HGP1
    5    10	 1 ;      CG2R61     CG2R61
    5     6	 1 ;      CG2R61     CG2R61
    6     7	 1 ;      CG2R61     CG2R61
    6    60	 1 ;      CG2R61      HGR61
    7     8	 1 ;      CG2R61     CG2R61
    7    11	 1 ;      CG2R61      NG301
    8     9	 1 ;      CG2R61     CG2R61
    8    61	 1 ;      CG2R61      HGR61
    9    10	 1 ;      CG2R61     CG2R61
    9    22	 1 ;      CG2R61      CG311
   10    62	 1 ;      CG2R61      HGR61
   11    16	 1 ;       NG301     CG2R61
   11    12	 1 ;       NG301      SG3O2
   12    15	 1 ;       SG3O2      CG331
   12    13	 1 ;       SG3O2      OG2P1
   12    14	 1 ;       SG3O2      OG2P1
   15    90	 1 ;       CG331       HGA3
   15    91	 1 ;       CG331       HGA3
   15    92	 1 ;       CG331       HGA3
   16    21	 1 ;      CG2R61     CG2R61
   16    17	 1 ;      CG2R61     CG2R61
   17    18	 1 ;      CG2R61     CG2R61
   17    63	 1 ;      CG2R61      HGR61
   18    19	 1 ;      CG2R61     CG2R61
   18    64	 1 ;      CG2R61      HGR61
   19    20	 1 ;      CG2R61     CG2R61
   19    65	 1 ;      CG2R61      HGR61
   20    21	 1 ;      CG2R61     CG2R61
   20    66	 1 ;      CG2R61      HGR61
   21    67	 1 ;      CG2R61      HGR61
   22    23	 1 ;       CG311      NG311
   22    25	 1 ;       CG311      CG331
   22    99	 1 ;       CG311       HGA1
   23    26	 1 ;       NG311      OG301
   23    24	 1 ;       NG311       HGP1
   25    96	 1 ;       CG331       HGA3
   25    97	 1 ;       CG331       HGA3
   25    98	 1 ;       CG331       HGA3
   26    27	 1 ;       OG301      CG321
   27    28	 1 ;       CG321     CG2R61
   27    68	 1 ;       CG321       HGA2
   27    69	 1 ;       CG321       HGA2
   28    29	 1 ;      CG2R61     CG2R61
   28    33	 1 ;      CG2R61     CG2R61
   29    30	 1 ;      CG2R61     CG2R61
   29    70	 1 ;      CG2R61      HGR61
   30    31	 1 ;      CG2R61     CG2R61
   30    71	 1 ;      CG2R61      HGR61
   31    32	 1 ;      CG2R61     CG2R61
   31    72	 1 ;      CG2R61      HGR61
   32    33	 1 ;      CG2R61     CG2R61
   32    73	 1 ;      CG2R61      HGR61
   33    74	 1 ;      CG2R61      HGR61
   34    44	 1 ;       CG311      CG311
   34    35	 1 ;       CG311      CG321
   34    75	 1 ;       CG311       HGA1
   35    36	 1 ;       CG321     CG2R61
   35    76	 1 ;       CG321       HGA2
   35    77	 1 ;       CG321       HGA2
   36    37	 1 ;      CG2R61     CG2R61
   36    43	 1 ;      CG2R61     CG2R61
   37    38	 1 ;      CG2R61     CG2R66
   37    78	 1 ;      CG2R61      HGR62
   38    39	 1 ;      CG2R66       FGR1
   38    40	 1 ;      CG2R66     CG2R61
   40    41	 1 ;      CG2R61     CG2R66
   40    79	 1 ;      CG2R61      HGR62
   41    43	 1 ;      CG2R66     CG2R61
   41    42	 1 ;      CG2R66       FGR1
   43    80	 1 ;      CG2R61      HGR62
   44    47	 1 ;       CG311      CG324
   44    45	 1 ;       CG311      OG311
   44    81	 1 ;       CG311       HGA1
   45    46	 1 ;       OG311       HGP1
   47    48	 1 ;       CG324      NG3P2
   47    82	 1 ;       CG324       HGA2
   47    83	 1 ;       CG324       HGA2
   48    51	 1 ;       NG3P2      CG324
   48    50	 1 ;       NG3P2       HGP2
   48    49	 1 ;       NG3P2       HGP2
   51    52	 1 ;       CG324     CG2R61
   51    84	 1 ;       CG324       HGA2
   51    85	 1 ;       CG324       HGA2
   52    53	 1 ;      CG2R61     CG2R61
   52    57	 1 ;      CG2R61     CG2R61
   53    54	 1 ;      CG2R61     CG2R61
   53    86	 1 ;      CG2R61      HGR61
   54    58	 1 ;      CG2R61      OG301
   54    55	 1 ;      CG2R61     CG2R61
   55    56	 1 ;      CG2R61     CG2R61
   55    87	 1 ;      CG2R61      HGR61
   56    57	 1 ;      CG2R61     CG2R61
   56    88	 1 ;      CG2R61      HGR61
   57    89	 1 ;      CG2R61      HGR61
   58    59	 1 ;       OG301      CG331
   59    93	 1 ;       CG331       HGA3
   59    94	 1 ;       CG331       HGA3
   59    95	 1 ;       CG331       HGA3

[ pairs ]
;	ai	  aj funct			  c0			c1			  c2			c3
    1    44	 1
    1    35	 1
    1    75	 1
    1     9	 1
    1    62	 1
    1     7	 1
    1    60	 1
    2    34	 1
    2     4	 1
    2    10	 1
    2     6	 1
    3    10	 1
    3     6	 1
    3    47	 1
    3    45	 1
    3    81	 1
    3    36	 1
    3    76	 1
    3    77	 1
    4     5	 1
    4    44	 1
    4    35	 1
    4    75	 1
    5    34	 1
    5     8	 1
    5    11	 1
    5    22	 1
    6     9	 1
    6    62	 1
    6    61	 1
    6    16	 1
    6    12	 1
    7    10	 1
    7    22	 1
    7    21	 1
    7    17	 1
    7    15	 1
    7    13	 1
    7    14	 1
    8    60	 1
    8    16	 1
    8    12	 1
    8    62	 1
    8    23	 1
    8    25	 1
    8    99	 1
    9    11	 1
    9    26	 1
    9    24	 1
    9    96	 1
    9    97	 1
    9    98	 1
   10    60	 1
   10    61	 1
   10    23	 1
   10    25	 1
   10    99	 1
   11    60	 1
   11    61	 1
   11    90	 1
   11    91	 1
   11    92	 1
   11    20	 1
   11    67	 1
   11    18	 1
   11    63	 1
   12    21	 1
   12    17	 1
   13    16	 1
   13    90	 1
   13    91	 1
   13    92	 1
   14    16	 1
   14    90	 1
   14    91	 1
   14    92	 1
   15    16	 1
   16    19	 1
   16    64	 1
   16    66	 1
   17    20	 1
   17    67	 1
   17    65	 1
   18    21	 1
   18    66	 1
   19    63	 1
   19    67	 1
   20    64	 1
   21    63	 1
   21    65	 1
   22    61	 1
   22    62	 1
   22    27	 1
   23    96	 1
   23    97	 1
   23    98	 1
   23    28	 1
   23    68	 1
   23    69	 1
   24    25	 1
   24    99	 1
   24    27	 1
   25    26	 1
   26    99	 1
   26    29	 1
   26    33	 1
   27    30	 1
   27    70	 1
   27    32	 1
   27    74	 1
   28    31	 1
   28    71	 1
   28    73	 1
   29    68	 1
   29    69	 1
   29    32	 1
   29    74	 1
   29    72	 1
   30    33	 1
   30    73	 1
   31    70	 1
   31    74	 1
   32    71	 1
   33    68	 1
   33    69	 1
   33    70	 1
   33    72	 1
   34    37	 1
   34    43	 1
   34    48	 1
   34    82	 1
   34    83	 1
   34    46	 1
   35    47	 1
   35    45	 1
   35    81	 1
   35    38	 1
   35    78	 1
   35    41	 1
   35    80	 1
   36    44	 1
   36    75	 1
   36    39	 1
   36    40	 1
   36    42	 1
   37    76	 1
   37    77	 1
   37    41	 1
   37    80	 1
   37    79	 1
   38    43	 1
   38    42	 1
   39    78	 1
   39    41	 1
   39    79	 1
   40    78	 1
   40    80	 1
   42    79	 1
   42    80	 1
   43    76	 1
   43    77	 1
   43    78	 1
   43    79	 1
   44    76	 1
   44    77	 1
   44    51	 1
   44    50	 1
   44    49	 1
   45    75	 1
   45    48	 1
   45    82	 1
   45    83	 1
   46    47	 1
   46    81	 1
   47    75	 1
   47    52	 1
   47    84	 1
   47    85	 1
   48    81	 1
   48    53	 1
   48    57	 1
   49    82	 1
   49    83	 1
   49    52	 1
   49    84	 1
   49    85	 1
   50    82	 1
   50    83	 1
   50    52	 1
   50    84	 1
   50    85	 1
   51    82	 1
   51    83	 1
   51    54	 1
   51    86	 1
   51    56	 1
   51    89	 1
   52    58	 1
   52    55	 1
   52    88	 1
   53    84	 1
   53    85	 1
   53    56	 1
   53    89	 1
   53    59	 1
   53    87	 1
   54    57	 1
   54    88	 1
   54    93	 1
   54    94	 1
   54    95	 1
   55    86	 1
   55    59	 1
   55    89	 1
   56    58	 1
   57    84	 1
   57    85	 1
   57    86	 1
   57    87	 1
   58    86	 1
   58    87	 1
   63    64	 1
   64    65	 1
   65    66	 1
   66    67	 1
   70    71	 1
   71    72	 1
   72    73	 1
   73    74	 1
   75    81	 1
   75    76	 1
   75    77	 1
   81    82	 1
   81    83	 1
   87    88	 1
   88    89	 1
   96    99	 1
   97    99	 1
   98    99	 1

[ angles ]
;	ai	  aj	ak funct			c0			  c1			c2			  c3
    2     1     3	5 ;      OG2D1      CG2O1      NG2S1
    2     1     5	5 ;      OG2D1      CG2O1     CG2R61
    3     1     5	5 ;      NG2S1      CG2O1     CG2R61
   34     3     1	5 ;      CG311      NG2S1      CG2O1
   34     3     4	5 ;      CG311      NG2S1       HGP1
    1     3     4	5 ;      CG2O1      NG2S1       HGP1
    1     5    10	5 ;      CG2O1     CG2R61     CG2R61
    1     5     6	5 ;      CG2O1     CG2R61     CG2R61
   10     5     6	5 ;     CG2R61     CG2R61     CG2R61
    5     6     7	5 ;     CG2R61     CG2R61     CG2R61
    5     6    60	5 ;     CG2R61     CG2R61      HGR61
    7     6    60	5 ;     CG2R61     CG2R61      HGR61
    6     7     8	5 ;     CG2R61     CG2R61     CG2R61
    6     7    11	5 ;     CG2R61     CG2R61      NG301
    8     7    11	5 ;     CG2R61     CG2R61      NG301
    9     8     7	5 ;     CG2R61     CG2R61     CG2R61
    9     8    61	5 ;     CG2R61     CG2R61      HGR61
    7     8    61	5 ;     CG2R61     CG2R61      HGR61
   10     9    22	5 ;     CG2R61     CG2R61      CG311
   10     9     8	5 ;     CG2R61     CG2R61     CG2R61
   22     9     8	5 ;      CG311     CG2R61     CG2R61
    5    10     9	5 ;     CG2R61     CG2R61     CG2R61
    5    10    62	5 ;     CG2R61     CG2R61      HGR61
    9    10    62	5 ;     CG2R61     CG2R61      HGR61
    7    11    16	5 ;     CG2R61      NG301     CG2R61
    7    11    12	5 ;     CG2R61      NG301      SG3O2
   16    11    12	5 ;     CG2R61      NG301      SG3O2
   11    12    15	5 ;      NG301      SG3O2      CG331
   11    12    13	5 ;      NG301      SG3O2      OG2P1
   11    12    14	5 ;      NG301      SG3O2      OG2P1
   15    12    13	5 ;      CG331      SG3O2      OG2P1
   15    12    14	5 ;      CG331      SG3O2      OG2P1
   13    12    14	5 ;      OG2P1      SG3O2      OG2P1
   12    15    90	5 ;      SG3O2      CG331       HGA3
   12    15    91	5 ;      SG3O2      CG331       HGA3
   12    15    92	5 ;      SG3O2      CG331       HGA3
   90    15    91	5 ;       HGA3      CG331       HGA3
   90    15    92	5 ;       HGA3      CG331       HGA3
   91    15    92	5 ;       HGA3      CG331       HGA3
   21    16    17	5 ;     CG2R61     CG2R61     CG2R61
   21    16    11	5 ;     CG2R61     CG2R61      NG301
   17    16    11	5 ;     CG2R61     CG2R61      NG301
   18    17    16	5 ;     CG2R61     CG2R61     CG2R61
   18    17    63	5 ;     CG2R61     CG2R61      HGR61
   16    17    63	5 ;     CG2R61     CG2R61      HGR61
   19    18    17	5 ;     CG2R61     CG2R61     CG2R61
   19    18    64	5 ;     CG2R61     CG2R61      HGR61
   17    18    64	5 ;     CG2R61     CG2R61      HGR61
   20    19    18	5 ;     CG2R61     CG2R61     CG2R61
   20    19    65	5 ;     CG2R61     CG2R61      HGR61
   18    19    65	5 ;     CG2R61     CG2R61      HGR61
   19    20    21	5 ;     CG2R61     CG2R61     CG2R61
   19    20    66	5 ;     CG2R61     CG2R61      HGR61
   21    20    66	5 ;     CG2R61     CG2R61      HGR61
   20    21    16	5 ;     CG2R61     CG2R61     CG2R61
   20    21    67	5 ;     CG2R61     CG2R61      HGR61
   16    21    67	5 ;     CG2R61     CG2R61      HGR61
   23    22     9	5 ;      NG311      CG311     CG2R61
   23    22    25	5 ;      NG311      CG311      CG331
   23    22    99	5 ;      NG311      CG311       HGA1
    9    22    25	5 ;     CG2R61      CG311      CG331
    9    22    99	5 ;     CG2R61      CG311       HGA1
   25    22    99	5 ;      CG331      CG311       HGA1
   26    23    24	5 ;      OG301      NG311       HGP1
   26    23    22	5 ;      OG301      NG311      CG311
   24    23    22	5 ;       HGP1      NG311      CG311
   22    25    96	5 ;      CG311      CG331       HGA3
   22    25    97	5 ;      CG311      CG331       HGA3
   22    25    98	5 ;      CG311      CG331       HGA3
   96    25    97	5 ;       HGA3      CG331       HGA3
   96    25    98	5 ;       HGA3      CG331       HGA3
   97    25    98	5 ;       HGA3      CG331       HGA3
   27    26    23	5 ;      CG321      OG301      NG311
   28    27    26	5 ;     CG2R61      CG321      OG301
   28    27    68	5 ;     CG2R61      CG321       HGA2
   28    27    69	5 ;     CG2R61      CG321       HGA2
   26    27    68	5 ;      OG301      CG321       HGA2
   26    27    69	5 ;      OG301      CG321       HGA2
   68    27    69	5 ;       HGA2      CG321       HGA2
   29    28    27	5 ;     CG2R61     CG2R61      CG321
   29    28    33	5 ;     CG2R61     CG2R61     CG2R61
   27    28    33	5 ;      CG321     CG2R61     CG2R61
   30    29    28	5 ;     CG2R61     CG2R61     CG2R61
   30    29    70	5 ;     CG2R61     CG2R61      HGR61
   28    29    70	5 ;     CG2R61     CG2R61      HGR61
   29    30    31	5 ;     CG2R61     CG2R61     CG2R61
   29    30    71	5 ;     CG2R61     CG2R61      HGR61
   31    30    71	5 ;     CG2R61     CG2R61      HGR61
   30    31    32	5 ;     CG2R61     CG2R61     CG2R61
   30    31    72	5 ;     CG2R61     CG2R61      HGR61
   32    31    72	5 ;     CG2R61     CG2R61      HGR61
   31    32    33	5 ;     CG2R61     CG2R61     CG2R61
   31    32    73	5 ;     CG2R61     CG2R61      HGR61
   33    32    73	5 ;     CG2R61     CG2R61      HGR61
   28    33    32	5 ;     CG2R61     CG2R61     CG2R61
   28    33    74	5 ;     CG2R61     CG2R61      HGR61
   32    33    74	5 ;     CG2R61     CG2R61      HGR61
   44    34     3	5 ;      CG311      CG311      NG2S1
   44    34    35	5 ;      CG311      CG311      CG321
   44    34    75	5 ;      CG311      CG311       HGA1
    3    34    35	5 ;      NG2S1      CG311      CG321
    3    34    75	5 ;      NG2S1      CG311       HGA1
   35    34    75	5 ;      CG321      CG311       HGA1
   34    35    36	5 ;      CG311      CG321     CG2R61
   34    35    76	5 ;      CG311      CG321       HGA2
   34    35    77	5 ;      CG311      CG321       HGA2
   36    35    76	5 ;     CG2R61      CG321       HGA2
   36    35    77	5 ;     CG2R61      CG321       HGA2
   76    35    77	5 ;       HGA2      CG321       HGA2
   37    36    35	5 ;     CG2R61     CG2R61      CG321
   37    36    43	5 ;     CG2R61     CG2R61     CG2R61
   35    36    43	5 ;      CG321     CG2R61     CG2R61
   38    37    36	5 ;     CG2R66     CG2R61     CG2R61
   38    37    78	5 ;     CG2R66     CG2R61      HGR62
   36    37    78	5 ;     CG2R61     CG2R61      HGR62
   39    38    37	5 ;       FGR1     CG2R66     CG2R61
   39    38    40	5 ;       FGR1     CG2R66     CG2R61
   37    38    40	5 ;     CG2R61     CG2R66     CG2R61
   38    40    41	5 ;     CG2R66     CG2R61     CG2R66
   38    40    79	5 ;     CG2R66     CG2R61      HGR62
   41    40    79	5 ;     CG2R66     CG2R61      HGR62
   40    41    43	5 ;     CG2R61     CG2R66     CG2R61
   40    41    42	5 ;     CG2R61     CG2R66       FGR1
   43    41    42	5 ;     CG2R61     CG2R66       FGR1
   36    43    41	5 ;     CG2R61     CG2R61     CG2R66
   36    43    80	5 ;     CG2R61     CG2R61      HGR62
   41    43    80	5 ;     CG2R66     CG2R61      HGR62
   47    44    45	5 ;      CG324      CG311      OG311
   47    44    34	5 ;      CG324      CG311      CG311
   47    44    81	5 ;      CG324      CG311       HGA1
   45    44    34	5 ;      OG311      CG311      CG311
   45    44    81	5 ;      OG311      CG311       HGA1
   34    44    81	5 ;      CG311      CG311       HGA1
   44    45    46	5 ;      CG311      OG311       HGP1
   48    47    44	5 ;      NG3P2      CG324      CG311
   48    47    82	5 ;      NG3P2      CG324       HGA2
   48    47    83	5 ;      NG3P2      CG324       HGA2
   44    47    82	5 ;      CG311      CG324       HGA2
   44    47    83	5 ;      CG311      CG324       HGA2
   82    47    83	5 ;       HGA2      CG324       HGA2
   51    48    50	5 ;      CG324      NG3P2       HGP2
   51    48    47	5 ;      CG324      NG3P2      CG324
   51    48    49	5 ;      CG324      NG3P2       HGP2
   50    48    47	5 ;       HGP2      NG3P2      CG324
   50    48    49	5 ;       HGP2      NG3P2       HGP2
   47    48    49	5 ;      CG324      NG3P2       HGP2
   52    51    48	5 ;     CG2R61      CG324      NG3P2
   52    51    84	5 ;     CG2R61      CG324       HGA2
   52    51    85	5 ;     CG2R61      CG324       HGA2
   48    51    84	5 ;      NG3P2      CG324       HGA2
   48    51    85	5 ;      NG3P2      CG324       HGA2
   84    51    85	5 ;       HGA2      CG324       HGA2
   53    52    57	5 ;     CG2R61     CG2R61     CG2R61
   53    52    51	5 ;     CG2R61     CG2R61      CG324
   57    52    51	5 ;     CG2R61     CG2R61      CG324
   54    53    52	5 ;     CG2R61     CG2R61     CG2R61
   54    53    86	5 ;     CG2R61     CG2R61      HGR61
   52    53    86	5 ;     CG2R61     CG2R61      HGR61
   58    54    55	5 ;      OG301     CG2R61     CG2R61
   58    54    53	5 ;      OG301     CG2R61     CG2R61
   55    54    53	5 ;     CG2R61     CG2R61     CG2R61
   54    55    56	5 ;     CG2R61     CG2R61     CG2R61
   54    55    87	5 ;     CG2R61     CG2R61      HGR61
   56    55    87	5 ;     CG2R61     CG2R61      HGR61
   55    56    57	5 ;     CG2R61     CG2R61     CG2R61
   55    56    88	5 ;     CG2R61     CG2R61      HGR61
   57    56    88	5 ;     CG2R61     CG2R61      HGR61
   56    57    52	5 ;     CG2R61     CG2R61     CG2R61
   56    57    89	5 ;     CG2R61     CG2R61      HGR61
   52    57    89	5 ;     CG2R61     CG2R61      HGR61
   59    58    54	5 ;      CG331      OG301     CG2R61
   58    59    93	5 ;      OG301      CG331       HGA3
   58    59    94	5 ;      OG301      CG331       HGA3
   58    59    95	5 ;      OG301      CG331       HGA3
   93    59    94	5 ;       HGA3      CG331       HGA3
   93    59    95	5 ;       HGA3      CG331       HGA3
   94    59    95	5 ;       HGA3      CG331       HGA3

[ dihedrals ]
;	ai	  aj	ak	  al funct			  c0			c1			  c2			c3			  c4			c5
    2     1     3    34	 9 ;      OG2D1      CG2O1      NG2S1      CG311
    2     1     3     4	 9 ;      OG2D1      CG2O1      NG2S1       HGP1
    5     1     3    34	 9 ;     CG2R61      CG2O1      NG2S1      CG311
    5     1     3     4	 9 ;     CG2R61      CG2O1      NG2S1       HGP1
    2     1     5    10	 9 ;      OG2D1      CG2O1     CG2R61     CG2R61
    2     1     5     6	 9 ;      OG2D1      CG2O1     CG2R61     CG2R61
    3     1     5    10	 9 ;      NG2S1      CG2O1     CG2R61     CG2R61
    3     1     5     6	 9 ;      NG2S1      CG2O1     CG2R61     CG2R61
    1     3    34    44	 9 ;      CG2O1      NG2S1      CG311      CG311
    1     3    34    35	 9 ;      CG2O1      NG2S1      CG311      CG321
    1     3    34    75	 9 ;      CG2O1      NG2S1      CG311       HGA1
    4     3    34    44	 9 ;       HGP1      NG2S1      CG311      CG311
    4     3    34    35	 9 ;       HGP1      NG2S1      CG311      CG321
    4     3    34    75	 9 ;       HGP1      NG2S1      CG311       HGA1
    1     5    10     9	 9 ;      CG2O1     CG2R61     CG2R61     CG2R61
    1     5    10    62	 9 ;      CG2O1     CG2R61     CG2R61      HGR61
    6     5    10     9	 9 ;     CG2R61     CG2R61     CG2R61     CG2R61
    6     5    10    62	 9 ;     CG2R61     CG2R61     CG2R61      HGR61
    1     5     6     7	 9 ;      CG2O1     CG2R61     CG2R61     CG2R61
    1     5     6    60	 9 ;      CG2O1     CG2R61     CG2R61      HGR61
   10     5     6     7	 9 ;     CG2R61     CG2R61     CG2R61     CG2R61
   10     5     6    60	 9 ;     CG2R61     CG2R61     CG2R61      HGR61
    5     6     7     8	 9 ;     CG2R61     CG2R61     CG2R61     CG2R61
    5     6     7    11	 9 ;     CG2R61     CG2R61     CG2R61      NG301
   60     6     7     8	 9 ;      HGR61     CG2R61     CG2R61     CG2R61
   60     6     7    11	 9 ;      HGR61     CG2R61     CG2R61      NG301
    6     7     8     9	 9 ;     CG2R61     CG2R61     CG2R61     CG2R61
    6     7     8    61	 9 ;     CG2R61     CG2R61     CG2R61      HGR61
   11     7     8     9	 9 ;      NG301     CG2R61     CG2R61     CG2R61
   11     7     8    61	 9 ;      NG301     CG2R61     CG2R61      HGR61
    6     7    11    16	 9 ;     CG2R61     CG2R61      NG301     CG2R61
    6     7    11    12	 9 ;     CG2R61     CG2R61      NG301      SG3O2
    8     7    11    16	 9 ;     CG2R61     CG2R61      NG301     CG2R61
    8     7    11    12	 9 ;     CG2R61     CG2R61      NG301      SG3O2
    7     8     9    10	 9 ;     CG2R61     CG2R61     CG2R61     CG2R61
    7     8     9    22	 9 ;     CG2R61     CG2R61     CG2R61      CG311
   61     8     9    10	 9 ;      HGR61     CG2R61     CG2R61     CG2R61
   61     8     9    22	 9 ;      HGR61     CG2R61     CG2R61      CG311
   22     9    10     5	 9 ;      CG311     CG2R61     CG2R61     CG2R61
   22     9    10    62	 9 ;      CG311     CG2R61     CG2R61      HGR61
    8     9    10     5	 9 ;     CG2R61     CG2R61     CG2R61     CG2R61
    8     9    10    62	 9 ;     CG2R61     CG2R61     CG2R61      HGR61
   10     9    22    23	 9 ;     CG2R61     CG2R61      CG311      NG311
   10     9    22    25	 9 ;     CG2R61     CG2R61      CG311      CG331
   10     9    22    99	 9 ;     CG2R61     CG2R61      CG311       HGA1
    8     9    22    23	 9 ;     CG2R61     CG2R61      CG311      NG311
    8     9    22    25	 9 ;     CG2R61     CG2R61      CG311      CG331
    8     9    22    99	 9 ;     CG2R61     CG2R61      CG311       HGA1
    7    11    16    21	 9 ;     CG2R61      NG301     CG2R61     CG2R61
    7    11    16    17	 9 ;     CG2R61      NG301     CG2R61     CG2R61
   12    11    16    21	 9 ;      SG3O2      NG301     CG2R61     CG2R61
   12    11    16    17	 9 ;      SG3O2      NG301     CG2R61     CG2R61
    7    11    12    15	 9 ;     CG2R61      NG301      SG3O2      CG331
    7    11    12    13	 9 ;     CG2R61      NG301      SG3O2      OG2P1
    7    11    12    14	 9 ;     CG2R61      NG301      SG3O2      OG2P1
   16    11    12    15	 9 ;     CG2R61      NG301      SG3O2      CG331
   16    11    12    13	 9 ;     CG2R61      NG301      SG3O2      OG2P1
   16    11    12    14	 9 ;     CG2R61      NG301      SG3O2      OG2P1
   11    12    15    90	 9 ;      NG301      SG3O2      CG331       HGA3
   11    12    15    91	 9 ;      NG301      SG3O2      CG331       HGA3
   11    12    15    92	 9 ;      NG301      SG3O2      CG331       HGA3
   13    12    15    90	 9 ;      OG2P1      SG3O2      CG331       HGA3
   13    12    15    91	 9 ;      OG2P1      SG3O2      CG331       HGA3
   13    12    15    92	 9 ;      OG2P1      SG3O2      CG331       HGA3
   14    12    15    90	 9 ;      OG2P1      SG3O2      CG331       HGA3
   14    12    15    91	 9 ;      OG2P1      SG3O2      CG331       HGA3
   14    12    15    92	 9 ;      OG2P1      SG3O2      CG331       HGA3
   17    16    21    20	 9 ;     CG2R61     CG2R61     CG2R61     CG2R61
   17    16    21    67	 9 ;     CG2R61     CG2R61     CG2R61      HGR61
   11    16    21    20	 9 ;      NG301     CG2R61     CG2R61     CG2R61
   11    16    21    67	 9 ;      NG301     CG2R61     CG2R61      HGR61
   21    16    17    18	 9 ;     CG2R61     CG2R61     CG2R61     CG2R61
   21    16    17    63	 9 ;     CG2R61     CG2R61     CG2R61      HGR61
   11    16    17    18	 9 ;      NG301     CG2R61     CG2R61     CG2R61
   11    16    17    63	 9 ;      NG301     CG2R61     CG2R61      HGR61
   16    17    18    19	 9 ;     CG2R61     CG2R61     CG2R61     CG2R61
   16    17    18    64	 9 ;     CG2R61     CG2R61     CG2R61      HGR61
   63    17    18    19	 9 ;      HGR61     CG2R61     CG2R61     CG2R61
   63    17    18    64	 9 ;      HGR61     CG2R61     CG2R61      HGR61
   17    18    19    20	 9 ;     CG2R61     CG2R61     CG2R61     CG2R61
   17    18    19    65	 9 ;     CG2R61     CG2R61     CG2R61      HGR61
   64    18    19    20	 9 ;      HGR61     CG2R61     CG2R61     CG2R61
   64    18    19    65	 9 ;      HGR61     CG2R61     CG2R61      HGR61
   18    19    20    21	 9 ;     CG2R61     CG2R61     CG2R61     CG2R61
   18    19    20    66	 9 ;     CG2R61     CG2R61     CG2R61      HGR61
   65    19    20    21	 9 ;      HGR61     CG2R61     CG2R61     CG2R61
   65    19    20    66	 9 ;      HGR61     CG2R61     CG2R61      HGR61
   19    20    21    16	 9 ;     CG2R61     CG2R61     CG2R61     CG2R61
   19    20    21    67	 9 ;     CG2R61     CG2R61     CG2R61      HGR61
   66    20    21    16	 9 ;      HGR61     CG2R61     CG2R61     CG2R61
   66    20    21    67	 9 ;      HGR61     CG2R61     CG2R61      HGR61
    9    22    23    26	 9 ;     CG2R61      CG311      NG311      OG301
    9    22    23    24	 9 ;     CG2R61      CG311      NG311       HGP1
   25    22    23    26	 9 ;      CG331      CG311      NG311      OG301
   25    22    23    24	 9 ;      CG331      CG311      NG311       HGP1
   99    22    23    26	 9 ;       HGA1      CG311      NG311      OG301
   99    22    23    24	 9 ;       HGA1      CG311      NG311       HGP1
   23    22    25    96	 9 ;      NG311      CG311      CG331       HGA3
   23    22    25    97	 9 ;      NG311      CG311      CG331       HGA3
   23    22    25    98	 9 ;      NG311      CG311      CG331       HGA3
    9    22    25    96	 9 ;     CG2R61      CG311      CG331       HGA3
    9    22    25    97	 9 ;     CG2R61      CG311      CG331       HGA3
    9    22    25    98	 9 ;     CG2R61      CG311      CG331       HGA3
   99    22    25    96	 9 ;       HGA1      CG311      CG331       HGA3
   99    22    25    97	 9 ;       HGA1      CG311      CG331       HGA3
   99    22    25    98	 9 ;       HGA1      CG311      CG331       HGA3
   24    23    26    27	 9 ;       HGP1      NG311      OG301      CG321
   22    23    26    27	 9 ;      CG311      NG311      OG301      CG321
   23    26    27    28	 9 ;      NG311      OG301      CG321     CG2R61
   23    26    27    68	 9 ;      NG311      OG301      CG321       HGA2
   23    26    27    69	 9 ;      NG311      OG301      CG321       HGA2
   26    27    28    29	 9 ;      OG301      CG321     CG2R61     CG2R61
   26    27    28    33	 9 ;      OG301      CG321     CG2R61     CG2R61
   68    27    28    29	 9 ;       HGA2      CG321     CG2R61     CG2R61
   68    27    28    33	 9 ;       HGA2      CG321     CG2R61     CG2R61
   69    27    28    29	 9 ;       HGA2      CG321     CG2R61     CG2R61
   69    27    28    33	 9 ;       HGA2      CG321     CG2R61     CG2R61
   27    28    29    30	 9 ;      CG321     CG2R61     CG2R61     CG2R61
   27    28    29    70	 9 ;      CG321     CG2R61     CG2R61      HGR61
   33    28    29    30	 9 ;     CG2R61     CG2R61     CG2R61     CG2R61
   33    28    29    70	 9 ;     CG2R61     CG2R61     CG2R61      HGR61
   29    28    33    32	 9 ;     CG2R61     CG2R61     CG2R61     CG2R61
   29    28    33    74	 9 ;     CG2R61     CG2R61     CG2R61      HGR61
   27    28    33    32	 9 ;      CG321     CG2R61     CG2R61     CG2R61
   27    28    33    74	 9 ;      CG321     CG2R61     CG2R61      HGR61
   28    29    30    31	 9 ;     CG2R61     CG2R61     CG2R61     CG2R61
   28    29    30    71	 9 ;     CG2R61     CG2R61     CG2R61      HGR61
   70    29    30    31	 9 ;      HGR61     CG2R61     CG2R61     CG2R61
   70    29    30    71	 9 ;      HGR61     CG2R61     CG2R61      HGR61
   29    30    31    32	 9 ;     CG2R61     CG2R61     CG2R61     CG2R61
   29    30    31    72	 9 ;     CG2R61     CG2R61     CG2R61      HGR61
   71    30    31    32	 9 ;      HGR61     CG2R61     CG2R61     CG2R61
   71    30    31    72	 9 ;      HGR61     CG2R61     CG2R61      HGR61
   30    31    32    33	 9 ;     CG2R61     CG2R61     CG2R61     CG2R61
   30    31    32    73	 9 ;     CG2R61     CG2R61     CG2R61      HGR61
   72    31    32    33	 9 ;      HGR61     CG2R61     CG2R61     CG2R61
   72    31    32    73	 9 ;      HGR61     CG2R61     CG2R61      HGR61
   31    32    33    28	 9 ;     CG2R61     CG2R61     CG2R61     CG2R61
   31    32    33    74	 9 ;     CG2R61     CG2R61     CG2R61      HGR61
   73    32    33    28	 9 ;      HGR61     CG2R61     CG2R61     CG2R61
   73    32    33    74	 9 ;      HGR61     CG2R61     CG2R61      HGR61
    3    34    44    47	 9 ;      NG2S1      CG311      CG311      CG324
    3    34    44    45	 9 ;      NG2S1      CG311      CG311      OG311
    3    34    44    81	 9 ;      NG2S1      CG311      CG311       HGA1
   35    34    44    47	 9 ;      CG321      CG311      CG311      CG324
   35    34    44    45	 9 ;      CG321      CG311      CG311      OG311
   35    34    44    81	 9 ;      CG321      CG311      CG311       HGA1
   75    34    44    47	 9 ;       HGA1      CG311      CG311      CG324
   75    34    44    45	 9 ;       HGA1      CG311      CG311      OG311
   75    34    44    81	 9 ;       HGA1      CG311      CG311       HGA1
   44    34    35    36	 9 ;      CG311      CG311      CG321     CG2R61
   44    34    35    76	 9 ;      CG311      CG311      CG321       HGA2
   44    34    35    77	 9 ;      CG311      CG311      CG321       HGA2
    3    34    35    36	 9 ;      NG2S1      CG311      CG321     CG2R61
    3    34    35    76	 9 ;      NG2S1      CG311      CG321       HGA2
    3    34    35    77	 9 ;      NG2S1      CG311      CG321       HGA2
   75    34    35    36	 9 ;       HGA1      CG311      CG321     CG2R61
   75    34    35    76	 9 ;       HGA1      CG311      CG321       HGA2
   75    34    35    77	 9 ;       HGA1      CG311      CG321       HGA2
   34    35    36    37	 9 ;      CG311      CG321     CG2R61     CG2R61
   34    35    36    43	 9 ;      CG311      CG321     CG2R61     CG2R61
   76    35    36    37	 9 ;       HGA2      CG321     CG2R61     CG2R61
   76    35    36    43	 9 ;       HGA2      CG321     CG2R61     CG2R61
   77    35    36    37	 9 ;       HGA2      CG321     CG2R61     CG2R61
   77    35    36    43	 9 ;       HGA2      CG321     CG2R61     CG2R61
   35    36    37    38	 9 ;      CG321     CG2R61     CG2R61     CG2R66
   35    36    37    78	 9 ;      CG321     CG2R61     CG2R61      HGR62
   43    36    37    38	 9 ;     CG2R61     CG2R61     CG2R61     CG2R66
   43    36    37    78	 9 ;     CG2R61     CG2R61     CG2R61      HGR62
   37    36    43    41	 9 ;     CG2R61     CG2R61     CG2R61     CG2R66
   37    36    43    80	 9 ;     CG2R61     CG2R61     CG2R61      HGR62
   35    36    43    41	 9 ;      CG321     CG2R61     CG2R61     CG2R66
   35    36    43    80	 9 ;      CG321     CG2R61     CG2R61      HGR62
   36    37    38    39	 9 ;     CG2R61     CG2R61     CG2R66       FGR1
   36    37    38    40	 9 ;     CG2R61     CG2R61     CG2R66     CG2R61
   78    37    38    39	 9 ;      HGR62     CG2R61     CG2R66       FGR1
   78    37    38    40	 9 ;      HGR62     CG2R61     CG2R66     CG2R61
   39    38    40    41	 9 ;       FGR1     CG2R66     CG2R61     CG2R66
   39    38    40    79	 9 ;       FGR1     CG2R66     CG2R61      HGR62
   37    38    40    41	 9 ;     CG2R61     CG2R66     CG2R61     CG2R66
   37    38    40    79	 9 ;     CG2R61     CG2R66     CG2R61      HGR62
   38    40    41    43	 9 ;     CG2R66     CG2R61     CG2R66     CG2R61
   38    40    41    42	 9 ;     CG2R66     CG2R61     CG2R66       FGR1
   79    40    41    43	 9 ;      HGR62     CG2R61     CG2R66     CG2R61
   79    40    41    42	 9 ;      HGR62     CG2R61     CG2R66       FGR1
   40    41    43    36	 9 ;     CG2R61     CG2R66     CG2R61     CG2R61
   40    41    43    80	 9 ;     CG2R61     CG2R66     CG2R61      HGR62
   42    41    43    36	 9 ;       FGR1     CG2R66     CG2R61     CG2R61
   42    41    43    80	 9 ;       FGR1     CG2R66     CG2R61      HGR62
   45    44    47    48	 9 ;      OG311      CG311      CG324      NG3P2
   45    44    47    82	 9 ;      OG311      CG311      CG324       HGA2
   45    44    47    83	 9 ;      OG311      CG311      CG324       HGA2
   34    44    47    48	 9 ;      CG311      CG311      CG324      NG3P2
   34    44    47    82	 9 ;      CG311      CG311      CG324       HGA2
   34    44    47    83	 9 ;      CG311      CG311      CG324       HGA2
   81    44    47    48	 9 ;       HGA1      CG311      CG324      NG3P2
   81    44    47    82	 9 ;       HGA1      CG311      CG324       HGA2
   81    44    47    83	 9 ;       HGA1      CG311      CG324       HGA2
   47    44    45    46	 9 ;      CG324      CG311      OG311       HGP1
   34    44    45    46	 9 ;      CG311      CG311      OG311       HGP1
   81    44    45    46	 9 ;       HGA1      CG311      OG311       HGP1
   44    47    48    51	 9 ;      CG311      CG324      NG3P2      CG324
   44    47    48    50	 9 ;      CG311      CG324      NG3P2       HGP2
   44    47    48    49	 9 ;      CG311      CG324      NG3P2       HGP2
   82    47    48    51	 9 ;       HGA2      CG324      NG3P2      CG324
   82    47    48    50	 9 ;       HGA2      CG324      NG3P2       HGP2
   82    47    48    49	 9 ;       HGA2      CG324      NG3P2       HGP2
   83    47    48    51	 9 ;       HGA2      CG324      NG3P2      CG324
   83    47    48    50	 9 ;       HGA2      CG324      NG3P2       HGP2
   83    47    48    49	 9 ;       HGA2      CG324      NG3P2       HGP2
   50    48    51    52	 9 ;       HGP2      NG3P2      CG324     CG2R61
   50    48    51    84	 9 ;       HGP2      NG3P2      CG324       HGA2
   50    48    51    85	 9 ;       HGP2      NG3P2      CG324       HGA2
   47    48    51    52	 9 ;      CG324      NG3P2      CG324     CG2R61
   47    48    51    84	 9 ;      CG324      NG3P2      CG324       HGA2
   47    48    51    85	 9 ;      CG324      NG3P2      CG324       HGA2
   49    48    51    52	 9 ;       HGP2      NG3P2      CG324     CG2R61
   49    48    51    84	 9 ;       HGP2      NG3P2      CG324       HGA2
   49    48    51    85	 9 ;       HGP2      NG3P2      CG324       HGA2
   48    51    52    53	 9 ;      NG3P2      CG324     CG2R61     CG2R61
   48    51    52    57	 9 ;      NG3P2      CG324     CG2R61     CG2R61
   84    51    52    53	 9 ;       HGA2      CG324     CG2R61     CG2R61
   84    51    52    57	 9 ;       HGA2      CG324     CG2R61     CG2R61
   85    51    52    53	 9 ;       HGA2      CG324     CG2R61     CG2R61
   85    51    52    57	 9 ;       HGA2      CG324     CG2R61     CG2R61
   57    52    53    54	 9 ;     CG2R61     CG2R61     CG2R61     CG2R61
   57    52    53    86	 9 ;     CG2R61     CG2R61     CG2R61      HGR61
   51    52    53    54	 9 ;      CG324     CG2R61     CG2R61     CG2R61
   51    52    53    86	 9 ;      CG324     CG2R61     CG2R61      HGR61
   53    52    57    56	 9 ;     CG2R61     CG2R61     CG2R61     CG2R61
   53    52    57    89	 9 ;     CG2R61     CG2R61     CG2R61      HGR61
   51    52    57    56	 9 ;      CG324     CG2R61     CG2R61     CG2R61
   51    52    57    89	 9 ;      CG324     CG2R61     CG2R61      HGR61
   52    53    54    58	 9 ;     CG2R61     CG2R61     CG2R61      OG301
   52    53    54    55	 9 ;     CG2R61     CG2R61     CG2R61     CG2R61
   86    53    54    58	 9 ;      HGR61     CG2R61     CG2R61      OG301
   86    53    54    55	 9 ;      HGR61     CG2R61     CG2R61     CG2R61
   55    54    58    59	 9 ;     CG2R61     CG2R61      OG301      CG331
   53    54    58    59	 9 ;     CG2R61     CG2R61      OG301      CG331
   58    54    55    56	 9 ;      OG301     CG2R61     CG2R61     CG2R61
   58    54    55    87	 9 ;      OG301     CG2R61     CG2R61      HGR61
   53    54    55    56	 9 ;     CG2R61     CG2R61     CG2R61     CG2R61
   53    54    55    87	 9 ;     CG2R61     CG2R61     CG2R61      HGR61
   54    55    56    57	 9 ;     CG2R61     CG2R61     CG2R61     CG2R61
   54    55    56    88	 9 ;     CG2R61     CG2R61     CG2R61      HGR61
   87    55    56    57	 9 ;      HGR61     CG2R61     CG2R61     CG2R61
   87    55    56    88	 9 ;      HGR61     CG2R61     CG2R61      HGR61
   55    56    57    52	 9 ;     CG2R61     CG2R61     CG2R61     CG2R61
   55    56    57    89	 9 ;     CG2R61     CG2R61     CG2R61      HGR61
   88    56    57    52	 9 ;      HGR61     CG2R61     CG2R61     CG2R61
   88    56    57    89	 9 ;      HGR61     CG2R61     CG2R61      HGR61
   54    58    59    93	 9 ;     CG2R61      OG301      CG331       HGA3
   54    58    59    94	 9 ;     CG2R61      OG301      CG331       HGA3
   54    58    59    95	 9 ;     CG2R61      OG301      CG331       HGA3

[ dihedrals ]
;	ai	  aj	ak	  al funct			  c0			c1			  c2			c3
    1     5     3     2	 2

