GROtesk MACabre and Sinister
   63
    1LIG      S    1  -1.272   0.472  -1.703
    1LIG     O1    2  -1.296   0.431  -1.839
    1LIG     O2    3  -1.142   0.473  -1.641
    1LIG     N1    4  -1.387   0.392  -1.607
    1LIG     C1    5  -1.526   0.445  -1.633
    1LIG     C2    6  -1.592   0.374  -1.753
    1LIG     C3    7  -1.739   0.412  -1.781
    1LIG     N2    8  -1.822   0.399  -1.656
    1LIG     C4    9  -1.763   0.467  -1.535
    1LIG     C5   10  -1.617   0.430  -1.510
    1LIG     C6   11  -1.765   0.551  -1.841
    1LIG     C7   12  -1.497   0.598  -1.668
    1LIG     N3   13  -1.351   0.621  -1.679
    1LIG     C8   14  -1.295   0.704  -1.571
    1LIG     H1   15  -1.910   0.449  -1.675
    1LIG     C9   16  -1.342   0.286  -1.523
    1LIG    C10   17  -1.307   0.162  -1.577
    1LIG    C11   18  -1.246   0.067  -1.496
    1LIG      F   19  -1.211  -0.051  -1.549
    1LIG    C12   20  -1.217   0.092  -1.362
    1LIG    C13   21  -1.249   0.216  -1.309
    1LIG    C14   22  -1.311   0.313  -1.389
    1LIG    C15   23  -1.872   0.256  -1.635
    1LIG    C16   24  -2.016   0.243  -1.592
    1LIG    C17   25  -2.046   0.183  -1.469
    1LIG    C18   26  -2.178   0.158  -1.431
    1LIG    C19   27  -2.281   0.204  -1.514
    1LIG    C20   28  -2.253   0.266  -1.635
    1LIG    C21   29  -2.121   0.281  -1.677
    1LIG     O3   30  -2.217   0.088  -1.320
    1LIG    C22   31  -2.169  -0.046  -1.304
    1LIG    C23   32  -2.142  -0.081  -1.158
    1LIG     O4   33  -2.412   0.185  -1.482
    1LIG     H2   34  -2.419   0.189  -1.385
    1LIG    HC2   35  -1.534   0.398  -1.842
    1LIG    HC3   36  -1.587   0.267  -1.736
    1LIG     HC   37  -1.777   0.339  -1.853
    1LIG    HC4   38  -1.821   0.438  -1.447
    1LIG    HC5   39  -1.770   0.575  -1.548
    1LIG    HC6   40  -1.578   0.494  -1.431
    1LIG    HC7   41  -1.612   0.327  -1.476
    1LIG    HC1   42  -1.855   0.547  -1.903
    1LIG    HC8   43  -1.680   0.581  -1.903
    1LIG    HC9   44  -1.779   0.623  -1.761
    1LIG   HC10   45  -1.545   0.622  -1.763
    1LIG   HC11   46  -1.538   0.661  -1.590
    1LIG   HC12   47  -1.188   0.716  -1.585
    1LIG   HC13   48  -1.313   0.656  -1.475
    1LIG   HC14   49  -1.343   0.802  -1.572
    1LIG   HC15   50  -1.327   0.141  -1.681
    1LIG   HC16   51  -1.171   0.016  -1.301
    1LIG   HC17   52  -1.226   0.238  -1.205
    1LIG   HC18   53  -1.335   0.409  -1.347
    1LIG   HC19   54  -1.810   0.210  -1.558
    1LIG   HC20   55  -1.858   0.201  -1.728
    1LIG   HC21   56  -1.965   0.156  -1.402
    1LIG   HC22   57  -2.334   0.302  -1.697
    1LIG   HC23   58  -2.100   0.322  -1.775
    1LIG   HC24   59  -2.243  -0.115  -1.343
    1LIG   HC25   60  -2.077  -0.058  -1.361
    1LIG   HC26   61  -2.105  -0.184  -1.151
    1LIG   HC27   62  -2.066  -0.014  -1.117
    1LIG   HC28   63  -2.234  -0.072  -1.100
   0.00000   0.00000   0.00000
