; Created by cgenff_charmm2gmx.py

[ moleculetype ]
; Name			   nrexcl
LIG				 3

[ atoms ]
;	 nr		  type	resnr residue  atom   cgnr	   charge		mass  typeB    chargeB		massB
; residue	 1 LIG rtp LIG q	qsum
     1     CG2R61      1    LIG     C1      1      0.105     12.011   ;
     2     CG2R61      1    LIG     C2      2     -0.111     12.011   ;
     3     CG2R61      1    LIG     C3      3     -0.119     12.011   ;
     4     CG2R61      1    LIG     C4      4     -0.125     12.011   ;
     5     CG2R61      1    LIG     C5      5     -0.115     12.011   ;
     6     CG2R61      1    LIG     C6      6      0.048     12.011   ;
     7      CG321      1    LIG     C7      7      0.000     12.011   ;
     8      CG324      1    LIG     C8      8      0.094     12.011   ;
     9      NG3P3      1    LIG      N      9     -0.309     14.007   ;
    10       HGP2      1    LIG     H1     10      0.328      1.008   ;
    11       HGP2      1    LIG     H2     11      0.328      1.008   ;
    12       HGP2      1    LIG     H3     12      0.328      1.008   ;
    13      CG311      1    LIG     C9     13     -0.144     12.011   ;
    14      CG321      1    LIG    C10     14     -0.180     12.011   ;
    15      CG321      1    LIG    C11     15     -0.188     12.011   ;
    16      CG321      1    LIG    C12     16     -0.154     12.011   ;
    17      CG321      1    LIG    C13     17     -0.188     12.011   ;
    18      CG321      1    LIG    C14     18     -0.180     12.011   ;
    19      OG311      1    LIG      O     19     -0.537     15.999   ;
    20       HGP1      1    LIG     H4     20      0.421      1.008   ;
    21      HGR61      1    LIG     H5     21      0.116      1.008   ;
    22      HGR61      1    LIG     H6     22      0.116      1.008   ;
    23      HGR61      1    LIG     H7     23      0.116      1.008   ;
    24       HGA2      1    LIG     H8     24      0.090      1.008   ;
    25       HGA2      1    LIG     H9     25      0.090      1.008   ;
    26       HGA2      1    LIG    H10     26      0.090      1.008   ;
    27       HGA2      1    LIG    H11     27      0.090      1.008   ;
    28       HGA1      1    LIG    H12     28      0.090      1.008   ;
    29       HGA2      1    LIG    H13     29      0.090      1.008   ;
    30       HGA2      1    LIG    H14     30      0.090      1.008   ;
    31       HGA2      1    LIG    H15     31      0.090      1.008   ;
    32       HGA2      1    LIG    H16     32      0.090      1.008   ;
    33       HGA2      1    LIG    H17     33      0.090      1.008   ;
    34       HGA2      1    LIG    H18     34      0.090      1.008   ;
    35       HGA2      1    LIG    H19     35      0.090      1.008   ;
    36       HGA2      1    LIG    H20     36      0.090      1.008   ;
    37       HGA2      1    LIG    H21     37      0.090      1.008   ;
    38       HGA2      1    LIG    H22     38      0.090      1.008   ;

[ bonds ]
;	ai	  aj funct			  c0			c1			  c2			c3
    1     2	 1 ;      CG2R61     CG2R61
    1    19	 1 ;      CG2R61      OG311
    1     6	 1 ;      CG2R61     CG2R61
    2     3	 1 ;      CG2R61     CG2R61
    2    21	 1 ;      CG2R61      HGR61
    3     4	 1 ;      CG2R61     CG2R61
    3    22	 1 ;      CG2R61      HGR61
    4     7	 1 ;      CG2R61      CG321
    4     5	 1 ;      CG2R61     CG2R61
    5     6	 1 ;      CG2R61     CG2R61
    5    23	 1 ;      CG2R61      HGR61
    6    13	 1 ;      CG2R61      CG311
    7     8	 1 ;       CG321      CG324
    7    24	 1 ;       CG321       HGA2
    7    25	 1 ;       CG321       HGA2
    8     9	 1 ;       CG324      NG3P3
    8    26	 1 ;       CG324       HGA2
    8    27	 1 ;       CG324       HGA2
    9    10	 1 ;       NG3P3       HGP2
    9    12	 1 ;       NG3P3       HGP2
    9    11	 1 ;       NG3P3       HGP2
   13    18	 1 ;       CG311      CG321
   13    14	 1 ;       CG311      CG321
   13    28	 1 ;       CG311       HGA1
   14    15	 1 ;       CG321      CG321
   14    29	 1 ;       CG321       HGA2
   14    30	 1 ;       CG321       HGA2
   15    16	 1 ;       CG321      CG321
   15    31	 1 ;       CG321       HGA2
   15    32	 1 ;       CG321       HGA2
   16    17	 1 ;       CG321      CG321
   16    33	 1 ;       CG321       HGA2
   16    34	 1 ;       CG321       HGA2
   17    18	 1 ;       CG321      CG321
   17    35	 1 ;       CG321       HGA2
   17    36	 1 ;       CG321       HGA2
   18    37	 1 ;       CG321       HGA2
   18    38	 1 ;       CG321       HGA2
   19    20	 1 ;       OG311       HGP1

[ pairs ]
;	ai	  aj funct			  c0			c1			  c2			c3
    1     4	 1
    1    22	 1
    1    23	 1
    1    18	 1
    1    14	 1
    1    28	 1
    2    20	 1
    2     5	 1
    2    13	 1
    2     7	 1
    3    19	 1
    3     6	 1
    3     8	 1
    3    24	 1
    3    25	 1
    3    23	 1
    4    21	 1
    4    13	 1
    4     9	 1
    4    26	 1
    4    27	 1
    5    19	 1
    5    22	 1
    5     8	 1
    5    24	 1
    5    25	 1
    5    18	 1
    5    14	 1
    5    28	 1
    6    21	 1
    6    20	 1
    6     7	 1
    6    17	 1
    6    37	 1
    6    38	 1
    6    15	 1
    6    29	 1
    6    30	 1
    7    22	 1
    7    23	 1
    7    10	 1
    7    12	 1
    7    11	 1
    9    24	 1
    9    25	 1
   10    26	 1
   10    27	 1
   11    26	 1
   11    27	 1
   12    26	 1
   12    27	 1
   13    19	 1
   13    23	 1
   13    16	 1
   13    31	 1
   13    32	 1
   13    35	 1
   13    36	 1
   14    17	 1
   14    37	 1
   14    38	 1
   14    33	 1
   14    34	 1
   15    18	 1
   15    28	 1
   15    35	 1
   15    36	 1
   16    29	 1
   16    30	 1
   16    37	 1
   16    38	 1
   17    28	 1
   17    31	 1
   17    32	 1
   18    29	 1
   18    30	 1
   18    33	 1
   18    34	 1
   19    21	 1
   21    22	 1
   24    26	 1
   24    27	 1
   25    26	 1
   25    27	 1
   28    37	 1
   28    38	 1
   28    29	 1
   28    30	 1
   29    31	 1
   29    32	 1
   30    31	 1
   30    32	 1
   31    33	 1
   31    34	 1
   32    33	 1
   32    34	 1
   33    35	 1
   33    36	 1
   34    35	 1
   34    36	 1
   35    37	 1
   35    38	 1
   36    37	 1
   36    38	 1

[ angles ]
;	ai	  aj	ak funct			c0			  c1			c2			  c3
    2     1    19	5 ;     CG2R61     CG2R61      OG311
    2     1     6	5 ;     CG2R61     CG2R61     CG2R61
   19     1     6	5 ;      OG311     CG2R61     CG2R61
    3     2     1	5 ;     CG2R61     CG2R61     CG2R61
    3     2    21	5 ;     CG2R61     CG2R61      HGR61
    1     2    21	5 ;     CG2R61     CG2R61      HGR61
    2     3     4	5 ;     CG2R61     CG2R61     CG2R61
    2     3    22	5 ;     CG2R61     CG2R61      HGR61
    4     3    22	5 ;     CG2R61     CG2R61      HGR61
    3     4     7	5 ;     CG2R61     CG2R61      CG321
    3     4     5	5 ;     CG2R61     CG2R61     CG2R61
    7     4     5	5 ;      CG321     CG2R61     CG2R61
    4     5     6	5 ;     CG2R61     CG2R61     CG2R61
    4     5    23	5 ;     CG2R61     CG2R61      HGR61
    6     5    23	5 ;     CG2R61     CG2R61      HGR61
    1     6     5	5 ;     CG2R61     CG2R61     CG2R61
    1     6    13	5 ;     CG2R61     CG2R61      CG311
    5     6    13	5 ;     CG2R61     CG2R61      CG311
    8     7     4	5 ;      CG324      CG321     CG2R61
    8     7    24	5 ;      CG324      CG321       HGA2
    8     7    25	5 ;      CG324      CG321       HGA2
    4     7    24	5 ;     CG2R61      CG321       HGA2
    4     7    25	5 ;     CG2R61      CG321       HGA2
   24     7    25	5 ;       HGA2      CG321       HGA2
    9     8     7	5 ;      NG3P3      CG324      CG321
    9     8    26	5 ;      NG3P3      CG324       HGA2
    9     8    27	5 ;      NG3P3      CG324       HGA2
    7     8    26	5 ;      CG321      CG324       HGA2
    7     8    27	5 ;      CG321      CG324       HGA2
   26     8    27	5 ;       HGA2      CG324       HGA2
   10     9    12	5 ;       HGP2      NG3P3       HGP2
   10     9    11	5 ;       HGP2      NG3P3       HGP2
   10     9     8	5 ;       HGP2      NG3P3      CG324
   12     9    11	5 ;       HGP2      NG3P3       HGP2
   12     9     8	5 ;       HGP2      NG3P3      CG324
   11     9     8	5 ;       HGP2      NG3P3      CG324
    6    13    18	5 ;     CG2R61      CG311      CG321
    6    13    14	5 ;     CG2R61      CG311      CG321
    6    13    28	5 ;     CG2R61      CG311       HGA1
   18    13    14	5 ;      CG321      CG311      CG321
   18    13    28	5 ;      CG321      CG311       HGA1
   14    13    28	5 ;      CG321      CG311       HGA1
   13    14    15	5 ;      CG311      CG321      CG321
   13    14    29	5 ;      CG311      CG321       HGA2
   13    14    30	5 ;      CG311      CG321       HGA2
   15    14    29	5 ;      CG321      CG321       HGA2
   15    14    30	5 ;      CG321      CG321       HGA2
   29    14    30	5 ;       HGA2      CG321       HGA2
   14    15    16	5 ;      CG321      CG321      CG321
   14    15    31	5 ;      CG321      CG321       HGA2
   14    15    32	5 ;      CG321      CG321       HGA2
   16    15    31	5 ;      CG321      CG321       HGA2
   16    15    32	5 ;      CG321      CG321       HGA2
   31    15    32	5 ;       HGA2      CG321       HGA2
   17    16    15	5 ;      CG321      CG321      CG321
   17    16    33	5 ;      CG321      CG321       HGA2
   17    16    34	5 ;      CG321      CG321       HGA2
   15    16    33	5 ;      CG321      CG321       HGA2
   15    16    34	5 ;      CG321      CG321       HGA2
   33    16    34	5 ;       HGA2      CG321       HGA2
   18    17    16	5 ;      CG321      CG321      CG321
   18    17    35	5 ;      CG321      CG321       HGA2
   18    17    36	5 ;      CG321      CG321       HGA2
   16    17    35	5 ;      CG321      CG321       HGA2
   16    17    36	5 ;      CG321      CG321       HGA2
   35    17    36	5 ;       HGA2      CG321       HGA2
   13    18    17	5 ;      CG311      CG321      CG321
   13    18    37	5 ;      CG311      CG321       HGA2
   13    18    38	5 ;      CG311      CG321       HGA2
   17    18    37	5 ;      CG321      CG321       HGA2
   17    18    38	5 ;      CG321      CG321       HGA2
   37    18    38	5 ;       HGA2      CG321       HGA2
   20    19     1	5 ;       HGP1      OG311     CG2R61

[ dihedrals ]
;	ai	  aj	ak	  al funct			  c0			c1			  c2			c3			  c4			c5
   19     1     2     3	 9 ;      OG311     CG2R61     CG2R61     CG2R61
   19     1     2    21	 9 ;      OG311     CG2R61     CG2R61      HGR61
    6     1     2     3	 9 ;     CG2R61     CG2R61     CG2R61     CG2R61
    6     1     2    21	 9 ;     CG2R61     CG2R61     CG2R61      HGR61
    2     1    19    20	 9 ;     CG2R61     CG2R61      OG311       HGP1
    6     1    19    20	 9 ;     CG2R61     CG2R61      OG311       HGP1
    2     1     6     5	 9 ;     CG2R61     CG2R61     CG2R61     CG2R61
    2     1     6    13	 9 ;     CG2R61     CG2R61     CG2R61      CG311
   19     1     6     5	 9 ;      OG311     CG2R61     CG2R61     CG2R61
   19     1     6    13	 9 ;      OG311     CG2R61     CG2R61      CG311
    1     2     3     4	 9 ;     CG2R61     CG2R61     CG2R61     CG2R61
    1     2     3    22	 9 ;     CG2R61     CG2R61     CG2R61      HGR61
   21     2     3     4	 9 ;      HGR61     CG2R61     CG2R61     CG2R61
   21     2     3    22	 9 ;      HGR61     CG2R61     CG2R61      HGR61
    2     3     4     7	 9 ;     CG2R61     CG2R61     CG2R61      CG321
    2     3     4     5	 9 ;     CG2R61     CG2R61     CG2R61     CG2R61
   22     3     4     7	 9 ;      HGR61     CG2R61     CG2R61      CG321
   22     3     4     5	 9 ;      HGR61     CG2R61     CG2R61     CG2R61
    3     4     7     8	 9 ;     CG2R61     CG2R61      CG321      CG324
    3     4     7    24	 9 ;     CG2R61     CG2R61      CG321       HGA2
    3     4     7    25	 9 ;     CG2R61     CG2R61      CG321       HGA2
    5     4     7     8	 9 ;     CG2R61     CG2R61      CG321      CG324
    5     4     7    24	 9 ;     CG2R61     CG2R61      CG321       HGA2
    5     4     7    25	 9 ;     CG2R61     CG2R61      CG321       HGA2
    3     4     5     6	 9 ;     CG2R61     CG2R61     CG2R61     CG2R61
    3     4     5    23	 9 ;     CG2R61     CG2R61     CG2R61      HGR61
    7     4     5     6	 9 ;      CG321     CG2R61     CG2R61     CG2R61
    7     4     5    23	 9 ;      CG321     CG2R61     CG2R61      HGR61
    4     5     6     1	 9 ;     CG2R61     CG2R61     CG2R61     CG2R61
    4     5     6    13	 9 ;     CG2R61     CG2R61     CG2R61      CG311
   23     5     6     1	 9 ;      HGR61     CG2R61     CG2R61     CG2R61
   23     5     6    13	 9 ;      HGR61     CG2R61     CG2R61      CG311
    1     6    13    18	 9 ;     CG2R61     CG2R61      CG311      CG321
    1     6    13    14	 9 ;     CG2R61     CG2R61      CG311      CG321
    1     6    13    28	 9 ;     CG2R61     CG2R61      CG311       HGA1
    5     6    13    18	 9 ;     CG2R61     CG2R61      CG311      CG321
    5     6    13    14	 9 ;     CG2R61     CG2R61      CG311      CG321
    5     6    13    28	 9 ;     CG2R61     CG2R61      CG311       HGA1
    4     7     8     9	 9 ;     CG2R61      CG321      CG324      NG3P3
    4     7     8    26	 9 ;     CG2R61      CG321      CG324       HGA2
    4     7     8    27	 9 ;     CG2R61      CG321      CG324       HGA2
   24     7     8     9	 9 ;       HGA2      CG321      CG324      NG3P3
   24     7     8    26	 9 ;       HGA2      CG321      CG324       HGA2
   24     7     8    27	 9 ;       HGA2      CG321      CG324       HGA2
   25     7     8     9	 9 ;       HGA2      CG321      CG324      NG3P3
   25     7     8    26	 9 ;       HGA2      CG321      CG324       HGA2
   25     7     8    27	 9 ;       HGA2      CG321      CG324       HGA2
    7     8     9    10	 9 ;      CG321      CG324      NG3P3       HGP2
    7     8     9    12	 9 ;      CG321      CG324      NG3P3       HGP2
    7     8     9    11	 9 ;      CG321      CG324      NG3P3       HGP2
   26     8     9    10	 9 ;       HGA2      CG324      NG3P3       HGP2
   26     8     9    12	 9 ;       HGA2      CG324      NG3P3       HGP2
   26     8     9    11	 9 ;       HGA2      CG324      NG3P3       HGP2
   27     8     9    10	 9 ;       HGA2      CG324      NG3P3       HGP2
   27     8     9    12	 9 ;       HGA2      CG324      NG3P3       HGP2
   27     8     9    11	 9 ;       HGA2      CG324      NG3P3       HGP2
    6    13    18    17	 9 ;     CG2R61      CG311      CG321      CG321
    6    13    18    37	 9 ;     CG2R61      CG311      CG321       HGA2
    6    13    18    38	 9 ;     CG2R61      CG311      CG321       HGA2
   14    13    18    17	 9 ;      CG321      CG311      CG321      CG321
   14    13    18    37	 9 ;      CG321      CG311      CG321       HGA2
   14    13    18    38	 9 ;      CG321      CG311      CG321       HGA2
   28    13    18    17	 9 ;       HGA1      CG311      CG321      CG321
   28    13    18    37	 9 ;       HGA1      CG311      CG321       HGA2
   28    13    18    38	 9 ;       HGA1      CG311      CG321       HGA2
    6    13    14    15	 9 ;     CG2R61      CG311      CG321      CG321
    6    13    14    29	 9 ;     CG2R61      CG311      CG321       HGA2
    6    13    14    30	 9 ;     CG2R61      CG311      CG321       HGA2
   18    13    14    15	 9 ;      CG321      CG311      CG321      CG321
   18    13    14    29	 9 ;      CG321      CG311      CG321       HGA2
   18    13    14    30	 9 ;      CG321      CG311      CG321       HGA2
   28    13    14    15	 9 ;       HGA1      CG311      CG321      CG321
   28    13    14    29	 9 ;       HGA1      CG311      CG321       HGA2
   28    13    14    30	 9 ;       HGA1      CG311      CG321       HGA2
   13    14    15    16	 9 ;      CG311      CG321      CG321      CG321
   13    14    15    31	 9 ;      CG311      CG321      CG321       HGA2
   13    14    15    32	 9 ;      CG311      CG321      CG321       HGA2
   29    14    15    16	 9 ;       HGA2      CG321      CG321      CG321
   29    14    15    31	 9 ;       HGA2      CG321      CG321       HGA2
   29    14    15    32	 9 ;       HGA2      CG321      CG321       HGA2
   30    14    15    16	 9 ;       HGA2      CG321      CG321      CG321
   30    14    15    31	 9 ;       HGA2      CG321      CG321       HGA2
   30    14    15    32	 9 ;       HGA2      CG321      CG321       HGA2
   14    15    16    17	 9 ;      CG321      CG321      CG321      CG321
   14    15    16    33	 9 ;      CG321      CG321      CG321       HGA2
   14    15    16    34	 9 ;      CG321      CG321      CG321       HGA2
   31    15    16    17	 9 ;       HGA2      CG321      CG321      CG321
   31    15    16    33	 9 ;       HGA2      CG321      CG321       HGA2
   31    15    16    34	 9 ;       HGA2      CG321      CG321       HGA2
   32    15    16    17	 9 ;       HGA2      CG321      CG321      CG321
   32    15    16    33	 9 ;       HGA2      CG321      CG321       HGA2
   32    15    16    34	 9 ;       HGA2      CG321      CG321       HGA2
   15    16    17    18	 9 ;      CG321      CG321      CG321      CG321
   15    16    17    35	 9 ;      CG321      CG321      CG321       HGA2
   15    16    17    36	 9 ;      CG321      CG321      CG321       HGA2
   33    16    17    18	 9 ;       HGA2      CG321      CG321      CG321
   33    16    17    35	 9 ;       HGA2      CG321      CG321       HGA2
   33    16    17    36	 9 ;       HGA2      CG321      CG321       HGA2
   34    16    17    18	 9 ;       HGA2      CG321      CG321      CG321
   34    16    17    35	 9 ;       HGA2      CG321      CG321       HGA2
   34    16    17    36	 9 ;       HGA2      CG321      CG321       HGA2
   16    17    18    13	 9 ;      CG321      CG321      CG321      CG311
   16    17    18    37	 9 ;      CG321      CG321      CG321       HGA2
   16    17    18    38	 9 ;      CG321      CG321      CG321       HGA2
   35    17    18    13	 9 ;       HGA2      CG321      CG321      CG311
   35    17    18    37	 9 ;       HGA2      CG321      CG321       HGA2
   35    17    18    38	 9 ;       HGA2      CG321      CG321       HGA2
   36    17    18    13	 9 ;       HGA2      CG321      CG321      CG311
   36    17    18    37	 9 ;       HGA2      CG321      CG321       HGA2
   36    17    18    38	 9 ;       HGA2      CG321      CG321       HGA2

