GROningen Mixture of Alchemy and Childrens' Stories
   38
    1LIG     C1    1  -1.270   0.462  -1.679
    1LIG     C2    2  -1.139   0.456  -1.728
    1LIG     C3    3  -1.059   0.345  -1.699
    1LIG     C4    4  -1.111   0.239  -1.624
    1LIG     C5    5  -1.244   0.245  -1.579
    1LIG     C6    6  -1.324   0.358  -1.603
    1LIG     C7    7  -1.025   0.120  -1.588
    1LIG     C8    8  -0.982   0.038  -1.710
    1LIG      N    9  -1.100  -0.017  -1.781
    1LIG     H1   10  -1.075  -0.055  -1.874
    1LIG     H2   11  -1.145  -0.093  -1.728
    1LIG     H3   12  -1.171   0.056  -1.796
    1LIG     C9   13  -1.465   0.367  -1.545
    1LIG    C10   14  -1.462   0.414  -1.399
    1LIG    C11   15  -1.601   0.419  -1.337
    1LIG    C12   16  -1.672   0.284  -1.350
    1LIG    C13   17  -1.679   0.240  -1.496
    1LIG    C14   18  -1.540   0.234  -1.560
    1LIG      O   19  -1.346   0.572  -1.707
    1LIG     H4   20  -1.428   0.544  -1.751
    1LIG     H5   21  -1.101   0.533  -1.785
    1LIG     H6   22  -0.962   0.341  -1.733
    1LIG     H7   23  -1.284   0.165  -1.528
    1LIG     H8   24  -0.937   0.156  -1.538
    1LIG     H9   25  -1.082   0.056  -1.524
    1LIG    H10   26  -0.927   0.101  -1.776
    1LIG    H11   27  -0.922  -0.043  -1.676
    1LIG    H12   28  -1.519   0.440  -1.602
    1LIG    H13   29  -1.419   0.512  -1.395
    1LIG    H14   30  -1.403   0.344  -1.343
    1LIG    H15   31  -1.659   0.494  -1.387
    1LIG    H16   32  -1.591   0.442  -1.233
    1LIG    H17   33  -1.618   0.211  -1.294
    1LIG    H18   34  -1.772   0.295  -1.314
    1LIG    H19   35  -1.723   0.142  -1.501
    1LIG    H20   36  -1.737   0.311  -1.550
    1LIG    H21   37  -1.484   0.156  -1.513
    1LIG    H22   38  -1.553   0.214  -1.664
   0.00000   0.00000   0.00000
