Guyana Rwanda Oman Macau Angola Cameroon Senegal
   61
    1LIG     C1    1  -1.137   0.216  -1.603
    1LIG     N1    2  -1.237   0.316  -1.601
    1LIG     C2    3  -1.212   0.410  -1.702
    1LIG     C3    4  -1.102   0.364  -1.772
    1LIG     C4    5  -1.058   0.245  -1.713
    1LIG     C5    6  -1.287   0.534  -1.729
    1LIG     C6    7  -1.392   0.535  -1.823
    1LIG     C7    8  -1.464   0.652  -1.850
    1LIG     C8    9  -1.432   0.772  -1.787
    1LIG     C9   10  -1.329   0.771  -1.693
    1LIG    C10   11  -1.261   0.653  -1.662
    1LIG     N2   12  -1.508   0.888  -1.812
    1LIG     H1   13  -1.503   0.922  -1.908
    1LIG    C11   14  -1.582   0.966  -1.723
    1LIG    C12   15  -1.575   1.104  -1.723
    1LIG     N3   16  -1.637   1.185  -1.633
    1LIG    C13   17  -1.709   1.122  -1.540
    1LIG    HN1   18  -1.629   1.286  -1.637
    1LIG     N4   19  -1.725   0.989  -1.529
    1LIG    C14   20  -1.661   0.915  -1.621
    1LIG    HN2   21  -1.782   0.947  -1.455
    1LIG    C15   22  -1.338   0.332  -1.496
    1LIG    C16   23  -1.482   0.311  -1.542
    1LIG     N5   24  -1.585   0.373  -1.477
    1LIG    C17   25  -1.708   0.368  -1.529
    1LIG    HN3   26  -1.567   0.423  -1.390
    1LIG    C18   27  -1.736   0.301  -1.647
    1LIG    C19   28  -1.633   0.232  -1.711
    1LIG    C20   29  -1.505   0.235  -1.657
    1LIG     N6   30  -1.808   0.439  -1.464
    1LIG     H2   31  -1.826   0.392  -1.375
    1LIG     H3   32  -1.892   0.447  -1.520
    1LIG    C21   33  -1.122   0.099  -1.512
    1LIG    C22   34  -1.023   0.100  -1.411
    1LIG    C23   35  -1.012  -0.002  -1.316
    1LIG    C24   36  -1.104  -0.105  -1.314
    1LIG    C25   37  -1.203  -0.110  -1.411
    1LIG    C26   38  -1.210  -0.011  -1.511
    1LIG     CL   39  -1.331  -0.037  -1.633
    1LIG     HC   40  -1.057   0.413  -1.857
    1LIG    HC1   41  -0.976   0.184  -1.748
    1LIG    HC2   42  -1.418   0.444  -1.874
    1LIG    HC3   43  -1.546   0.649  -1.921
    1LIG    HC4   44  -1.301   0.863  -1.643
    1LIG    HC5   45  -1.186   0.654  -1.584
    1LIG    HC6   46  -1.515   1.151  -1.799
    1LIG    HC7   47  -1.760   1.184  -1.467
    1LIG    HC8   48  -1.672   0.808  -1.615
    1LIG    HC9   49  -1.330   0.433  -1.456
    1LIG   HC10   50  -1.317   0.261  -1.416
    1LIG   HC11   51  -1.835   0.303  -1.690
    1LIG   HC12   52  -1.653   0.175  -1.800
    1LIG   HC13   53  -1.424   0.181  -1.703
    1LIG   HC14   54  -0.953   0.182  -1.408
    1LIG   HC15   55  -0.931   0.001  -1.244
    1LIG   HC16   56  -1.099  -0.181  -1.237
    1LIG   HC17   57  -1.275  -0.190  -1.411
    1LIG    H25   58  -1.662   1.109  -1.788
    1LIG    H26   59  -1.797   1.127  -1.604
    1LIG    H27   60  -1.492   0.223  -1.479
    1LIG    LP1   61  -1.445  -0.062  -1.748
   0.00000   0.00000   0.00000
