; Created by cgenff_charmm2gmx.py

[ moleculetype ]
; Name			   nrexcl
LIG				 3

[ atoms ]
;	 nr		  type	resnr residue  atom   cgnr	   charge		mass  typeB    chargeB		massB
; residue	 1 LIG rtp LIG q	qsum
     1     CG2R51      1    LIG     C1      1     -0.204     12.011   ;
     2     NG2R51      1    LIG     N1      2     -0.093     14.007   ;
     3     CG2R51      1    LIG     C2      3     -0.202     12.011   ;
     4     CG2R51      1    LIG     C3      4     -0.231     12.011   ;
     5     CG2R51      1    LIG     C4      5     -0.231     12.011   ;
     6     CG2R61      1    LIG     C5      6      0.129     12.011   ;
     7     CG2R61      1    LIG     C6      7     -0.118     12.011   ;
     8     CG2R61      1    LIG     C7      8     -0.097     12.011   ;
     9     CG2R61      1    LIG     C8      9     -0.242     12.011   ;
    10     CG2R61      1    LIG     C9     10     -0.097     12.011   ;
    11     CG2R61      1    LIG    C10     11     -0.118     12.011   ;
    12      NG311      1    LIG     N2     12     -0.405     14.007   ;
    13     HGPAM1      1    LIG     H1     13      0.337      1.008   ;
    14     CG2D1O      1    LIG    C11     14      0.192     12.011   ;
    15      CG321      1    LIG    C12     15      0.097     12.011   ;
    16      NG311      1    LIG     N3     16     -0.738     14.007   ;
    17      CG321      1    LIG    C13     17      0.130     12.011   ;
    18     HGPAM1      1    LIG    HN1     18      0.371      1.008   ;
    19      NG311      1    LIG     N4     19     -0.575     14.007   ;
    20     CG2D1O      1    LIG    C14     20     -0.102     12.011   ;
    21     HGPAM1      1    LIG    HN2     21      0.406      1.008   ;
    22      CG321      1    LIG    C15     22      0.137     12.011   ;
    23      CG311      1    LIG    C16     23      0.189     12.011   ;
    24      NG311      1    LIG     N5     24     -0.486     14.007   ;
    25     CG2D1O      1    LIG    C17     25      0.215     12.011   ;
    26     HGPAM1      1    LIG    HN3     26      0.358      1.008   ;
    27     CG2DC1      1    LIG    C18     27     -0.435     12.011   ;
    28     CG2DC2      1    LIG    C19     28     -0.142     12.011   ;
    29     CG2DC2      1    LIG    C20     29     -0.306     12.011   ;
    30      NG321      1    LIG     N6     30     -0.745     14.007   ;
    31     HGPAM2      1    LIG     H2     31      0.404      1.008   ;
    32     HGPAM2      1    LIG     H3     32      0.404      1.008   ;
    33     CG2R61      1    LIG    C21     33      0.182     12.011   ;
    34     CG2R61      1    LIG    C22     34     -0.118     12.011   ;
    35     CG2R61      1    LIG    C23     35     -0.111     12.011   ;
    36     CG2R61      1    LIG    C24     36     -0.116     12.011   ;
    37     CG2R61      1    LIG    C25     37     -0.104     12.011   ;
    38     CG2R61      1    LIG    C26     38      0.032     12.011   ;
    39      CLGR1      1    LIG     CL     39     -0.190     35.453   ;
    40      HGR51      1    LIG     HC     40      0.202      1.008   ;
    41      HGR51      1    LIG    HC1     41      0.202      1.008   ;
    42      HGR61      1    LIG    HC2     42      0.116      1.008   ;
    43      HGR61      1    LIG    HC3     43      0.116      1.008   ;
    44      HGR61      1    LIG    HC4     44      0.116      1.008   ;
    45      HGR61      1    LIG    HC5     45      0.116      1.008   ;
    46       HGA2      1    LIG    HC6     46      0.090      1.008   ;
    47       HGA2      1    LIG    HC7     47      0.090      1.008   ;
    48       HGA4      1    LIG    HC8     48      0.127      1.008   ;
    49       HGA2      1    LIG    HC9     49      0.090      1.008   ;
    50       HGA2      1    LIG   HC10     50      0.090      1.008   ;
    51       HGA4      1    LIG   HC11     51      0.150      1.008   ;
    52       HGA4      1    LIG   HC12     52      0.150      1.008   ;
    53       HGA4      1    LIG   HC13     53      0.150      1.008   ;
    54      HGR61      1    LIG   HC14     54      0.116      1.008   ;
    55      HGR61      1    LIG   HC15     55      0.116      1.008   ;
    56      HGR61      1    LIG   HC16     56      0.116      1.008   ;
    57      HGR62      1    LIG   HC17     57      0.150      1.008   ;
    58       HGA2      1    LIG    H25     58      0.090      1.008   ;
    59       HGA2      1    LIG    H26     59      0.090      1.008   ;
    60       HGA1      1    LIG    H27     60      0.090      1.008   ;
    61        LPH      1    LIG    LP1     61      0.050      0.000   ;

[ bonds ]
;	ai	  aj funct			  c0			c1			  c2			c3
    1     5	 1 ;      CG2R51     CG2R51
    1     2	 1 ;      CG2R51     NG2R51
    1    33	 1 ;      CG2R51     CG2R61
    2     3	 1 ;      NG2R51     CG2R51
    2    22	 1 ;      NG2R51      CG321
    3     4	 1 ;      CG2R51     CG2R51
    3     6	 1 ;      CG2R51     CG2R61
    4     5	 1 ;      CG2R51     CG2R51
    4    40	 1 ;      CG2R51      HGR51
    5    41	 1 ;      CG2R51      HGR51
    6    11	 1 ;      CG2R61     CG2R61
    6     7	 1 ;      CG2R61     CG2R61
    7     8	 1 ;      CG2R61     CG2R61
    7    42	 1 ;      CG2R61      HGR61
    8     9	 1 ;      CG2R61     CG2R61
    8    43	 1 ;      CG2R61      HGR61
    9    10	 1 ;      CG2R61     CG2R61
    9    12	 1 ;      CG2R61      NG311
   10    11	 1 ;      CG2R61     CG2R61
   10    44	 1 ;      CG2R61      HGR61
   11    45	 1 ;      CG2R61      HGR61
   12    13	 1 ;       NG311     HGPAM1
   12    14	 1 ;       NG311     CG2D1O
   14    15	 1 ;      CG2D1O      CG321
   14    20	 1 ;      CG2D1O     CG2D1O
   15    16	 1 ;       CG321      NG311
   15    46	 1 ;       CG321       HGA2
   15    58	 1 ;       CG321       HGA2
   16    18	 1 ;       NG311     HGPAM1
   16    17	 1 ;       NG311      CG321
   17    19	 1 ;       CG321      NG311
   17    47	 1 ;       CG321       HGA2
   17    59	 1 ;       CG321       HGA2
   19    20	 1 ;       NG311     CG2D1O
   19    21	 1 ;       NG311     HGPAM1
   20    48	 1 ;      CG2D1O       HGA4
   22    23	 1 ;       CG321      CG311
   22    49	 1 ;       CG321       HGA2
   22    50	 1 ;       CG321       HGA2
   23    29	 1 ;       CG311     CG2DC2
   23    24	 1 ;       CG311      NG311
   23    60	 1 ;       CG311       HGA1
   24    26	 1 ;       NG311     HGPAM1
   24    25	 1 ;       NG311     CG2D1O
   25    27	 1 ;      CG2D1O     CG2DC1
   25    30	 1 ;      CG2D1O      NG321
   27    28	 1 ;      CG2DC1     CG2DC2
   27    51	 1 ;      CG2DC1       HGA4
   28    29	 1 ;      CG2DC2     CG2DC2
   28    52	 1 ;      CG2DC2       HGA4
   29    53	 1 ;      CG2DC2       HGA4
   30    32	 1 ;       NG321     HGPAM2
   30    31	 1 ;       NG321     HGPAM2
   33    34	 1 ;      CG2R61     CG2R61
   33    38	 1 ;      CG2R61     CG2R61
   34    35	 1 ;      CG2R61     CG2R61
   34    54	 1 ;      CG2R61      HGR61
   35    36	 1 ;      CG2R61     CG2R61
   35    55	 1 ;      CG2R61      HGR61
   36    37	 1 ;      CG2R61     CG2R61
   36    56	 1 ;      CG2R61      HGR61
   37    38	 1 ;      CG2R61     CG2R61
   37    57	 1 ;      CG2R61      HGR62
   38    39	 1 ;      CG2R61      CLGR1

[ pairs ]
;	ai	  aj funct			  c0			c1			  c2			c3
    1     6	 1
    1    23	 1
    1    49	 1
    1    50	 1
    1    40	 1
    1    35	 1
    1    54	 1
    1    39	 1
   61     1	 1
    1    37	 1
    2    41	 1
    2    34	 1
    2    38	 1
    2    40	 1
    2    11	 1
    2     7	 1
    2    29	 1
    2    24	 1
    2    60	 1
    3    33	 1
    3    23	 1
    3    49	 1
    3    50	 1
    3    41	 1
    3    10	 1
    3    45	 1
    3     8	 1
    3    42	 1
    4    33	 1
    4    22	 1
    4    11	 1
    4     7	 1
    5    22	 1
    5    34	 1
    5    38	 1
    5     6	 1
    6    22	 1
    6    40	 1
    6     9	 1
    6    43	 1
    6    44	 1
    7    10	 1
    7    45	 1
    7    12	 1
    8    11	 1
    8    44	 1
    8    13	 1
    8    14	 1
    9    42	 1
    9    45	 1
    9    15	 1
    9    20	 1
   10    43	 1
   10    13	 1
   10    14	 1
   11    42	 1
   11    12	 1
   12    43	 1
   12    44	 1
   12    16	 1
   12    46	 1
   12    58	 1
   12    19	 1
   12    48	 1
   13    15	 1
   13    20	 1
   14    18	 1
   14    17	 1
   14    21	 1
   15    19	 1
   15    48	 1
   15    47	 1
   15    59	 1
   16    20	 1
   16    21	 1
   17    46	 1
   17    58	 1
   17    48	 1
   18    46	 1
   18    58	 1
   18    19	 1
   18    47	 1
   18    59	 1
   20    46	 1
   20    58	 1
   20    47	 1
   20    59	 1
   21    47	 1
   21    59	 1
   21    48	 1
   22    33	 1
   22    28	 1
   22    53	 1
   22    26	 1
   22    25	 1
   23    27	 1
   23    30	 1
   23    52	 1
   24    49	 1
   24    50	 1
   24    28	 1
   24    53	 1
   24    51	 1
   24    32	 1
   24    31	 1
   25    29	 1
   25    60	 1
   25    52	 1
   26    29	 1
   26    60	 1
   26    27	 1
   26    30	 1
   27    32	 1
   27    31	 1
   27    53	 1
   28    60	 1
   28    30	 1
   29    49	 1
   29    50	 1
   29    51	 1
   30    51	 1
   33    41	 1
   33    36	 1
   33    55	 1
   33    57	 1
   34    39	 1
   61    34	 1
   34    37	 1
   34    56	 1
   35    38	 1
   35    57	 1
   36    54	 1
   36    39	 1
   61    36	 1
   37    55	 1
   38    54	 1
   38    56	 1
   39    57	 1
   61    57	 1
   40    41	 1
   42    43	 1
   44    45	 1
   49    60	 1
   50    60	 1
   51    52	 1
   52    53	 1
   53    60	 1
   54    55	 1
   55    56	 1
   56    57	 1

[ angles ]
;	ai	  aj	ak funct			c0			  c1			c2			  c3
    5     1     2	5 ;     CG2R51     CG2R51     NG2R51
    5     1    33	5 ;     CG2R51     CG2R51     CG2R61
    2     1    33	5 ;     NG2R51     CG2R51     CG2R61
    3     2     1	5 ;     CG2R51     NG2R51     CG2R51
    3     2    22	5 ;     CG2R51     NG2R51      CG321
    1     2    22	5 ;     CG2R51     NG2R51      CG321
    4     3     6	5 ;     CG2R51     CG2R51     CG2R61
    4     3     2	5 ;     CG2R51     CG2R51     NG2R51
    6     3     2	5 ;     CG2R61     CG2R51     NG2R51
    5     4     3	5 ;     CG2R51     CG2R51     CG2R51
    5     4    40	5 ;     CG2R51     CG2R51      HGR51
    3     4    40	5 ;     CG2R51     CG2R51      HGR51
    4     5     1	5 ;     CG2R51     CG2R51     CG2R51
    4     5    41	5 ;     CG2R51     CG2R51      HGR51
    1     5    41	5 ;     CG2R51     CG2R51      HGR51
    3     6    11	5 ;     CG2R51     CG2R61     CG2R61
    3     6     7	5 ;     CG2R51     CG2R61     CG2R61
   11     6     7	5 ;     CG2R61     CG2R61     CG2R61
    6     7     8	5 ;     CG2R61     CG2R61     CG2R61
    6     7    42	5 ;     CG2R61     CG2R61      HGR61
    8     7    42	5 ;     CG2R61     CG2R61      HGR61
    7     8     9	5 ;     CG2R61     CG2R61     CG2R61
    7     8    43	5 ;     CG2R61     CG2R61      HGR61
    9     8    43	5 ;     CG2R61     CG2R61      HGR61
   10     9     8	5 ;     CG2R61     CG2R61     CG2R61
   10     9    12	5 ;     CG2R61     CG2R61      NG311
    8     9    12	5 ;     CG2R61     CG2R61      NG311
   11    10     9	5 ;     CG2R61     CG2R61     CG2R61
   11    10    44	5 ;     CG2R61     CG2R61      HGR61
    9    10    44	5 ;     CG2R61     CG2R61      HGR61
    6    11    10	5 ;     CG2R61     CG2R61     CG2R61
    6    11    45	5 ;     CG2R61     CG2R61      HGR61
   10    11    45	5 ;     CG2R61     CG2R61      HGR61
   13    12     9	5 ;     HGPAM1      NG311     CG2R61
   13    12    14	5 ;     HGPAM1      NG311     CG2D1O
    9    12    14	5 ;     CG2R61      NG311     CG2D1O
   12    14    15	5 ;      NG311     CG2D1O      CG321
   12    14    20	5 ;      NG311     CG2D1O     CG2D1O
   15    14    20	5 ;      CG321     CG2D1O     CG2D1O
   14    15    16	5 ;     CG2D1O      CG321      NG311
   14    15    46	5 ;     CG2D1O      CG321       HGA2
   14    15    58	5 ;     CG2D1O      CG321       HGA2
   16    15    46	5 ;      NG311      CG321       HGA2
   16    15    58	5 ;      NG311      CG321       HGA2
   46    15    58	5 ;       HGA2      CG321       HGA2
   15    16    18	5 ;      CG321      NG311     HGPAM1
   15    16    17	5 ;      CG321      NG311      CG321
   18    16    17	5 ;     HGPAM1      NG311      CG321
   16    17    19	5 ;      NG311      CG321      NG311
   16    17    47	5 ;      NG311      CG321       HGA2
   16    17    59	5 ;      NG311      CG321       HGA2
   19    17    47	5 ;      NG311      CG321       HGA2
   19    17    59	5 ;      NG311      CG321       HGA2
   47    17    59	5 ;       HGA2      CG321       HGA2
   20    19    17	5 ;     CG2D1O      NG311      CG321
   20    19    21	5 ;     CG2D1O      NG311     HGPAM1
   17    19    21	5 ;      CG321      NG311     HGPAM1
   14    20    19	5 ;     CG2D1O     CG2D1O      NG311
   14    20    48	5 ;     CG2D1O     CG2D1O       HGA4
   19    20    48	5 ;      NG311     CG2D1O       HGA4
    2    22    23	5 ;     NG2R51      CG321      CG311
    2    22    49	5 ;     NG2R51      CG321       HGA2
    2    22    50	5 ;     NG2R51      CG321       HGA2
   23    22    49	5 ;      CG311      CG321       HGA2
   23    22    50	5 ;      CG311      CG321       HGA2
   49    22    50	5 ;       HGA2      CG321       HGA2
   22    23    29	5 ;      CG321      CG311     CG2DC2
   22    23    24	5 ;      CG321      CG311      NG311
   22    23    60	5 ;      CG321      CG311       HGA1
   29    23    24	5 ;     CG2DC2      CG311      NG311
   29    23    60	5 ;     CG2DC2      CG311       HGA1
   24    23    60	5 ;      NG311      CG311       HGA1
   23    24    26	5 ;      CG311      NG311     HGPAM1
   23    24    25	5 ;      CG311      NG311     CG2D1O
   26    24    25	5 ;     HGPAM1      NG311     CG2D1O
   24    25    27	5 ;      NG311     CG2D1O     CG2DC1
   24    25    30	5 ;      NG311     CG2D1O      NG321
   27    25    30	5 ;     CG2DC1     CG2D1O      NG321
   28    27    25	5 ;     CG2DC2     CG2DC1     CG2D1O
   28    27    51	5 ;     CG2DC2     CG2DC1       HGA4
   25    27    51	5 ;     CG2D1O     CG2DC1       HGA4
   29    28    27	5 ;     CG2DC2     CG2DC2     CG2DC1
   29    28    52	5 ;     CG2DC2     CG2DC2       HGA4
   27    28    52	5 ;     CG2DC1     CG2DC2       HGA4
   23    29    28	5 ;      CG311     CG2DC2     CG2DC2
   23    29    53	5 ;      CG311     CG2DC2       HGA4
   28    29    53	5 ;     CG2DC2     CG2DC2       HGA4
   25    30    32	5 ;     CG2D1O      NG321     HGPAM2
   25    30    31	5 ;     CG2D1O      NG321     HGPAM2
   32    30    31	5 ;     HGPAM2      NG321     HGPAM2
    1    33    34	5 ;     CG2R51     CG2R61     CG2R61
    1    33    38	5 ;     CG2R51     CG2R61     CG2R61
   34    33    38	5 ;     CG2R61     CG2R61     CG2R61
   33    34    35	5 ;     CG2R61     CG2R61     CG2R61
   33    34    54	5 ;     CG2R61     CG2R61      HGR61
   35    34    54	5 ;     CG2R61     CG2R61      HGR61
   34    35    36	5 ;     CG2R61     CG2R61     CG2R61
   34    35    55	5 ;     CG2R61     CG2R61      HGR61
   36    35    55	5 ;     CG2R61     CG2R61      HGR61
   35    36    37	5 ;     CG2R61     CG2R61     CG2R61
   35    36    56	5 ;     CG2R61     CG2R61      HGR61
   37    36    56	5 ;     CG2R61     CG2R61      HGR61
   38    37    36	5 ;     CG2R61     CG2R61     CG2R61
   38    37    57	5 ;     CG2R61     CG2R61      HGR62
   36    37    57	5 ;     CG2R61     CG2R61      HGR62
   33    38    39	5 ;     CG2R61     CG2R61      CLGR1
   33    38    37	5 ;     CG2R61     CG2R61     CG2R61
   39    38    37	5 ;      CLGR1     CG2R61     CG2R61

[ dihedrals ]
;	ai	  aj	ak	  al funct			  c0			c1			  c2			c3			  c4			c5
    2     1     5     4	 9 ;     NG2R51     CG2R51     CG2R51     CG2R51
    2     1     5    41	 9 ;     NG2R51     CG2R51     CG2R51      HGR51
   33     1     5     4	 9 ;     CG2R61     CG2R51     CG2R51     CG2R51
   33     1     5    41	 9 ;     CG2R61     CG2R51     CG2R51      HGR51
    5     1     2     3	 9 ;     CG2R51     CG2R51     NG2R51     CG2R51
    5     1     2    22	 9 ;     CG2R51     CG2R51     NG2R51      CG321
   33     1     2     3	 9 ;     CG2R61     CG2R51     NG2R51     CG2R51
   33     1     2    22	 9 ;     CG2R61     CG2R51     NG2R51      CG321
    5     1    33    34	 9 ;     CG2R51     CG2R51     CG2R61     CG2R61
    5     1    33    38	 9 ;     CG2R51     CG2R51     CG2R61     CG2R61
    2     1    33    34	 9 ;     NG2R51     CG2R51     CG2R61     CG2R61
    2     1    33    38	 9 ;     NG2R51     CG2R51     CG2R61     CG2R61
    1     2     3     4	 9 ;     CG2R51     NG2R51     CG2R51     CG2R51
    1     2     3     6	 9 ;     CG2R51     NG2R51     CG2R51     CG2R61
   22     2     3     4	 9 ;      CG321     NG2R51     CG2R51     CG2R51
   22     2     3     6	 9 ;      CG321     NG2R51     CG2R51     CG2R61
    3     2    22    23	 9 ;     CG2R51     NG2R51      CG321      CG311
    3     2    22    49	 9 ;     CG2R51     NG2R51      CG321       HGA2
    3     2    22    50	 9 ;     CG2R51     NG2R51      CG321       HGA2
    1     2    22    23	 9 ;     CG2R51     NG2R51      CG321      CG311
    1     2    22    49	 9 ;     CG2R51     NG2R51      CG321       HGA2
    1     2    22    50	 9 ;     CG2R51     NG2R51      CG321       HGA2
    6     3     4     5	 9 ;     CG2R61     CG2R51     CG2R51     CG2R51
    6     3     4    40	 9 ;     CG2R61     CG2R51     CG2R51      HGR51
    2     3     4     5	 9 ;     NG2R51     CG2R51     CG2R51     CG2R51
    2     3     4    40	 9 ;     NG2R51     CG2R51     CG2R51      HGR51
    4     3     6    11	 9 ;     CG2R51     CG2R51     CG2R61     CG2R61
    4     3     6     7	 9 ;     CG2R51     CG2R51     CG2R61     CG2R61
    2     3     6    11	 9 ;     NG2R51     CG2R51     CG2R61     CG2R61
    2     3     6     7	 9 ;     NG2R51     CG2R51     CG2R61     CG2R61
    3     4     5     1	 9 ;     CG2R51     CG2R51     CG2R51     CG2R51
    3     4     5    41	 9 ;     CG2R51     CG2R51     CG2R51      HGR51
   40     4     5     1	 9 ;      HGR51     CG2R51     CG2R51     CG2R51
   40     4     5    41	 9 ;      HGR51     CG2R51     CG2R51      HGR51
    3     6    11    10	 9 ;     CG2R51     CG2R61     CG2R61     CG2R61
    3     6    11    45	 9 ;     CG2R51     CG2R61     CG2R61      HGR61
    7     6    11    10	 9 ;     CG2R61     CG2R61     CG2R61     CG2R61
    7     6    11    45	 9 ;     CG2R61     CG2R61     CG2R61      HGR61
    3     6     7     8	 9 ;     CG2R51     CG2R61     CG2R61     CG2R61
    3     6     7    42	 9 ;     CG2R51     CG2R61     CG2R61      HGR61
   11     6     7     8	 9 ;     CG2R61     CG2R61     CG2R61     CG2R61
   11     6     7    42	 9 ;     CG2R61     CG2R61     CG2R61      HGR61
    6     7     8     9	 9 ;     CG2R61     CG2R61     CG2R61     CG2R61
    6     7     8    43	 9 ;     CG2R61     CG2R61     CG2R61      HGR61
   42     7     8     9	 9 ;      HGR61     CG2R61     CG2R61     CG2R61
   42     7     8    43	 9 ;      HGR61     CG2R61     CG2R61      HGR61
    7     8     9    10	 9 ;     CG2R61     CG2R61     CG2R61     CG2R61
    7     8     9    12	 9 ;     CG2R61     CG2R61     CG2R61      NG311
   43     8     9    10	 9 ;      HGR61     CG2R61     CG2R61     CG2R61
   43     8     9    12	 9 ;      HGR61     CG2R61     CG2R61      NG311
    8     9    10    11	 9 ;     CG2R61     CG2R61     CG2R61     CG2R61
    8     9    10    44	 9 ;     CG2R61     CG2R61     CG2R61      HGR61
   12     9    10    11	 9 ;      NG311     CG2R61     CG2R61     CG2R61
   12     9    10    44	 9 ;      NG311     CG2R61     CG2R61      HGR61
   10     9    12    13	 9 ;     CG2R61     CG2R61      NG311     HGPAM1
   10     9    12    14	 9 ;     CG2R61     CG2R61      NG311     CG2D1O
    8     9    12    13	 9 ;     CG2R61     CG2R61      NG311     HGPAM1
    8     9    12    14	 9 ;     CG2R61     CG2R61      NG311     CG2D1O
    9    10    11     6	 9 ;     CG2R61     CG2R61     CG2R61     CG2R61
    9    10    11    45	 9 ;     CG2R61     CG2R61     CG2R61      HGR61
   44    10    11     6	 9 ;      HGR61     CG2R61     CG2R61     CG2R61
   44    10    11    45	 9 ;      HGR61     CG2R61     CG2R61      HGR61
   13    12    14    15	 9 ;     HGPAM1      NG311     CG2D1O      CG321
   13    12    14    20	 9 ;     HGPAM1      NG311     CG2D1O     CG2D1O
    9    12    14    15	 9 ;     CG2R61      NG311     CG2D1O      CG321
    9    12    14    20	 9 ;     CG2R61      NG311     CG2D1O     CG2D1O
   12    14    15    16	 9 ;      NG311     CG2D1O      CG321      NG311
   12    14    15    46	 9 ;      NG311     CG2D1O      CG321       HGA2
   12    14    15    58	 9 ;      NG311     CG2D1O      CG321       HGA2
   20    14    15    16	 9 ;     CG2D1O     CG2D1O      CG321      NG311
   20    14    15    46	 9 ;     CG2D1O     CG2D1O      CG321       HGA2
   20    14    15    58	 9 ;     CG2D1O     CG2D1O      CG321       HGA2
   12    14    20    19	 9 ;      NG311     CG2D1O     CG2D1O      NG311
   12    14    20    48	 9 ;      NG311     CG2D1O     CG2D1O       HGA4
   15    14    20    19	 9 ;      CG321     CG2D1O     CG2D1O      NG311
   15    14    20    48	 9 ;      CG321     CG2D1O     CG2D1O       HGA4
   14    15    16    18	 9 ;     CG2D1O      CG321      NG311     HGPAM1
   14    15    16    17	 9 ;     CG2D1O      CG321      NG311      CG321
   46    15    16    18	 9 ;       HGA2      CG321      NG311     HGPAM1
   46    15    16    17	 9 ;       HGA2      CG321      NG311      CG321
   58    15    16    18	 9 ;       HGA2      CG321      NG311     HGPAM1
   58    15    16    17	 9 ;       HGA2      CG321      NG311      CG321
   15    16    17    19	 9 ;      CG321      NG311      CG321      NG311
   15    16    17    47	 9 ;      CG321      NG311      CG321       HGA2
   15    16    17    59	 9 ;      CG321      NG311      CG321       HGA2
   18    16    17    19	 9 ;     HGPAM1      NG311      CG321      NG311
   18    16    17    47	 9 ;     HGPAM1      NG311      CG321       HGA2
   18    16    17    59	 9 ;     HGPAM1      NG311      CG321       HGA2
   16    17    19    20	 9 ;      NG311      CG321      NG311     CG2D1O
   16    17    19    21	 9 ;      NG311      CG321      NG311     HGPAM1
   47    17    19    20	 9 ;       HGA2      CG321      NG311     CG2D1O
   47    17    19    21	 9 ;       HGA2      CG321      NG311     HGPAM1
   59    17    19    20	 9 ;       HGA2      CG321      NG311     CG2D1O
   59    17    19    21	 9 ;       HGA2      CG321      NG311     HGPAM1
   17    19    20    14	 9 ;      CG321      NG311     CG2D1O     CG2D1O
   17    19    20    48	 9 ;      CG321      NG311     CG2D1O       HGA4
   21    19    20    14	 9 ;     HGPAM1      NG311     CG2D1O     CG2D1O
   21    19    20    48	 9 ;     HGPAM1      NG311     CG2D1O       HGA4
    2    22    23    29	 9 ;     NG2R51      CG321      CG311     CG2DC2
    2    22    23    24	 9 ;     NG2R51      CG321      CG311      NG311
    2    22    23    60	 9 ;     NG2R51      CG321      CG311       HGA1
   49    22    23    29	 9 ;       HGA2      CG321      CG311     CG2DC2
   49    22    23    24	 9 ;       HGA2      CG321      CG311      NG311
   49    22    23    60	 9 ;       HGA2      CG321      CG311       HGA1
   50    22    23    29	 9 ;       HGA2      CG321      CG311     CG2DC2
   50    22    23    24	 9 ;       HGA2      CG321      CG311      NG311
   50    22    23    60	 9 ;       HGA2      CG321      CG311       HGA1
   22    23    29    28	 9 ;      CG321      CG311     CG2DC2     CG2DC2
   22    23    29    53	 9 ;      CG321      CG311     CG2DC2       HGA4
   24    23    29    28	 9 ;      NG311      CG311     CG2DC2     CG2DC2
   24    23    29    53	 9 ;      NG311      CG311     CG2DC2       HGA4
   60    23    29    28	 9 ;       HGA1      CG311     CG2DC2     CG2DC2
   60    23    29    53	 9 ;       HGA1      CG311     CG2DC2       HGA4
   22    23    24    26	 9 ;      CG321      CG311      NG311     HGPAM1
   22    23    24    25	 9 ;      CG321      CG311      NG311     CG2D1O
   29    23    24    26	 9 ;     CG2DC2      CG311      NG311     HGPAM1
   29    23    24    25	 9 ;     CG2DC2      CG311      NG311     CG2D1O
   60    23    24    26	 9 ;       HGA1      CG311      NG311     HGPAM1
   60    23    24    25	 9 ;       HGA1      CG311      NG311     CG2D1O
   23    24    25    27	 9 ;      CG311      NG311     CG2D1O     CG2DC1
   23    24    25    30	 9 ;      CG311      NG311     CG2D1O      NG321
   26    24    25    27	 9 ;     HGPAM1      NG311     CG2D1O     CG2DC1
   26    24    25    30	 9 ;     HGPAM1      NG311     CG2D1O      NG321
   24    25    27    28	 9 ;      NG311     CG2D1O     CG2DC1     CG2DC2
   24    25    27    51	 9 ;      NG311     CG2D1O     CG2DC1       HGA4
   30    25    27    28	 9 ;      NG321     CG2D1O     CG2DC1     CG2DC2
   30    25    27    51	 9 ;      NG321     CG2D1O     CG2DC1       HGA4
   24    25    30    32	 9 ;      NG311     CG2D1O      NG321     HGPAM2
   24    25    30    31	 9 ;      NG311     CG2D1O      NG321     HGPAM2
   27    25    30    32	 9 ;     CG2DC1     CG2D1O      NG321     HGPAM2
   27    25    30    31	 9 ;     CG2DC1     CG2D1O      NG321     HGPAM2
   25    27    28    29	 9 ;     CG2D1O     CG2DC1     CG2DC2     CG2DC2
   25    27    28    52	 9 ;     CG2D1O     CG2DC1     CG2DC2       HGA4
   51    27    28    29	 9 ;       HGA4     CG2DC1     CG2DC2     CG2DC2
   51    27    28    52	 9 ;       HGA4     CG2DC1     CG2DC2       HGA4
   27    28    29    23	 9 ;     CG2DC1     CG2DC2     CG2DC2      CG311
   27    28    29    53	 9 ;     CG2DC1     CG2DC2     CG2DC2       HGA4
   52    28    29    23	 9 ;       HGA4     CG2DC2     CG2DC2      CG311
   52    28    29    53	 9 ;       HGA4     CG2DC2     CG2DC2       HGA4
    1    33    34    35	 9 ;     CG2R51     CG2R61     CG2R61     CG2R61
    1    33    34    54	 9 ;     CG2R51     CG2R61     CG2R61      HGR61
   38    33    34    35	 9 ;     CG2R61     CG2R61     CG2R61     CG2R61
   38    33    34    54	 9 ;     CG2R61     CG2R61     CG2R61      HGR61
    1    33    38    39	 9 ;     CG2R51     CG2R61     CG2R61      CLGR1
    1    33    38    37	 9 ;     CG2R51     CG2R61     CG2R61     CG2R61
   34    33    38    39	 9 ;     CG2R61     CG2R61     CG2R61      CLGR1
   34    33    38    37	 9 ;     CG2R61     CG2R61     CG2R61     CG2R61
   33    34    35    36	 9 ;     CG2R61     CG2R61     CG2R61     CG2R61
   33    34    35    55	 9 ;     CG2R61     CG2R61     CG2R61      HGR61
   54    34    35    36	 9 ;      HGR61     CG2R61     CG2R61     CG2R61
   54    34    35    55	 9 ;      HGR61     CG2R61     CG2R61      HGR61
   34    35    36    37	 9 ;     CG2R61     CG2R61     CG2R61     CG2R61
   34    35    36    56	 9 ;     CG2R61     CG2R61     CG2R61      HGR61
   55    35    36    37	 9 ;      HGR61     CG2R61     CG2R61     CG2R61
   55    35    36    56	 9 ;      HGR61     CG2R61     CG2R61      HGR61
   35    36    37    38	 9 ;     CG2R61     CG2R61     CG2R61     CG2R61
   35    36    37    57	 9 ;     CG2R61     CG2R61     CG2R61      HGR62
   56    36    37    38	 9 ;      HGR61     CG2R61     CG2R61     CG2R61
   56    36    37    57	 9 ;      HGR61     CG2R61     CG2R61      HGR62
   36    37    38    33	 9 ;     CG2R61     CG2R61     CG2R61     CG2R61
   36    37    38    39	 9 ;     CG2R61     CG2R61     CG2R61      CLGR1
   57    37    38    33	 9 ;      HGR62     CG2R61     CG2R61     CG2R61
   57    37    38    39	 9 ;      HGR62     CG2R61     CG2R61      CLGR1

[ dihedrals ]
;	ai	  aj	ak	  al funct			  c0			c1			  c2			c3
   14    20    15    12	 2
   20    14    19    48	 2
   25    27    24    30	 2

[ virtual_sites2 ]
; Site   from				funct a
   61    39    38     2   -0.164

[ exclusions ]
;	ai	  aj
   39    61
   61    38
   61    33
   61    37
   61     1
   61    34
   61    36
   61    57

