; Created by cgenff_charmm2gmx.py

[ moleculetype ]
; Name			   nrexcl
LIG				 3

[ atoms ]
;	 nr		  type	resnr residue  atom   cgnr	   charge		mass  typeB    chargeB		massB
; residue	 1 LIG rtp LIG q	qsum
     1      CG301      1    LIG     C1      1      0.289     12.011   ;
     2      CG321      1    LIG     C2      2     -0.155     12.011   ;
     3      CG321      1    LIG     C3      3     -0.206     12.011   ;
     4      CG311      1    LIG     C4      4      0.015     12.011   ;
     5      CG321      1    LIG     C5      5     -0.206     12.011   ;
     6      CG321      1    LIG     C6      6     -0.155     12.011   ;
     7      CG1N1      1    LIG     C7      7      0.389     12.011   ;
     8      NG1T1      1    LIG     N1      8     -0.460     14.007   ;
     9     CG2R61      1    LIG     C8      9      0.085     12.011   ;
    10     CG2R61      1    LIG     C9     10     -0.134     12.011   ;
    11     CG2R61      1    LIG    C10     11      0.082     12.011   ;
    12     CG2R61      1    LIG    C11     12     -0.121     12.011   ;
    13     CG2R61      1    LIG    C12     13     -0.110     12.011   ;
    14     CG2R61      1    LIG    C13     14     -0.129     12.011   ;
    15      CG301      1    LIG    C14     15     -0.018     12.011   ;
    16      CG331      1    LIG    C15     16     -0.289     12.011   ;
    17      CG331      1    LIG    C16     17     -0.289     12.011   ;
    18      CG331      1    LIG    C17     18     -0.289     12.011   ;
    19      NG3P2      1    LIG     N2     19     -0.450     14.007   ;
    20       HGP2      1    LIG     H1     20      0.341      1.008   ;
    21       HGP2      1    LIG     H2     21      0.341      1.008   ;
    22      CG324      1    LIG    C18     22      0.208     12.011   ;
    23      CG311      1    LIG    C19     23      0.089     12.011   ;
    24      CG311      1    LIG    C20     24     -0.007     12.011   ;
    25      CG321      1    LIG    C21     25     -0.153     12.011   ;
    26     CG2R61      1    LIG    C22     26      0.057     12.011   ;
    27     CG2R61      1    LIG    C23     27     -0.218     12.011   ;
    28     CG2R66      1    LIG    C24     28      0.261     12.011   ;
    29       FGR1      1    LIG     F1     29     -0.210     18.998   ;
    30     CG2R61      1    LIG    C25     30     -0.240     12.011   ;
    31     CG2R66      1    LIG    C26     31      0.261     12.011   ;
    32     CG2R61      1    LIG    C27     32     -0.218     12.011   ;
    33       FGR1      1    LIG     F2     33     -0.210     18.998   ;
    34      NG2S1      1    LIG     N3     34     -0.339     14.007   ;
    35      CG2O1      1    LIG    C28     35      0.488     12.011   ;
    36      OG2D1      1    LIG     O1     36     -0.509     15.999   ;
    37      CG331      1    LIG    C29     37     -0.270     12.011   ;
    38       HGP1      1    LIG     H3     38      0.261      1.008   ;
    39      OG311      1    LIG     O2     39     -0.625     15.999   ;
    40       HGP1      1    LIG     H4     40      0.415      1.008   ;
    41       HGA2      1    LIG    HC2     41      0.090      1.008   ;
    42       HGA2      1    LIG    HC3     42      0.090      1.008   ;
    43       HGA2      1    LIG    HC4     43      0.090      1.008   ;
    44       HGA2      1    LIG    HC5     44      0.090      1.008   ;
    45       HGA1      1    LIG     HC     45      0.090      1.008   ;
    46       HGA2      1    LIG    HC6     46      0.090      1.008   ;
    47       HGA2      1    LIG    HC7     47      0.090      1.008   ;
    48       HGA2      1    LIG    HC8     48      0.090      1.008   ;
    49       HGA2      1    LIG    HC9     49      0.090      1.008   ;
    50      HGR61      1    LIG    HC1     50      0.116      1.008   ;
    51      HGR61      1    LIG   HC10     51      0.116      1.008   ;
    52      HGR61      1    LIG   HC11     52      0.116      1.008   ;
    53      HGR61      1    LIG   HC12     53      0.116      1.008   ;
    54       HGA2      1    LIG   HC13     54      0.090      1.008   ;
    55       HGA2      1    LIG   HC14     55      0.090      1.008   ;
    56       HGA1      1    LIG   HC15     56      0.090      1.008   ;
    57       HGA1      1    LIG   HC16     57      0.090      1.008   ;
    58       HGA2      1    LIG   HC17     58      0.090      1.008   ;
    59       HGA2      1    LIG   HC18     59      0.090      1.008   ;
    60      HGR62      1    LIG   HC19     60      0.174      1.008   ;
    61      HGR62      1    LIG   HC20     61      0.186      1.008   ;
    62      HGR62      1    LIG   HC21     62      0.174      1.008   ;
    63       HGA3      1    LIG   HC22     63      0.090      1.008   ;
    64       HGA3      1    LIG   HC23     64      0.090      1.008   ;
    65       HGA3      1    LIG   HC24     65      0.090      1.008   ;
    66       HGA3      1    LIG   HC25     66      0.090      1.008   ;
    67       HGA3      1    LIG   HC26     67      0.090      1.008   ;
    68       HGA3      1    LIG   HC27     68      0.090      1.008   ;
    69       HGA3      1    LIG   HC28     69      0.090      1.008   ;
    70       HGA3      1    LIG   HC29     70      0.090      1.008   ;
    71       HGA3      1    LIG   HC30     71      0.090      1.008   ;
    72       HGA3      1    LIG   HC31     72      0.090      1.008   ;
    73       HGA3      1    LIG   HC32     73      0.090      1.008   ;
    74       HGA3      1    LIG   HC33     74      0.090      1.008   ;

[ bonds ]
;	ai	  aj funct			  c0			c1			  c2			c3
    1     6	 1 ;       CG301      CG321
    1    19	 1 ;       CG301      NG3P2
    1     9	 1 ;       CG301     CG2R61
    1     2	 1 ;       CG301      CG321
    2     3	 1 ;       CG321      CG321
    2    41	 1 ;       CG321       HGA2
    2    42	 1 ;       CG321       HGA2
    3     4	 1 ;       CG321      CG311
    3    43	 1 ;       CG321       HGA2
    3    44	 1 ;       CG321       HGA2
    4     5	 1 ;       CG311      CG321
    4     7	 1 ;       CG311      CG1N1
    4    45	 1 ;       CG311       HGA1
    5     6	 1 ;       CG321      CG321
    5    46	 1 ;       CG321       HGA2
    5    47	 1 ;       CG321       HGA2
    6    48	 1 ;       CG321       HGA2
    6    49	 1 ;       CG321       HGA2
    7     8	 1 ;       CG1N1      NG1T1
    9    14	 1 ;      CG2R61     CG2R61
    9    10	 1 ;      CG2R61     CG2R61
   10    11	 1 ;      CG2R61     CG2R61
   10    50	 1 ;      CG2R61      HGR61
   11    12	 1 ;      CG2R61     CG2R61
   11    15	 1 ;      CG2R61      CG301
   12    13	 1 ;      CG2R61     CG2R61
   12    51	 1 ;      CG2R61      HGR61
   13    14	 1 ;      CG2R61     CG2R61
   13    52	 1 ;      CG2R61      HGR61
   14    53	 1 ;      CG2R61      HGR61
   15    18	 1 ;       CG301      CG331
   15    16	 1 ;       CG301      CG331
   15    17	 1 ;       CG301      CG331
   16    66	 1 ;       CG331       HGA3
   16    67	 1 ;       CG331       HGA3
   16    68	 1 ;       CG331       HGA3
   17    72	 1 ;       CG331       HGA3
   17    73	 1 ;       CG331       HGA3
   17    74	 1 ;       CG331       HGA3
   18    69	 1 ;       CG331       HGA3
   18    70	 1 ;       CG331       HGA3
   18    71	 1 ;       CG331       HGA3
   19    21	 1 ;       NG3P2       HGP2
   19    20	 1 ;       NG3P2       HGP2
   19    22	 1 ;       NG3P2      CG324
   22    23	 1 ;       CG324      CG311
   22    54	 1 ;       CG324       HGA2
   22    55	 1 ;       CG324       HGA2
   23    39	 1 ;       CG311      OG311
   23    24	 1 ;       CG311      CG311
   23    56	 1 ;       CG311       HGA1
   24    34	 1 ;       CG311      NG2S1
   24    25	 1 ;       CG311      CG321
   24    57	 1 ;       CG311       HGA1
   25    26	 1 ;       CG321     CG2R61
   25    58	 1 ;       CG321       HGA2
   25    59	 1 ;       CG321       HGA2
   26    27	 1 ;      CG2R61     CG2R61
   26    32	 1 ;      CG2R61     CG2R61
   27    28	 1 ;      CG2R61     CG2R66
   27    60	 1 ;      CG2R61      HGR62
   28    29	 1 ;      CG2R66       FGR1
   28    30	 1 ;      CG2R66     CG2R61
   30    31	 1 ;      CG2R61     CG2R66
   30    61	 1 ;      CG2R61      HGR62
   31    32	 1 ;      CG2R66     CG2R61
   31    33	 1 ;      CG2R66       FGR1
   32    62	 1 ;      CG2R61      HGR62
   34    35	 1 ;       NG2S1      CG2O1
   34    38	 1 ;       NG2S1       HGP1
   35    36	 1 ;       CG2O1      OG2D1
   35    37	 1 ;       CG2O1      CG331
   37    63	 1 ;       CG331       HGA3
   37    64	 1 ;       CG331       HGA3
   37    65	 1 ;       CG331       HGA3
   39    40	 1 ;       OG311       HGP1

[ pairs ]
;	ai	  aj funct			  c0			c1			  c2			c3
    1     4	 1
    1    43	 1
    1    44	 1
    1    46	 1
    1    47	 1
    1    13	 1
    1    53	 1
    1    11	 1
    1    50	 1
    1    23	 1
    1    54	 1
    1    55	 1
    2     5	 1
    2    48	 1
    2    49	 1
    2    21	 1
    2    20	 1
    2    22	 1
    2    14	 1
    2    10	 1
    2     7	 1
    2    45	 1
    3     6	 1
    3    19	 1
    3     9	 1
    3    46	 1
    3    47	 1
    3     8	 1
    4    41	 1
    4    42	 1
    4    48	 1
    4    49	 1
    5    19	 1
    5     9	 1
    5    43	 1
    5    44	 1
    5     8	 1
    6    21	 1
    6    20	 1
    6    22	 1
    6    14	 1
    6    10	 1
    6    41	 1
    6    42	 1
    6     7	 1
    6    45	 1
    7    43	 1
    7    44	 1
    7    46	 1
    7    47	 1
    8    45	 1
    9    48	 1
    9    49	 1
    9    21	 1
    9    20	 1
    9    22	 1
    9    41	 1
    9    42	 1
    9    12	 1
    9    15	 1
    9    52	 1
   10    19	 1
   10    13	 1
   10    53	 1
   10    51	 1
   10    18	 1
   10    16	 1
   10    17	 1
   11    14	 1
   11    52	 1
   11    69	 1
   11    70	 1
   11    71	 1
   11    66	 1
   11    67	 1
   11    68	 1
   11    72	 1
   11    73	 1
   11    74	 1
   12    50	 1
   12    18	 1
   12    16	 1
   12    17	 1
   12    53	 1
   13    15	 1
   14    19	 1
   14    50	 1
   14    51	 1
   15    50	 1
   15    51	 1
   16    69	 1
   16    70	 1
   16    71	 1
   16    72	 1
   16    73	 1
   16    74	 1
   17    69	 1
   17    70	 1
   17    71	 1
   17    66	 1
   17    67	 1
   17    68	 1
   18    66	 1
   18    67	 1
   18    68	 1
   18    72	 1
   18    73	 1
   18    74	 1
   19    48	 1
   19    49	 1
   19    41	 1
   19    42	 1
   19    39	 1
   19    24	 1
   19    56	 1
   20    23	 1
   20    54	 1
   20    55	 1
   21    23	 1
   21    54	 1
   21    55	 1
   22    40	 1
   22    34	 1
   22    25	 1
   22    57	 1
   23    35	 1
   23    38	 1
   23    26	 1
   23    58	 1
   23    59	 1
   24    54	 1
   24    55	 1
   24    40	 1
   24    27	 1
   24    32	 1
   24    36	 1
   24    37	 1
   25    39	 1
   25    56	 1
   25    35	 1
   25    38	 1
   25    28	 1
   25    60	 1
   25    31	 1
   25    62	 1
   26    34	 1
   26    57	 1
   26    29	 1
   26    30	 1
   26    33	 1
   27    58	 1
   27    59	 1
   27    31	 1
   27    62	 1
   27    61	 1
   28    32	 1
   28    33	 1
   29    60	 1
   29    31	 1
   29    61	 1
   30    60	 1
   30    62	 1
   32    58	 1
   32    59	 1
   32    60	 1
   32    61	 1
   33    61	 1
   33    62	 1
   34    39	 1
   34    56	 1
   34    58	 1
   34    59	 1
   34    63	 1
   34    64	 1
   34    65	 1
   35    57	 1
   36    38	 1
   36    63	 1
   36    64	 1
   36    65	 1
   37    38	 1
   38    57	 1
   39    54	 1
   39    55	 1
   39    57	 1
   40    56	 1
   41    43	 1
   41    44	 1
   42    43	 1
   42    44	 1
   43    45	 1
   44    45	 1
   45    46	 1
   45    47	 1
   46    48	 1
   46    49	 1
   47    48	 1
   47    49	 1
   51    52	 1
   52    53	 1
   54    56	 1
   55    56	 1
   56    57	 1
   57    58	 1
   57    59	 1

[ angles ]
;	ai	  aj	ak funct			c0			  c1			c2			  c3
    6     1    19	5 ;      CG321      CG301      NG3P2
    6     1     9	5 ;      CG321      CG301     CG2R61
    6     1     2	5 ;      CG321      CG301      CG321
   19     1     9	5 ;      NG3P2      CG301     CG2R61
   19     1     2	5 ;      NG3P2      CG301      CG321
    9     1     2	5 ;     CG2R61      CG301      CG321
    1     2     3	5 ;      CG301      CG321      CG321
    1     2    41	5 ;      CG301      CG321       HGA2
    1     2    42	5 ;      CG301      CG321       HGA2
    3     2    41	5 ;      CG321      CG321       HGA2
    3     2    42	5 ;      CG321      CG321       HGA2
   41     2    42	5 ;       HGA2      CG321       HGA2
    4     3     2	5 ;      CG311      CG321      CG321
    4     3    43	5 ;      CG311      CG321       HGA2
    4     3    44	5 ;      CG311      CG321       HGA2
    2     3    43	5 ;      CG321      CG321       HGA2
    2     3    44	5 ;      CG321      CG321       HGA2
   43     3    44	5 ;       HGA2      CG321       HGA2
    5     4     7	5 ;      CG321      CG311      CG1N1
    5     4     3	5 ;      CG321      CG311      CG321
    5     4    45	5 ;      CG321      CG311       HGA1
    7     4     3	5 ;      CG1N1      CG311      CG321
    7     4    45	5 ;      CG1N1      CG311       HGA1
    3     4    45	5 ;      CG321      CG311       HGA1
    6     5     4	5 ;      CG321      CG321      CG311
    6     5    46	5 ;      CG321      CG321       HGA2
    6     5    47	5 ;      CG321      CG321       HGA2
    4     5    46	5 ;      CG311      CG321       HGA2
    4     5    47	5 ;      CG311      CG321       HGA2
   46     5    47	5 ;       HGA2      CG321       HGA2
    5     6     1	5 ;      CG321      CG321      CG301
    5     6    48	5 ;      CG321      CG321       HGA2
    5     6    49	5 ;      CG321      CG321       HGA2
    1     6    48	5 ;      CG301      CG321       HGA2
    1     6    49	5 ;      CG301      CG321       HGA2
   48     6    49	5 ;       HGA2      CG321       HGA2
    8     7     4	5 ;      NG1T1      CG1N1      CG311
   14     9     1	5 ;     CG2R61     CG2R61      CG301
   14     9    10	5 ;     CG2R61     CG2R61     CG2R61
    1     9    10	5 ;      CG301     CG2R61     CG2R61
    9    10    11	5 ;     CG2R61     CG2R61     CG2R61
    9    10    50	5 ;     CG2R61     CG2R61      HGR61
   11    10    50	5 ;     CG2R61     CG2R61      HGR61
   12    11    10	5 ;     CG2R61     CG2R61     CG2R61
   12    11    15	5 ;     CG2R61     CG2R61      CG301
   10    11    15	5 ;     CG2R61     CG2R61      CG301
   13    12    11	5 ;     CG2R61     CG2R61     CG2R61
   13    12    51	5 ;     CG2R61     CG2R61      HGR61
   11    12    51	5 ;     CG2R61     CG2R61      HGR61
   14    13    12	5 ;     CG2R61     CG2R61     CG2R61
   14    13    52	5 ;     CG2R61     CG2R61      HGR61
   12    13    52	5 ;     CG2R61     CG2R61      HGR61
   13    14     9	5 ;     CG2R61     CG2R61     CG2R61
   13    14    53	5 ;     CG2R61     CG2R61      HGR61
    9    14    53	5 ;     CG2R61     CG2R61      HGR61
   11    15    18	5 ;     CG2R61      CG301      CG331
   11    15    16	5 ;     CG2R61      CG301      CG331
   11    15    17	5 ;     CG2R61      CG301      CG331
   18    15    16	5 ;      CG331      CG301      CG331
   18    15    17	5 ;      CG331      CG301      CG331
   16    15    17	5 ;      CG331      CG301      CG331
   15    16    66	5 ;      CG301      CG331       HGA3
   15    16    67	5 ;      CG301      CG331       HGA3
   15    16    68	5 ;      CG301      CG331       HGA3
   66    16    67	5 ;       HGA3      CG331       HGA3
   66    16    68	5 ;       HGA3      CG331       HGA3
   67    16    68	5 ;       HGA3      CG331       HGA3
   15    17    72	5 ;      CG301      CG331       HGA3
   15    17    73	5 ;      CG301      CG331       HGA3
   15    17    74	5 ;      CG301      CG331       HGA3
   72    17    73	5 ;       HGA3      CG331       HGA3
   72    17    74	5 ;       HGA3      CG331       HGA3
   73    17    74	5 ;       HGA3      CG331       HGA3
   15    18    69	5 ;      CG301      CG331       HGA3
   15    18    70	5 ;      CG301      CG331       HGA3
   15    18    71	5 ;      CG301      CG331       HGA3
   69    18    70	5 ;       HGA3      CG331       HGA3
   69    18    71	5 ;       HGA3      CG331       HGA3
   70    18    71	5 ;       HGA3      CG331       HGA3
   21    19    20	5 ;       HGP2      NG3P2       HGP2
   21    19     1	5 ;       HGP2      NG3P2      CG301
   21    19    22	5 ;       HGP2      NG3P2      CG324
   20    19     1	5 ;       HGP2      NG3P2      CG301
   20    19    22	5 ;       HGP2      NG3P2      CG324
    1    19    22	5 ;      CG301      NG3P2      CG324
   23    22    19	5 ;      CG311      CG324      NG3P2
   23    22    54	5 ;      CG311      CG324       HGA2
   23    22    55	5 ;      CG311      CG324       HGA2
   19    22    54	5 ;      NG3P2      CG324       HGA2
   19    22    55	5 ;      NG3P2      CG324       HGA2
   54    22    55	5 ;       HGA2      CG324       HGA2
   39    23    24	5 ;      OG311      CG311      CG311
   39    23    22	5 ;      OG311      CG311      CG324
   39    23    56	5 ;      OG311      CG311       HGA1
   24    23    22	5 ;      CG311      CG311      CG324
   24    23    56	5 ;      CG311      CG311       HGA1
   22    23    56	5 ;      CG324      CG311       HGA1
   34    24    23	5 ;      NG2S1      CG311      CG311
   34    24    25	5 ;      NG2S1      CG311      CG321
   34    24    57	5 ;      NG2S1      CG311       HGA1
   23    24    25	5 ;      CG311      CG311      CG321
   23    24    57	5 ;      CG311      CG311       HGA1
   25    24    57	5 ;      CG321      CG311       HGA1
   24    25    26	5 ;      CG311      CG321     CG2R61
   24    25    58	5 ;      CG311      CG321       HGA2
   24    25    59	5 ;      CG311      CG321       HGA2
   26    25    58	5 ;     CG2R61      CG321       HGA2
   26    25    59	5 ;     CG2R61      CG321       HGA2
   58    25    59	5 ;       HGA2      CG321       HGA2
   27    26    25	5 ;     CG2R61     CG2R61      CG321
   27    26    32	5 ;     CG2R61     CG2R61     CG2R61
   25    26    32	5 ;      CG321     CG2R61     CG2R61
   28    27    26	5 ;     CG2R66     CG2R61     CG2R61
   28    27    60	5 ;     CG2R66     CG2R61      HGR62
   26    27    60	5 ;     CG2R61     CG2R61      HGR62
   29    28    27	5 ;       FGR1     CG2R66     CG2R61
   29    28    30	5 ;       FGR1     CG2R66     CG2R61
   27    28    30	5 ;     CG2R61     CG2R66     CG2R61
   28    30    31	5 ;     CG2R66     CG2R61     CG2R66
   28    30    61	5 ;     CG2R66     CG2R61      HGR62
   31    30    61	5 ;     CG2R66     CG2R61      HGR62
   30    31    32	5 ;     CG2R61     CG2R66     CG2R61
   30    31    33	5 ;     CG2R61     CG2R66       FGR1
   32    31    33	5 ;     CG2R61     CG2R66       FGR1
   26    32    31	5 ;     CG2R61     CG2R61     CG2R66
   26    32    62	5 ;     CG2R61     CG2R61      HGR62
   31    32    62	5 ;     CG2R66     CG2R61      HGR62
   35    34    38	5 ;      CG2O1      NG2S1       HGP1
   35    34    24	5 ;      CG2O1      NG2S1      CG311
   38    34    24	5 ;       HGP1      NG2S1      CG311
   36    35    37	5 ;      OG2D1      CG2O1      CG331
   36    35    34	5 ;      OG2D1      CG2O1      NG2S1
   37    35    34	5 ;      CG331      CG2O1      NG2S1
   35    37    63	5 ;      CG2O1      CG331       HGA3
   35    37    64	5 ;      CG2O1      CG331       HGA3
   35    37    65	5 ;      CG2O1      CG331       HGA3
   63    37    64	5 ;       HGA3      CG331       HGA3
   63    37    65	5 ;       HGA3      CG331       HGA3
   64    37    65	5 ;       HGA3      CG331       HGA3
   40    39    23	5 ;       HGP1      OG311      CG311

[ dihedrals ]
;	ai	  aj	ak	  al funct			  c0			c1			  c2			c3			  c4			c5
   19     1     6     5	 9 ;      NG3P2      CG301      CG321      CG321
   19     1     6    48	 9 ;      NG3P2      CG301      CG321       HGA2
   19     1     6    49	 9 ;      NG3P2      CG301      CG321       HGA2
    9     1     6     5	 9 ;     CG2R61      CG301      CG321      CG321
    9     1     6    48	 9 ;     CG2R61      CG301      CG321       HGA2
    9     1     6    49	 9 ;     CG2R61      CG301      CG321       HGA2
    2     1     6     5	 9 ;      CG321      CG301      CG321      CG321
    2     1     6    48	 9 ;      CG321      CG301      CG321       HGA2
    2     1     6    49	 9 ;      CG321      CG301      CG321       HGA2
    6     1    19    21	 9 ;      CG321      CG301      NG3P2       HGP2
    6     1    19    20	 9 ;      CG321      CG301      NG3P2       HGP2
    6     1    19    22	 9 ;      CG321      CG301      NG3P2      CG324
    9     1    19    21	 9 ;     CG2R61      CG301      NG3P2       HGP2
    9     1    19    20	 9 ;     CG2R61      CG301      NG3P2       HGP2
    9     1    19    22	 9 ;     CG2R61      CG301      NG3P2      CG324
    2     1    19    21	 9 ;      CG321      CG301      NG3P2       HGP2
    2     1    19    20	 9 ;      CG321      CG301      NG3P2       HGP2
    2     1    19    22	 9 ;      CG321      CG301      NG3P2      CG324
    6     1     9    14	 9 ;      CG321      CG301     CG2R61     CG2R61
    6     1     9    10	 9 ;      CG321      CG301     CG2R61     CG2R61
   19     1     9    14	 9 ;      NG3P2      CG301     CG2R61     CG2R61
   19     1     9    10	 9 ;      NG3P2      CG301     CG2R61     CG2R61
    2     1     9    14	 9 ;      CG321      CG301     CG2R61     CG2R61
    2     1     9    10	 9 ;      CG321      CG301     CG2R61     CG2R61
    6     1     2     3	 9 ;      CG321      CG301      CG321      CG321
    6     1     2    41	 9 ;      CG321      CG301      CG321       HGA2
    6     1     2    42	 9 ;      CG321      CG301      CG321       HGA2
   19     1     2     3	 9 ;      NG3P2      CG301      CG321      CG321
   19     1     2    41	 9 ;      NG3P2      CG301      CG321       HGA2
   19     1     2    42	 9 ;      NG3P2      CG301      CG321       HGA2
    9     1     2     3	 9 ;     CG2R61      CG301      CG321      CG321
    9     1     2    41	 9 ;     CG2R61      CG301      CG321       HGA2
    9     1     2    42	 9 ;     CG2R61      CG301      CG321       HGA2
    1     2     3     4	 9 ;      CG301      CG321      CG321      CG311
    1     2     3    43	 9 ;      CG301      CG321      CG321       HGA2
    1     2     3    44	 9 ;      CG301      CG321      CG321       HGA2
   41     2     3     4	 9 ;       HGA2      CG321      CG321      CG311
   41     2     3    43	 9 ;       HGA2      CG321      CG321       HGA2
   41     2     3    44	 9 ;       HGA2      CG321      CG321       HGA2
   42     2     3     4	 9 ;       HGA2      CG321      CG321      CG311
   42     2     3    43	 9 ;       HGA2      CG321      CG321       HGA2
   42     2     3    44	 9 ;       HGA2      CG321      CG321       HGA2
    2     3     4     5	 9 ;      CG321      CG321      CG311      CG321
    2     3     4     7	 9 ;      CG321      CG321      CG311      CG1N1
    2     3     4    45	 9 ;      CG321      CG321      CG311       HGA1
   43     3     4     5	 9 ;       HGA2      CG321      CG311      CG321
   43     3     4     7	 9 ;       HGA2      CG321      CG311      CG1N1
   43     3     4    45	 9 ;       HGA2      CG321      CG311       HGA1
   44     3     4     5	 9 ;       HGA2      CG321      CG311      CG321
   44     3     4     7	 9 ;       HGA2      CG321      CG311      CG1N1
   44     3     4    45	 9 ;       HGA2      CG321      CG311       HGA1
    7     4     5     6	 9 ;      CG1N1      CG311      CG321      CG321
    7     4     5    46	 9 ;      CG1N1      CG311      CG321       HGA2
    7     4     5    47	 9 ;      CG1N1      CG311      CG321       HGA2
    3     4     5     6	 9 ;      CG321      CG311      CG321      CG321
    3     4     5    46	 9 ;      CG321      CG311      CG321       HGA2
    3     4     5    47	 9 ;      CG321      CG311      CG321       HGA2
   45     4     5     6	 9 ;       HGA1      CG311      CG321      CG321
   45     4     5    46	 9 ;       HGA1      CG311      CG321       HGA2
   45     4     5    47	 9 ;       HGA1      CG311      CG321       HGA2
    4     5     6     1	 9 ;      CG311      CG321      CG321      CG301
    4     5     6    48	 9 ;      CG311      CG321      CG321       HGA2
    4     5     6    49	 9 ;      CG311      CG321      CG321       HGA2
   46     5     6     1	 9 ;       HGA2      CG321      CG321      CG301
   46     5     6    48	 9 ;       HGA2      CG321      CG321       HGA2
   46     5     6    49	 9 ;       HGA2      CG321      CG321       HGA2
   47     5     6     1	 9 ;       HGA2      CG321      CG321      CG301
   47     5     6    48	 9 ;       HGA2      CG321      CG321       HGA2
   47     5     6    49	 9 ;       HGA2      CG321      CG321       HGA2
    1     9    14    13	 9 ;      CG301     CG2R61     CG2R61     CG2R61
    1     9    14    53	 9 ;      CG301     CG2R61     CG2R61      HGR61
   10     9    14    13	 9 ;     CG2R61     CG2R61     CG2R61     CG2R61
   10     9    14    53	 9 ;     CG2R61     CG2R61     CG2R61      HGR61
   14     9    10    11	 9 ;     CG2R61     CG2R61     CG2R61     CG2R61
   14     9    10    50	 9 ;     CG2R61     CG2R61     CG2R61      HGR61
    1     9    10    11	 9 ;      CG301     CG2R61     CG2R61     CG2R61
    1     9    10    50	 9 ;      CG301     CG2R61     CG2R61      HGR61
    9    10    11    12	 9 ;     CG2R61     CG2R61     CG2R61     CG2R61
    9    10    11    15	 9 ;     CG2R61     CG2R61     CG2R61      CG301
   50    10    11    12	 9 ;      HGR61     CG2R61     CG2R61     CG2R61
   50    10    11    15	 9 ;      HGR61     CG2R61     CG2R61      CG301
   10    11    12    13	 9 ;     CG2R61     CG2R61     CG2R61     CG2R61
   10    11    12    51	 9 ;     CG2R61     CG2R61     CG2R61      HGR61
   15    11    12    13	 9 ;      CG301     CG2R61     CG2R61     CG2R61
   15    11    12    51	 9 ;      CG301     CG2R61     CG2R61      HGR61
   12    11    15    18	 9 ;     CG2R61     CG2R61      CG301      CG331
   12    11    15    16	 9 ;     CG2R61     CG2R61      CG301      CG331
   12    11    15    17	 9 ;     CG2R61     CG2R61      CG301      CG331
   10    11    15    18	 9 ;     CG2R61     CG2R61      CG301      CG331
   10    11    15    16	 9 ;     CG2R61     CG2R61      CG301      CG331
   10    11    15    17	 9 ;     CG2R61     CG2R61      CG301      CG331
   11    12    13    14	 9 ;     CG2R61     CG2R61     CG2R61     CG2R61
   11    12    13    52	 9 ;     CG2R61     CG2R61     CG2R61      HGR61
   51    12    13    14	 9 ;      HGR61     CG2R61     CG2R61     CG2R61
   51    12    13    52	 9 ;      HGR61     CG2R61     CG2R61      HGR61
   12    13    14     9	 9 ;     CG2R61     CG2R61     CG2R61     CG2R61
   12    13    14    53	 9 ;     CG2R61     CG2R61     CG2R61      HGR61
   52    13    14     9	 9 ;      HGR61     CG2R61     CG2R61     CG2R61
   52    13    14    53	 9 ;      HGR61     CG2R61     CG2R61      HGR61
   11    15    18    69	 9 ;     CG2R61      CG301      CG331       HGA3
   11    15    18    70	 9 ;     CG2R61      CG301      CG331       HGA3
   11    15    18    71	 9 ;     CG2R61      CG301      CG331       HGA3
   16    15    18    69	 9 ;      CG331      CG301      CG331       HGA3
   16    15    18    70	 9 ;      CG331      CG301      CG331       HGA3
   16    15    18    71	 9 ;      CG331      CG301      CG331       HGA3
   17    15    18    69	 9 ;      CG331      CG301      CG331       HGA3
   17    15    18    70	 9 ;      CG331      CG301      CG331       HGA3
   17    15    18    71	 9 ;      CG331      CG301      CG331       HGA3
   11    15    16    66	 9 ;     CG2R61      CG301      CG331       HGA3
   11    15    16    67	 9 ;     CG2R61      CG301      CG331       HGA3
   11    15    16    68	 9 ;     CG2R61      CG301      CG331       HGA3
   18    15    16    66	 9 ;      CG331      CG301      CG331       HGA3
   18    15    16    67	 9 ;      CG331      CG301      CG331       HGA3
   18    15    16    68	 9 ;      CG331      CG301      CG331       HGA3
   17    15    16    66	 9 ;      CG331      CG301      CG331       HGA3
   17    15    16    67	 9 ;      CG331      CG301      CG331       HGA3
   17    15    16    68	 9 ;      CG331      CG301      CG331       HGA3
   11    15    17    72	 9 ;     CG2R61      CG301      CG331       HGA3
   11    15    17    73	 9 ;     CG2R61      CG301      CG331       HGA3
   11    15    17    74	 9 ;     CG2R61      CG301      CG331       HGA3
   18    15    17    72	 9 ;      CG331      CG301      CG331       HGA3
   18    15    17    73	 9 ;      CG331      CG301      CG331       HGA3
   18    15    17    74	 9 ;      CG331      CG301      CG331       HGA3
   16    15    17    72	 9 ;      CG331      CG301      CG331       HGA3
   16    15    17    73	 9 ;      CG331      CG301      CG331       HGA3
   16    15    17    74	 9 ;      CG331      CG301      CG331       HGA3
   21    19    22    23	 9 ;       HGP2      NG3P2      CG324      CG311
   21    19    22    54	 9 ;       HGP2      NG3P2      CG324       HGA2
   21    19    22    55	 9 ;       HGP2      NG3P2      CG324       HGA2
   20    19    22    23	 9 ;       HGP2      NG3P2      CG324      CG311
   20    19    22    54	 9 ;       HGP2      NG3P2      CG324       HGA2
   20    19    22    55	 9 ;       HGP2      NG3P2      CG324       HGA2
    1    19    22    23	 9 ;      CG301      NG3P2      CG324      CG311
    1    19    22    54	 9 ;      CG301      NG3P2      CG324       HGA2
    1    19    22    55	 9 ;      CG301      NG3P2      CG324       HGA2
   19    22    23    39	 9 ;      NG3P2      CG324      CG311      OG311
   19    22    23    24	 9 ;      NG3P2      CG324      CG311      CG311
   19    22    23    56	 9 ;      NG3P2      CG324      CG311       HGA1
   54    22    23    39	 9 ;       HGA2      CG324      CG311      OG311
   54    22    23    24	 9 ;       HGA2      CG324      CG311      CG311
   54    22    23    56	 9 ;       HGA2      CG324      CG311       HGA1
   55    22    23    39	 9 ;       HGA2      CG324      CG311      OG311
   55    22    23    24	 9 ;       HGA2      CG324      CG311      CG311
   55    22    23    56	 9 ;       HGA2      CG324      CG311       HGA1
   24    23    39    40	 9 ;      CG311      CG311      OG311       HGP1
   22    23    39    40	 9 ;      CG324      CG311      OG311       HGP1
   56    23    39    40	 9 ;       HGA1      CG311      OG311       HGP1
   39    23    24    34	 9 ;      OG311      CG311      CG311      NG2S1
   39    23    24    25	 9 ;      OG311      CG311      CG311      CG321
   39    23    24    57	 9 ;      OG311      CG311      CG311       HGA1
   22    23    24    34	 9 ;      CG324      CG311      CG311      NG2S1
   22    23    24    25	 9 ;      CG324      CG311      CG311      CG321
   22    23    24    57	 9 ;      CG324      CG311      CG311       HGA1
   56    23    24    34	 9 ;       HGA1      CG311      CG311      NG2S1
   56    23    24    25	 9 ;       HGA1      CG311      CG311      CG321
   56    23    24    57	 9 ;       HGA1      CG311      CG311       HGA1
   23    24    34    35	 9 ;      CG311      CG311      NG2S1      CG2O1
   23    24    34    38	 9 ;      CG311      CG311      NG2S1       HGP1
   25    24    34    35	 9 ;      CG321      CG311      NG2S1      CG2O1
   25    24    34    38	 9 ;      CG321      CG311      NG2S1       HGP1
   57    24    34    35	 9 ;       HGA1      CG311      NG2S1      CG2O1
   57    24    34    38	 9 ;       HGA1      CG311      NG2S1       HGP1
   34    24    25    26	 9 ;      NG2S1      CG311      CG321     CG2R61
   34    24    25    58	 9 ;      NG2S1      CG311      CG321       HGA2
   34    24    25    59	 9 ;      NG2S1      CG311      CG321       HGA2
   23    24    25    26	 9 ;      CG311      CG311      CG321     CG2R61
   23    24    25    58	 9 ;      CG311      CG311      CG321       HGA2
   23    24    25    59	 9 ;      CG311      CG311      CG321       HGA2
   57    24    25    26	 9 ;       HGA1      CG311      CG321     CG2R61
   57    24    25    58	 9 ;       HGA1      CG311      CG321       HGA2
   57    24    25    59	 9 ;       HGA1      CG311      CG321       HGA2
   24    25    26    27	 9 ;      CG311      CG321     CG2R61     CG2R61
   24    25    26    32	 9 ;      CG311      CG321     CG2R61     CG2R61
   58    25    26    27	 9 ;       HGA2      CG321     CG2R61     CG2R61
   58    25    26    32	 9 ;       HGA2      CG321     CG2R61     CG2R61
   59    25    26    27	 9 ;       HGA2      CG321     CG2R61     CG2R61
   59    25    26    32	 9 ;       HGA2      CG321     CG2R61     CG2R61
   25    26    27    28	 9 ;      CG321     CG2R61     CG2R61     CG2R66
   25    26    27    60	 9 ;      CG321     CG2R61     CG2R61      HGR62
   32    26    27    28	 9 ;     CG2R61     CG2R61     CG2R61     CG2R66
   32    26    27    60	 9 ;     CG2R61     CG2R61     CG2R61      HGR62
   27    26    32    31	 9 ;     CG2R61     CG2R61     CG2R61     CG2R66
   27    26    32    62	 9 ;     CG2R61     CG2R61     CG2R61      HGR62
   25    26    32    31	 9 ;      CG321     CG2R61     CG2R61     CG2R66
   25    26    32    62	 9 ;      CG321     CG2R61     CG2R61      HGR62
   26    27    28    29	 9 ;     CG2R61     CG2R61     CG2R66       FGR1
   26    27    28    30	 9 ;     CG2R61     CG2R61     CG2R66     CG2R61
   60    27    28    29	 9 ;      HGR62     CG2R61     CG2R66       FGR1
   60    27    28    30	 9 ;      HGR62     CG2R61     CG2R66     CG2R61
   29    28    30    31	 9 ;       FGR1     CG2R66     CG2R61     CG2R66
   29    28    30    61	 9 ;       FGR1     CG2R66     CG2R61      HGR62
   27    28    30    31	 9 ;     CG2R61     CG2R66     CG2R61     CG2R66
   27    28    30    61	 9 ;     CG2R61     CG2R66     CG2R61      HGR62
   28    30    31    32	 9 ;     CG2R66     CG2R61     CG2R66     CG2R61
   28    30    31    33	 9 ;     CG2R66     CG2R61     CG2R66       FGR1
   61    30    31    32	 9 ;      HGR62     CG2R61     CG2R66     CG2R61
   61    30    31    33	 9 ;      HGR62     CG2R61     CG2R66       FGR1
   30    31    32    26	 9 ;     CG2R61     CG2R66     CG2R61     CG2R61
   30    31    32    62	 9 ;     CG2R61     CG2R66     CG2R61      HGR62
   33    31    32    26	 9 ;       FGR1     CG2R66     CG2R61     CG2R61
   33    31    32    62	 9 ;       FGR1     CG2R66     CG2R61      HGR62
   38    34    35    36	 9 ;       HGP1      NG2S1      CG2O1      OG2D1
   38    34    35    37	 9 ;       HGP1      NG2S1      CG2O1      CG331
   24    34    35    36	 9 ;      CG311      NG2S1      CG2O1      OG2D1
   24    34    35    37	 9 ;      CG311      NG2S1      CG2O1      CG331
   36    35    37    63	 9 ;      OG2D1      CG2O1      CG331       HGA3
   36    35    37    64	 9 ;      OG2D1      CG2O1      CG331       HGA3
   36    35    37    65	 9 ;      OG2D1      CG2O1      CG331       HGA3
   34    35    37    63	 9 ;      NG2S1      CG2O1      CG331       HGA3
   34    35    37    64	 9 ;      NG2S1      CG2O1      CG331       HGA3
   34    35    37    65	 9 ;      NG2S1      CG2O1      CG331       HGA3

[ dihedrals ]
;	ai	  aj	ak	  al funct			  c0			c1			  c2			c3
   35    37    34    36	 2

