GROtesk MACabre and Sinister
   74
    1LIG     C1    1  -1.370   0.749  -1.729
    1LIG     C2    2  -1.462   0.843  -1.645
    1LIG     C3    3  -1.584   0.899  -1.724
    1LIG     C4    4  -1.549   0.963  -1.859
    1LIG     C5    5  -1.457   0.870  -1.939
    1LIG     C6    6  -1.333   0.826  -1.858
    1LIG     C7    7  -1.485   1.094  -1.841
    1LIG     N1    8  -1.426   1.193  -1.824
    1LIG     C8    9  -1.436   0.610  -1.759
    1LIG     C9   10  -1.520   0.548  -1.664
    1LIG    C10   11  -1.598   0.432  -1.691
    1LIG    C11   12  -1.591   0.379  -1.820
    1LIG    C12   13  -1.507   0.435  -1.917
    1LIG    C13   14  -1.431   0.549  -1.886
    1LIG    C14   15  -1.693   0.375  -1.583
    1LIG    C15   16  -1.656   0.442  -1.449
    1LIG    C16   17  -1.842   0.402  -1.613
    1LIG    C17   18  -1.679   0.223  -1.568
    1LIG     N2   19  -1.240   0.713  -1.651
    1LIG     H1   20  -1.183   0.799  -1.649
    1LIG     H2   21  -1.190   0.653  -1.719
    1LIG    C18   22  -1.217   0.644  -1.516
    1LIG    C19   23  -1.115   0.526  -1.518
    1LIG    C20   24  -1.171   0.380  -1.558
    1LIG    C21   25  -1.296   0.336  -1.480
    1LIG    C22   26  -1.277   0.206  -1.409
    1LIG    C23   27  -1.165   0.187  -1.328
    1LIG    C24   28  -1.144   0.063  -1.268
    1LIG     F1   29  -1.034   0.047  -1.193
    1LIG    C25   30  -1.231  -0.043  -1.285
    1LIG    C26   31  -1.344  -0.023  -1.362
    1LIG    C27   32  -1.368   0.100  -1.423
    1LIG     F2   33  -1.431  -0.123  -1.379
    1LIG     N3   34  -1.193   0.361  -1.703
    1LIG    C28   35  -1.165   0.252  -1.781
    1LIG     O1   36  -1.204   0.254  -1.898
    1LIG    C29   37  -1.089   0.133  -1.726
    1LIG     H3   38  -1.243   0.431  -1.756
    1LIG     O2   39  -1.007   0.563  -1.604
    1LIG     H4   40  -0.956   0.481  -1.624
    1LIG    HC2   41  -1.500   0.787  -1.559
    1LIG    HC3   42  -1.403   0.926  -1.608
    1LIG    HC4   43  -1.654   0.817  -1.742
    1LIG    HC5   44  -1.633   0.974  -1.662
    1LIG     HC   45  -1.641   0.977  -1.916
    1LIG    HC6   46  -1.423   0.922  -2.029
    1LIG    HC7   47  -1.512   0.781  -1.969
    1LIG    HC8   48  -1.270   0.762  -1.920
    1LIG    HC9   49  -1.276   0.915  -1.830
    1LIG    HC1   50  -1.525   0.590  -1.565
    1LIG   HC10   51  -1.651   0.293  -1.846
    1LIG   HC11   52  -1.501   0.391  -2.015
    1LIG   HC12   53  -1.367   0.591  -1.962
    1LIG   HC13   54  -1.313   0.606  -1.481
    1LIG   HC14   55  -1.181   0.719  -1.445
    1LIG   HC15   56  -1.075   0.517  -1.417
    1LIG   HC16   57  -1.092   0.310  -1.531
    1LIG   HC17   58  -1.380   0.326  -1.549
    1LIG   HC18   59  -1.321   0.413  -1.406
    1LIG   HC19   60  -1.096   0.268  -1.312
    1LIG   HC20   61  -1.211  -0.139  -1.240
    1LIG   HC21   62  -1.458   0.114  -1.482
    1LIG   HC22   63  -1.072   0.060  -1.805
    1LIG   HC23   64  -1.146   0.087  -1.645
    1LIG   HC24   65  -0.992   0.167  -1.687
    1LIG   HC25   66  -1.714   0.396  -1.369
    1LIG   HC26   67  -1.680   0.548  -1.454
    1LIG   HC27   68  -1.550   0.429  -1.430
    1LIG   HC28   69  -1.575   0.199  -1.547
    1LIG   HC29   70  -1.710   0.174  -1.660
    1LIG   HC30   71  -1.742   0.189  -1.485
    1LIG   HC31   72  -1.858   0.509  -1.625
    1LIG   HC32   73  -1.871   0.351  -1.704
    1LIG   HC33   74  -1.903   0.365  -1.530
   0.00000   0.00000   0.00000
