Gromacs Runs One Microsecond At Cannonball Speeds
   21
    1LIG     N1    1  -1.224   0.401  -1.612
    1LIG     HN    2  -1.223   0.502  -1.598
    1LIG     C1    3  -1.332   0.338  -1.661
    1LIG     C2    4  -1.340   0.201  -1.681
    1LIG     C3    5  -1.229   0.123  -1.649
    1LIG     C4    6  -1.113   0.185  -1.597
    1LIG     C5    7  -1.003   0.103  -1.563
    1LIG     C6    8  -1.006  -0.035  -1.583
    1LIG     C7    9  -1.120  -0.095  -1.635
    1LIG     C8   10  -1.231  -0.017  -1.668
    1LIG     C9   11  -1.117   0.325  -1.581
    1LIG     N2   12  -1.008   0.396  -1.530
    1LIG     H1   13  -1.039   0.463  -1.460
    1LIG     H2   14  -0.945   0.326  -1.490
    1LIG     H3   15  -1.413   0.361  -1.594
    1LIG     H4   16  -1.332   0.373  -1.762
    1LIG     H5   17  -1.425   0.158  -1.720
    1LIG     H6   18  -0.918   0.147  -1.524
    1LIG     H7   19  -0.924  -0.092  -1.559
    1LIG     H8   20  -1.122  -0.197  -1.650
    1LIG     H9   21  -1.315  -0.062  -1.706
   0.00000   0.00000   0.00000
