; Created by cgenff_charmm2gmx.py

[ moleculetype ]
; Name			   nrexcl
LIG				 3

[ atoms ]
;	 nr		  type	resnr residue  atom   cgnr	   charge		mass  typeB    chargeB		massB
; residue	 1 LIG rtp LIG q	qsum
     1      NG311      1    LIG     N1      1     -0.505     14.007   ;
     2     HGPAM1      1    LIG     HN      2      0.387      1.008   ;
     3      CG321      1    LIG     C1      3     -0.032     12.011   ;
     4     CG2DC1      1    LIG     C2      4     -0.202     12.011   ;
     5     CG2DC1      1    LIG     C3      5      0.071     12.011   ;
     6     CG2DC2      1    LIG     C4      6     -0.186     12.011   ;
     7     CG2DC1      1    LIG     C5      7     -0.242     12.011   ;
     8     CG2DC1      1    LIG     C6      8     -0.150     12.011   ;
     9     CG2DC2      1    LIG     C7      9     -0.142     12.011   ;
    10     CG2DC2      1    LIG     C8     10     -0.238     12.011   ;
    11     CG2D2O      1    LIG     C9     11      0.241     12.011   ;
    12      NG321      1    LIG     N2     12     -0.746     14.007   ;
    13     HGPAM2      1    LIG     H1     13      0.404      1.008   ;
    14     HGPAM2      1    LIG     H2     14      0.404      1.008   ;
    15       HGA2      1    LIG     H3     15      0.090      1.008   ;
    16       HGA2      1    LIG     H4     16      0.090      1.008   ;
    17       HGA4      1    LIG     H5     17      0.150      1.008   ;
    18       HGA4      1    LIG     H6     18      0.153      1.008   ;
    19       HGA4      1    LIG     H7     19      0.150      1.008   ;
    20       HGA4      1    LIG     H8     20      0.150      1.008   ;
    21       HGA4      1    LIG     H9     21      0.153      1.008   ;

[ bonds ]
;	ai	  aj funct			  c0			c1			  c2			c3
    1     3	 1 ;       NG311      CG321
    1     2	 1 ;       NG311     HGPAM1
    1    11	 1 ;       NG311     CG2D2O
    3     4	 1 ;       CG321     CG2DC1
    3    15	 1 ;       CG321       HGA2
    3    16	 1 ;       CG321       HGA2
    4     5	 1 ;      CG2DC1     CG2DC1
    4    17	 1 ;      CG2DC1       HGA4
    5    10	 1 ;      CG2DC1     CG2DC2
    5     6	 1 ;      CG2DC1     CG2DC2
    6    11	 1 ;      CG2DC2     CG2D2O
    6     7	 1 ;      CG2DC2     CG2DC1
    7     8	 1 ;      CG2DC1     CG2DC1
    7    18	 1 ;      CG2DC1       HGA4
    8     9	 1 ;      CG2DC1     CG2DC2
    8    19	 1 ;      CG2DC1       HGA4
    9    10	 1 ;      CG2DC2     CG2DC2
    9    20	 1 ;      CG2DC2       HGA4
   10    21	 1 ;      CG2DC2       HGA4
   11    12	 1 ;      CG2D2O      NG321
   12    14	 1 ;       NG321     HGPAM2
   12    13	 1 ;       NG321     HGPAM2

[ pairs ]
;	ai	  aj funct			  c0			c1			  c2			c3
    1     5	 1
    1    17	 1
    1     7	 1
    1    14	 1
    1    13	 1
    2     4	 1
    2    15	 1
    2    16	 1
    2     6	 1
    2    12	 1
    3     6	 1
    3    12	 1
    3    10	 1
    4    11	 1
    4     9	 1
    4    21	 1
    4     7	 1
    5    15	 1
    5    16	 1
    5    12	 1
    5     8	 1
    5    18	 1
    5    20	 1
    6    17	 1
    6     9	 1
    6    21	 1
    6    19	 1
    6    14	 1
    6    13	 1
    7    10	 1
    7    12	 1
    7    20	 1
    8    11	 1
    8    21	 1
    9    18	 1
   10    17	 1
   10    11	 1
   10    19	 1
   11    15	 1
   11    16	 1
   11    18	 1
   15    17	 1
   16    17	 1
   18    19	 1
   19    20	 1
   20    21	 1

[ angles ]
;	ai	  aj	ak funct			c0			  c1			c2			  c3
    3     1     2	5 ;      CG321      NG311     HGPAM1
    3     1    11	5 ;      CG321      NG311     CG2D2O
    2     1    11	5 ;     HGPAM1      NG311     CG2D2O
    4     3     1	5 ;     CG2DC1      CG321      NG311
    4     3    15	5 ;     CG2DC1      CG321       HGA2
    4     3    16	5 ;     CG2DC1      CG321       HGA2
    1     3    15	5 ;      NG311      CG321       HGA2
    1     3    16	5 ;      NG311      CG321       HGA2
   15     3    16	5 ;       HGA2      CG321       HGA2
    3     4     5	5 ;      CG321     CG2DC1     CG2DC1
    3     4    17	5 ;      CG321     CG2DC1       HGA4
    5     4    17	5 ;     CG2DC1     CG2DC1       HGA4
    4     5    10	5 ;     CG2DC1     CG2DC1     CG2DC2
    4     5     6	5 ;     CG2DC1     CG2DC1     CG2DC2
   10     5     6	5 ;     CG2DC2     CG2DC1     CG2DC2
    5     6    11	5 ;     CG2DC1     CG2DC2     CG2D2O
    5     6     7	5 ;     CG2DC1     CG2DC2     CG2DC1
   11     6     7	5 ;     CG2D2O     CG2DC2     CG2DC1
    6     7     8	5 ;     CG2DC2     CG2DC1     CG2DC1
    6     7    18	5 ;     CG2DC2     CG2DC1       HGA4
    8     7    18	5 ;     CG2DC1     CG2DC1       HGA4
    9     8     7	5 ;     CG2DC2     CG2DC1     CG2DC1
    9     8    19	5 ;     CG2DC2     CG2DC1       HGA4
    7     8    19	5 ;     CG2DC1     CG2DC1       HGA4
   10     9     8	5 ;     CG2DC2     CG2DC2     CG2DC1
   10     9    20	5 ;     CG2DC2     CG2DC2       HGA4
    8     9    20	5 ;     CG2DC1     CG2DC2       HGA4
    5    10     9	5 ;     CG2DC1     CG2DC2     CG2DC2
    5    10    21	5 ;     CG2DC1     CG2DC2       HGA4
    9    10    21	5 ;     CG2DC2     CG2DC2       HGA4
    1    11     6	5 ;      NG311     CG2D2O     CG2DC2
    1    11    12	5 ;      NG311     CG2D2O      NG321
    6    11    12	5 ;     CG2DC2     CG2D2O      NG321
   11    12    14	5 ;     CG2D2O      NG321     HGPAM2
   11    12    13	5 ;     CG2D2O      NG321     HGPAM2
   14    12    13	5 ;     HGPAM2      NG321     HGPAM2

[ dihedrals ]
;	ai	  aj	ak	  al funct			  c0			c1			  c2			c3			  c4			c5
    2     1     3     4	 9 ;     HGPAM1      NG311      CG321     CG2DC1
    2     1     3    15	 9 ;     HGPAM1      NG311      CG321       HGA2
    2     1     3    16	 9 ;     HGPAM1      NG311      CG321       HGA2
   11     1     3     4	 9 ;     CG2D2O      NG311      CG321     CG2DC1
   11     1     3    15	 9 ;     CG2D2O      NG311      CG321       HGA2
   11     1     3    16	 9 ;     CG2D2O      NG311      CG321       HGA2
    3     1    11     6	 9 ;      CG321      NG311     CG2D2O     CG2DC2
    3     1    11    12	 9 ;      CG321      NG311     CG2D2O      NG321
    2     1    11     6	 9 ;     HGPAM1      NG311     CG2D2O     CG2DC2
    2     1    11    12	 9 ;     HGPAM1      NG311     CG2D2O      NG321
    1     3     4     5	 9 ;      NG311      CG321     CG2DC1     CG2DC1
    1     3     4    17	 9 ;      NG311      CG321     CG2DC1       HGA4
   15     3     4     5	 9 ;       HGA2      CG321     CG2DC1     CG2DC1
   15     3     4    17	 9 ;       HGA2      CG321     CG2DC1       HGA4
   16     3     4     5	 9 ;       HGA2      CG321     CG2DC1     CG2DC1
   16     3     4    17	 9 ;       HGA2      CG321     CG2DC1       HGA4
    3     4     5    10	 9 ;      CG321     CG2DC1     CG2DC1     CG2DC2
    3     4     5     6	 9 ;      CG321     CG2DC1     CG2DC1     CG2DC2
   17     4     5    10	 9 ;       HGA4     CG2DC1     CG2DC1     CG2DC2
   17     4     5     6	 9 ;       HGA4     CG2DC1     CG2DC1     CG2DC2
    4     5    10     9	 9 ;     CG2DC1     CG2DC1     CG2DC2     CG2DC2
    4     5    10    21	 9 ;     CG2DC1     CG2DC1     CG2DC2       HGA4
    6     5    10     9	 9 ;     CG2DC2     CG2DC1     CG2DC2     CG2DC2
    6     5    10    21	 9 ;     CG2DC2     CG2DC1     CG2DC2       HGA4
    4     5     6    11	 9 ;     CG2DC1     CG2DC1     CG2DC2     CG2D2O
    4     5     6     7	 9 ;     CG2DC1     CG2DC1     CG2DC2     CG2DC1
   10     5     6    11	 9 ;     CG2DC2     CG2DC1     CG2DC2     CG2D2O
   10     5     6     7	 9 ;     CG2DC2     CG2DC1     CG2DC2     CG2DC1
    5     6    11     1	 9 ;     CG2DC1     CG2DC2     CG2D2O      NG311
    5     6    11    12	 9 ;     CG2DC1     CG2DC2     CG2D2O      NG321
    7     6    11     1	 9 ;     CG2DC1     CG2DC2     CG2D2O      NG311
    7     6    11    12	 9 ;     CG2DC1     CG2DC2     CG2D2O      NG321
    5     6     7     8	 9 ;     CG2DC1     CG2DC2     CG2DC1     CG2DC1
    5     6     7    18	 9 ;     CG2DC1     CG2DC2     CG2DC1       HGA4
   11     6     7     8	 9 ;     CG2D2O     CG2DC2     CG2DC1     CG2DC1
   11     6     7    18	 9 ;     CG2D2O     CG2DC2     CG2DC1       HGA4
    6     7     8     9	 9 ;     CG2DC2     CG2DC1     CG2DC1     CG2DC2
    6     7     8    19	 9 ;     CG2DC2     CG2DC1     CG2DC1       HGA4
   18     7     8     9	 9 ;       HGA4     CG2DC1     CG2DC1     CG2DC2
   18     7     8    19	 9 ;       HGA4     CG2DC1     CG2DC1       HGA4
    7     8     9    10	 9 ;     CG2DC1     CG2DC1     CG2DC2     CG2DC2
    7     8     9    20	 9 ;     CG2DC1     CG2DC1     CG2DC2       HGA4
   19     8     9    10	 9 ;       HGA4     CG2DC1     CG2DC2     CG2DC2
   19     8     9    20	 9 ;       HGA4     CG2DC1     CG2DC2       HGA4
    8     9    10     5	 9 ;     CG2DC1     CG2DC2     CG2DC2     CG2DC1
    8     9    10    21	 9 ;     CG2DC1     CG2DC2     CG2DC2       HGA4
   20     9    10     5	 9 ;       HGA4     CG2DC2     CG2DC2     CG2DC1
   20     9    10    21	 9 ;       HGA4     CG2DC2     CG2DC2       HGA4
    1    11    12    14	 9 ;      NG311     CG2D2O      NG321     HGPAM2
    1    11    12    13	 9 ;      NG311     CG2D2O      NG321     HGPAM2
    6    11    12    14	 9 ;     CG2DC2     CG2D2O      NG321     HGPAM2
    6    11    12    13	 9 ;     CG2DC2     CG2D2O      NG321     HGPAM2

[ dihedrals ]
;	ai	  aj	ak	  al funct			  c0			c1			  c2			c3
   11     6     1    12	 2

