Gallium Rubidium Oxygen Manganese Argon Carbon Silicon
   76
    1LIG     C1    1  -1.816   0.685  -1.493
    1LIG     O1    2  -1.909   0.755  -1.529
    1LIG     N1    3  -1.831   0.587  -1.395
    1LIG     H1    4  -1.744   0.551  -1.357
    1LIG     C2    5  -1.953   0.511  -1.363
    1LIG     C3    6  -2.063   0.595  -1.290
    1LIG     O2    7  -2.126   0.688  -1.378
    1LIG     H2    8  -2.161   0.640  -1.455
    1LIG     C4    9  -2.178   0.508  -1.227
    1LIG     N2   10  -2.127   0.382  -1.161
    1LIG     H3   11  -2.081   0.322  -1.230
    1LIG     H4   12  -2.055   0.410  -1.093
    1LIG     C5   13  -2.227   0.296  -1.086
    1LIG     C6   14  -2.166   0.268  -0.948
    1LIG     C7   15  -2.245   0.166  -0.867
    1LIG     C8   16  -2.269   0.037  -0.945
    1LIG     C9   17  -2.336   0.067  -1.079
    1LIG    C10   18  -2.253   0.165  -1.162
    1LIG    C11   19  -2.014   0.424  -1.476
    1LIG    C12   20  -1.921   0.373  -1.582
    1LIG    C13   21  -1.938   0.402  -1.718
    1LIG    C14   22  -1.845   0.356  -1.812
    1LIG    C15   23  -1.735   0.282  -1.771
    1LIG    C16   24  -1.717   0.253  -1.636
    1LIG    C17   25  -1.809   0.298  -1.543
    1LIG    C18   26  -1.676   0.703  -1.548
    1LIG    C19   27  -1.591   0.595  -1.579
    1LIG    C20   28  -1.456   0.616  -1.613
    1LIG    C21   29  -1.409   0.747  -1.629
    1LIG    C22   30  -1.494   0.855  -1.608
    1LIG    C23   31  -1.627   0.834  -1.566
    1LIG     N3   32  -1.361   0.509  -1.609
    1LIG      S   33  -1.318   0.420  -1.745
    1LIG     O3   34  -1.419   0.436  -1.847
    1LIG     O4   35  -1.277   0.287  -1.704
    1LIG    C24   36  -1.171   0.506  -1.799
    1LIG    C25   37  -1.326   0.460  -1.480
    1LIG    C26   38  -1.405   0.361  -1.420
    1LIG    C27   39  -1.368   0.308  -1.297
    1LIG    C28   40  -1.253   0.354  -1.232
    1LIG    C29   41  -1.175   0.454  -1.291
    1LIG    C30   42  -1.212   0.507  -1.414
    1LIG     HC   43  -1.921   0.438  -1.289
    1LIG    HC1   44  -2.015   0.651  -1.209
    1LIG    HC2   45  -2.230   0.568  -1.153
    1LIG    HC3   46  -2.248   0.481  -1.306
    1LIG    HC4   47  -2.321   0.350  -1.075
    1LIG    HC5   48  -2.163   0.361  -0.892
    1LIG    HC6   49  -2.064   0.231  -0.961
    1LIG    HC7   50  -2.341   0.209  -0.839
    1LIG    HC8   51  -2.190   0.142  -0.776
    1LIG    HC9   52  -2.174  -0.012  -0.963
    1LIG   HC10   53  -2.334  -0.029  -0.887
    1LIG   HC11   54  -2.434   0.110  -1.061
    1LIG   HC12   55  -2.348  -0.026  -1.135
    1LIG   HC13   56  -2.158   0.119  -1.187
    1LIG   HC14   57  -2.307   0.188  -1.255
    1LIG   HC15   58  -2.062   0.338  -1.429
    1LIG   HC16   59  -2.092   0.483  -1.525
    1LIG   HC17   60  -2.023   0.460  -1.751
    1LIG   HC18   61  -1.859   0.378  -1.917
    1LIG   HC19   62  -1.663   0.247  -1.844
    1LIG   HC20   63  -1.631   0.196  -1.604
    1LIG   HC21   64  -1.794   0.275  -1.438
    1LIG   HC22   65  -1.630   0.494  -1.575
    1LIG   HC23   66  -1.306   0.764  -1.657
    1LIG   HC24   67  -1.459   0.956  -1.624
    1LIG   HC25   68  -1.691   0.918  -1.548
    1LIG   HC26   69  -1.494   0.326  -1.470
    1LIG   HC27   70  -1.429   0.232  -1.251
    1LIG   HC28   71  -1.224   0.312  -1.137
    1LIG   HC29   72  -1.086   0.489  -1.241
    1LIG   HC30   73  -1.151   0.584  -1.460
    1LIG   HC31   74  -1.131   0.458  -1.889
    1LIG   HC32   75  -1.096   0.503  -1.720
    1LIG   HC33   76  -1.196   0.610  -1.822
   0.00000   0.00000   0.00000
