; Created by cgenff_charmm2gmx.py

[ moleculetype ]
; Name			   nrexcl
LIG				 3

[ atoms ]
;	 nr		  type	resnr residue  atom   cgnr	   charge		mass  typeB    chargeB		massB
; residue	 1 LIG rtp LIG q	qsum
     1      CG2O1      1    LIG     C1      1      0.302     12.011   ;
     2      OG2D1      1    LIG     O1      2     -0.463     15.999   ;
     3      NG2S1      1    LIG     N1      3     -0.226     14.007   ;
     4       HGP1      1    LIG     H1      4      0.262      1.008   ;
     5      CG311      1    LIG     C2      5      0.010     12.011   ;
     6      CG311      1    LIG     C3      6      0.089     12.011   ;
     7      OG311      1    LIG     O2      7     -0.625     15.999   ;
     8       HGP1      1    LIG     H2      8      0.415      1.008   ;
     9      CG324      1    LIG     C4      9      0.190     12.011   ;
    10      NG3P2      1    LIG     N2     10     -0.342     14.007   ;
    11       HGP2      1    LIG     H3     11      0.321      1.008   ;
    12       HGP2      1    LIG     H4     12      0.321      1.008   ;
    13      CG314      1    LIG     C5     13      0.149     12.011   ;
    14      CG321      1    LIG     C6     14     -0.173     12.011   ;
    15      CG321      1    LIG     C7     15     -0.187     12.011   ;
    16      CG321      1    LIG     C8     16     -0.086     12.011   ;
    17      CG321      1    LIG     C9     17     -0.187     12.011   ;
    18      CG321      1    LIG    C10     18     -0.173     12.011   ;
    19      CG321      1    LIG    C11     19     -0.111     12.011   ;
    20     CG2R61      1    LIG    C12     20     -0.019     12.011   ;
    21     CG2R61      1    LIG    C13     21     -0.123     12.011   ;
    22     CG2R61      1    LIG    C14     22     -0.112     12.011   ;
    23     CG2R61      1    LIG    C15     23     -0.116     12.011   ;
    24     CG2R61      1    LIG    C16     24     -0.112     12.011   ;
    25     CG2R61      1    LIG    C17     25     -0.123     12.011   ;
    26     CG2R61      1    LIG    C18     26     -0.103     12.011   ;
    27     CG2R61      1    LIG    C19     27     -0.067     12.011   ;
    28     CG2R61      1    LIG    C20     28      0.151     12.011   ;
    29     CG2R61      1    LIG    C21     29     -0.123     12.011   ;
    30     CG2R61      1    LIG    C22     30     -0.110     12.011   ;
    31     CG2R61      1    LIG    C23     31     -0.060     12.011   ;
    32      NG301      1    LIG     N3     32     -0.231     14.007   ;
    33      SG3O2      1    LIG      S     33      0.466     32.060   ;
    34      OG2P1      1    LIG     O3     34     -0.412     15.999   ;
    35      OG2P1      1    LIG     O4     35     -0.412     15.999   ;
    36      CG331      1    LIG    C24     36      0.033     12.011   ;
    37     CG2R61      1    LIG    C25     37      0.149     12.011   ;
    38     CG2R61      1    LIG    C26     38     -0.123     12.011   ;
    39     CG2R61      1    LIG    C27     39     -0.112     12.011   ;
    40     CG2R61      1    LIG    C28     40     -0.116     12.011   ;
    41     CG2R61      1    LIG    C29     41     -0.112     12.011   ;
    42     CG2R61      1    LIG    C30     42     -0.123     12.011   ;
    43       HGA1      1    LIG     HC     43      0.090      1.008   ;
    44       HGA1      1    LIG    HC1     44      0.090      1.008   ;
    45       HGA2      1    LIG    HC2     45      0.090      1.008   ;
    46       HGA2      1    LIG    HC3     46      0.090      1.008   ;
    47       HGA1      1    LIG    HC4     47      0.090      1.008   ;
    48       HGA2      1    LIG    HC5     48      0.090      1.008   ;
    49       HGA2      1    LIG    HC6     49      0.090      1.008   ;
    50       HGA2      1    LIG    HC7     50      0.090      1.008   ;
    51       HGA2      1    LIG    HC8     51      0.090      1.008   ;
    52       HGA2      1    LIG    HC9     52      0.090      1.008   ;
    53       HGA2      1    LIG   HC10     53      0.090      1.008   ;
    54       HGA2      1    LIG   HC11     54      0.090      1.008   ;
    55       HGA2      1    LIG   HC12     55      0.090      1.008   ;
    56       HGA2      1    LIG   HC13     56      0.090      1.008   ;
    57       HGA2      1    LIG   HC14     57      0.090      1.008   ;
    58       HGA2      1    LIG   HC15     58      0.090      1.008   ;
    59       HGA2      1    LIG   HC16     59      0.090      1.008   ;
    60      HGR61      1    LIG   HC17     60      0.116      1.008   ;
    61      HGR61      1    LIG   HC18     61      0.116      1.008   ;
    62      HGR61      1    LIG   HC19     62      0.116      1.008   ;
    63      HGR61      1    LIG   HC20     63      0.116      1.008   ;
    64      HGR61      1    LIG   HC21     64      0.116      1.008   ;
    65      HGR61      1    LIG   HC22     65      0.116      1.008   ;
    66      HGR61      1    LIG   HC23     66      0.116      1.008   ;
    67      HGR61      1    LIG   HC24     67      0.116      1.008   ;
    68      HGR61      1    LIG   HC25     68      0.116      1.008   ;
    69      HGR61      1    LIG   HC26     69      0.116      1.008   ;
    70      HGR61      1    LIG   HC27     70      0.116      1.008   ;
    71      HGR61      1    LIG   HC28     71      0.116      1.008   ;
    72      HGR61      1    LIG   HC29     72      0.116      1.008   ;
    73      HGR61      1    LIG   HC30     73      0.116      1.008   ;
    74       HGA3      1    LIG   HC31     74      0.090      1.008   ;
    75       HGA3      1    LIG   HC32     75      0.090      1.008   ;
    76       HGA3      1    LIG   HC33     76      0.090      1.008   ;

[ bonds ]
;	ai	  aj funct			  c0			c1			  c2			c3
    1    26	 1 ;       CG2O1     CG2R61
    1     2	 1 ;       CG2O1      OG2D1
    1     3	 1 ;       CG2O1      NG2S1
    3     4	 1 ;       NG2S1       HGP1
    3     5	 1 ;       NG2S1      CG311
    5    19	 1 ;       CG311      CG321
    5     6	 1 ;       CG311      CG311
    5    43	 1 ;       CG311       HGA1
    6     7	 1 ;       CG311      OG311
    6     9	 1 ;       CG311      CG324
    6    44	 1 ;       CG311       HGA1
    7     8	 1 ;       OG311       HGP1
    9    10	 1 ;       CG324      NG3P2
    9    45	 1 ;       CG324       HGA2
    9    46	 1 ;       CG324       HGA2
   10    11	 1 ;       NG3P2       HGP2
   10    12	 1 ;       NG3P2       HGP2
   10    13	 1 ;       NG3P2      CG314
   13    18	 1 ;       CG314      CG321
   13    14	 1 ;       CG314      CG321
   13    47	 1 ;       CG314       HGA1
   14    15	 1 ;       CG321      CG321
   14    48	 1 ;       CG321       HGA2
   14    49	 1 ;       CG321       HGA2
   15    16	 1 ;       CG321      CG321
   15    50	 1 ;       CG321       HGA2
   15    51	 1 ;       CG321       HGA2
   16    17	 1 ;       CG321      CG321
   16    52	 1 ;       CG321       HGA2
   16    53	 1 ;       CG321       HGA2
   17    18	 1 ;       CG321      CG321
   17    54	 1 ;       CG321       HGA2
   17    55	 1 ;       CG321       HGA2
   18    56	 1 ;       CG321       HGA2
   18    57	 1 ;       CG321       HGA2
   19    20	 1 ;       CG321     CG2R61
   19    58	 1 ;       CG321       HGA2
   19    59	 1 ;       CG321       HGA2
   20    21	 1 ;      CG2R61     CG2R61
   20    25	 1 ;      CG2R61     CG2R61
   21    22	 1 ;      CG2R61     CG2R61
   21    60	 1 ;      CG2R61      HGR61
   22    23	 1 ;      CG2R61     CG2R61
   22    61	 1 ;      CG2R61      HGR61
   23    24	 1 ;      CG2R61     CG2R61
   23    62	 1 ;      CG2R61      HGR61
   24    25	 1 ;      CG2R61     CG2R61
   24    63	 1 ;      CG2R61      HGR61
   25    64	 1 ;      CG2R61      HGR61
   26    27	 1 ;      CG2R61     CG2R61
   26    31	 1 ;      CG2R61     CG2R61
   27    28	 1 ;      CG2R61     CG2R61
   27    65	 1 ;      CG2R61      HGR61
   28    32	 1 ;      CG2R61      NG301
   28    29	 1 ;      CG2R61     CG2R61
   29    30	 1 ;      CG2R61     CG2R61
   29    66	 1 ;      CG2R61      HGR61
   30    31	 1 ;      CG2R61     CG2R61
   30    67	 1 ;      CG2R61      HGR61
   31    68	 1 ;      CG2R61      HGR61
   32    33	 1 ;       NG301      SG3O2
   32    37	 1 ;       NG301     CG2R61
   33    36	 1 ;       SG3O2      CG331
   33    35	 1 ;       SG3O2      OG2P1
   33    34	 1 ;       SG3O2      OG2P1
   36    74	 1 ;       CG331       HGA3
   36    75	 1 ;       CG331       HGA3
   36    76	 1 ;       CG331       HGA3
   37    42	 1 ;      CG2R61     CG2R61
   37    38	 1 ;      CG2R61     CG2R61
   38    39	 1 ;      CG2R61     CG2R61
   38    69	 1 ;      CG2R61      HGR61
   39    40	 1 ;      CG2R61     CG2R61
   39    70	 1 ;      CG2R61      HGR61
   40    41	 1 ;      CG2R61     CG2R61
   40    71	 1 ;      CG2R61      HGR61
   41    42	 1 ;      CG2R61     CG2R61
   41    72	 1 ;      CG2R61      HGR61
   42    73	 1 ;      CG2R61      HGR61

[ pairs ]
;	ai	  aj funct			  c0			c1			  c2			c3
    1    19	 1
    1     6	 1
    1    43	 1
    1    28	 1
    1    65	 1
    1    30	 1
    1    68	 1
    2    27	 1
    2    31	 1
    2     4	 1
    2     5	 1
    3    27	 1
    3    31	 1
    3    20	 1
    3    58	 1
    3    59	 1
    3     7	 1
    3     9	 1
    3    44	 1
    4    26	 1
    4    19	 1
    4     6	 1
    4    43	 1
    5    26	 1
    5     8	 1
    5    10	 1
    5    45	 1
    5    46	 1
    5    21	 1
    5    25	 1
    6    20	 1
    6    58	 1
    6    59	 1
    6    11	 1
    6    12	 1
    6    13	 1
    7    19	 1
    7    43	 1
    7    10	 1
    7    45	 1
    7    46	 1
    8     9	 1
    8    44	 1
    9    19	 1
    9    43	 1
    9    18	 1
    9    14	 1
    9    47	 1
   10    44	 1
   10    17	 1
   10    56	 1
   10    57	 1
   10    15	 1
   10    48	 1
   10    49	 1
   11    45	 1
   11    46	 1
   11    18	 1
   11    14	 1
   11    47	 1
   12    45	 1
   12    46	 1
   12    18	 1
   12    14	 1
   12    47	 1
   13    45	 1
   13    46	 1
   13    16	 1
   13    50	 1
   13    51	 1
   13    54	 1
   13    55	 1
   14    17	 1
   14    56	 1
   14    57	 1
   14    52	 1
   14    53	 1
   15    18	 1
   15    47	 1
   15    54	 1
   15    55	 1
   16    48	 1
   16    49	 1
   16    56	 1
   16    57	 1
   17    47	 1
   17    50	 1
   17    51	 1
   18    48	 1
   18    49	 1
   18    52	 1
   18    53	 1
   19    44	 1
   19    22	 1
   19    60	 1
   19    24	 1
   19    64	 1
   20    43	 1
   20    23	 1
   20    61	 1
   20    63	 1
   21    58	 1
   21    59	 1
   21    24	 1
   21    64	 1
   21    62	 1
   22    25	 1
   22    63	 1
   23    60	 1
   23    64	 1
   24    61	 1
   25    58	 1
   25    59	 1
   25    60	 1
   25    62	 1
   26    32	 1
   26    29	 1
   26    67	 1
   27    30	 1
   27    68	 1
   27    33	 1
   27    37	 1
   27    66	 1
   28    31	 1
   28    67	 1
   28    36	 1
   28    35	 1
   28    34	 1
   28    42	 1
   28    38	 1
   29    65	 1
   29    33	 1
   29    37	 1
   29    68	 1
   30    32	 1
   31    65	 1
   31    66	 1
   32    65	 1
   32    66	 1
   32    74	 1
   32    75	 1
   32    76	 1
   32    41	 1
   32    73	 1
   32    39	 1
   32    69	 1
   33    42	 1
   33    38	 1
   34    37	 1
   34    74	 1
   34    75	 1
   34    76	 1
   35    37	 1
   35    74	 1
   35    75	 1
   35    76	 1
   36    37	 1
   37    40	 1
   37    70	 1
   37    72	 1
   38    41	 1
   38    73	 1
   38    71	 1
   39    42	 1
   39    72	 1
   40    69	 1
   40    73	 1
   41    70	 1
   42    69	 1
   42    71	 1
   43    58	 1
   43    59	 1
   43    44	 1
   44    45	 1
   44    46	 1
   47    56	 1
   47    57	 1
   47    48	 1
   47    49	 1
   48    50	 1
   48    51	 1
   49    50	 1
   49    51	 1
   50    52	 1
   50    53	 1
   51    52	 1
   51    53	 1
   52    54	 1
   52    55	 1
   53    54	 1
   53    55	 1
   54    56	 1
   54    57	 1
   55    56	 1
   55    57	 1
   60    61	 1
   61    62	 1
   62    63	 1
   63    64	 1
   66    67	 1
   67    68	 1
   69    70	 1
   70    71	 1
   71    72	 1
   72    73	 1

[ angles ]
;	ai	  aj	ak funct			c0			  c1			c2			  c3
   26     1     2	5 ;     CG2R61      CG2O1      OG2D1
   26     1     3	5 ;     CG2R61      CG2O1      NG2S1
    2     1     3	5 ;      OG2D1      CG2O1      NG2S1
    1     3     4	5 ;      CG2O1      NG2S1       HGP1
    1     3     5	5 ;      CG2O1      NG2S1      CG311
    4     3     5	5 ;       HGP1      NG2S1      CG311
    3     5    19	5 ;      NG2S1      CG311      CG321
    3     5     6	5 ;      NG2S1      CG311      CG311
    3     5    43	5 ;      NG2S1      CG311       HGA1
   19     5     6	5 ;      CG321      CG311      CG311
   19     5    43	5 ;      CG321      CG311       HGA1
    6     5    43	5 ;      CG311      CG311       HGA1
    5     6     7	5 ;      CG311      CG311      OG311
    5     6     9	5 ;      CG311      CG311      CG324
    5     6    44	5 ;      CG311      CG311       HGA1
    7     6     9	5 ;      OG311      CG311      CG324
    7     6    44	5 ;      OG311      CG311       HGA1
    9     6    44	5 ;      CG324      CG311       HGA1
    8     7     6	5 ;       HGP1      OG311      CG311
    6     9    10	5 ;      CG311      CG324      NG3P2
    6     9    45	5 ;      CG311      CG324       HGA2
    6     9    46	5 ;      CG311      CG324       HGA2
   10     9    45	5 ;      NG3P2      CG324       HGA2
   10     9    46	5 ;      NG3P2      CG324       HGA2
   45     9    46	5 ;       HGA2      CG324       HGA2
   11    10    12	5 ;       HGP2      NG3P2       HGP2
   11    10     9	5 ;       HGP2      NG3P2      CG324
   11    10    13	5 ;       HGP2      NG3P2      CG314
   12    10     9	5 ;       HGP2      NG3P2      CG324
   12    10    13	5 ;       HGP2      NG3P2      CG314
    9    10    13	5 ;      CG324      NG3P2      CG314
   10    13    18	5 ;      NG3P2      CG314      CG321
   10    13    14	5 ;      NG3P2      CG314      CG321
   10    13    47	5 ;      NG3P2      CG314       HGA1
   18    13    14	5 ;      CG321      CG314      CG321
   18    13    47	5 ;      CG321      CG314       HGA1
   14    13    47	5 ;      CG321      CG314       HGA1
   13    14    15	5 ;      CG314      CG321      CG321
   13    14    48	5 ;      CG314      CG321       HGA2
   13    14    49	5 ;      CG314      CG321       HGA2
   15    14    48	5 ;      CG321      CG321       HGA2
   15    14    49	5 ;      CG321      CG321       HGA2
   48    14    49	5 ;       HGA2      CG321       HGA2
   14    15    16	5 ;      CG321      CG321      CG321
   14    15    50	5 ;      CG321      CG321       HGA2
   14    15    51	5 ;      CG321      CG321       HGA2
   16    15    50	5 ;      CG321      CG321       HGA2
   16    15    51	5 ;      CG321      CG321       HGA2
   50    15    51	5 ;       HGA2      CG321       HGA2
   17    16    15	5 ;      CG321      CG321      CG321
   17    16    52	5 ;      CG321      CG321       HGA2
   17    16    53	5 ;      CG321      CG321       HGA2
   15    16    52	5 ;      CG321      CG321       HGA2
   15    16    53	5 ;      CG321      CG321       HGA2
   52    16    53	5 ;       HGA2      CG321       HGA2
   18    17    16	5 ;      CG321      CG321      CG321
   18    17    54	5 ;      CG321      CG321       HGA2
   18    17    55	5 ;      CG321      CG321       HGA2
   16    17    54	5 ;      CG321      CG321       HGA2
   16    17    55	5 ;      CG321      CG321       HGA2
   54    17    55	5 ;       HGA2      CG321       HGA2
   13    18    17	5 ;      CG314      CG321      CG321
   13    18    56	5 ;      CG314      CG321       HGA2
   13    18    57	5 ;      CG314      CG321       HGA2
   17    18    56	5 ;      CG321      CG321       HGA2
   17    18    57	5 ;      CG321      CG321       HGA2
   56    18    57	5 ;       HGA2      CG321       HGA2
   20    19     5	5 ;     CG2R61      CG321      CG311
   20    19    58	5 ;     CG2R61      CG321       HGA2
   20    19    59	5 ;     CG2R61      CG321       HGA2
    5    19    58	5 ;      CG311      CG321       HGA2
    5    19    59	5 ;      CG311      CG321       HGA2
   58    19    59	5 ;       HGA2      CG321       HGA2
   21    20    25	5 ;     CG2R61     CG2R61     CG2R61
   21    20    19	5 ;     CG2R61     CG2R61      CG321
   25    20    19	5 ;     CG2R61     CG2R61      CG321
   22    21    20	5 ;     CG2R61     CG2R61     CG2R61
   22    21    60	5 ;     CG2R61     CG2R61      HGR61
   20    21    60	5 ;     CG2R61     CG2R61      HGR61
   23    22    21	5 ;     CG2R61     CG2R61     CG2R61
   23    22    61	5 ;     CG2R61     CG2R61      HGR61
   21    22    61	5 ;     CG2R61     CG2R61      HGR61
   22    23    24	5 ;     CG2R61     CG2R61     CG2R61
   22    23    62	5 ;     CG2R61     CG2R61      HGR61
   24    23    62	5 ;     CG2R61     CG2R61      HGR61
   23    24    25	5 ;     CG2R61     CG2R61     CG2R61
   23    24    63	5 ;     CG2R61     CG2R61      HGR61
   25    24    63	5 ;     CG2R61     CG2R61      HGR61
   24    25    20	5 ;     CG2R61     CG2R61     CG2R61
   24    25    64	5 ;     CG2R61     CG2R61      HGR61
   20    25    64	5 ;     CG2R61     CG2R61      HGR61
   27    26    31	5 ;     CG2R61     CG2R61     CG2R61
   27    26     1	5 ;     CG2R61     CG2R61      CG2O1
   31    26     1	5 ;     CG2R61     CG2R61      CG2O1
   28    27    26	5 ;     CG2R61     CG2R61     CG2R61
   28    27    65	5 ;     CG2R61     CG2R61      HGR61
   26    27    65	5 ;     CG2R61     CG2R61      HGR61
   32    28    29	5 ;      NG301     CG2R61     CG2R61
   32    28    27	5 ;      NG301     CG2R61     CG2R61
   29    28    27	5 ;     CG2R61     CG2R61     CG2R61
   28    29    30	5 ;     CG2R61     CG2R61     CG2R61
   28    29    66	5 ;     CG2R61     CG2R61      HGR61
   30    29    66	5 ;     CG2R61     CG2R61      HGR61
   29    30    31	5 ;     CG2R61     CG2R61     CG2R61
   29    30    67	5 ;     CG2R61     CG2R61      HGR61
   31    30    67	5 ;     CG2R61     CG2R61      HGR61
   30    31    26	5 ;     CG2R61     CG2R61     CG2R61
   30    31    68	5 ;     CG2R61     CG2R61      HGR61
   26    31    68	5 ;     CG2R61     CG2R61      HGR61
   33    32    37	5 ;      SG3O2      NG301     CG2R61
   33    32    28	5 ;      SG3O2      NG301     CG2R61
   37    32    28	5 ;     CG2R61      NG301     CG2R61
   36    33    35	5 ;      CG331      SG3O2      OG2P1
   36    33    34	5 ;      CG331      SG3O2      OG2P1
   36    33    32	5 ;      CG331      SG3O2      NG301
   35    33    34	5 ;      OG2P1      SG3O2      OG2P1
   35    33    32	5 ;      OG2P1      SG3O2      NG301
   34    33    32	5 ;      OG2P1      SG3O2      NG301
   33    36    74	5 ;      SG3O2      CG331       HGA3
   33    36    75	5 ;      SG3O2      CG331       HGA3
   33    36    76	5 ;      SG3O2      CG331       HGA3
   74    36    75	5 ;       HGA3      CG331       HGA3
   74    36    76	5 ;       HGA3      CG331       HGA3
   75    36    76	5 ;       HGA3      CG331       HGA3
   32    37    42	5 ;      NG301     CG2R61     CG2R61
   32    37    38	5 ;      NG301     CG2R61     CG2R61
   42    37    38	5 ;     CG2R61     CG2R61     CG2R61
   37    38    39	5 ;     CG2R61     CG2R61     CG2R61
   37    38    69	5 ;     CG2R61     CG2R61      HGR61
   39    38    69	5 ;     CG2R61     CG2R61      HGR61
   38    39    40	5 ;     CG2R61     CG2R61     CG2R61
   38    39    70	5 ;     CG2R61     CG2R61      HGR61
   40    39    70	5 ;     CG2R61     CG2R61      HGR61
   41    40    39	5 ;     CG2R61     CG2R61     CG2R61
   41    40    71	5 ;     CG2R61     CG2R61      HGR61
   39    40    71	5 ;     CG2R61     CG2R61      HGR61
   42    41    40	5 ;     CG2R61     CG2R61     CG2R61
   42    41    72	5 ;     CG2R61     CG2R61      HGR61
   40    41    72	5 ;     CG2R61     CG2R61      HGR61
   37    42    41	5 ;     CG2R61     CG2R61     CG2R61
   37    42    73	5 ;     CG2R61     CG2R61      HGR61
   41    42    73	5 ;     CG2R61     CG2R61      HGR61

[ dihedrals ]
;	ai	  aj	ak	  al funct			  c0			c1			  c2			c3			  c4			c5
    2     1    26    27	 9 ;      OG2D1      CG2O1     CG2R61     CG2R61
    2     1    26    31	 9 ;      OG2D1      CG2O1     CG2R61     CG2R61
    3     1    26    27	 9 ;      NG2S1      CG2O1     CG2R61     CG2R61
    3     1    26    31	 9 ;      NG2S1      CG2O1     CG2R61     CG2R61
   26     1     3     4	 9 ;     CG2R61      CG2O1      NG2S1       HGP1
   26     1     3     5	 9 ;     CG2R61      CG2O1      NG2S1      CG311
    2     1     3     4	 9 ;      OG2D1      CG2O1      NG2S1       HGP1
    2     1     3     5	 9 ;      OG2D1      CG2O1      NG2S1      CG311
    1     3     5    19	 9 ;      CG2O1      NG2S1      CG311      CG321
    1     3     5     6	 9 ;      CG2O1      NG2S1      CG311      CG311
    1     3     5    43	 9 ;      CG2O1      NG2S1      CG311       HGA1
    4     3     5    19	 9 ;       HGP1      NG2S1      CG311      CG321
    4     3     5     6	 9 ;       HGP1      NG2S1      CG311      CG311
    4     3     5    43	 9 ;       HGP1      NG2S1      CG311       HGA1
    3     5    19    20	 9 ;      NG2S1      CG311      CG321     CG2R61
    3     5    19    58	 9 ;      NG2S1      CG311      CG321       HGA2
    3     5    19    59	 9 ;      NG2S1      CG311      CG321       HGA2
    6     5    19    20	 9 ;      CG311      CG311      CG321     CG2R61
    6     5    19    58	 9 ;      CG311      CG311      CG321       HGA2
    6     5    19    59	 9 ;      CG311      CG311      CG321       HGA2
   43     5    19    20	 9 ;       HGA1      CG311      CG321     CG2R61
   43     5    19    58	 9 ;       HGA1      CG311      CG321       HGA2
   43     5    19    59	 9 ;       HGA1      CG311      CG321       HGA2
    3     5     6     7	 9 ;      NG2S1      CG311      CG311      OG311
    3     5     6     9	 9 ;      NG2S1      CG311      CG311      CG324
    3     5     6    44	 9 ;      NG2S1      CG311      CG311       HGA1
   19     5     6     7	 9 ;      CG321      CG311      CG311      OG311
   19     5     6     9	 9 ;      CG321      CG311      CG311      CG324
   19     5     6    44	 9 ;      CG321      CG311      CG311       HGA1
   43     5     6     7	 9 ;       HGA1      CG311      CG311      OG311
   43     5     6     9	 9 ;       HGA1      CG311      CG311      CG324
   43     5     6    44	 9 ;       HGA1      CG311      CG311       HGA1
    5     6     7     8	 9 ;      CG311      CG311      OG311       HGP1
    9     6     7     8	 9 ;      CG324      CG311      OG311       HGP1
   44     6     7     8	 9 ;       HGA1      CG311      OG311       HGP1
    5     6     9    10	 9 ;      CG311      CG311      CG324      NG3P2
    5     6     9    45	 9 ;      CG311      CG311      CG324       HGA2
    5     6     9    46	 9 ;      CG311      CG311      CG324       HGA2
    7     6     9    10	 9 ;      OG311      CG311      CG324      NG3P2
    7     6     9    45	 9 ;      OG311      CG311      CG324       HGA2
    7     6     9    46	 9 ;      OG311      CG311      CG324       HGA2
   44     6     9    10	 9 ;       HGA1      CG311      CG324      NG3P2
   44     6     9    45	 9 ;       HGA1      CG311      CG324       HGA2
   44     6     9    46	 9 ;       HGA1      CG311      CG324       HGA2
    6     9    10    11	 9 ;      CG311      CG324      NG3P2       HGP2
    6     9    10    12	 9 ;      CG311      CG324      NG3P2       HGP2
    6     9    10    13	 9 ;      CG311      CG324      NG3P2      CG314
   45     9    10    11	 9 ;       HGA2      CG324      NG3P2       HGP2
   45     9    10    12	 9 ;       HGA2      CG324      NG3P2       HGP2
   45     9    10    13	 9 ;       HGA2      CG324      NG3P2      CG314
   46     9    10    11	 9 ;       HGA2      CG324      NG3P2       HGP2
   46     9    10    12	 9 ;       HGA2      CG324      NG3P2       HGP2
   46     9    10    13	 9 ;       HGA2      CG324      NG3P2      CG314
   11    10    13    18	 9 ;       HGP2      NG3P2      CG314      CG321
   11    10    13    14	 9 ;       HGP2      NG3P2      CG314      CG321
   11    10    13    47	 9 ;       HGP2      NG3P2      CG314       HGA1
   12    10    13    18	 9 ;       HGP2      NG3P2      CG314      CG321
   12    10    13    14	 9 ;       HGP2      NG3P2      CG314      CG321
   12    10    13    47	 9 ;       HGP2      NG3P2      CG314       HGA1
    9    10    13    18	 9 ;      CG324      NG3P2      CG314      CG321
    9    10    13    14	 9 ;      CG324      NG3P2      CG314      CG321
    9    10    13    47	 9 ;      CG324      NG3P2      CG314       HGA1
   10    13    18    17	 9 ;      NG3P2      CG314      CG321      CG321
   10    13    18    56	 9 ;      NG3P2      CG314      CG321       HGA2
   10    13    18    57	 9 ;      NG3P2      CG314      CG321       HGA2
   14    13    18    17	 9 ;      CG321      CG314      CG321      CG321
   14    13    18    56	 9 ;      CG321      CG314      CG321       HGA2
   14    13    18    57	 9 ;      CG321      CG314      CG321       HGA2
   47    13    18    17	 9 ;       HGA1      CG314      CG321      CG321
   47    13    18    56	 9 ;       HGA1      CG314      CG321       HGA2
   47    13    18    57	 9 ;       HGA1      CG314      CG321       HGA2
   10    13    14    15	 9 ;      NG3P2      CG314      CG321      CG321
   10    13    14    48	 9 ;      NG3P2      CG314      CG321       HGA2
   10    13    14    49	 9 ;      NG3P2      CG314      CG321       HGA2
   18    13    14    15	 9 ;      CG321      CG314      CG321      CG321
   18    13    14    48	 9 ;      CG321      CG314      CG321       HGA2
   18    13    14    49	 9 ;      CG321      CG314      CG321       HGA2
   47    13    14    15	 9 ;       HGA1      CG314      CG321      CG321
   47    13    14    48	 9 ;       HGA1      CG314      CG321       HGA2
   47    13    14    49	 9 ;       HGA1      CG314      CG321       HGA2
   13    14    15    16	 9 ;      CG314      CG321      CG321      CG321
   13    14    15    50	 9 ;      CG314      CG321      CG321       HGA2
   13    14    15    51	 9 ;      CG314      CG321      CG321       HGA2
   48    14    15    16	 9 ;       HGA2      CG321      CG321      CG321
   48    14    15    50	 9 ;       HGA2      CG321      CG321       HGA2
   48    14    15    51	 9 ;       HGA2      CG321      CG321       HGA2
   49    14    15    16	 9 ;       HGA2      CG321      CG321      CG321
   49    14    15    50	 9 ;       HGA2      CG321      CG321       HGA2
   49    14    15    51	 9 ;       HGA2      CG321      CG321       HGA2
   14    15    16    17	 9 ;      CG321      CG321      CG321      CG321
   14    15    16    52	 9 ;      CG321      CG321      CG321       HGA2
   14    15    16    53	 9 ;      CG321      CG321      CG321       HGA2
   50    15    16    17	 9 ;       HGA2      CG321      CG321      CG321
   50    15    16    52	 9 ;       HGA2      CG321      CG321       HGA2
   50    15    16    53	 9 ;       HGA2      CG321      CG321       HGA2
   51    15    16    17	 9 ;       HGA2      CG321      CG321      CG321
   51    15    16    52	 9 ;       HGA2      CG321      CG321       HGA2
   51    15    16    53	 9 ;       HGA2      CG321      CG321       HGA2
   15    16    17    18	 9 ;      CG321      CG321      CG321      CG321
   15    16    17    54	 9 ;      CG321      CG321      CG321       HGA2
   15    16    17    55	 9 ;      CG321      CG321      CG321       HGA2
   52    16    17    18	 9 ;       HGA2      CG321      CG321      CG321
   52    16    17    54	 9 ;       HGA2      CG321      CG321       HGA2
   52    16    17    55	 9 ;       HGA2      CG321      CG321       HGA2
   53    16    17    18	 9 ;       HGA2      CG321      CG321      CG321
   53    16    17    54	 9 ;       HGA2      CG321      CG321       HGA2
   53    16    17    55	 9 ;       HGA2      CG321      CG321       HGA2
   16    17    18    13	 9 ;      CG321      CG321      CG321      CG314
   16    17    18    56	 9 ;      CG321      CG321      CG321       HGA2
   16    17    18    57	 9 ;      CG321      CG321      CG321       HGA2
   54    17    18    13	 9 ;       HGA2      CG321      CG321      CG314
   54    17    18    56	 9 ;       HGA2      CG321      CG321       HGA2
   54    17    18    57	 9 ;       HGA2      CG321      CG321       HGA2
   55    17    18    13	 9 ;       HGA2      CG321      CG321      CG314
   55    17    18    56	 9 ;       HGA2      CG321      CG321       HGA2
   55    17    18    57	 9 ;       HGA2      CG321      CG321       HGA2
    5    19    20    21	 9 ;      CG311      CG321     CG2R61     CG2R61
    5    19    20    25	 9 ;      CG311      CG321     CG2R61     CG2R61
   58    19    20    21	 9 ;       HGA2      CG321     CG2R61     CG2R61
   58    19    20    25	 9 ;       HGA2      CG321     CG2R61     CG2R61
   59    19    20    21	 9 ;       HGA2      CG321     CG2R61     CG2R61
   59    19    20    25	 9 ;       HGA2      CG321     CG2R61     CG2R61
   25    20    21    22	 9 ;     CG2R61     CG2R61     CG2R61     CG2R61
   25    20    21    60	 9 ;     CG2R61     CG2R61     CG2R61      HGR61
   19    20    21    22	 9 ;      CG321     CG2R61     CG2R61     CG2R61
   19    20    21    60	 9 ;      CG321     CG2R61     CG2R61      HGR61
   21    20    25    24	 9 ;     CG2R61     CG2R61     CG2R61     CG2R61
   21    20    25    64	 9 ;     CG2R61     CG2R61     CG2R61      HGR61
   19    20    25    24	 9 ;      CG321     CG2R61     CG2R61     CG2R61
   19    20    25    64	 9 ;      CG321     CG2R61     CG2R61      HGR61
   20    21    22    23	 9 ;     CG2R61     CG2R61     CG2R61     CG2R61
   20    21    22    61	 9 ;     CG2R61     CG2R61     CG2R61      HGR61
   60    21    22    23	 9 ;      HGR61     CG2R61     CG2R61     CG2R61
   60    21    22    61	 9 ;      HGR61     CG2R61     CG2R61      HGR61
   21    22    23    24	 9 ;     CG2R61     CG2R61     CG2R61     CG2R61
   21    22    23    62	 9 ;     CG2R61     CG2R61     CG2R61      HGR61
   61    22    23    24	 9 ;      HGR61     CG2R61     CG2R61     CG2R61
   61    22    23    62	 9 ;      HGR61     CG2R61     CG2R61      HGR61
   22    23    24    25	 9 ;     CG2R61     CG2R61     CG2R61     CG2R61
   22    23    24    63	 9 ;     CG2R61     CG2R61     CG2R61      HGR61
   62    23    24    25	 9 ;      HGR61     CG2R61     CG2R61     CG2R61
   62    23    24    63	 9 ;      HGR61     CG2R61     CG2R61      HGR61
   23    24    25    20	 9 ;     CG2R61     CG2R61     CG2R61     CG2R61
   23    24    25    64	 9 ;     CG2R61     CG2R61     CG2R61      HGR61
   63    24    25    20	 9 ;      HGR61     CG2R61     CG2R61     CG2R61
   63    24    25    64	 9 ;      HGR61     CG2R61     CG2R61      HGR61
   31    26    27    28	 9 ;     CG2R61     CG2R61     CG2R61     CG2R61
   31    26    27    65	 9 ;     CG2R61     CG2R61     CG2R61      HGR61
    1    26    27    28	 9 ;      CG2O1     CG2R61     CG2R61     CG2R61
    1    26    27    65	 9 ;      CG2O1     CG2R61     CG2R61      HGR61
   27    26    31    30	 9 ;     CG2R61     CG2R61     CG2R61     CG2R61
   27    26    31    68	 9 ;     CG2R61     CG2R61     CG2R61      HGR61
    1    26    31    30	 9 ;      CG2O1     CG2R61     CG2R61     CG2R61
    1    26    31    68	 9 ;      CG2O1     CG2R61     CG2R61      HGR61
   26    27    28    32	 9 ;     CG2R61     CG2R61     CG2R61      NG301
   26    27    28    29	 9 ;     CG2R61     CG2R61     CG2R61     CG2R61
   65    27    28    32	 9 ;      HGR61     CG2R61     CG2R61      NG301
   65    27    28    29	 9 ;      HGR61     CG2R61     CG2R61     CG2R61
   29    28    32    33	 9 ;     CG2R61     CG2R61      NG301      SG3O2
   29    28    32    37	 9 ;     CG2R61     CG2R61      NG301     CG2R61
   27    28    32    33	 9 ;     CG2R61     CG2R61      NG301      SG3O2
   27    28    32    37	 9 ;     CG2R61     CG2R61      NG301     CG2R61
   32    28    29    30	 9 ;      NG301     CG2R61     CG2R61     CG2R61
   32    28    29    66	 9 ;      NG301     CG2R61     CG2R61      HGR61
   27    28    29    30	 9 ;     CG2R61     CG2R61     CG2R61     CG2R61
   27    28    29    66	 9 ;     CG2R61     CG2R61     CG2R61      HGR61
   28    29    30    31	 9 ;     CG2R61     CG2R61     CG2R61     CG2R61
   28    29    30    67	 9 ;     CG2R61     CG2R61     CG2R61      HGR61
   66    29    30    31	 9 ;      HGR61     CG2R61     CG2R61     CG2R61
   66    29    30    67	 9 ;      HGR61     CG2R61     CG2R61      HGR61
   29    30    31    26	 9 ;     CG2R61     CG2R61     CG2R61     CG2R61
   29    30    31    68	 9 ;     CG2R61     CG2R61     CG2R61      HGR61
   67    30    31    26	 9 ;      HGR61     CG2R61     CG2R61     CG2R61
   67    30    31    68	 9 ;      HGR61     CG2R61     CG2R61      HGR61
   37    32    33    36	 9 ;     CG2R61      NG301      SG3O2      CG331
   37    32    33    35	 9 ;     CG2R61      NG301      SG3O2      OG2P1
   37    32    33    34	 9 ;     CG2R61      NG301      SG3O2      OG2P1
   28    32    33    36	 9 ;     CG2R61      NG301      SG3O2      CG331
   28    32    33    35	 9 ;     CG2R61      NG301      SG3O2      OG2P1
   28    32    33    34	 9 ;     CG2R61      NG301      SG3O2      OG2P1
   33    32    37    42	 9 ;      SG3O2      NG301     CG2R61     CG2R61
   33    32    37    38	 9 ;      SG3O2      NG301     CG2R61     CG2R61
   28    32    37    42	 9 ;     CG2R61      NG301     CG2R61     CG2R61
   28    32    37    38	 9 ;     CG2R61      NG301     CG2R61     CG2R61
   35    33    36    74	 9 ;      OG2P1      SG3O2      CG331       HGA3
   35    33    36    75	 9 ;      OG2P1      SG3O2      CG331       HGA3
   35    33    36    76	 9 ;      OG2P1      SG3O2      CG331       HGA3
   34    33    36    74	 9 ;      OG2P1      SG3O2      CG331       HGA3
   34    33    36    75	 9 ;      OG2P1      SG3O2      CG331       HGA3
   34    33    36    76	 9 ;      OG2P1      SG3O2      CG331       HGA3
   32    33    36    74	 9 ;      NG301      SG3O2      CG331       HGA3
   32    33    36    75	 9 ;      NG301      SG3O2      CG331       HGA3
   32    33    36    76	 9 ;      NG301      SG3O2      CG331       HGA3
   32    37    42    41	 9 ;      NG301     CG2R61     CG2R61     CG2R61
   32    37    42    73	 9 ;      NG301     CG2R61     CG2R61      HGR61
   38    37    42    41	 9 ;     CG2R61     CG2R61     CG2R61     CG2R61
   38    37    42    73	 9 ;     CG2R61     CG2R61     CG2R61      HGR61
   32    37    38    39	 9 ;      NG301     CG2R61     CG2R61     CG2R61
   32    37    38    69	 9 ;      NG301     CG2R61     CG2R61      HGR61
   42    37    38    39	 9 ;     CG2R61     CG2R61     CG2R61     CG2R61
   42    37    38    69	 9 ;     CG2R61     CG2R61     CG2R61      HGR61
   37    38    39    40	 9 ;     CG2R61     CG2R61     CG2R61     CG2R61
   37    38    39    70	 9 ;     CG2R61     CG2R61     CG2R61      HGR61
   69    38    39    40	 9 ;      HGR61     CG2R61     CG2R61     CG2R61
   69    38    39    70	 9 ;      HGR61     CG2R61     CG2R61      HGR61
   38    39    40    41	 9 ;     CG2R61     CG2R61     CG2R61     CG2R61
   38    39    40    71	 9 ;     CG2R61     CG2R61     CG2R61      HGR61
   70    39    40    41	 9 ;      HGR61     CG2R61     CG2R61     CG2R61
   70    39    40    71	 9 ;      HGR61     CG2R61     CG2R61      HGR61
   39    40    41    42	 9 ;     CG2R61     CG2R61     CG2R61     CG2R61
   39    40    41    72	 9 ;     CG2R61     CG2R61     CG2R61      HGR61
   71    40    41    42	 9 ;      HGR61     CG2R61     CG2R61     CG2R61
   71    40    41    72	 9 ;      HGR61     CG2R61     CG2R61      HGR61
   40    41    42    37	 9 ;     CG2R61     CG2R61     CG2R61     CG2R61
   40    41    42    73	 9 ;     CG2R61     CG2R61     CG2R61      HGR61
   72    41    42    37	 9 ;      HGR61     CG2R61     CG2R61     CG2R61
   72    41    42    73	 9 ;      HGR61     CG2R61     CG2R61      HGR61

[ dihedrals ]
;	ai	  aj	ak	  al funct			  c0			c1			  c2			c3
    1    26     3     2	 2

