; Created by cgenff_charmm2gmx.py

[ moleculetype ]
; Name			   nrexcl
LIG				 3

[ atoms ]
;	 nr		  type	resnr residue  atom   cgnr	   charge		mass  typeB    chargeB		massB
; residue	 1 LIG rtp LIG q	qsum
     1      NG3P2      1    LIG     N1      1     -0.425     14.007   ;
     2       HGP2      1    LIG     H1      2      0.341      1.008   ;
     3       HGP2      1    LIG     H2      3      0.341      1.008   ;
     4      CG324      1    LIG     C1      4      0.208     12.011   ;
     5      CG311      1    LIG     C2      5      0.089     12.011   ;
     6      CG311      1    LIG     C3      6     -0.007     12.011   ;
     7      CG321      1    LIG     C4      7     -0.153     12.011   ;
     8     CG2R61      1    LIG     C5      8      0.057     12.011   ;
     9     CG2R61      1    LIG     C6      9     -0.218     12.011   ;
    10     CG2R66      1    LIG     C7     10      0.261     12.011   ;
    11       FGR1      1    LIG     F1     11     -0.210     18.998   ;
    12     CG2R61      1    LIG     C8     12     -0.240     12.011   ;
    13     CG2R66      1    LIG     C9     13      0.261     12.011   ;
    14     CG2R61      1    LIG    C10     14     -0.218     12.011   ;
    15       FGR1      1    LIG     F2     15     -0.210     18.998   ;
    16      NG2S1      1    LIG     N2     16     -0.339     14.007   ;
    17      CG2O1      1    LIG    C11     17      0.488     12.011   ;
    18      OG2D1      1    LIG     O1     18     -0.509     15.999   ;
    19      CG331      1    LIG    C12     19     -0.270     12.011   ;
    20       HGP1      1    LIG     H3     20      0.261      1.008   ;
    21      OG311      1    LIG     O2     21     -0.625     15.999   ;
    22       HGP1      1    LIG     H4     22      0.415      1.008   ;
    23      CG301      1    LIG    C13     23      0.266     12.011   ;
    24      CG321      1    LIG    C14     24     -0.156     12.011   ;
    25      CG321      1    LIG    C15     25     -0.193     12.011   ;
    26      CG321      1    LIG    C16     26      0.164     12.011   ;
    27      NG2S0      1    LIG     N3     27     -0.768     14.007   ;
    28      CG321      1    LIG    C17     28      0.277     12.011   ;
    29      CG2O1      1    LIG    C18     29      0.439     12.011   ;
    30      OG2D1      1    LIG     O3     30     -0.522     15.999   ;
    31      CG331      1    LIG    C19     31     -0.195     12.011   ;
    32     CG2R61      1    LIG    C20     32      0.079     12.011   ;
    33     CG2R61      1    LIG    C21     33     -0.134     12.011   ;
    34     CG2R61      1    LIG    C22     34      0.082     12.011   ;
    35     CG2R61      1    LIG    C23     35     -0.121     12.011   ;
    36     CG2R61      1    LIG    C24     36     -0.110     12.011   ;
    37     CG2R61      1    LIG    C25     37     -0.129     12.011   ;
    38      CG301      1    LIG    C26     38     -0.018     12.011   ;
    39      CG331      1    LIG    C27     39     -0.289     12.011   ;
    40      CG331      1    LIG    C28     40     -0.289     12.011   ;
    41      CG331      1    LIG    C29     41     -0.289     12.011   ;
    42       HGA2      1    LIG    HC2     42      0.090      1.008   ;
    43       HGA2      1    LIG    HC3     43      0.090      1.008   ;
    44       HGA1      1    LIG     HC     44      0.090      1.008   ;
    45       HGA1      1    LIG    HC1     45      0.090      1.008   ;
    46       HGA2      1    LIG    HC4     46      0.090      1.008   ;
    47       HGA2      1    LIG    HC5     47      0.090      1.008   ;
    48      HGR62      1    LIG    HC6     48      0.174      1.008   ;
    49      HGR62      1    LIG    HC7     49      0.186      1.008   ;
    50      HGR62      1    LIG    HC8     50      0.174      1.008   ;
    51       HGA3      1    LIG    HC9     51      0.090      1.008   ;
    52       HGA3      1    LIG   HC10     52      0.090      1.008   ;
    53       HGA3      1    LIG   HC11     53      0.090      1.008   ;
    54       HGA2      1    LIG   HC12     54      0.090      1.008   ;
    55       HGA2      1    LIG   HC13     55      0.090      1.008   ;
    56       HGA2      1    LIG   HC14     56      0.090      1.008   ;
    57       HGA2      1    LIG   HC15     57      0.090      1.008   ;
    58       HGA2      1    LIG   HC16     58      0.090      1.008   ;
    59       HGA2      1    LIG   HC17     59      0.090      1.008   ;
    60       HGA2      1    LIG   HC18     60      0.090      1.008   ;
    61       HGA2      1    LIG   HC19     61      0.090      1.008   ;
    62       HGA3      1    LIG   HC20     62      0.090      1.008   ;
    63       HGA3      1    LIG   HC21     63      0.090      1.008   ;
    64       HGA3      1    LIG   HC22     64      0.090      1.008   ;
    65      HGR61      1    LIG   HC23     65      0.116      1.008   ;
    66      HGR61      1    LIG   HC24     66      0.116      1.008   ;
    67      HGR61      1    LIG   HC25     67      0.116      1.008   ;
    68      HGR61      1    LIG   HC26     68      0.116      1.008   ;
    69       HGA3      1    LIG   HC27     69      0.090      1.008   ;
    70       HGA3      1    LIG   HC28     70      0.090      1.008   ;
    71       HGA3      1    LIG   HC29     71      0.090      1.008   ;
    72       HGA3      1    LIG   HC30     72      0.090      1.008   ;
    73       HGA3      1    LIG   HC31     73      0.090      1.008   ;
    74       HGA3      1    LIG   HC32     74      0.090      1.008   ;
    75       HGA3      1    LIG   HC33     75      0.090      1.008   ;
    76       HGA3      1    LIG   HC34     76      0.090      1.008   ;
    77       HGA3      1    LIG   HC35     77      0.090      1.008   ;

[ bonds ]
;	ai	  aj funct			  c0			c1			  c2			c3
    1    23	 1 ;       NG3P2      CG301
    1     4	 1 ;       NG3P2      CG324
    1     3	 1 ;       NG3P2       HGP2
    1     2	 1 ;       NG3P2       HGP2
    4     5	 1 ;       CG324      CG311
    4    42	 1 ;       CG324       HGA2
    4    43	 1 ;       CG324       HGA2
    5    21	 1 ;       CG311      OG311
    5     6	 1 ;       CG311      CG311
    5    44	 1 ;       CG311       HGA1
    6    16	 1 ;       CG311      NG2S1
    6     7	 1 ;       CG311      CG321
    6    45	 1 ;       CG311       HGA1
    7     8	 1 ;       CG321     CG2R61
    7    46	 1 ;       CG321       HGA2
    7    47	 1 ;       CG321       HGA2
    8     9	 1 ;      CG2R61     CG2R61
    8    14	 1 ;      CG2R61     CG2R61
    9    10	 1 ;      CG2R61     CG2R66
    9    48	 1 ;      CG2R61      HGR62
   10    11	 1 ;      CG2R66       FGR1
   10    12	 1 ;      CG2R66     CG2R61
   12    13	 1 ;      CG2R61     CG2R66
   12    49	 1 ;      CG2R61      HGR62
   13    14	 1 ;      CG2R66     CG2R61
   13    15	 1 ;      CG2R66       FGR1
   14    50	 1 ;      CG2R61      HGR62
   16    20	 1 ;       NG2S1       HGP1
   16    17	 1 ;       NG2S1      CG2O1
   17    19	 1 ;       CG2O1      CG331
   17    18	 1 ;       CG2O1      OG2D1
   19    51	 1 ;       CG331       HGA3
   19    52	 1 ;       CG331       HGA3
   19    53	 1 ;       CG331       HGA3
   21    22	 1 ;       OG311       HGP1
   23    24	 1 ;       CG301      CG321
   23    28	 1 ;       CG301      CG321
   23    32	 1 ;       CG301     CG2R61
   24    25	 1 ;       CG321      CG321
   24    54	 1 ;       CG321       HGA2
   24    55	 1 ;       CG321       HGA2
   25    26	 1 ;       CG321      CG321
   25    56	 1 ;       CG321       HGA2
   25    57	 1 ;       CG321       HGA2
   26    27	 1 ;       CG321      NG2S0
   26    58	 1 ;       CG321       HGA2
   26    59	 1 ;       CG321       HGA2
   27    29	 1 ;       NG2S0      CG2O1
   27    28	 1 ;       NG2S0      CG321
   28    60	 1 ;       CG321       HGA2
   28    61	 1 ;       CG321       HGA2
   29    31	 1 ;       CG2O1      CG331
   29    30	 1 ;       CG2O1      OG2D1
   31    62	 1 ;       CG331       HGA3
   31    63	 1 ;       CG331       HGA3
   31    64	 1 ;       CG331       HGA3
   32    33	 1 ;      CG2R61     CG2R61
   32    37	 1 ;      CG2R61     CG2R61
   33    34	 1 ;      CG2R61     CG2R61
   33    65	 1 ;      CG2R61      HGR61
   34    38	 1 ;      CG2R61      CG301
   34    35	 1 ;      CG2R61     CG2R61
   35    36	 1 ;      CG2R61     CG2R61
   35    66	 1 ;      CG2R61      HGR61
   36    37	 1 ;      CG2R61     CG2R61
   36    67	 1 ;      CG2R61      HGR61
   37    68	 1 ;      CG2R61      HGR61
   38    39	 1 ;       CG301      CG331
   38    41	 1 ;       CG301      CG331
   38    40	 1 ;       CG301      CG331
   39    69	 1 ;       CG331       HGA3
   39    70	 1 ;       CG331       HGA3
   39    71	 1 ;       CG331       HGA3
   40    72	 1 ;       CG331       HGA3
   40    73	 1 ;       CG331       HGA3
   40    74	 1 ;       CG331       HGA3
   41    75	 1 ;       CG331       HGA3
   41    76	 1 ;       CG331       HGA3
   41    77	 1 ;       CG331       HGA3

[ pairs ]
;	ai	  aj funct			  c0			c1			  c2			c3
    1    21	 1
    1     6	 1
    1    44	 1
    1    25	 1
    1    54	 1
    1    55	 1
    1    27	 1
    1    60	 1
    1    61	 1
    1    33	 1
    1    37	 1
    2    24	 1
    2    28	 1
    2    32	 1
    2     5	 1
    2    42	 1
    2    43	 1
    3    24	 1
    3    28	 1
    3    32	 1
    3     5	 1
    3    42	 1
    3    43	 1
    4    24	 1
    4    28	 1
    4    32	 1
    4    22	 1
    4    16	 1
    4     7	 1
    4    45	 1
    5    23	 1
    5    20	 1
    5    17	 1
    5     8	 1
    5    46	 1
    5    47	 1
    6    42	 1
    6    43	 1
    6    22	 1
    6     9	 1
    6    14	 1
    6    19	 1
    6    18	 1
    7    21	 1
    7    44	 1
    7    20	 1
    7    17	 1
    7    10	 1
    7    48	 1
    7    13	 1
    7    50	 1
    8    16	 1
    8    45	 1
    8    11	 1
    8    12	 1
    8    15	 1
    9    46	 1
    9    47	 1
    9    13	 1
    9    50	 1
    9    49	 1
   10    14	 1
   10    15	 1
   11    48	 1
   11    13	 1
   11    49	 1
   12    48	 1
   12    50	 1
   14    46	 1
   14    47	 1
   14    48	 1
   14    49	 1
   15    49	 1
   15    50	 1
   16    21	 1
   16    44	 1
   16    46	 1
   16    47	 1
   16    51	 1
   16    52	 1
   16    53	 1
   17    45	 1
   18    20	 1
   18    51	 1
   18    52	 1
   18    53	 1
   19    20	 1
   20    45	 1
   21    42	 1
   21    43	 1
   21    45	 1
   22    44	 1
   23    42	 1
   23    43	 1
   23    26	 1
   23    56	 1
   23    57	 1
   23    29	 1
   23    34	 1
   23    65	 1
   23    36	 1
   23    68	 1
   24    27	 1
   24    60	 1
   24    61	 1
   24    33	 1
   24    37	 1
   24    58	 1
   24    59	 1
   25    28	 1
   25    32	 1
   25    29	 1
   26    54	 1
   26    55	 1
   26    31	 1
   26    30	 1
   26    60	 1
   26    61	 1
   27    32	 1
   27    56	 1
   27    57	 1
   27    62	 1
   27    63	 1
   27    64	 1
   28    54	 1
   28    55	 1
   28    33	 1
   28    37	 1
   28    58	 1
   28    59	 1
   28    31	 1
   28    30	 1
   29    58	 1
   29    59	 1
   29    60	 1
   29    61	 1
   30    62	 1
   30    63	 1
   30    64	 1
   32    54	 1
   32    55	 1
   32    60	 1
   32    61	 1
   32    38	 1
   32    35	 1
   32    67	 1
   33    36	 1
   33    68	 1
   33    39	 1
   33    41	 1
   33    40	 1
   33    66	 1
   34    37	 1
   34    67	 1
   34    69	 1
   34    70	 1
   34    71	 1
   34    75	 1
   34    76	 1
   34    77	 1
   34    72	 1
   34    73	 1
   34    74	 1
   35    65	 1
   35    39	 1
   35    41	 1
   35    40	 1
   35    68	 1
   36    38	 1
   37    65	 1
   37    66	 1
   38    65	 1
   38    66	 1
   39    75	 1
   39    76	 1
   39    77	 1
   39    72	 1
   39    73	 1
   39    74	 1
   40    69	 1
   40    70	 1
   40    71	 1
   40    75	 1
   40    76	 1
   40    77	 1
   41    69	 1
   41    70	 1
   41    71	 1
   41    72	 1
   41    73	 1
   41    74	 1
   42    44	 1
   43    44	 1
   44    45	 1
   45    46	 1
   45    47	 1
   54    56	 1
   54    57	 1
   55    56	 1
   55    57	 1
   56    58	 1
   56    59	 1
   57    58	 1
   57    59	 1
   66    67	 1
   67    68	 1

[ angles ]
;	ai	  aj	ak funct			c0			  c1			c2			  c3
   23     1     4	5 ;      CG301      NG3P2      CG324
   23     1     3	5 ;      CG301      NG3P2       HGP2
   23     1     2	5 ;      CG301      NG3P2       HGP2
    4     1     3	5 ;      CG324      NG3P2       HGP2
    4     1     2	5 ;      CG324      NG3P2       HGP2
    3     1     2	5 ;       HGP2      NG3P2       HGP2
    1     4     5	5 ;      NG3P2      CG324      CG311
    1     4    42	5 ;      NG3P2      CG324       HGA2
    1     4    43	5 ;      NG3P2      CG324       HGA2
    5     4    42	5 ;      CG311      CG324       HGA2
    5     4    43	5 ;      CG311      CG324       HGA2
   42     4    43	5 ;       HGA2      CG324       HGA2
    4     5    21	5 ;      CG324      CG311      OG311
    4     5     6	5 ;      CG324      CG311      CG311
    4     5    44	5 ;      CG324      CG311       HGA1
   21     5     6	5 ;      OG311      CG311      CG311
   21     5    44	5 ;      OG311      CG311       HGA1
    6     5    44	5 ;      CG311      CG311       HGA1
    5     6    16	5 ;      CG311      CG311      NG2S1
    5     6     7	5 ;      CG311      CG311      CG321
    5     6    45	5 ;      CG311      CG311       HGA1
   16     6     7	5 ;      NG2S1      CG311      CG321
   16     6    45	5 ;      NG2S1      CG311       HGA1
    7     6    45	5 ;      CG321      CG311       HGA1
    6     7     8	5 ;      CG311      CG321     CG2R61
    6     7    46	5 ;      CG311      CG321       HGA2
    6     7    47	5 ;      CG311      CG321       HGA2
    8     7    46	5 ;     CG2R61      CG321       HGA2
    8     7    47	5 ;     CG2R61      CG321       HGA2
   46     7    47	5 ;       HGA2      CG321       HGA2
    7     8     9	5 ;      CG321     CG2R61     CG2R61
    7     8    14	5 ;      CG321     CG2R61     CG2R61
    9     8    14	5 ;     CG2R61     CG2R61     CG2R61
    8     9    10	5 ;     CG2R61     CG2R61     CG2R66
    8     9    48	5 ;     CG2R61     CG2R61      HGR62
   10     9    48	5 ;     CG2R66     CG2R61      HGR62
    9    10    11	5 ;     CG2R61     CG2R66       FGR1
    9    10    12	5 ;     CG2R61     CG2R66     CG2R61
   11    10    12	5 ;       FGR1     CG2R66     CG2R61
   10    12    13	5 ;     CG2R66     CG2R61     CG2R66
   10    12    49	5 ;     CG2R66     CG2R61      HGR62
   13    12    49	5 ;     CG2R66     CG2R61      HGR62
   14    13    12	5 ;     CG2R61     CG2R66     CG2R61
   14    13    15	5 ;     CG2R61     CG2R66       FGR1
   12    13    15	5 ;     CG2R61     CG2R66       FGR1
    8    14    13	5 ;     CG2R61     CG2R61     CG2R66
    8    14    50	5 ;     CG2R61     CG2R61      HGR62
   13    14    50	5 ;     CG2R66     CG2R61      HGR62
   20    16    17	5 ;       HGP1      NG2S1      CG2O1
   20    16     6	5 ;       HGP1      NG2S1      CG311
   17    16     6	5 ;      CG2O1      NG2S1      CG311
   19    17    16	5 ;      CG331      CG2O1      NG2S1
   19    17    18	5 ;      CG331      CG2O1      OG2D1
   16    17    18	5 ;      NG2S1      CG2O1      OG2D1
   17    19    51	5 ;      CG2O1      CG331       HGA3
   17    19    52	5 ;      CG2O1      CG331       HGA3
   17    19    53	5 ;      CG2O1      CG331       HGA3
   51    19    52	5 ;       HGA3      CG331       HGA3
   51    19    53	5 ;       HGA3      CG331       HGA3
   52    19    53	5 ;       HGA3      CG331       HGA3
    5    21    22	5 ;      CG311      OG311       HGP1
   24    23    28	5 ;      CG321      CG301      CG321
   24    23    32	5 ;      CG321      CG301     CG2R61
   24    23     1	5 ;      CG321      CG301      NG3P2
   28    23    32	5 ;      CG321      CG301     CG2R61
   28    23     1	5 ;      CG321      CG301      NG3P2
   32    23     1	5 ;     CG2R61      CG301      NG3P2
   25    24    23	5 ;      CG321      CG321      CG301
   25    24    54	5 ;      CG321      CG321       HGA2
   25    24    55	5 ;      CG321      CG321       HGA2
   23    24    54	5 ;      CG301      CG321       HGA2
   23    24    55	5 ;      CG301      CG321       HGA2
   54    24    55	5 ;       HGA2      CG321       HGA2
   26    25    24	5 ;      CG321      CG321      CG321
   26    25    56	5 ;      CG321      CG321       HGA2
   26    25    57	5 ;      CG321      CG321       HGA2
   24    25    56	5 ;      CG321      CG321       HGA2
   24    25    57	5 ;      CG321      CG321       HGA2
   56    25    57	5 ;       HGA2      CG321       HGA2
   25    26    27	5 ;      CG321      CG321      NG2S0
   25    26    58	5 ;      CG321      CG321       HGA2
   25    26    59	5 ;      CG321      CG321       HGA2
   27    26    58	5 ;      NG2S0      CG321       HGA2
   27    26    59	5 ;      NG2S0      CG321       HGA2
   58    26    59	5 ;       HGA2      CG321       HGA2
   26    27    29	5 ;      CG321      NG2S0      CG2O1
   26    27    28	5 ;      CG321      NG2S0      CG321
   29    27    28	5 ;      CG2O1      NG2S0      CG321
   27    28    23	5 ;      NG2S0      CG321      CG301
   27    28    60	5 ;      NG2S0      CG321       HGA2
   27    28    61	5 ;      NG2S0      CG321       HGA2
   23    28    60	5 ;      CG301      CG321       HGA2
   23    28    61	5 ;      CG301      CG321       HGA2
   60    28    61	5 ;       HGA2      CG321       HGA2
   31    29    27	5 ;      CG331      CG2O1      NG2S0
   31    29    30	5 ;      CG331      CG2O1      OG2D1
   27    29    30	5 ;      NG2S0      CG2O1      OG2D1
   29    31    62	5 ;      CG2O1      CG331       HGA3
   29    31    63	5 ;      CG2O1      CG331       HGA3
   29    31    64	5 ;      CG2O1      CG331       HGA3
   62    31    63	5 ;       HGA3      CG331       HGA3
   62    31    64	5 ;       HGA3      CG331       HGA3
   63    31    64	5 ;       HGA3      CG331       HGA3
   23    32    33	5 ;      CG301     CG2R61     CG2R61
   23    32    37	5 ;      CG301     CG2R61     CG2R61
   33    32    37	5 ;     CG2R61     CG2R61     CG2R61
   32    33    34	5 ;     CG2R61     CG2R61     CG2R61
   32    33    65	5 ;     CG2R61     CG2R61      HGR61
   34    33    65	5 ;     CG2R61     CG2R61      HGR61
   33    34    38	5 ;     CG2R61     CG2R61      CG301
   33    34    35	5 ;     CG2R61     CG2R61     CG2R61
   38    34    35	5 ;      CG301     CG2R61     CG2R61
   34    35    36	5 ;     CG2R61     CG2R61     CG2R61
   34    35    66	5 ;     CG2R61     CG2R61      HGR61
   36    35    66	5 ;     CG2R61     CG2R61      HGR61
   37    36    35	5 ;     CG2R61     CG2R61     CG2R61
   37    36    67	5 ;     CG2R61     CG2R61      HGR61
   35    36    67	5 ;     CG2R61     CG2R61      HGR61
   32    37    36	5 ;     CG2R61     CG2R61     CG2R61
   32    37    68	5 ;     CG2R61     CG2R61      HGR61
   36    37    68	5 ;     CG2R61     CG2R61      HGR61
   39    38    41	5 ;      CG331      CG301      CG331
   39    38    34	5 ;      CG331      CG301     CG2R61
   39    38    40	5 ;      CG331      CG301      CG331
   41    38    34	5 ;      CG331      CG301     CG2R61
   41    38    40	5 ;      CG331      CG301      CG331
   34    38    40	5 ;     CG2R61      CG301      CG331
   38    39    69	5 ;      CG301      CG331       HGA3
   38    39    70	5 ;      CG301      CG331       HGA3
   38    39    71	5 ;      CG301      CG331       HGA3
   69    39    70	5 ;       HGA3      CG331       HGA3
   69    39    71	5 ;       HGA3      CG331       HGA3
   70    39    71	5 ;       HGA3      CG331       HGA3
   38    40    72	5 ;      CG301      CG331       HGA3
   38    40    73	5 ;      CG301      CG331       HGA3
   38    40    74	5 ;      CG301      CG331       HGA3
   72    40    73	5 ;       HGA3      CG331       HGA3
   72    40    74	5 ;       HGA3      CG331       HGA3
   73    40    74	5 ;       HGA3      CG331       HGA3
   38    41    75	5 ;      CG301      CG331       HGA3
   38    41    76	5 ;      CG301      CG331       HGA3
   38    41    77	5 ;      CG301      CG331       HGA3
   75    41    76	5 ;       HGA3      CG331       HGA3
   75    41    77	5 ;       HGA3      CG331       HGA3
   76    41    77	5 ;       HGA3      CG331       HGA3

[ dihedrals ]
;	ai	  aj	ak	  al funct			  c0			c1			  c2			c3			  c4			c5
    4     1    23    24	 9 ;      CG324      NG3P2      CG301      CG321
    4     1    23    28	 9 ;      CG324      NG3P2      CG301      CG321
    4     1    23    32	 9 ;      CG324      NG3P2      CG301     CG2R61
    3     1    23    24	 9 ;       HGP2      NG3P2      CG301      CG321
    3     1    23    28	 9 ;       HGP2      NG3P2      CG301      CG321
    3     1    23    32	 9 ;       HGP2      NG3P2      CG301     CG2R61
    2     1    23    24	 9 ;       HGP2      NG3P2      CG301      CG321
    2     1    23    28	 9 ;       HGP2      NG3P2      CG301      CG321
    2     1    23    32	 9 ;       HGP2      NG3P2      CG301     CG2R61
   23     1     4     5	 9 ;      CG301      NG3P2      CG324      CG311
   23     1     4    42	 9 ;      CG301      NG3P2      CG324       HGA2
   23     1     4    43	 9 ;      CG301      NG3P2      CG324       HGA2
    3     1     4     5	 9 ;       HGP2      NG3P2      CG324      CG311
    3     1     4    42	 9 ;       HGP2      NG3P2      CG324       HGA2
    3     1     4    43	 9 ;       HGP2      NG3P2      CG324       HGA2
    2     1     4     5	 9 ;       HGP2      NG3P2      CG324      CG311
    2     1     4    42	 9 ;       HGP2      NG3P2      CG324       HGA2
    2     1     4    43	 9 ;       HGP2      NG3P2      CG324       HGA2
    1     4     5    21	 9 ;      NG3P2      CG324      CG311      OG311
    1     4     5     6	 9 ;      NG3P2      CG324      CG311      CG311
    1     4     5    44	 9 ;      NG3P2      CG324      CG311       HGA1
   42     4     5    21	 9 ;       HGA2      CG324      CG311      OG311
   42     4     5     6	 9 ;       HGA2      CG324      CG311      CG311
   42     4     5    44	 9 ;       HGA2      CG324      CG311       HGA1
   43     4     5    21	 9 ;       HGA2      CG324      CG311      OG311
   43     4     5     6	 9 ;       HGA2      CG324      CG311      CG311
   43     4     5    44	 9 ;       HGA2      CG324      CG311       HGA1
    4     5    21    22	 9 ;      CG324      CG311      OG311       HGP1
    6     5    21    22	 9 ;      CG311      CG311      OG311       HGP1
   44     5    21    22	 9 ;       HGA1      CG311      OG311       HGP1
    4     5     6    16	 9 ;      CG324      CG311      CG311      NG2S1
    4     5     6     7	 9 ;      CG324      CG311      CG311      CG321
    4     5     6    45	 9 ;      CG324      CG311      CG311       HGA1
   21     5     6    16	 9 ;      OG311      CG311      CG311      NG2S1
   21     5     6     7	 9 ;      OG311      CG311      CG311      CG321
   21     5     6    45	 9 ;      OG311      CG311      CG311       HGA1
   44     5     6    16	 9 ;       HGA1      CG311      CG311      NG2S1
   44     5     6     7	 9 ;       HGA1      CG311      CG311      CG321
   44     5     6    45	 9 ;       HGA1      CG311      CG311       HGA1
    5     6    16    20	 9 ;      CG311      CG311      NG2S1       HGP1
    5     6    16    17	 9 ;      CG311      CG311      NG2S1      CG2O1
    7     6    16    20	 9 ;      CG321      CG311      NG2S1       HGP1
    7     6    16    17	 9 ;      CG321      CG311      NG2S1      CG2O1
   45     6    16    20	 9 ;       HGA1      CG311      NG2S1       HGP1
   45     6    16    17	 9 ;       HGA1      CG311      NG2S1      CG2O1
    5     6     7     8	 9 ;      CG311      CG311      CG321     CG2R61
    5     6     7    46	 9 ;      CG311      CG311      CG321       HGA2
    5     6     7    47	 9 ;      CG311      CG311      CG321       HGA2
   16     6     7     8	 9 ;      NG2S1      CG311      CG321     CG2R61
   16     6     7    46	 9 ;      NG2S1      CG311      CG321       HGA2
   16     6     7    47	 9 ;      NG2S1      CG311      CG321       HGA2
   45     6     7     8	 9 ;       HGA1      CG311      CG321     CG2R61
   45     6     7    46	 9 ;       HGA1      CG311      CG321       HGA2
   45     6     7    47	 9 ;       HGA1      CG311      CG321       HGA2
    6     7     8     9	 9 ;      CG311      CG321     CG2R61     CG2R61
    6     7     8    14	 9 ;      CG311      CG321     CG2R61     CG2R61
   46     7     8     9	 9 ;       HGA2      CG321     CG2R61     CG2R61
   46     7     8    14	 9 ;       HGA2      CG321     CG2R61     CG2R61
   47     7     8     9	 9 ;       HGA2      CG321     CG2R61     CG2R61
   47     7     8    14	 9 ;       HGA2      CG321     CG2R61     CG2R61
    7     8     9    10	 9 ;      CG321     CG2R61     CG2R61     CG2R66
    7     8     9    48	 9 ;      CG321     CG2R61     CG2R61      HGR62
   14     8     9    10	 9 ;     CG2R61     CG2R61     CG2R61     CG2R66
   14     8     9    48	 9 ;     CG2R61     CG2R61     CG2R61      HGR62
    7     8    14    13	 9 ;      CG321     CG2R61     CG2R61     CG2R66
    7     8    14    50	 9 ;      CG321     CG2R61     CG2R61      HGR62
    9     8    14    13	 9 ;     CG2R61     CG2R61     CG2R61     CG2R66
    9     8    14    50	 9 ;     CG2R61     CG2R61     CG2R61      HGR62
    8     9    10    11	 9 ;     CG2R61     CG2R61     CG2R66       FGR1
    8     9    10    12	 9 ;     CG2R61     CG2R61     CG2R66     CG2R61
   48     9    10    11	 9 ;      HGR62     CG2R61     CG2R66       FGR1
   48     9    10    12	 9 ;      HGR62     CG2R61     CG2R66     CG2R61
    9    10    12    13	 9 ;     CG2R61     CG2R66     CG2R61     CG2R66
    9    10    12    49	 9 ;     CG2R61     CG2R66     CG2R61      HGR62
   11    10    12    13	 9 ;       FGR1     CG2R66     CG2R61     CG2R66
   11    10    12    49	 9 ;       FGR1     CG2R66     CG2R61      HGR62
   10    12    13    14	 9 ;     CG2R66     CG2R61     CG2R66     CG2R61
   10    12    13    15	 9 ;     CG2R66     CG2R61     CG2R66       FGR1
   49    12    13    14	 9 ;      HGR62     CG2R61     CG2R66     CG2R61
   49    12    13    15	 9 ;      HGR62     CG2R61     CG2R66       FGR1
   12    13    14     8	 9 ;     CG2R61     CG2R66     CG2R61     CG2R61
   12    13    14    50	 9 ;     CG2R61     CG2R66     CG2R61      HGR62
   15    13    14     8	 9 ;       FGR1     CG2R66     CG2R61     CG2R61
   15    13    14    50	 9 ;       FGR1     CG2R66     CG2R61      HGR62
   20    16    17    19	 9 ;       HGP1      NG2S1      CG2O1      CG331
   20    16    17    18	 9 ;       HGP1      NG2S1      CG2O1      OG2D1
    6    16    17    19	 9 ;      CG311      NG2S1      CG2O1      CG331
    6    16    17    18	 9 ;      CG311      NG2S1      CG2O1      OG2D1
   16    17    19    51	 9 ;      NG2S1      CG2O1      CG331       HGA3
   16    17    19    52	 9 ;      NG2S1      CG2O1      CG331       HGA3
   16    17    19    53	 9 ;      NG2S1      CG2O1      CG331       HGA3
   18    17    19    51	 9 ;      OG2D1      CG2O1      CG331       HGA3
   18    17    19    52	 9 ;      OG2D1      CG2O1      CG331       HGA3
   18    17    19    53	 9 ;      OG2D1      CG2O1      CG331       HGA3
   28    23    24    25	 9 ;      CG321      CG301      CG321      CG321
   28    23    24    54	 9 ;      CG321      CG301      CG321       HGA2
   28    23    24    55	 9 ;      CG321      CG301      CG321       HGA2
   32    23    24    25	 9 ;     CG2R61      CG301      CG321      CG321
   32    23    24    54	 9 ;     CG2R61      CG301      CG321       HGA2
   32    23    24    55	 9 ;     CG2R61      CG301      CG321       HGA2
    1    23    24    25	 9 ;      NG3P2      CG301      CG321      CG321
    1    23    24    54	 9 ;      NG3P2      CG301      CG321       HGA2
    1    23    24    55	 9 ;      NG3P2      CG301      CG321       HGA2
   24    23    28    27	 9 ;      CG321      CG301      CG321      NG2S0
   24    23    28    60	 9 ;      CG321      CG301      CG321       HGA2
   24    23    28    61	 9 ;      CG321      CG301      CG321       HGA2
   32    23    28    27	 9 ;     CG2R61      CG301      CG321      NG2S0
   32    23    28    60	 9 ;     CG2R61      CG301      CG321       HGA2
   32    23    28    61	 9 ;     CG2R61      CG301      CG321       HGA2
    1    23    28    27	 9 ;      NG3P2      CG301      CG321      NG2S0
    1    23    28    60	 9 ;      NG3P2      CG301      CG321       HGA2
    1    23    28    61	 9 ;      NG3P2      CG301      CG321       HGA2
   24    23    32    33	 9 ;      CG321      CG301     CG2R61     CG2R61
   24    23    32    37	 9 ;      CG321      CG301     CG2R61     CG2R61
   28    23    32    33	 9 ;      CG321      CG301     CG2R61     CG2R61
   28    23    32    37	 9 ;      CG321      CG301     CG2R61     CG2R61
    1    23    32    33	 9 ;      NG3P2      CG301     CG2R61     CG2R61
    1    23    32    37	 9 ;      NG3P2      CG301     CG2R61     CG2R61
   23    24    25    26	 9 ;      CG301      CG321      CG321      CG321
   23    24    25    56	 9 ;      CG301      CG321      CG321       HGA2
   23    24    25    57	 9 ;      CG301      CG321      CG321       HGA2
   54    24    25    26	 9 ;       HGA2      CG321      CG321      CG321
   54    24    25    56	 9 ;       HGA2      CG321      CG321       HGA2
   54    24    25    57	 9 ;       HGA2      CG321      CG321       HGA2
   55    24    25    26	 9 ;       HGA2      CG321      CG321      CG321
   55    24    25    56	 9 ;       HGA2      CG321      CG321       HGA2
   55    24    25    57	 9 ;       HGA2      CG321      CG321       HGA2
   24    25    26    27	 9 ;      CG321      CG321      CG321      NG2S0
   24    25    26    58	 9 ;      CG321      CG321      CG321       HGA2
   24    25    26    59	 9 ;      CG321      CG321      CG321       HGA2
   56    25    26    27	 9 ;       HGA2      CG321      CG321      NG2S0
   56    25    26    58	 9 ;       HGA2      CG321      CG321       HGA2
   56    25    26    59	 9 ;       HGA2      CG321      CG321       HGA2
   57    25    26    27	 9 ;       HGA2      CG321      CG321      NG2S0
   57    25    26    58	 9 ;       HGA2      CG321      CG321       HGA2
   57    25    26    59	 9 ;       HGA2      CG321      CG321       HGA2
   25    26    27    29	 9 ;      CG321      CG321      NG2S0      CG2O1
   25    26    27    28	 9 ;      CG321      CG321      NG2S0      CG321
   58    26    27    29	 9 ;       HGA2      CG321      NG2S0      CG2O1
   58    26    27    28	 9 ;       HGA2      CG321      NG2S0      CG321
   59    26    27    29	 9 ;       HGA2      CG321      NG2S0      CG2O1
   59    26    27    28	 9 ;       HGA2      CG321      NG2S0      CG321
   26    27    29    31	 9 ;      CG321      NG2S0      CG2O1      CG331
   26    27    29    30	 9 ;      CG321      NG2S0      CG2O1      OG2D1
   28    27    29    31	 9 ;      CG321      NG2S0      CG2O1      CG331
   28    27    29    30	 9 ;      CG321      NG2S0      CG2O1      OG2D1
   26    27    28    23	 9 ;      CG321      NG2S0      CG321      CG301
   26    27    28    60	 9 ;      CG321      NG2S0      CG321       HGA2
   26    27    28    61	 9 ;      CG321      NG2S0      CG321       HGA2
   29    27    28    23	 9 ;      CG2O1      NG2S0      CG321      CG301
   29    27    28    60	 9 ;      CG2O1      NG2S0      CG321       HGA2
   29    27    28    61	 9 ;      CG2O1      NG2S0      CG321       HGA2
   27    29    31    62	 9 ;      NG2S0      CG2O1      CG331       HGA3
   27    29    31    63	 9 ;      NG2S0      CG2O1      CG331       HGA3
   27    29    31    64	 9 ;      NG2S0      CG2O1      CG331       HGA3
   30    29    31    62	 9 ;      OG2D1      CG2O1      CG331       HGA3
   30    29    31    63	 9 ;      OG2D1      CG2O1      CG331       HGA3
   30    29    31    64	 9 ;      OG2D1      CG2O1      CG331       HGA3
   23    32    33    34	 9 ;      CG301     CG2R61     CG2R61     CG2R61
   23    32    33    65	 9 ;      CG301     CG2R61     CG2R61      HGR61
   37    32    33    34	 9 ;     CG2R61     CG2R61     CG2R61     CG2R61
   37    32    33    65	 9 ;     CG2R61     CG2R61     CG2R61      HGR61
   23    32    37    36	 9 ;      CG301     CG2R61     CG2R61     CG2R61
   23    32    37    68	 9 ;      CG301     CG2R61     CG2R61      HGR61
   33    32    37    36	 9 ;     CG2R61     CG2R61     CG2R61     CG2R61
   33    32    37    68	 9 ;     CG2R61     CG2R61     CG2R61      HGR61
   32    33    34    38	 9 ;     CG2R61     CG2R61     CG2R61      CG301
   32    33    34    35	 9 ;     CG2R61     CG2R61     CG2R61     CG2R61
   65    33    34    38	 9 ;      HGR61     CG2R61     CG2R61      CG301
   65    33    34    35	 9 ;      HGR61     CG2R61     CG2R61     CG2R61
   33    34    38    39	 9 ;     CG2R61     CG2R61      CG301      CG331
   33    34    38    41	 9 ;     CG2R61     CG2R61      CG301      CG331
   33    34    38    40	 9 ;     CG2R61     CG2R61      CG301      CG331
   35    34    38    39	 9 ;     CG2R61     CG2R61      CG301      CG331
   35    34    38    41	 9 ;     CG2R61     CG2R61      CG301      CG331
   35    34    38    40	 9 ;     CG2R61     CG2R61      CG301      CG331
   33    34    35    36	 9 ;     CG2R61     CG2R61     CG2R61     CG2R61
   33    34    35    66	 9 ;     CG2R61     CG2R61     CG2R61      HGR61
   38    34    35    36	 9 ;      CG301     CG2R61     CG2R61     CG2R61
   38    34    35    66	 9 ;      CG301     CG2R61     CG2R61      HGR61
   34    35    36    37	 9 ;     CG2R61     CG2R61     CG2R61     CG2R61
   34    35    36    67	 9 ;     CG2R61     CG2R61     CG2R61      HGR61
   66    35    36    37	 9 ;      HGR61     CG2R61     CG2R61     CG2R61
   66    35    36    67	 9 ;      HGR61     CG2R61     CG2R61      HGR61
   35    36    37    32	 9 ;     CG2R61     CG2R61     CG2R61     CG2R61
   35    36    37    68	 9 ;     CG2R61     CG2R61     CG2R61      HGR61
   67    36    37    32	 9 ;      HGR61     CG2R61     CG2R61     CG2R61
   67    36    37    68	 9 ;      HGR61     CG2R61     CG2R61      HGR61
   41    38    39    69	 9 ;      CG331      CG301      CG331       HGA3
   41    38    39    70	 9 ;      CG331      CG301      CG331       HGA3
   41    38    39    71	 9 ;      CG331      CG301      CG331       HGA3
   34    38    39    69	 9 ;     CG2R61      CG301      CG331       HGA3
   34    38    39    70	 9 ;     CG2R61      CG301      CG331       HGA3
   34    38    39    71	 9 ;     CG2R61      CG301      CG331       HGA3
   40    38    39    69	 9 ;      CG331      CG301      CG331       HGA3
   40    38    39    70	 9 ;      CG331      CG301      CG331       HGA3
   40    38    39    71	 9 ;      CG331      CG301      CG331       HGA3
   39    38    41    75	 9 ;      CG331      CG301      CG331       HGA3
   39    38    41    76	 9 ;      CG331      CG301      CG331       HGA3
   39    38    41    77	 9 ;      CG331      CG301      CG331       HGA3
   34    38    41    75	 9 ;     CG2R61      CG301      CG331       HGA3
   34    38    41    76	 9 ;     CG2R61      CG301      CG331       HGA3
   34    38    41    77	 9 ;     CG2R61      CG301      CG331       HGA3
   40    38    41    75	 9 ;      CG331      CG301      CG331       HGA3
   40    38    41    76	 9 ;      CG331      CG301      CG331       HGA3
   40    38    41    77	 9 ;      CG331      CG301      CG331       HGA3
   39    38    40    72	 9 ;      CG331      CG301      CG331       HGA3
   39    38    40    73	 9 ;      CG331      CG301      CG331       HGA3
   39    38    40    74	 9 ;      CG331      CG301      CG331       HGA3
   41    38    40    72	 9 ;      CG331      CG301      CG331       HGA3
   41    38    40    73	 9 ;      CG331      CG301      CG331       HGA3
   41    38    40    74	 9 ;      CG331      CG301      CG331       HGA3
   34    38    40    72	 9 ;     CG2R61      CG301      CG331       HGA3
   34    38    40    73	 9 ;     CG2R61      CG301      CG331       HGA3
   34    38    40    74	 9 ;     CG2R61      CG301      CG331       HGA3

[ dihedrals ]
;	ai	  aj	ak	  al funct			  c0			c1			  c2			c3
   17    19    16    18	 2
   29    31    27    30	 2

