Great Red Owns Many ACres of Sand 
   77
    1LIG     N1    1  -1.530   0.395  -1.555
    1LIG     H1    2  -1.539   0.414  -1.455
    1LIG     H2    3  -1.538   0.292  -1.559
    1LIG     C1    4  -1.658   0.453  -1.612
    1LIG     C2    5  -1.794   0.446  -1.534
    1LIG     C3    6  -1.796   0.509  -1.391
    1LIG     C4    7  -1.758   0.409  -1.275
    1LIG     C5    8  -1.879   0.331  -1.225
    1LIG     C6    9  -1.880   0.191  -1.228
    1LIG     C7   10  -1.996   0.119  -1.201
    1LIG     F1   11  -1.995  -0.014  -1.212
    1LIG     C8   12  -2.114   0.184  -1.168
    1LIG     C9   13  -2.112   0.322  -1.155
    1LIG    C10   14  -1.996   0.395  -1.181
    1LIG     F2   15  -2.224   0.387  -1.120
    1LIG     N2   16  -1.712   0.630  -1.382
    1LIG    C11   17  -1.758   0.751  -1.430
    1LIG     O1   18  -1.877   0.774  -1.449
    1LIG    C12   19  -1.650   0.852  -1.459
    1LIG     H3   20  -1.613   0.613  -1.392
    1LIG     O2   21  -1.900   0.497  -1.616
    1LIG     H4   22  -1.970   0.427  -1.621
    1LIG    C13   23  -1.380   0.439  -1.588
    1LIG    C14   24  -1.357   0.410  -1.740
    1LIG    C15   25  -1.252   0.497  -1.814
    1LIG    C16   26  -1.264   0.645  -1.783
    1LIG     N3   27  -1.265   0.662  -1.639
    1LIG    C17   28  -1.376   0.597  -1.568
    1LIG    C18   29  -1.161   0.718  -1.565
    1LIG     O3   30  -1.166   0.727  -1.442
    1LIG    C19   31  -1.037   0.765  -1.639
    1LIG    C20   32  -1.279   0.379  -1.489
    1LIG    C21   33  -1.224   0.252  -1.513
    1LIG    C22   34  -1.143   0.181  -1.423
    1LIG    C23   35  -1.117   0.242  -1.300
    1LIG    C24   36  -1.169   0.367  -1.271
    1LIG    C25   37  -1.249   0.435  -1.364
    1LIG    C26   38  -1.078   0.048  -1.465
    1LIG    C27   39  -0.959   0.086  -1.555
    1LIG    C28   40  -1.027  -0.036  -1.346
    1LIG    C29   41  -1.171  -0.045  -1.547
    1LIG    HC2   42  -1.676   0.403  -1.708
    1LIG    HC3   43  -1.639   0.558  -1.635
    1LIG     HC   44  -1.815   0.340  -1.520
    1LIG    HC1   45  -1.898   0.541  -1.372
    1LIG    HC4   46  -1.715   0.465  -1.192
    1LIG    HC5   47  -1.683   0.338  -1.312
    1LIG    HC6   48  -1.789   0.139  -1.252
    1LIG    HC7   49  -2.205   0.129  -1.152
    1LIG    HC8   50  -1.996   0.502  -1.167
    1LIG    HC9   51  -1.695   0.944  -1.497
    1LIG   HC10   52  -1.582   0.811  -1.534
    1LIG   HC11   53  -1.595   0.873  -1.368
    1LIG   HC12   54  -1.326   0.306  -1.750
    1LIG   HC13   55  -1.452   0.422  -1.792
    1LIG   HC14   56  -1.265   0.483  -1.922
    1LIG   HC15   57  -1.152   0.463  -1.786
    1LIG   HC16   58  -1.179   0.699  -1.826
    1LIG   HC17   59  -1.357   0.684  -1.825
    1LIG   HC18   60  -1.367   0.618  -1.462
    1LIG   HC19   61  -1.470   0.639  -1.604
    1LIG   HC20   62  -0.965   0.805  -1.569
    1LIG   HC21   63  -0.993   0.680  -1.692
    1LIG   HC22   64  -1.065   0.841  -1.711
    1LIG   HC23   65  -1.245   0.205  -1.609
    1LIG   HC24   66  -1.055   0.191  -1.227
    1LIG   HC25   67  -1.149   0.413  -1.175
    1LIG   HC26   68  -1.288   0.533  -1.339
    1LIG   HC27   69  -0.891   0.151  -1.500
    1LIG   HC28   70  -0.906  -0.005  -1.585
    1LIG   HC29   71  -0.996   0.138  -1.643
    1LIG   HC30   72  -0.960   0.025  -1.285
    1LIG   HC31   73  -0.973  -0.123  -1.384
    1LIG   HC32   74  -1.111  -0.069  -1.286
    1LIG   HC33   75  -1.210   0.010  -1.633
    1LIG   HC34   76  -1.254  -0.077  -1.484
    1LIG   HC35   77  -1.115  -0.131  -1.582
   0.00000   0.00000   0.00000
