GROup of MAchos and Cynical Suckers
   69
    1LIG     C1    1  -1.555   0.387  -1.456
    1LIG     C2    2  -1.470   0.276  -1.524
    1LIG     O1    3  -1.512   0.276  -1.662
    1LIG     H1    4  -1.517   0.185  -1.696
    1LIG     C3    5  -1.317   0.292  -1.504
    1LIG     N1    6  -1.291   0.343  -1.369
    1LIG     C4    7  -1.195   0.440  -1.345
    1LIG     O2    8  -1.137   0.499  -1.434
    1LIG     C5    9  -1.178   0.473  -1.199
    1LIG     H2   10  -1.322   0.289  -1.289
    1LIG     C6   11  -1.243   0.157  -1.524
    1LIG     C7   12  -1.229   0.070  -1.401
    1LIG     C8   13  -1.331  -0.018  -1.364
    1LIG     C9   14  -1.319  -0.097  -1.249
    1LIG     F1   15  -1.419  -0.180  -1.216
    1LIG    C10   16  -1.204  -0.092  -1.171
    1LIG    C11   17  -1.102  -0.007  -1.209
    1LIG    C12   18  -1.113   0.074  -1.323
    1LIG     F2   19  -0.990  -0.001  -1.135
    1LIG     N2   20  -1.679   0.405  -1.541
    1LIG     H3   21  -1.646   0.455  -1.625
    1LIG     H4   22  -1.707   0.313  -1.578
    1LIG    C13   23  -1.808   0.471  -1.493
    1LIG    C14   24  -1.798   0.498  -1.341
    1LIG    C15   25  -1.929   0.553  -1.284
    1LIG    C16   26  -2.046   0.457  -1.308
    1LIG    C17   27  -2.059   0.416  -1.454
    1LIG    C18   28  -1.925   0.371  -1.515
    1LIG    C19   29  -1.820   0.603  -1.574
    1LIG    C20   30  -1.715   0.699  -1.569
    1LIG    C21   31  -1.713   0.814  -1.650
    1LIG    C22   32  -1.825   0.838  -1.730
    1LIG    C23   33  -1.931   0.747  -1.736
    1LIG    C24   34  -1.926   0.629  -1.661
    1LIG     N3   35  -1.603   0.899  -1.653
    1LIG    C25   36  -1.618   1.043  -1.664
    1LIG    C26   37  -1.466   0.849  -1.643
    1LIG    HC2   38  -1.583   0.356  -1.355
    1LIG    HC3   39  -1.499   0.480  -1.452
    1LIG     HC   40  -1.500   0.180  -1.481
    1LIG    HC1   41  -1.279   0.364  -1.577
    1LIG    HC4   42  -1.297   0.100  -1.599
    1LIG    HC5   43  -1.143   0.178  -1.563
    1LIG    HC6   44  -1.421  -0.025  -1.424
    1LIG    HC7   45  -1.196  -0.153  -1.082
    1LIG    HC8   46  -1.031   0.139  -1.350
    1LIG    HC9   47  -1.719   0.571  -1.323
    1LIG   HC10   48  -1.773   0.405  -1.289
    1LIG   HC11   49  -1.952   0.648  -1.333
    1LIG   HC12   50  -1.918   0.570  -1.177
    1LIG   HC13   51  -2.030   0.367  -1.247
    1LIG   HC14   52  -2.138   0.505  -1.276
    1LIG   HC15   53  -2.096   0.501  -1.510
    1LIG   HC16   54  -2.130   0.334  -1.461
    1LIG   HC17   55  -1.939   0.357  -1.622
    1LIG   HC18   56  -1.897   0.275  -1.471
    1LIG   HC19   57  -1.634   0.683  -1.499
    1LIG   HC20   58  -1.829   0.928  -1.789
    1LIG   HC21   59  -2.016   0.768  -1.798
    1LIG   HC22   60  -2.006   0.557  -1.672
    1LIG   HC23   61  -1.468   0.740  -1.636
    1LIG   HC24   62  -1.418   0.890  -1.555
    1LIG   HC25   63  -1.410   0.878  -1.732
    1LIG   HC26   64  -1.724   1.069  -1.670
    1LIG   HC27   65  -1.567   1.079  -1.753
    1LIG   HC28   66  -1.575   1.091  -1.576
    1LIG   HC29   67  -1.102   0.549  -1.187
    1LIG   HC30   68  -1.273   0.510  -1.159
    1LIG   HC31   69  -1.149   0.383  -1.145
   0.00000   0.00000   0.00000
