; Created by cgenff_charmm2gmx.py

[ moleculetype ]
; Name			   nrexcl
LIG				 3

[ atoms ]
;	 nr		  type	resnr residue  atom   cgnr	   charge		mass  typeB    chargeB		massB
; residue	 1 LIG rtp LIG q	qsum
     1      CG324      1    LIG     C1      1      0.208     12.011   ;
     2      CG311      1    LIG     C2      2      0.089     12.011   ;
     3      OG311      1    LIG     O1      3     -0.625     15.999   ;
     4       HGP1      1    LIG     H1      4      0.415      1.008   ;
     5      CG311      1    LIG     C3      5     -0.007     12.011   ;
     6      NG2S1      1    LIG     N1      6     -0.339     14.007   ;
     7      CG2O1      1    LIG     C4      7      0.488     12.011   ;
     8      OG2D1      1    LIG     O2      8     -0.509     15.999   ;
     9      CG331      1    LIG     C5      9     -0.270     12.011   ;
    10       HGP1      1    LIG     H2     10      0.261      1.008   ;
    11      CG321      1    LIG     C6     11     -0.153     12.011   ;
    12     CG2R61      1    LIG     C7     12      0.057     12.011   ;
    13     CG2R61      1    LIG     C8     13     -0.218     12.011   ;
    14     CG2R66      1    LIG     C9     14      0.261     12.011   ;
    15       FGR1      1    LIG     F1     15     -0.210     18.998   ;
    16     CG2R61      1    LIG    C10     16     -0.240     12.011   ;
    17     CG2R66      1    LIG    C11     17      0.261     12.011   ;
    18     CG2R61      1    LIG    C12     18     -0.218     12.011   ;
    19       FGR1      1    LIG     F2     19     -0.210     18.998   ;
    20      NG3P2      1    LIG     N2     20     -0.450     14.007   ;
    21       HGP2      1    LIG     H3     21      0.341      1.008   ;
    22       HGP2      1    LIG     H4     22      0.341      1.008   ;
    23      CG301      1    LIG    C13     23      0.295     12.011   ;
    24      CG321      1    LIG    C14     24     -0.147     12.011   ;
    25      CG321      1    LIG    C15     25     -0.202     12.011   ;
    26      CG321      1    LIG    C16     26     -0.176     12.011   ;
    27      CG321      1    LIG    C17     27     -0.202     12.011   ;
    28      CG321      1    LIG    C18     28     -0.147     12.011   ;
    29     CG2R61      1    LIG    C19     29      0.086     12.011   ;
    30     CG2R61      1    LIG    C20     30     -0.133     12.011   ;
    31     CG2R61      1    LIG    C21     31      0.129     12.011   ;
    32     CG2R61      1    LIG    C22     32     -0.120     12.011   ;
    33     CG2R61      1    LIG    C23     33     -0.109     12.011   ;
    34     CG2R61      1    LIG    C24     34     -0.129     12.011   ;
    35      NG301      1    LIG     N3     35     -0.482     14.007   ;
    36      CG331      1    LIG    C25     36     -0.092     12.011   ;
    37      CG331      1    LIG    C26     37     -0.092     12.011   ;
    38       HGA2      1    LIG    HC2     38      0.090      1.008   ;
    39       HGA2      1    LIG    HC3     39      0.090      1.008   ;
    40       HGA1      1    LIG     HC     40      0.090      1.008   ;
    41       HGA1      1    LIG    HC1     41      0.090      1.008   ;
    42       HGA2      1    LIG    HC4     42      0.090      1.008   ;
    43       HGA2      1    LIG    HC5     43      0.090      1.008   ;
    44      HGR62      1    LIG    HC6     44      0.174      1.008   ;
    45      HGR62      1    LIG    HC7     45      0.186      1.008   ;
    46      HGR62      1    LIG    HC8     46      0.174      1.008   ;
    47       HGA2      1    LIG    HC9     47      0.090      1.008   ;
    48       HGA2      1    LIG   HC10     48      0.090      1.008   ;
    49       HGA2      1    LIG   HC11     49      0.090      1.008   ;
    50       HGA2      1    LIG   HC12     50      0.090      1.008   ;
    51       HGA2      1    LIG   HC13     51      0.090      1.008   ;
    52       HGA2      1    LIG   HC14     52      0.090      1.008   ;
    53       HGA2      1    LIG   HC15     53      0.090      1.008   ;
    54       HGA2      1    LIG   HC16     54      0.090      1.008   ;
    55       HGA2      1    LIG   HC17     55      0.090      1.008   ;
    56       HGA2      1    LIG   HC18     56      0.090      1.008   ;
    57      HGR61      1    LIG   HC19     57      0.116      1.008   ;
    58      HGR61      1    LIG   HC20     58      0.116      1.008   ;
    59      HGR61      1    LIG   HC21     59      0.116      1.008   ;
    60      HGR61      1    LIG   HC22     60      0.116      1.008   ;
    61       HGA3      1    LIG   HC23     61      0.090      1.008   ;
    62       HGA3      1    LIG   HC24     62      0.090      1.008   ;
    63       HGA3      1    LIG   HC25     63      0.090      1.008   ;
    64       HGA3      1    LIG   HC26     64      0.090      1.008   ;
    65       HGA3      1    LIG   HC27     65      0.090      1.008   ;
    66       HGA3      1    LIG   HC28     66      0.090      1.008   ;
    67       HGA3      1    LIG   HC29     67      0.090      1.008   ;
    68       HGA3      1    LIG   HC30     68      0.090      1.008   ;
    69       HGA3      1    LIG   HC31     69      0.090      1.008   ;

[ bonds ]
;	ai	  aj funct			  c0			c1			  c2			c3
    1     2	 1 ;       CG324      CG311
    1    20	 1 ;       CG324      NG3P2
    1    38	 1 ;       CG324       HGA2
    1    39	 1 ;       CG324       HGA2
    2     5	 1 ;       CG311      CG311
    2     3	 1 ;       CG311      OG311
    2    40	 1 ;       CG311       HGA1
    3     4	 1 ;       OG311       HGP1
    5    11	 1 ;       CG311      CG321
    5     6	 1 ;       CG311      NG2S1
    5    41	 1 ;       CG311       HGA1
    6     7	 1 ;       NG2S1      CG2O1
    6    10	 1 ;       NG2S1       HGP1
    7     8	 1 ;       CG2O1      OG2D1
    7     9	 1 ;       CG2O1      CG331
    9    67	 1 ;       CG331       HGA3
    9    68	 1 ;       CG331       HGA3
    9    69	 1 ;       CG331       HGA3
   11    12	 1 ;       CG321     CG2R61
   11    42	 1 ;       CG321       HGA2
   11    43	 1 ;       CG321       HGA2
   12    18	 1 ;      CG2R61     CG2R61
   12    13	 1 ;      CG2R61     CG2R61
   13    14	 1 ;      CG2R61     CG2R66
   13    44	 1 ;      CG2R61      HGR62
   14    16	 1 ;      CG2R66     CG2R61
   14    15	 1 ;      CG2R66       FGR1
   16    17	 1 ;      CG2R61     CG2R66
   16    45	 1 ;      CG2R61      HGR62
   17    18	 1 ;      CG2R66     CG2R61
   17    19	 1 ;      CG2R66       FGR1
   18    46	 1 ;      CG2R61      HGR62
   20    21	 1 ;       NG3P2       HGP2
   20    22	 1 ;       NG3P2       HGP2
   20    23	 1 ;       NG3P2      CG301
   23    29	 1 ;       CG301     CG2R61
   23    28	 1 ;       CG301      CG321
   23    24	 1 ;       CG301      CG321
   24    25	 1 ;       CG321      CG321
   24    47	 1 ;       CG321       HGA2
   24    48	 1 ;       CG321       HGA2
   25    26	 1 ;       CG321      CG321
   25    49	 1 ;       CG321       HGA2
   25    50	 1 ;       CG321       HGA2
   26    27	 1 ;       CG321      CG321
   26    51	 1 ;       CG321       HGA2
   26    52	 1 ;       CG321       HGA2
   27    28	 1 ;       CG321      CG321
   27    53	 1 ;       CG321       HGA2
   27    54	 1 ;       CG321       HGA2
   28    55	 1 ;       CG321       HGA2
   28    56	 1 ;       CG321       HGA2
   29    30	 1 ;      CG2R61     CG2R61
   29    34	 1 ;      CG2R61     CG2R61
   30    31	 1 ;      CG2R61     CG2R61
   30    57	 1 ;      CG2R61      HGR61
   31    35	 1 ;      CG2R61      NG301
   31    32	 1 ;      CG2R61     CG2R61
   32    33	 1 ;      CG2R61     CG2R61
   32    58	 1 ;      CG2R61      HGR61
   33    34	 1 ;      CG2R61     CG2R61
   33    59	 1 ;      CG2R61      HGR61
   34    60	 1 ;      CG2R61      HGR61
   35    37	 1 ;       NG301      CG331
   35    36	 1 ;       NG301      CG331
   36    64	 1 ;       CG331       HGA3
   36    65	 1 ;       CG331       HGA3
   36    66	 1 ;       CG331       HGA3
   37    61	 1 ;       CG331       HGA3
   37    62	 1 ;       CG331       HGA3
   37    63	 1 ;       CG331       HGA3

[ pairs ]
;	ai	  aj funct			  c0			c1			  c2			c3
    1    11	 1
    1     6	 1
    1    41	 1
    1     4	 1
    1    29	 1
    1    28	 1
    1    24	 1
    2    21	 1
    2    22	 1
    2    23	 1
    2    12	 1
    2    42	 1
    2    43	 1
    2     7	 1
    2    10	 1
    3    20	 1
    3    38	 1
    3    39	 1
    3    11	 1
    3     6	 1
    3    41	 1
    4     5	 1
    4    40	 1
    5    20	 1
    5    38	 1
    5    39	 1
    5     8	 1
    5     9	 1
    5    18	 1
    5    13	 1
    6    40	 1
    6    12	 1
    6    42	 1
    6    43	 1
    6    67	 1
    6    68	 1
    6    69	 1
    7    11	 1
    7    41	 1
    8    10	 1
    8    67	 1
    8    68	 1
    8    69	 1
    9    10	 1
   10    11	 1
   10    41	 1
   11    40	 1
   11    17	 1
   11    46	 1
   11    14	 1
   11    44	 1
   12    41	 1
   12    16	 1
   12    15	 1
   12    19	 1
   13    42	 1
   13    43	 1
   13    17	 1
   13    46	 1
   13    45	 1
   14    18	 1
   14    19	 1
   15    44	 1
   15    17	 1
   15    45	 1
   16    44	 1
   16    46	 1
   18    42	 1
   18    43	 1
   18    44	 1
   18    45	 1
   19    45	 1
   19    46	 1
   20    40	 1
   20    30	 1
   20    34	 1
   20    27	 1
   20    55	 1
   20    56	 1
   20    25	 1
   20    47	 1
   20    48	 1
   21    38	 1
   21    39	 1
   21    29	 1
   21    28	 1
   21    24	 1
   22    38	 1
   22    39	 1
   22    29	 1
   22    28	 1
   22    24	 1
   23    38	 1
   23    39	 1
   23    26	 1
   23    49	 1
   23    50	 1
   23    53	 1
   23    54	 1
   23    31	 1
   23    57	 1
   23    33	 1
   23    60	 1
   24    30	 1
   24    34	 1
   24    27	 1
   24    55	 1
   24    56	 1
   24    51	 1
   24    52	 1
   25    29	 1
   25    28	 1
   25    53	 1
   25    54	 1
   26    47	 1
   26    48	 1
   26    55	 1
   26    56	 1
   27    29	 1
   27    49	 1
   27    50	 1
   28    30	 1
   28    34	 1
   28    47	 1
   28    48	 1
   28    51	 1
   28    52	 1
   29    55	 1
   29    56	 1
   29    47	 1
   29    48	 1
   29    35	 1
   29    32	 1
   29    59	 1
   30    33	 1
   30    60	 1
   30    37	 1
   30    36	 1
   30    58	 1
   31    34	 1
   31    59	 1
   31    61	 1
   31    62	 1
   31    63	 1
   31    64	 1
   31    65	 1
   31    66	 1
   32    57	 1
   32    37	 1
   32    36	 1
   32    60	 1
   33    35	 1
   34    57	 1
   34    58	 1
   35    57	 1
   35    58	 1
   36    61	 1
   36    62	 1
   36    63	 1
   37    64	 1
   37    65	 1
   37    66	 1
   38    40	 1
   39    40	 1
   40    41	 1
   41    42	 1
   41    43	 1
   47    49	 1
   47    50	 1
   48    49	 1
   48    50	 1
   49    51	 1
   49    52	 1
   50    51	 1
   50    52	 1
   51    53	 1
   51    54	 1
   52    53	 1
   52    54	 1
   53    55	 1
   53    56	 1
   54    55	 1
   54    56	 1
   58    59	 1
   59    60	 1

[ angles ]
;	ai	  aj	ak funct			c0			  c1			c2			  c3
    2     1    20	5 ;      CG311      CG324      NG3P2
    2     1    38	5 ;      CG311      CG324       HGA2
    2     1    39	5 ;      CG311      CG324       HGA2
   20     1    38	5 ;      NG3P2      CG324       HGA2
   20     1    39	5 ;      NG3P2      CG324       HGA2
   38     1    39	5 ;       HGA2      CG324       HGA2
    5     2     3	5 ;      CG311      CG311      OG311
    5     2     1	5 ;      CG311      CG311      CG324
    5     2    40	5 ;      CG311      CG311       HGA1
    3     2     1	5 ;      OG311      CG311      CG324
    3     2    40	5 ;      OG311      CG311       HGA1
    1     2    40	5 ;      CG324      CG311       HGA1
    4     3     2	5 ;       HGP1      OG311      CG311
   11     5     6	5 ;      CG321      CG311      NG2S1
   11     5     2	5 ;      CG321      CG311      CG311
   11     5    41	5 ;      CG321      CG311       HGA1
    6     5     2	5 ;      NG2S1      CG311      CG311
    6     5    41	5 ;      NG2S1      CG311       HGA1
    2     5    41	5 ;      CG311      CG311       HGA1
    5     6     7	5 ;      CG311      NG2S1      CG2O1
    5     6    10	5 ;      CG311      NG2S1       HGP1
    7     6    10	5 ;      CG2O1      NG2S1       HGP1
    8     7     6	5 ;      OG2D1      CG2O1      NG2S1
    8     7     9	5 ;      OG2D1      CG2O1      CG331
    6     7     9	5 ;      NG2S1      CG2O1      CG331
    7     9    67	5 ;      CG2O1      CG331       HGA3
    7     9    68	5 ;      CG2O1      CG331       HGA3
    7     9    69	5 ;      CG2O1      CG331       HGA3
   67     9    68	5 ;       HGA3      CG331       HGA3
   67     9    69	5 ;       HGA3      CG331       HGA3
   68     9    69	5 ;       HGA3      CG331       HGA3
   12    11     5	5 ;     CG2R61      CG321      CG311
   12    11    42	5 ;     CG2R61      CG321       HGA2
   12    11    43	5 ;     CG2R61      CG321       HGA2
    5    11    42	5 ;      CG311      CG321       HGA2
    5    11    43	5 ;      CG311      CG321       HGA2
   42    11    43	5 ;       HGA2      CG321       HGA2
   11    12    18	5 ;      CG321     CG2R61     CG2R61
   11    12    13	5 ;      CG321     CG2R61     CG2R61
   18    12    13	5 ;     CG2R61     CG2R61     CG2R61
   12    13    14	5 ;     CG2R61     CG2R61     CG2R66
   12    13    44	5 ;     CG2R61     CG2R61      HGR62
   14    13    44	5 ;     CG2R66     CG2R61      HGR62
   13    14    16	5 ;     CG2R61     CG2R66     CG2R61
   13    14    15	5 ;     CG2R61     CG2R66       FGR1
   16    14    15	5 ;     CG2R61     CG2R66       FGR1
   17    16    14	5 ;     CG2R66     CG2R61     CG2R66
   17    16    45	5 ;     CG2R66     CG2R61      HGR62
   14    16    45	5 ;     CG2R66     CG2R61      HGR62
   18    17    19	5 ;     CG2R61     CG2R66       FGR1
   18    17    16	5 ;     CG2R61     CG2R66     CG2R61
   19    17    16	5 ;       FGR1     CG2R66     CG2R61
   12    18    17	5 ;     CG2R61     CG2R61     CG2R66
   12    18    46	5 ;     CG2R61     CG2R61      HGR62
   17    18    46	5 ;     CG2R66     CG2R61      HGR62
   21    20     1	5 ;       HGP2      NG3P2      CG324
   21    20    22	5 ;       HGP2      NG3P2       HGP2
   21    20    23	5 ;       HGP2      NG3P2      CG301
    1    20    22	5 ;      CG324      NG3P2       HGP2
    1    20    23	5 ;      CG324      NG3P2      CG301
   22    20    23	5 ;       HGP2      NG3P2      CG301
   20    23    29	5 ;      NG3P2      CG301     CG2R61
   20    23    28	5 ;      NG3P2      CG301      CG321
   20    23    24	5 ;      NG3P2      CG301      CG321
   29    23    28	5 ;     CG2R61      CG301      CG321
   29    23    24	5 ;     CG2R61      CG301      CG321
   28    23    24	5 ;      CG321      CG301      CG321
   23    24    25	5 ;      CG301      CG321      CG321
   23    24    47	5 ;      CG301      CG321       HGA2
   23    24    48	5 ;      CG301      CG321       HGA2
   25    24    47	5 ;      CG321      CG321       HGA2
   25    24    48	5 ;      CG321      CG321       HGA2
   47    24    48	5 ;       HGA2      CG321       HGA2
   24    25    26	5 ;      CG321      CG321      CG321
   24    25    49	5 ;      CG321      CG321       HGA2
   24    25    50	5 ;      CG321      CG321       HGA2
   26    25    49	5 ;      CG321      CG321       HGA2
   26    25    50	5 ;      CG321      CG321       HGA2
   49    25    50	5 ;       HGA2      CG321       HGA2
   27    26    25	5 ;      CG321      CG321      CG321
   27    26    51	5 ;      CG321      CG321       HGA2
   27    26    52	5 ;      CG321      CG321       HGA2
   25    26    51	5 ;      CG321      CG321       HGA2
   25    26    52	5 ;      CG321      CG321       HGA2
   51    26    52	5 ;       HGA2      CG321       HGA2
   28    27    26	5 ;      CG321      CG321      CG321
   28    27    53	5 ;      CG321      CG321       HGA2
   28    27    54	5 ;      CG321      CG321       HGA2
   26    27    53	5 ;      CG321      CG321       HGA2
   26    27    54	5 ;      CG321      CG321       HGA2
   53    27    54	5 ;       HGA2      CG321       HGA2
   23    28    27	5 ;      CG301      CG321      CG321
   23    28    55	5 ;      CG301      CG321       HGA2
   23    28    56	5 ;      CG301      CG321       HGA2
   27    28    55	5 ;      CG321      CG321       HGA2
   27    28    56	5 ;      CG321      CG321       HGA2
   55    28    56	5 ;       HGA2      CG321       HGA2
   30    29    23	5 ;     CG2R61     CG2R61      CG301
   30    29    34	5 ;     CG2R61     CG2R61     CG2R61
   23    29    34	5 ;      CG301     CG2R61     CG2R61
   31    30    29	5 ;     CG2R61     CG2R61     CG2R61
   31    30    57	5 ;     CG2R61     CG2R61      HGR61
   29    30    57	5 ;     CG2R61     CG2R61      HGR61
   35    31    32	5 ;      NG301     CG2R61     CG2R61
   35    31    30	5 ;      NG301     CG2R61     CG2R61
   32    31    30	5 ;     CG2R61     CG2R61     CG2R61
   31    32    33	5 ;     CG2R61     CG2R61     CG2R61
   31    32    58	5 ;     CG2R61     CG2R61      HGR61
   33    32    58	5 ;     CG2R61     CG2R61      HGR61
   32    33    34	5 ;     CG2R61     CG2R61     CG2R61
   32    33    59	5 ;     CG2R61     CG2R61      HGR61
   34    33    59	5 ;     CG2R61     CG2R61      HGR61
   29    34    33	5 ;     CG2R61     CG2R61     CG2R61
   29    34    60	5 ;     CG2R61     CG2R61      HGR61
   33    34    60	5 ;     CG2R61     CG2R61      HGR61
   37    35    36	5 ;      CG331      NG301      CG331
   37    35    31	5 ;      CG331      NG301     CG2R61
   36    35    31	5 ;      CG331      NG301     CG2R61
   35    36    64	5 ;      NG301      CG331       HGA3
   35    36    65	5 ;      NG301      CG331       HGA3
   35    36    66	5 ;      NG301      CG331       HGA3
   64    36    65	5 ;       HGA3      CG331       HGA3
   64    36    66	5 ;       HGA3      CG331       HGA3
   65    36    66	5 ;       HGA3      CG331       HGA3
   35    37    61	5 ;      NG301      CG331       HGA3
   35    37    62	5 ;      NG301      CG331       HGA3
   35    37    63	5 ;      NG301      CG331       HGA3
   61    37    62	5 ;       HGA3      CG331       HGA3
   61    37    63	5 ;       HGA3      CG331       HGA3
   62    37    63	5 ;       HGA3      CG331       HGA3

[ dihedrals ]
;	ai	  aj	ak	  al funct			  c0			c1			  c2			c3			  c4			c5
   20     1     2     5	 9 ;      NG3P2      CG324      CG311      CG311
   20     1     2     3	 9 ;      NG3P2      CG324      CG311      OG311
   20     1     2    40	 9 ;      NG3P2      CG324      CG311       HGA1
   38     1     2     5	 9 ;       HGA2      CG324      CG311      CG311
   38     1     2     3	 9 ;       HGA2      CG324      CG311      OG311
   38     1     2    40	 9 ;       HGA2      CG324      CG311       HGA1
   39     1     2     5	 9 ;       HGA2      CG324      CG311      CG311
   39     1     2     3	 9 ;       HGA2      CG324      CG311      OG311
   39     1     2    40	 9 ;       HGA2      CG324      CG311       HGA1
    2     1    20    21	 9 ;      CG311      CG324      NG3P2       HGP2
    2     1    20    22	 9 ;      CG311      CG324      NG3P2       HGP2
    2     1    20    23	 9 ;      CG311      CG324      NG3P2      CG301
   38     1    20    21	 9 ;       HGA2      CG324      NG3P2       HGP2
   38     1    20    22	 9 ;       HGA2      CG324      NG3P2       HGP2
   38     1    20    23	 9 ;       HGA2      CG324      NG3P2      CG301
   39     1    20    21	 9 ;       HGA2      CG324      NG3P2       HGP2
   39     1    20    22	 9 ;       HGA2      CG324      NG3P2       HGP2
   39     1    20    23	 9 ;       HGA2      CG324      NG3P2      CG301
    3     2     5    11	 9 ;      OG311      CG311      CG311      CG321
    3     2     5     6	 9 ;      OG311      CG311      CG311      NG2S1
    3     2     5    41	 9 ;      OG311      CG311      CG311       HGA1
    1     2     5    11	 9 ;      CG324      CG311      CG311      CG321
    1     2     5     6	 9 ;      CG324      CG311      CG311      NG2S1
    1     2     5    41	 9 ;      CG324      CG311      CG311       HGA1
   40     2     5    11	 9 ;       HGA1      CG311      CG311      CG321
   40     2     5     6	 9 ;       HGA1      CG311      CG311      NG2S1
   40     2     5    41	 9 ;       HGA1      CG311      CG311       HGA1
    5     2     3     4	 9 ;      CG311      CG311      OG311       HGP1
    1     2     3     4	 9 ;      CG324      CG311      OG311       HGP1
   40     2     3     4	 9 ;       HGA1      CG311      OG311       HGP1
    6     5    11    12	 9 ;      NG2S1      CG311      CG321     CG2R61
    6     5    11    42	 9 ;      NG2S1      CG311      CG321       HGA2
    6     5    11    43	 9 ;      NG2S1      CG311      CG321       HGA2
    2     5    11    12	 9 ;      CG311      CG311      CG321     CG2R61
    2     5    11    42	 9 ;      CG311      CG311      CG321       HGA2
    2     5    11    43	 9 ;      CG311      CG311      CG321       HGA2
   41     5    11    12	 9 ;       HGA1      CG311      CG321     CG2R61
   41     5    11    42	 9 ;       HGA1      CG311      CG321       HGA2
   41     5    11    43	 9 ;       HGA1      CG311      CG321       HGA2
   11     5     6     7	 9 ;      CG321      CG311      NG2S1      CG2O1
   11     5     6    10	 9 ;      CG321      CG311      NG2S1       HGP1
    2     5     6     7	 9 ;      CG311      CG311      NG2S1      CG2O1
    2     5     6    10	 9 ;      CG311      CG311      NG2S1       HGP1
   41     5     6     7	 9 ;       HGA1      CG311      NG2S1      CG2O1
   41     5     6    10	 9 ;       HGA1      CG311      NG2S1       HGP1
    5     6     7     8	 9 ;      CG311      NG2S1      CG2O1      OG2D1
    5     6     7     9	 9 ;      CG311      NG2S1      CG2O1      CG331
   10     6     7     8	 9 ;       HGP1      NG2S1      CG2O1      OG2D1
   10     6     7     9	 9 ;       HGP1      NG2S1      CG2O1      CG331
    8     7     9    67	 9 ;      OG2D1      CG2O1      CG331       HGA3
    8     7     9    68	 9 ;      OG2D1      CG2O1      CG331       HGA3
    8     7     9    69	 9 ;      OG2D1      CG2O1      CG331       HGA3
    6     7     9    67	 9 ;      NG2S1      CG2O1      CG331       HGA3
    6     7     9    68	 9 ;      NG2S1      CG2O1      CG331       HGA3
    6     7     9    69	 9 ;      NG2S1      CG2O1      CG331       HGA3
    5    11    12    18	 9 ;      CG311      CG321     CG2R61     CG2R61
    5    11    12    13	 9 ;      CG311      CG321     CG2R61     CG2R61
   42    11    12    18	 9 ;       HGA2      CG321     CG2R61     CG2R61
   42    11    12    13	 9 ;       HGA2      CG321     CG2R61     CG2R61
   43    11    12    18	 9 ;       HGA2      CG321     CG2R61     CG2R61
   43    11    12    13	 9 ;       HGA2      CG321     CG2R61     CG2R61
   11    12    18    17	 9 ;      CG321     CG2R61     CG2R61     CG2R66
   11    12    18    46	 9 ;      CG321     CG2R61     CG2R61      HGR62
   13    12    18    17	 9 ;     CG2R61     CG2R61     CG2R61     CG2R66
   13    12    18    46	 9 ;     CG2R61     CG2R61     CG2R61      HGR62
   11    12    13    14	 9 ;      CG321     CG2R61     CG2R61     CG2R66
   11    12    13    44	 9 ;      CG321     CG2R61     CG2R61      HGR62
   18    12    13    14	 9 ;     CG2R61     CG2R61     CG2R61     CG2R66
   18    12    13    44	 9 ;     CG2R61     CG2R61     CG2R61      HGR62
   12    13    14    16	 9 ;     CG2R61     CG2R61     CG2R66     CG2R61
   12    13    14    15	 9 ;     CG2R61     CG2R61     CG2R66       FGR1
   44    13    14    16	 9 ;      HGR62     CG2R61     CG2R66     CG2R61
   44    13    14    15	 9 ;      HGR62     CG2R61     CG2R66       FGR1
   13    14    16    17	 9 ;     CG2R61     CG2R66     CG2R61     CG2R66
   13    14    16    45	 9 ;     CG2R61     CG2R66     CG2R61      HGR62
   15    14    16    17	 9 ;       FGR1     CG2R66     CG2R61     CG2R66
   15    14    16    45	 9 ;       FGR1     CG2R66     CG2R61      HGR62
   14    16    17    18	 9 ;     CG2R66     CG2R61     CG2R66     CG2R61
   14    16    17    19	 9 ;     CG2R66     CG2R61     CG2R66       FGR1
   45    16    17    18	 9 ;      HGR62     CG2R61     CG2R66     CG2R61
   45    16    17    19	 9 ;      HGR62     CG2R61     CG2R66       FGR1
   19    17    18    12	 9 ;       FGR1     CG2R66     CG2R61     CG2R61
   19    17    18    46	 9 ;       FGR1     CG2R66     CG2R61      HGR62
   16    17    18    12	 9 ;     CG2R61     CG2R66     CG2R61     CG2R61
   16    17    18    46	 9 ;     CG2R61     CG2R66     CG2R61      HGR62
   21    20    23    29	 9 ;       HGP2      NG3P2      CG301     CG2R61
   21    20    23    28	 9 ;       HGP2      NG3P2      CG301      CG321
   21    20    23    24	 9 ;       HGP2      NG3P2      CG301      CG321
    1    20    23    29	 9 ;      CG324      NG3P2      CG301     CG2R61
    1    20    23    28	 9 ;      CG324      NG3P2      CG301      CG321
    1    20    23    24	 9 ;      CG324      NG3P2      CG301      CG321
   22    20    23    29	 9 ;       HGP2      NG3P2      CG301     CG2R61
   22    20    23    28	 9 ;       HGP2      NG3P2      CG301      CG321
   22    20    23    24	 9 ;       HGP2      NG3P2      CG301      CG321
   20    23    29    30	 9 ;      NG3P2      CG301     CG2R61     CG2R61
   20    23    29    34	 9 ;      NG3P2      CG301     CG2R61     CG2R61
   28    23    29    30	 9 ;      CG321      CG301     CG2R61     CG2R61
   28    23    29    34	 9 ;      CG321      CG301     CG2R61     CG2R61
   24    23    29    30	 9 ;      CG321      CG301     CG2R61     CG2R61
   24    23    29    34	 9 ;      CG321      CG301     CG2R61     CG2R61
   20    23    28    27	 9 ;      NG3P2      CG301      CG321      CG321
   20    23    28    55	 9 ;      NG3P2      CG301      CG321       HGA2
   20    23    28    56	 9 ;      NG3P2      CG301      CG321       HGA2
   29    23    28    27	 9 ;     CG2R61      CG301      CG321      CG321
   29    23    28    55	 9 ;     CG2R61      CG301      CG321       HGA2
   29    23    28    56	 9 ;     CG2R61      CG301      CG321       HGA2
   24    23    28    27	 9 ;      CG321      CG301      CG321      CG321
   24    23    28    55	 9 ;      CG321      CG301      CG321       HGA2
   24    23    28    56	 9 ;      CG321      CG301      CG321       HGA2
   20    23    24    25	 9 ;      NG3P2      CG301      CG321      CG321
   20    23    24    47	 9 ;      NG3P2      CG301      CG321       HGA2
   20    23    24    48	 9 ;      NG3P2      CG301      CG321       HGA2
   29    23    24    25	 9 ;     CG2R61      CG301      CG321      CG321
   29    23    24    47	 9 ;     CG2R61      CG301      CG321       HGA2
   29    23    24    48	 9 ;     CG2R61      CG301      CG321       HGA2
   28    23    24    25	 9 ;      CG321      CG301      CG321      CG321
   28    23    24    47	 9 ;      CG321      CG301      CG321       HGA2
   28    23    24    48	 9 ;      CG321      CG301      CG321       HGA2
   23    24    25    26	 9 ;      CG301      CG321      CG321      CG321
   23    24    25    49	 9 ;      CG301      CG321      CG321       HGA2
   23    24    25    50	 9 ;      CG301      CG321      CG321       HGA2
   47    24    25    26	 9 ;       HGA2      CG321      CG321      CG321
   47    24    25    49	 9 ;       HGA2      CG321      CG321       HGA2
   47    24    25    50	 9 ;       HGA2      CG321      CG321       HGA2
   48    24    25    26	 9 ;       HGA2      CG321      CG321      CG321
   48    24    25    49	 9 ;       HGA2      CG321      CG321       HGA2
   48    24    25    50	 9 ;       HGA2      CG321      CG321       HGA2
   24    25    26    27	 9 ;      CG321      CG321      CG321      CG321
   24    25    26    51	 9 ;      CG321      CG321      CG321       HGA2
   24    25    26    52	 9 ;      CG321      CG321      CG321       HGA2
   49    25    26    27	 9 ;       HGA2      CG321      CG321      CG321
   49    25    26    51	 9 ;       HGA2      CG321      CG321       HGA2
   49    25    26    52	 9 ;       HGA2      CG321      CG321       HGA2
   50    25    26    27	 9 ;       HGA2      CG321      CG321      CG321
   50    25    26    51	 9 ;       HGA2      CG321      CG321       HGA2
   50    25    26    52	 9 ;       HGA2      CG321      CG321       HGA2
   25    26    27    28	 9 ;      CG321      CG321      CG321      CG321
   25    26    27    53	 9 ;      CG321      CG321      CG321       HGA2
   25    26    27    54	 9 ;      CG321      CG321      CG321       HGA2
   51    26    27    28	 9 ;       HGA2      CG321      CG321      CG321
   51    26    27    53	 9 ;       HGA2      CG321      CG321       HGA2
   51    26    27    54	 9 ;       HGA2      CG321      CG321       HGA2
   52    26    27    28	 9 ;       HGA2      CG321      CG321      CG321
   52    26    27    53	 9 ;       HGA2      CG321      CG321       HGA2
   52    26    27    54	 9 ;       HGA2      CG321      CG321       HGA2
   26    27    28    23	 9 ;      CG321      CG321      CG321      CG301
   26    27    28    55	 9 ;      CG321      CG321      CG321       HGA2
   26    27    28    56	 9 ;      CG321      CG321      CG321       HGA2
   53    27    28    23	 9 ;       HGA2      CG321      CG321      CG301
   53    27    28    55	 9 ;       HGA2      CG321      CG321       HGA2
   53    27    28    56	 9 ;       HGA2      CG321      CG321       HGA2
   54    27    28    23	 9 ;       HGA2      CG321      CG321      CG301
   54    27    28    55	 9 ;       HGA2      CG321      CG321       HGA2
   54    27    28    56	 9 ;       HGA2      CG321      CG321       HGA2
   23    29    30    31	 9 ;      CG301     CG2R61     CG2R61     CG2R61
   23    29    30    57	 9 ;      CG301     CG2R61     CG2R61      HGR61
   34    29    30    31	 9 ;     CG2R61     CG2R61     CG2R61     CG2R61
   34    29    30    57	 9 ;     CG2R61     CG2R61     CG2R61      HGR61
   30    29    34    33	 9 ;     CG2R61     CG2R61     CG2R61     CG2R61
   30    29    34    60	 9 ;     CG2R61     CG2R61     CG2R61      HGR61
   23    29    34    33	 9 ;      CG301     CG2R61     CG2R61     CG2R61
   23    29    34    60	 9 ;      CG301     CG2R61     CG2R61      HGR61
   29    30    31    35	 9 ;     CG2R61     CG2R61     CG2R61      NG301
   29    30    31    32	 9 ;     CG2R61     CG2R61     CG2R61     CG2R61
   57    30    31    35	 9 ;      HGR61     CG2R61     CG2R61      NG301
   57    30    31    32	 9 ;      HGR61     CG2R61     CG2R61     CG2R61
   32    31    35    37	 9 ;     CG2R61     CG2R61      NG301      CG331
   32    31    35    36	 9 ;     CG2R61     CG2R61      NG301      CG331
   30    31    35    37	 9 ;     CG2R61     CG2R61      NG301      CG331
   30    31    35    36	 9 ;     CG2R61     CG2R61      NG301      CG331
   35    31    32    33	 9 ;      NG301     CG2R61     CG2R61     CG2R61
   35    31    32    58	 9 ;      NG301     CG2R61     CG2R61      HGR61
   30    31    32    33	 9 ;     CG2R61     CG2R61     CG2R61     CG2R61
   30    31    32    58	 9 ;     CG2R61     CG2R61     CG2R61      HGR61
   31    32    33    34	 9 ;     CG2R61     CG2R61     CG2R61     CG2R61
   31    32    33    59	 9 ;     CG2R61     CG2R61     CG2R61      HGR61
   58    32    33    34	 9 ;      HGR61     CG2R61     CG2R61     CG2R61
   58    32    33    59	 9 ;      HGR61     CG2R61     CG2R61      HGR61
   32    33    34    29	 9 ;     CG2R61     CG2R61     CG2R61     CG2R61
   32    33    34    60	 9 ;     CG2R61     CG2R61     CG2R61      HGR61
   59    33    34    29	 9 ;      HGR61     CG2R61     CG2R61     CG2R61
   59    33    34    60	 9 ;      HGR61     CG2R61     CG2R61      HGR61
   36    35    37    61	 9 ;      CG331      NG301      CG331       HGA3
   36    35    37    62	 9 ;      CG331      NG301      CG331       HGA3
   36    35    37    63	 9 ;      CG331      NG301      CG331       HGA3
   31    35    37    61	 9 ;     CG2R61      NG301      CG331       HGA3
   31    35    37    62	 9 ;     CG2R61      NG301      CG331       HGA3
   31    35    37    63	 9 ;     CG2R61      NG301      CG331       HGA3
   37    35    36    64	 9 ;      CG331      NG301      CG331       HGA3
   37    35    36    65	 9 ;      CG331      NG301      CG331       HGA3
   37    35    36    66	 9 ;      CG331      NG301      CG331       HGA3
   31    35    36    64	 9 ;     CG2R61      NG301      CG331       HGA3
   31    35    36    65	 9 ;     CG2R61      NG301      CG331       HGA3
   31    35    36    66	 9 ;     CG2R61      NG301      CG331       HGA3

[ dihedrals ]
;	ai	  aj	ak	  al funct			  c0			c1			  c2			c3
    7     9     6     8	 2

