Green Red Orange Magenta Azure Cyan Skyblue
   83
    1LIG     C1    1  -1.302   0.519  -1.405
    1LIG     C2    2  -1.201   0.525  -1.524
    1LIG     O1    3  -1.064   0.524  -1.481
    1LIG     H1    4  -1.060   0.494  -1.388
    1LIG     C3    5  -1.216   0.400  -1.614
    1LIG     N1    6  -1.246   0.439  -1.756
    1LIG     H2    7  -1.177   0.400  -1.821
    1LIG     H3    8  -1.334   0.391  -1.783
    1LIG     C4    9  -1.257   0.586  -1.779
    1LIG     C5   10  -1.333   0.617  -1.905
    1LIG     C6   11  -1.292   0.561  -2.028
    1LIG     C7   12  -1.354   0.599  -2.147
    1LIG     C8   13  -1.460   0.689  -2.144
    1LIG     C9   14  -1.505   0.742  -2.023
    1LIG    C10   15  -1.441   0.707  -1.904
    1LIG     O2   16  -1.319   0.557  -2.272
    1LIG    C11   17  -1.395   0.451  -2.330
    1LIG    C12   18  -1.258   0.594  -1.276
    1LIG    C13   19  -1.293   0.532  -1.143
    1LIG    C14   20  -1.214   0.561  -1.031
    1LIG    C15   21  -1.250   0.512  -0.906
    1LIG     F1   22  -1.173   0.541  -0.800
    1LIG    C16   23  -1.364   0.435  -0.889
    1LIG    C17   24  -1.443   0.408  -1.000
    1LIG     F2   25  -1.555   0.335  -0.986
    1LIG    C18   26  -1.408   0.456  -1.126
    1LIG     N2   27  -1.439   0.555  -1.445
    1LIG    C19   28  -1.539   0.464  -1.477
    1LIG     O3   29  -1.533   0.346  -1.444
    1LIG     H4   30  -1.451   0.648  -1.484
    1LIG    C20   31  -1.649   0.520  -1.556
    1LIG    C21   32  -1.743   0.611  -1.512
    1LIG     N3   33  -1.832   0.643  -1.613
    1LIG    C22   34  -1.791   0.576  -1.729
    1LIG    C23   35  -1.931   0.743  -1.592
    1LIG    C24   36  -1.679   0.497  -1.694
    1LIG    C25   37  -1.838   0.580  -1.862
    1LIG    C26   38  -1.616   0.419  -1.794
    1LIG    C27   39  -1.665   0.421  -1.925
    1LIG     CL   40  -1.588   0.323  -2.044
    1LIG    C28   41  -1.774   0.500  -1.959
    1LIG     O4   42  -1.891   0.851  -1.551
    1LIG     N4   43  -2.064   0.699  -1.591
    1LIG    C29   44  -2.109   0.573  -1.649
    1LIG    C30   45  -2.166   0.797  -1.552
    1LIG    C31   46  -2.210   0.796  -1.404
    1LIG    C32   47  -2.306   0.684  -1.365
    1LIG    C33   48  -2.348   0.696  -1.218
    1LIG     HC   49  -1.307   0.414  -1.377
    1LIG    HC1   50  -1.220   0.615  -1.584
    1LIG    HC2   51  -1.123   0.343  -1.612
    1LIG    HC3   52  -1.296   0.338  -1.576
    1LIG    HC4   53  -1.157   0.628  -1.787
    1LIG    HC5   54  -1.309   0.632  -1.694
    1LIG    HC6   55  -1.212   0.488  -2.029
    1LIG    HC7   56  -1.508   0.719  -2.236
    1LIG    HC8   57  -1.589   0.810  -2.021
    1LIG    HC9   58  -1.474   0.749  -1.810
    1LIG   HC10   59  -1.372   0.443  -2.436
    1LIG   HC11   60  -1.370   0.357  -2.280
    1LIG   HC12   61  -1.501   0.472  -2.317
    1LIG   HC13   62  -1.304   0.693  -1.279
    1LIG   HC14   63  -1.150   0.607  -1.280
    1LIG   HC15   64  -1.125   0.621  -1.041
    1LIG   HC16   65  -1.391   0.397  -0.791
    1LIG   HC17   66  -1.472   0.434  -1.211
    1LIG   HC18   67  -1.747   0.652  -1.412
    1LIG   HC19   68  -1.921   0.643  -1.890
    1LIG   HC20   69  -1.530   0.359  -1.769
    1LIG   HC21   70  -1.810   0.500  -2.060
    1LIG   HC22   71  -2.023   0.510  -1.672
    1LIG   HC23   72  -2.166   0.594  -1.740
    1LIG   HC24   73  -2.174   0.521  -1.577
    1LIG   HC25   74  -2.128   0.896  -1.575
    1LIG   HC26   75  -2.255   0.780  -1.614
    1LIG   HC27   76  -2.120   0.786  -1.343
    1LIG   HC28   77  -2.256   0.892  -1.381
    1LIG   HC29   78  -2.258   0.588  -1.381
    1LIG   HC30   79  -2.395   0.690  -1.428
    1LIG   HC31   80  -2.417   0.615  -1.193
    1LIG   HC32   81  -2.259   0.689  -1.155
    1LIG   HC33   82  -2.397   0.791  -1.202
    1LIG    LP1   83  -1.514   0.231  -2.158
   0.00000   0.00000   0.00000
