; Created by cgenff_charmm2gmx.py

[ moleculetype ]
; Name			   nrexcl
LIG				 3

[ atoms ]
;	 nr		  type	resnr residue  atom   cgnr	   charge		mass  typeB    chargeB		massB
; residue	 1 LIG rtp LIG q	qsum
     1      CG311      1    LIG     C1      1      0.008     12.011   ;
     2      CG311      1    LIG     C2      2      0.094     12.011   ;
     3      OG311      1    LIG     O1      3     -0.625     15.999   ;
     4       HGP1      1    LIG     H1      4      0.415      1.008   ;
     5      CG324      1    LIG     C3      5      0.178     12.011   ;
     6      NG3P2      1    LIG     N1      6     -0.444     14.007   ;
     7       HGP2      1    LIG     H2      7      0.348      1.008   ;
     8       HGP2      1    LIG     H3      8      0.348      1.008   ;
     9      CG324      1    LIG     C4      9      0.171     12.011   ;
    10     CG2R61      1    LIG     C5     10      0.036     12.011   ;
    11     CG2R61      1    LIG     C6     11     -0.124     12.011   ;
    12     CG2R61      1    LIG     C7     12      0.216     12.011   ;
    13     CG2R61      1    LIG     C8     13     -0.121     12.011   ;
    14     CG2R61      1    LIG     C9     14     -0.108     12.011   ;
    15     CG2R61      1    LIG    C10     15     -0.119     12.011   ;
    16      OG301      1    LIG     O2     16     -0.383     15.999   ;
    17      CG331      1    LIG    C11     17     -0.094     12.011   ;
    18      CG321      1    LIG    C12     18     -0.153     12.011   ;
    19     CG2R61      1    LIG    C13     19      0.057     12.011   ;
    20     CG2R61      1    LIG    C14     20     -0.218     12.011   ;
    21     CG2R66      1    LIG    C15     21      0.261     12.011   ;
    22       FGR1      1    LIG     F1     22     -0.210     18.998   ;
    23     CG2R61      1    LIG    C16     23     -0.240     12.011   ;
    24     CG2R66      1    LIG    C17     24      0.261     12.011   ;
    25       FGR1      1    LIG     F2     25     -0.210     18.998   ;
    26     CG2R61      1    LIG    C18     26     -0.218     12.011   ;
    27      NG2S1      1    LIG     N2     27     -0.397     14.007   ;
    28      CG2O1      1    LIG    C19     28      0.600     12.011   ;
    29      OG2D1      1    LIG     O3     29     -0.474     15.999   ;
    30       HGP1      1    LIG     H4     30      0.263      1.008   ;
    31     CG2R51      1    LIG    C20     31     -0.756     12.011   ;
    32     CG2R51      1    LIG    C21     32     -0.080     12.011   ;
    33     NG2R51      1    LIG     N3     33     -0.219     14.007   ;
    34     CG2RC0      1    LIG    C22     34      0.294     12.011   ;
    35      CG2O6      1    LIG    C23     35      0.551     12.011   ;
    36     CG2RC0      1    LIG    C24     36      0.573     12.011   ;
    37     CG2R61      1    LIG    C25     37     -0.296     12.011   ;
    38     CG2R61      1    LIG    C26     38     -0.213     12.011   ;
    39     CG2R61      1    LIG    C27     39     -0.026     12.011   ;
    40      CLGR1      1    LIG     CL     40     -0.200     35.453   ;
    41     CG2R61      1    LIG    C28     41     -0.177     12.011   ;
    42      OG2D1      1    LIG     O4     42     -0.508     15.999   ;
    43      NG2S0      1    LIG     N4     43     -0.122     14.007   ;
    44      CG331      1    LIG    C29     44     -0.197     12.011   ;
    45      CG321      1    LIG    C30     45     -0.029     12.011   ;
    46      CG321      1    LIG    C31     46     -0.133     12.011   ;
    47      CG321      1    LIG    C32     47     -0.194     12.011   ;
    48      CG331      1    LIG    C33     48     -0.270     12.011   ;
    49       HGA1      1    LIG     HC     49      0.090      1.008   ;
    50       HGA1      1    LIG    HC1     50      0.090      1.008   ;
    51       HGA2      1    LIG    HC2     51      0.090      1.008   ;
    52       HGA2      1    LIG    HC3     52      0.090      1.008   ;
    53       HGA2      1    LIG    HC4     53      0.090      1.008   ;
    54       HGA2      1    LIG    HC5     54      0.090      1.008   ;
    55      HGR61      1    LIG    HC6     55      0.116      1.008   ;
    56      HGR61      1    LIG    HC7     56      0.116      1.008   ;
    57      HGR61      1    LIG    HC8     57      0.116      1.008   ;
    58      HGR61      1    LIG    HC9     58      0.116      1.008   ;
    59       HGA3      1    LIG   HC10     59      0.090      1.008   ;
    60       HGA3      1    LIG   HC11     60      0.090      1.008   ;
    61       HGA3      1    LIG   HC12     61      0.090      1.008   ;
    62       HGA2      1    LIG   HC13     62      0.090      1.008   ;
    63       HGA2      1    LIG   HC14     63      0.090      1.008   ;
    64      HGR62      1    LIG   HC15     64      0.174      1.008   ;
    65      HGR62      1    LIG   HC16     65      0.186      1.008   ;
    66      HGR62      1    LIG   HC17     66      0.174      1.008   ;
    67      HGR52      1    LIG   HC18     67      0.248      1.008   ;
    68      HGR61      1    LIG   HC19     68      0.184      1.008   ;
    69      HGR62      1    LIG   HC20     69      0.139      1.008   ;
    70      HGR62      1    LIG   HC21     70      0.195      1.008   ;
    71       HGA3      1    LIG   HC22     71      0.090      1.008   ;
    72       HGA3      1    LIG   HC23     72      0.090      1.008   ;
    73       HGA3      1    LIG   HC24     73      0.090      1.008   ;
    74       HGA2      1    LIG   HC25     74      0.090      1.008   ;
    75       HGA2      1    LIG   HC26     75      0.090      1.008   ;
    76       HGA2      1    LIG   HC27     76      0.090      1.008   ;
    77       HGA2      1    LIG   HC28     77      0.090      1.008   ;
    78       HGA2      1    LIG   HC29     78      0.090      1.008   ;
    79       HGA2      1    LIG   HC30     79      0.090      1.008   ;
    80       HGA3      1    LIG   HC31     80      0.090      1.008   ;
    81       HGA3      1    LIG   HC32     81      0.090      1.008   ;
    82       HGA3      1    LIG   HC33     82      0.090      1.008   ;
    83        LPH      1    LIG    LP1     83      0.050      0.000   ;

[ bonds ]
;	ai	  aj funct			  c0			c1			  c2			c3
    1     2	 1 ;       CG311      CG311
    1    18	 1 ;       CG311      CG321
    1    27	 1 ;       CG311      NG2S1
    1    49	 1 ;       CG311       HGA1
    2     3	 1 ;       CG311      OG311
    2     5	 1 ;       CG311      CG324
    2    50	 1 ;       CG311       HGA1
    3     4	 1 ;       OG311       HGP1
    5     6	 1 ;       CG324      NG3P2
    5    51	 1 ;       CG324       HGA2
    5    52	 1 ;       CG324       HGA2
    6     7	 1 ;       NG3P2       HGP2
    6     8	 1 ;       NG3P2       HGP2
    6     9	 1 ;       NG3P2      CG324
    9    10	 1 ;       CG324     CG2R61
    9    53	 1 ;       CG324       HGA2
    9    54	 1 ;       CG324       HGA2
   10    11	 1 ;      CG2R61     CG2R61
   10    15	 1 ;      CG2R61     CG2R61
   11    12	 1 ;      CG2R61     CG2R61
   11    55	 1 ;      CG2R61      HGR61
   12    16	 1 ;      CG2R61      OG301
   12    13	 1 ;      CG2R61     CG2R61
   13    14	 1 ;      CG2R61     CG2R61
   13    56	 1 ;      CG2R61      HGR61
   14    15	 1 ;      CG2R61     CG2R61
   14    57	 1 ;      CG2R61      HGR61
   15    58	 1 ;      CG2R61      HGR61
   16    17	 1 ;       OG301      CG331
   17    59	 1 ;       CG331       HGA3
   17    60	 1 ;       CG331       HGA3
   17    61	 1 ;       CG331       HGA3
   18    19	 1 ;       CG321     CG2R61
   18    62	 1 ;       CG321       HGA2
   18    63	 1 ;       CG321       HGA2
   19    20	 1 ;      CG2R61     CG2R61
   19    26	 1 ;      CG2R61     CG2R61
   20    21	 1 ;      CG2R61     CG2R66
   20    64	 1 ;      CG2R61      HGR62
   21    22	 1 ;      CG2R66       FGR1
   21    23	 1 ;      CG2R66     CG2R61
   23    24	 1 ;      CG2R61     CG2R66
   23    65	 1 ;      CG2R61      HGR62
   24    26	 1 ;      CG2R66     CG2R61
   24    25	 1 ;      CG2R66       FGR1
   26    66	 1 ;      CG2R61      HGR62
   27    28	 1 ;       NG2S1      CG2O1
   27    30	 1 ;       NG2S1       HGP1
   28    29	 1 ;       CG2O1      OG2D1
   28    31	 1 ;       CG2O1     CG2R51
   31    36	 1 ;      CG2R51     CG2RC0
   31    32	 1 ;      CG2R51     CG2R51
   32    33	 1 ;      CG2R51     NG2R51
   32    67	 1 ;      CG2R51      HGR52
   33    34	 1 ;      NG2R51     CG2RC0
   33    35	 1 ;      NG2R51      CG2O6
   34    36	 1 ;      CG2RC0     CG2RC0
   34    37	 1 ;      CG2RC0     CG2R61
   35    42	 1 ;       CG2O6      OG2D1
   35    43	 1 ;       CG2O6      NG2S0
   36    38	 1 ;      CG2RC0     CG2R61
   37    41	 1 ;      CG2R61     CG2R61
   37    68	 1 ;      CG2R61      HGR61
   38    39	 1 ;      CG2R61     CG2R61
   38    69	 1 ;      CG2R61      HGR62
   39    40	 1 ;      CG2R61      CLGR1
   39    41	 1 ;      CG2R61     CG2R61
   41    70	 1 ;      CG2R61      HGR62
   43    44	 1 ;       NG2S0      CG331
   43    45	 1 ;       NG2S0      CG321
   44    71	 1 ;       CG331       HGA3
   44    72	 1 ;       CG331       HGA3
   44    73	 1 ;       CG331       HGA3
   45    46	 1 ;       CG321      CG321
   45    74	 1 ;       CG321       HGA2
   45    75	 1 ;       CG321       HGA2
   46    47	 1 ;       CG321      CG321
   46    76	 1 ;       CG321       HGA2
   46    77	 1 ;       CG321       HGA2
   47    48	 1 ;       CG321      CG331
   47    78	 1 ;       CG321       HGA2
   47    79	 1 ;       CG321       HGA2
   48    80	 1 ;       CG331       HGA3
   48    81	 1 ;       CG331       HGA3
   48    82	 1 ;       CG331       HGA3

[ pairs ]
;	ai	  aj funct			  c0			c1			  c2			c3
    1     4	 1
    1     6	 1
    1    51	 1
    1    52	 1
    1    20	 1
    1    26	 1
    1    29	 1
    1    31	 1
    2    19	 1
    2    62	 1
    2    63	 1
    2    28	 1
    2    30	 1
    2     7	 1
    2     8	 1
    2     9	 1
    3    18	 1
    3    27	 1
    3    49	 1
    3     6	 1
    3    51	 1
    3    52	 1
    4     5	 1
    4    50	 1
    5    18	 1
    5    27	 1
    5    49	 1
    5    10	 1
    5    53	 1
    5    54	 1
    6    50	 1
    6    11	 1
    6    15	 1
    7    51	 1
    7    52	 1
    7    10	 1
    7    53	 1
    7    54	 1
    8    51	 1
    8    52	 1
    8    10	 1
    8    53	 1
    8    54	 1
    9    51	 1
    9    52	 1
    9    12	 1
    9    55	 1
    9    14	 1
    9    58	 1
   10    16	 1
   10    13	 1
   10    57	 1
   11    53	 1
   11    54	 1
   11    14	 1
   11    58	 1
   11    17	 1
   11    56	 1
   12    15	 1
   12    57	 1
   12    59	 1
   12    60	 1
   12    61	 1
   13    55	 1
   13    17	 1
   13    58	 1
   14    16	 1
   15    53	 1
   15    54	 1
   15    55	 1
   15    56	 1
   16    55	 1
   16    56	 1
   18    50	 1
   18    28	 1
   18    30	 1
   18    21	 1
   18    64	 1
   18    24	 1
   18    66	 1
   19    27	 1
   19    49	 1
   19    22	 1
   19    23	 1
   19    25	 1
   20    62	 1
   20    63	 1
   20    24	 1
   20    66	 1
   20    65	 1
   21    26	 1
   21    25	 1
   22    64	 1
   22    24	 1
   22    65	 1
   23    64	 1
   23    66	 1
   25    65	 1
   25    66	 1
   26    62	 1
   26    63	 1
   26    64	 1
   26    65	 1
   27    50	 1
   27    62	 1
   27    63	 1
   27    36	 1
   27    32	 1
   28    49	 1
   28    38	 1
   28    34	 1
   28    33	 1
   28    67	 1
   29    30	 1
   29    36	 1
   29    32	 1
   30    49	 1
   30    31	 1
   31    35	 1
   31    37	 1
   31    39	 1
   31    69	 1
   32    38	 1
   32    37	 1
   32    42	 1
   32    43	 1
   33    38	 1
   33    41	 1
   33    68	 1
   33    44	 1
   33    45	 1
   34    67	 1
   34    42	 1
   34    43	 1
   34    39	 1
   34    69	 1
   34    70	 1
   35    67	 1
   35    36	 1
   35    37	 1
   35    71	 1
   35    72	 1
   35    73	 1
   35    46	 1
   35    74	 1
   35    75	 1
   36    67	 1
   36    41	 1
   36    68	 1
   36    40	 1
   83    36	 1
   37    38	 1
   37    40	 1
   83    37	 1
   38    70	 1
   39    68	 1
   40    69	 1
   83    69	 1
   40    70	 1
   83    70	 1
   41    69	 1
   42    44	 1
   42    45	 1
   43    47	 1
   43    76	 1
   43    77	 1
   44    46	 1
   44    74	 1
   44    75	 1
   45    71	 1
   45    72	 1
   45    73	 1
   45    48	 1
   45    78	 1
   45    79	 1
   46    80	 1
   46    81	 1
   46    82	 1
   47    74	 1
   47    75	 1
   48    76	 1
   48    77	 1
   49    50	 1
   49    62	 1
   49    63	 1
   50    51	 1
   50    52	 1
   56    57	 1
   57    58	 1
   68    70	 1
   74    76	 1
   74    77	 1
   75    76	 1
   75    77	 1
   76    78	 1
   76    79	 1
   77    78	 1
   77    79	 1
   78    80	 1
   78    81	 1
   78    82	 1
   79    80	 1
   79    81	 1
   79    82	 1

[ angles ]
;	ai	  aj	ak funct			c0			  c1			c2			  c3
    2     1    18	5 ;      CG311      CG311      CG321
    2     1    27	5 ;      CG311      CG311      NG2S1
    2     1    49	5 ;      CG311      CG311       HGA1
   18     1    27	5 ;      CG321      CG311      NG2S1
   18     1    49	5 ;      CG321      CG311       HGA1
   27     1    49	5 ;      NG2S1      CG311       HGA1
    3     2     5	5 ;      OG311      CG311      CG324
    3     2     1	5 ;      OG311      CG311      CG311
    3     2    50	5 ;      OG311      CG311       HGA1
    5     2     1	5 ;      CG324      CG311      CG311
    5     2    50	5 ;      CG324      CG311       HGA1
    1     2    50	5 ;      CG311      CG311       HGA1
    4     3     2	5 ;       HGP1      OG311      CG311
    6     5     2	5 ;      NG3P2      CG324      CG311
    6     5    51	5 ;      NG3P2      CG324       HGA2
    6     5    52	5 ;      NG3P2      CG324       HGA2
    2     5    51	5 ;      CG311      CG324       HGA2
    2     5    52	5 ;      CG311      CG324       HGA2
   51     5    52	5 ;       HGA2      CG324       HGA2
    7     6     5	5 ;       HGP2      NG3P2      CG324
    7     6     8	5 ;       HGP2      NG3P2       HGP2
    7     6     9	5 ;       HGP2      NG3P2      CG324
    5     6     8	5 ;      CG324      NG3P2       HGP2
    5     6     9	5 ;      CG324      NG3P2      CG324
    8     6     9	5 ;       HGP2      NG3P2      CG324
    6     9    10	5 ;      NG3P2      CG324     CG2R61
    6     9    53	5 ;      NG3P2      CG324       HGA2
    6     9    54	5 ;      NG3P2      CG324       HGA2
   10     9    53	5 ;     CG2R61      CG324       HGA2
   10     9    54	5 ;     CG2R61      CG324       HGA2
   53     9    54	5 ;       HGA2      CG324       HGA2
   11    10     9	5 ;     CG2R61     CG2R61      CG324
   11    10    15	5 ;     CG2R61     CG2R61     CG2R61
    9    10    15	5 ;      CG324     CG2R61     CG2R61
   12    11    10	5 ;     CG2R61     CG2R61     CG2R61
   12    11    55	5 ;     CG2R61     CG2R61      HGR61
   10    11    55	5 ;     CG2R61     CG2R61      HGR61
   16    12    11	5 ;      OG301     CG2R61     CG2R61
   16    12    13	5 ;      OG301     CG2R61     CG2R61
   11    12    13	5 ;     CG2R61     CG2R61     CG2R61
   12    13    14	5 ;     CG2R61     CG2R61     CG2R61
   12    13    56	5 ;     CG2R61     CG2R61      HGR61
   14    13    56	5 ;     CG2R61     CG2R61      HGR61
   13    14    15	5 ;     CG2R61     CG2R61     CG2R61
   13    14    57	5 ;     CG2R61     CG2R61      HGR61
   15    14    57	5 ;     CG2R61     CG2R61      HGR61
   10    15    14	5 ;     CG2R61     CG2R61     CG2R61
   10    15    58	5 ;     CG2R61     CG2R61      HGR61
   14    15    58	5 ;     CG2R61     CG2R61      HGR61
   17    16    12	5 ;      CG331      OG301     CG2R61
   16    17    59	5 ;      OG301      CG331       HGA3
   16    17    60	5 ;      OG301      CG331       HGA3
   16    17    61	5 ;      OG301      CG331       HGA3
   59    17    60	5 ;       HGA3      CG331       HGA3
   59    17    61	5 ;       HGA3      CG331       HGA3
   60    17    61	5 ;       HGA3      CG331       HGA3
    1    18    19	5 ;      CG311      CG321     CG2R61
    1    18    62	5 ;      CG311      CG321       HGA2
    1    18    63	5 ;      CG311      CG321       HGA2
   19    18    62	5 ;     CG2R61      CG321       HGA2
   19    18    63	5 ;     CG2R61      CG321       HGA2
   62    18    63	5 ;       HGA2      CG321       HGA2
   20    19    18	5 ;     CG2R61     CG2R61      CG321
   20    19    26	5 ;     CG2R61     CG2R61     CG2R61
   18    19    26	5 ;      CG321     CG2R61     CG2R61
   21    20    19	5 ;     CG2R66     CG2R61     CG2R61
   21    20    64	5 ;     CG2R66     CG2R61      HGR62
   19    20    64	5 ;     CG2R61     CG2R61      HGR62
   22    21    20	5 ;       FGR1     CG2R66     CG2R61
   22    21    23	5 ;       FGR1     CG2R66     CG2R61
   20    21    23	5 ;     CG2R61     CG2R66     CG2R61
   21    23    24	5 ;     CG2R66     CG2R61     CG2R66
   21    23    65	5 ;     CG2R66     CG2R61      HGR62
   24    23    65	5 ;     CG2R66     CG2R61      HGR62
   23    24    26	5 ;     CG2R61     CG2R66     CG2R61
   23    24    25	5 ;     CG2R61     CG2R66       FGR1
   26    24    25	5 ;     CG2R61     CG2R66       FGR1
   19    26    24	5 ;     CG2R61     CG2R61     CG2R66
   19    26    66	5 ;     CG2R61     CG2R61      HGR62
   24    26    66	5 ;     CG2R66     CG2R61      HGR62
    1    27    28	5 ;      CG311      NG2S1      CG2O1
    1    27    30	5 ;      CG311      NG2S1       HGP1
   28    27    30	5 ;      CG2O1      NG2S1       HGP1
   29    28    27	5 ;      OG2D1      CG2O1      NG2S1
   29    28    31	5 ;      OG2D1      CG2O1     CG2R51
   27    28    31	5 ;      NG2S1      CG2O1     CG2R51
   28    31    36	5 ;      CG2O1     CG2R51     CG2RC0
   28    31    32	5 ;      CG2O1     CG2R51     CG2R51
   36    31    32	5 ;     CG2RC0     CG2R51     CG2R51
   31    32    33	5 ;     CG2R51     CG2R51     NG2R51
   31    32    67	5 ;     CG2R51     CG2R51      HGR52
   33    32    67	5 ;     NG2R51     CG2R51      HGR52
   34    33    32	5 ;     CG2RC0     NG2R51     CG2R51
   34    33    35	5 ;     CG2RC0     NG2R51      CG2O6
   32    33    35	5 ;     CG2R51     NG2R51      CG2O6
   36    34    37	5 ;     CG2RC0     CG2RC0     CG2R61
   36    34    33	5 ;     CG2RC0     CG2RC0     NG2R51
   37    34    33	5 ;     CG2R61     CG2RC0     NG2R51
   33    35    42	5 ;     NG2R51      CG2O6      OG2D1
   33    35    43	5 ;     NG2R51      CG2O6      NG2S0
   42    35    43	5 ;      OG2D1      CG2O6      NG2S0
   38    36    31	5 ;     CG2R61     CG2RC0     CG2R51
   38    36    34	5 ;     CG2R61     CG2RC0     CG2RC0
   31    36    34	5 ;     CG2R51     CG2RC0     CG2RC0
   41    37    34	5 ;     CG2R61     CG2R61     CG2RC0
   41    37    68	5 ;     CG2R61     CG2R61      HGR61
   34    37    68	5 ;     CG2RC0     CG2R61      HGR61
   39    38    36	5 ;     CG2R61     CG2R61     CG2RC0
   39    38    69	5 ;     CG2R61     CG2R61      HGR62
   36    38    69	5 ;     CG2RC0     CG2R61      HGR62
   40    39    38	5 ;      CLGR1     CG2R61     CG2R61
   40    39    41	5 ;      CLGR1     CG2R61     CG2R61
   38    39    41	5 ;     CG2R61     CG2R61     CG2R61
   39    41    37	5 ;     CG2R61     CG2R61     CG2R61
   39    41    70	5 ;     CG2R61     CG2R61      HGR62
   37    41    70	5 ;     CG2R61     CG2R61      HGR62
   35    43    44	5 ;      CG2O6      NG2S0      CG331
   35    43    45	5 ;      CG2O6      NG2S0      CG321
   44    43    45	5 ;      CG331      NG2S0      CG321
   43    44    71	5 ;      NG2S0      CG331       HGA3
   43    44    72	5 ;      NG2S0      CG331       HGA3
   43    44    73	5 ;      NG2S0      CG331       HGA3
   71    44    72	5 ;       HGA3      CG331       HGA3
   71    44    73	5 ;       HGA3      CG331       HGA3
   72    44    73	5 ;       HGA3      CG331       HGA3
   43    45    46	5 ;      NG2S0      CG321      CG321
   43    45    74	5 ;      NG2S0      CG321       HGA2
   43    45    75	5 ;      NG2S0      CG321       HGA2
   46    45    74	5 ;      CG321      CG321       HGA2
   46    45    75	5 ;      CG321      CG321       HGA2
   74    45    75	5 ;       HGA2      CG321       HGA2
   45    46    47	5 ;      CG321      CG321      CG321
   45    46    76	5 ;      CG321      CG321       HGA2
   45    46    77	5 ;      CG321      CG321       HGA2
   47    46    76	5 ;      CG321      CG321       HGA2
   47    46    77	5 ;      CG321      CG321       HGA2
   76    46    77	5 ;       HGA2      CG321       HGA2
   46    47    48	5 ;      CG321      CG321      CG331
   46    47    78	5 ;      CG321      CG321       HGA2
   46    47    79	5 ;      CG321      CG321       HGA2
   48    47    78	5 ;      CG331      CG321       HGA2
   48    47    79	5 ;      CG331      CG321       HGA2
   78    47    79	5 ;       HGA2      CG321       HGA2
   47    48    80	5 ;      CG321      CG331       HGA3
   47    48    81	5 ;      CG321      CG331       HGA3
   47    48    82	5 ;      CG321      CG331       HGA3
   80    48    81	5 ;       HGA3      CG331       HGA3
   80    48    82	5 ;       HGA3      CG331       HGA3
   81    48    82	5 ;       HGA3      CG331       HGA3

[ dihedrals ]
;	ai	  aj	ak	  al funct			  c0			c1			  c2			c3			  c4			c5
   18     1     2     3	 9 ;      CG321      CG311      CG311      OG311
   18     1     2     5	 9 ;      CG321      CG311      CG311      CG324
   18     1     2    50	 9 ;      CG321      CG311      CG311       HGA1
   27     1     2     3	 9 ;      NG2S1      CG311      CG311      OG311
   27     1     2     5	 9 ;      NG2S1      CG311      CG311      CG324
   27     1     2    50	 9 ;      NG2S1      CG311      CG311       HGA1
   49     1     2     3	 9 ;       HGA1      CG311      CG311      OG311
   49     1     2     5	 9 ;       HGA1      CG311      CG311      CG324
   49     1     2    50	 9 ;       HGA1      CG311      CG311       HGA1
    2     1    18    19	 9 ;      CG311      CG311      CG321     CG2R61
    2     1    18    62	 9 ;      CG311      CG311      CG321       HGA2
    2     1    18    63	 9 ;      CG311      CG311      CG321       HGA2
   27     1    18    19	 9 ;      NG2S1      CG311      CG321     CG2R61
   27     1    18    62	 9 ;      NG2S1      CG311      CG321       HGA2
   27     1    18    63	 9 ;      NG2S1      CG311      CG321       HGA2
   49     1    18    19	 9 ;       HGA1      CG311      CG321     CG2R61
   49     1    18    62	 9 ;       HGA1      CG311      CG321       HGA2
   49     1    18    63	 9 ;       HGA1      CG311      CG321       HGA2
    2     1    27    28	 9 ;      CG311      CG311      NG2S1      CG2O1
    2     1    27    30	 9 ;      CG311      CG311      NG2S1       HGP1
   18     1    27    28	 9 ;      CG321      CG311      NG2S1      CG2O1
   18     1    27    30	 9 ;      CG321      CG311      NG2S1       HGP1
   49     1    27    28	 9 ;       HGA1      CG311      NG2S1      CG2O1
   49     1    27    30	 9 ;       HGA1      CG311      NG2S1       HGP1
    5     2     3     4	 9 ;      CG324      CG311      OG311       HGP1
    1     2     3     4	 9 ;      CG311      CG311      OG311       HGP1
   50     2     3     4	 9 ;       HGA1      CG311      OG311       HGP1
    3     2     5     6	 9 ;      OG311      CG311      CG324      NG3P2
    3     2     5    51	 9 ;      OG311      CG311      CG324       HGA2
    3     2     5    52	 9 ;      OG311      CG311      CG324       HGA2
    1     2     5     6	 9 ;      CG311      CG311      CG324      NG3P2
    1     2     5    51	 9 ;      CG311      CG311      CG324       HGA2
    1     2     5    52	 9 ;      CG311      CG311      CG324       HGA2
   50     2     5     6	 9 ;       HGA1      CG311      CG324      NG3P2
   50     2     5    51	 9 ;       HGA1      CG311      CG324       HGA2
   50     2     5    52	 9 ;       HGA1      CG311      CG324       HGA2
    2     5     6     7	 9 ;      CG311      CG324      NG3P2       HGP2
    2     5     6     8	 9 ;      CG311      CG324      NG3P2       HGP2
    2     5     6     9	 9 ;      CG311      CG324      NG3P2      CG324
   51     5     6     7	 9 ;       HGA2      CG324      NG3P2       HGP2
   51     5     6     8	 9 ;       HGA2      CG324      NG3P2       HGP2
   51     5     6     9	 9 ;       HGA2      CG324      NG3P2      CG324
   52     5     6     7	 9 ;       HGA2      CG324      NG3P2       HGP2
   52     5     6     8	 9 ;       HGA2      CG324      NG3P2       HGP2
   52     5     6     9	 9 ;       HGA2      CG324      NG3P2      CG324
    7     6     9    10	 9 ;       HGP2      NG3P2      CG324     CG2R61
    7     6     9    53	 9 ;       HGP2      NG3P2      CG324       HGA2
    7     6     9    54	 9 ;       HGP2      NG3P2      CG324       HGA2
    5     6     9    10	 9 ;      CG324      NG3P2      CG324     CG2R61
    5     6     9    53	 9 ;      CG324      NG3P2      CG324       HGA2
    5     6     9    54	 9 ;      CG324      NG3P2      CG324       HGA2
    8     6     9    10	 9 ;       HGP2      NG3P2      CG324     CG2R61
    8     6     9    53	 9 ;       HGP2      NG3P2      CG324       HGA2
    8     6     9    54	 9 ;       HGP2      NG3P2      CG324       HGA2
    6     9    10    11	 9 ;      NG3P2      CG324     CG2R61     CG2R61
    6     9    10    15	 9 ;      NG3P2      CG324     CG2R61     CG2R61
   53     9    10    11	 9 ;       HGA2      CG324     CG2R61     CG2R61
   53     9    10    15	 9 ;       HGA2      CG324     CG2R61     CG2R61
   54     9    10    11	 9 ;       HGA2      CG324     CG2R61     CG2R61
   54     9    10    15	 9 ;       HGA2      CG324     CG2R61     CG2R61
    9    10    11    12	 9 ;      CG324     CG2R61     CG2R61     CG2R61
    9    10    11    55	 9 ;      CG324     CG2R61     CG2R61      HGR61
   15    10    11    12	 9 ;     CG2R61     CG2R61     CG2R61     CG2R61
   15    10    11    55	 9 ;     CG2R61     CG2R61     CG2R61      HGR61
   11    10    15    14	 9 ;     CG2R61     CG2R61     CG2R61     CG2R61
   11    10    15    58	 9 ;     CG2R61     CG2R61     CG2R61      HGR61
    9    10    15    14	 9 ;      CG324     CG2R61     CG2R61     CG2R61
    9    10    15    58	 9 ;      CG324     CG2R61     CG2R61      HGR61
   10    11    12    16	 9 ;     CG2R61     CG2R61     CG2R61      OG301
   10    11    12    13	 9 ;     CG2R61     CG2R61     CG2R61     CG2R61
   55    11    12    16	 9 ;      HGR61     CG2R61     CG2R61      OG301
   55    11    12    13	 9 ;      HGR61     CG2R61     CG2R61     CG2R61
   11    12    16    17	 9 ;     CG2R61     CG2R61      OG301      CG331
   13    12    16    17	 9 ;     CG2R61     CG2R61      OG301      CG331
   16    12    13    14	 9 ;      OG301     CG2R61     CG2R61     CG2R61
   16    12    13    56	 9 ;      OG301     CG2R61     CG2R61      HGR61
   11    12    13    14	 9 ;     CG2R61     CG2R61     CG2R61     CG2R61
   11    12    13    56	 9 ;     CG2R61     CG2R61     CG2R61      HGR61
   12    13    14    15	 9 ;     CG2R61     CG2R61     CG2R61     CG2R61
   12    13    14    57	 9 ;     CG2R61     CG2R61     CG2R61      HGR61
   56    13    14    15	 9 ;      HGR61     CG2R61     CG2R61     CG2R61
   56    13    14    57	 9 ;      HGR61     CG2R61     CG2R61      HGR61
   13    14    15    10	 9 ;     CG2R61     CG2R61     CG2R61     CG2R61
   13    14    15    58	 9 ;     CG2R61     CG2R61     CG2R61      HGR61
   57    14    15    10	 9 ;      HGR61     CG2R61     CG2R61     CG2R61
   57    14    15    58	 9 ;      HGR61     CG2R61     CG2R61      HGR61
   12    16    17    59	 9 ;     CG2R61      OG301      CG331       HGA3
   12    16    17    60	 9 ;     CG2R61      OG301      CG331       HGA3
   12    16    17    61	 9 ;     CG2R61      OG301      CG331       HGA3
    1    18    19    20	 9 ;      CG311      CG321     CG2R61     CG2R61
    1    18    19    26	 9 ;      CG311      CG321     CG2R61     CG2R61
   62    18    19    20	 9 ;       HGA2      CG321     CG2R61     CG2R61
   62    18    19    26	 9 ;       HGA2      CG321     CG2R61     CG2R61
   63    18    19    20	 9 ;       HGA2      CG321     CG2R61     CG2R61
   63    18    19    26	 9 ;       HGA2      CG321     CG2R61     CG2R61
   18    19    20    21	 9 ;      CG321     CG2R61     CG2R61     CG2R66
   18    19    20    64	 9 ;      CG321     CG2R61     CG2R61      HGR62
   26    19    20    21	 9 ;     CG2R61     CG2R61     CG2R61     CG2R66
   26    19    20    64	 9 ;     CG2R61     CG2R61     CG2R61      HGR62
   20    19    26    24	 9 ;     CG2R61     CG2R61     CG2R61     CG2R66
   20    19    26    66	 9 ;     CG2R61     CG2R61     CG2R61      HGR62
   18    19    26    24	 9 ;      CG321     CG2R61     CG2R61     CG2R66
   18    19    26    66	 9 ;      CG321     CG2R61     CG2R61      HGR62
   19    20    21    22	 9 ;     CG2R61     CG2R61     CG2R66       FGR1
   19    20    21    23	 9 ;     CG2R61     CG2R61     CG2R66     CG2R61
   64    20    21    22	 9 ;      HGR62     CG2R61     CG2R66       FGR1
   64    20    21    23	 9 ;      HGR62     CG2R61     CG2R66     CG2R61
   22    21    23    24	 9 ;       FGR1     CG2R66     CG2R61     CG2R66
   22    21    23    65	 9 ;       FGR1     CG2R66     CG2R61      HGR62
   20    21    23    24	 9 ;     CG2R61     CG2R66     CG2R61     CG2R66
   20    21    23    65	 9 ;     CG2R61     CG2R66     CG2R61      HGR62
   21    23    24    26	 9 ;     CG2R66     CG2R61     CG2R66     CG2R61
   21    23    24    25	 9 ;     CG2R66     CG2R61     CG2R66       FGR1
   65    23    24    26	 9 ;      HGR62     CG2R61     CG2R66     CG2R61
   65    23    24    25	 9 ;      HGR62     CG2R61     CG2R66       FGR1
   23    24    26    19	 9 ;     CG2R61     CG2R66     CG2R61     CG2R61
   23    24    26    66	 9 ;     CG2R61     CG2R66     CG2R61      HGR62
   25    24    26    19	 9 ;       FGR1     CG2R66     CG2R61     CG2R61
   25    24    26    66	 9 ;       FGR1     CG2R66     CG2R61      HGR62
    1    27    28    29	 9 ;      CG311      NG2S1      CG2O1      OG2D1
    1    27    28    31	 9 ;      CG311      NG2S1      CG2O1     CG2R51
   30    27    28    29	 9 ;       HGP1      NG2S1      CG2O1      OG2D1
   30    27    28    31	 9 ;       HGP1      NG2S1      CG2O1     CG2R51
   29    28    31    36	 9 ;      OG2D1      CG2O1     CG2R51     CG2RC0
   29    28    31    32	 9 ;      OG2D1      CG2O1     CG2R51     CG2R51
   27    28    31    36	 9 ;      NG2S1      CG2O1     CG2R51     CG2RC0
   27    28    31    32	 9 ;      NG2S1      CG2O1     CG2R51     CG2R51
   28    31    36    38	 9 ;      CG2O1     CG2R51     CG2RC0     CG2R61
   28    31    36    34	 9 ;      CG2O1     CG2R51     CG2RC0     CG2RC0
   32    31    36    38	 9 ;     CG2R51     CG2R51     CG2RC0     CG2R61
   32    31    36    34	 9 ;     CG2R51     CG2R51     CG2RC0     CG2RC0
   28    31    32    33	 9 ;      CG2O1     CG2R51     CG2R51     NG2R51
   28    31    32    67	 9 ;      CG2O1     CG2R51     CG2R51      HGR52
   36    31    32    33	 9 ;     CG2RC0     CG2R51     CG2R51     NG2R51
   36    31    32    67	 9 ;     CG2RC0     CG2R51     CG2R51      HGR52
   31    32    33    34	 9 ;     CG2R51     CG2R51     NG2R51     CG2RC0
   31    32    33    35	 9 ;     CG2R51     CG2R51     NG2R51      CG2O6
   67    32    33    34	 9 ;      HGR52     CG2R51     NG2R51     CG2RC0
   67    32    33    35	 9 ;      HGR52     CG2R51     NG2R51      CG2O6
   32    33    34    36	 9 ;     CG2R51     NG2R51     CG2RC0     CG2RC0
   32    33    34    37	 9 ;     CG2R51     NG2R51     CG2RC0     CG2R61
   35    33    34    36	 9 ;      CG2O6     NG2R51     CG2RC0     CG2RC0
   35    33    34    37	 9 ;      CG2O6     NG2R51     CG2RC0     CG2R61
   34    33    35    42	 9 ;     CG2RC0     NG2R51      CG2O6      OG2D1
   34    33    35    43	 9 ;     CG2RC0     NG2R51      CG2O6      NG2S0
   32    33    35    42	 9 ;     CG2R51     NG2R51      CG2O6      OG2D1
   32    33    35    43	 9 ;     CG2R51     NG2R51      CG2O6      NG2S0
   37    34    36    38	 9 ;     CG2R61     CG2RC0     CG2RC0     CG2R61
   37    34    36    31	 9 ;     CG2R61     CG2RC0     CG2RC0     CG2R51
   33    34    36    38	 9 ;     NG2R51     CG2RC0     CG2RC0     CG2R61
   33    34    36    31	 9 ;     NG2R51     CG2RC0     CG2RC0     CG2R51
   36    34    37    41	 9 ;     CG2RC0     CG2RC0     CG2R61     CG2R61
   36    34    37    68	 9 ;     CG2RC0     CG2RC0     CG2R61      HGR61
   33    34    37    41	 9 ;     NG2R51     CG2RC0     CG2R61     CG2R61
   33    34    37    68	 9 ;     NG2R51     CG2RC0     CG2R61      HGR61
   33    35    43    44	 9 ;     NG2R51      CG2O6      NG2S0      CG331
   33    35    43    45	 9 ;     NG2R51      CG2O6      NG2S0      CG321
   42    35    43    44	 9 ;      OG2D1      CG2O6      NG2S0      CG331
   42    35    43    45	 9 ;      OG2D1      CG2O6      NG2S0      CG321
   31    36    38    39	 9 ;     CG2R51     CG2RC0     CG2R61     CG2R61
   31    36    38    69	 9 ;     CG2R51     CG2RC0     CG2R61      HGR62
   34    36    38    39	 9 ;     CG2RC0     CG2RC0     CG2R61     CG2R61
   34    36    38    69	 9 ;     CG2RC0     CG2RC0     CG2R61      HGR62
   34    37    41    39	 9 ;     CG2RC0     CG2R61     CG2R61     CG2R61
   34    37    41    70	 9 ;     CG2RC0     CG2R61     CG2R61      HGR62
   68    37    41    39	 9 ;      HGR61     CG2R61     CG2R61     CG2R61
   68    37    41    70	 9 ;      HGR61     CG2R61     CG2R61      HGR62
   36    38    39    40	 9 ;     CG2RC0     CG2R61     CG2R61      CLGR1
   36    38    39    41	 9 ;     CG2RC0     CG2R61     CG2R61     CG2R61
   69    38    39    40	 9 ;      HGR62     CG2R61     CG2R61      CLGR1
   69    38    39    41	 9 ;      HGR62     CG2R61     CG2R61     CG2R61
   40    39    41    37	 9 ;      CLGR1     CG2R61     CG2R61     CG2R61
   40    39    41    70	 9 ;      CLGR1     CG2R61     CG2R61      HGR62
   38    39    41    37	 9 ;     CG2R61     CG2R61     CG2R61     CG2R61
   38    39    41    70	 9 ;     CG2R61     CG2R61     CG2R61      HGR62
   35    43    44    71	 9 ;      CG2O6      NG2S0      CG331       HGA3
   35    43    44    72	 9 ;      CG2O6      NG2S0      CG331       HGA3
   35    43    44    73	 9 ;      CG2O6      NG2S0      CG331       HGA3
   45    43    44    71	 9 ;      CG321      NG2S0      CG331       HGA3
   45    43    44    72	 9 ;      CG321      NG2S0      CG331       HGA3
   45    43    44    73	 9 ;      CG321      NG2S0      CG331       HGA3
   35    43    45    46	 9 ;      CG2O6      NG2S0      CG321      CG321
   35    43    45    74	 9 ;      CG2O6      NG2S0      CG321       HGA2
   35    43    45    75	 9 ;      CG2O6      NG2S0      CG321       HGA2
   44    43    45    46	 9 ;      CG331      NG2S0      CG321      CG321
   44    43    45    74	 9 ;      CG331      NG2S0      CG321       HGA2
   44    43    45    75	 9 ;      CG331      NG2S0      CG321       HGA2
   43    45    46    47	 9 ;      NG2S0      CG321      CG321      CG321
   43    45    46    76	 9 ;      NG2S0      CG321      CG321       HGA2
   43    45    46    77	 9 ;      NG2S0      CG321      CG321       HGA2
   74    45    46    47	 9 ;       HGA2      CG321      CG321      CG321
   74    45    46    76	 9 ;       HGA2      CG321      CG321       HGA2
   74    45    46    77	 9 ;       HGA2      CG321      CG321       HGA2
   75    45    46    47	 9 ;       HGA2      CG321      CG321      CG321
   75    45    46    76	 9 ;       HGA2      CG321      CG321       HGA2
   75    45    46    77	 9 ;       HGA2      CG321      CG321       HGA2
   45    46    47    48	 9 ;      CG321      CG321      CG321      CG331
   45    46    47    78	 9 ;      CG321      CG321      CG321       HGA2
   45    46    47    79	 9 ;      CG321      CG321      CG321       HGA2
   76    46    47    48	 9 ;       HGA2      CG321      CG321      CG331
   76    46    47    78	 9 ;       HGA2      CG321      CG321       HGA2
   76    46    47    79	 9 ;       HGA2      CG321      CG321       HGA2
   77    46    47    48	 9 ;       HGA2      CG321      CG321      CG331
   77    46    47    78	 9 ;       HGA2      CG321      CG321       HGA2
   77    46    47    79	 9 ;       HGA2      CG321      CG321       HGA2
   46    47    48    80	 9 ;      CG321      CG321      CG331       HGA3
   46    47    48    81	 9 ;      CG321      CG321      CG331       HGA3
   46    47    48    82	 9 ;      CG321      CG321      CG331       HGA3
   78    47    48    80	 9 ;       HGA2      CG321      CG331       HGA3
   78    47    48    81	 9 ;       HGA2      CG321      CG331       HGA3
   78    47    48    82	 9 ;       HGA2      CG321      CG331       HGA3
   79    47    48    80	 9 ;       HGA2      CG321      CG331       HGA3
   79    47    48    81	 9 ;       HGA2      CG321      CG331       HGA3
   79    47    48    82	 9 ;       HGA2      CG321      CG331       HGA3

[ dihedrals ]
;	ai	  aj	ak	  al funct			  c0			c1			  c2			c3
   28    31    27    29	 2
   35    33    43    42	 2

[ virtual_sites2 ]
; Site   from				funct a
   83    40    39     2   -0.164

[ exclusions ]
;	ai	  aj
   40    83
   83    39
   83    38
   83    41
   83    36
   83    37
   83    69
   83    70

