Gyas ROwers Mature At Cryogenic Speed
   70
    1LIG     C1    1  -1.691   0.766  -1.469
    1LIG     C2    2  -1.570   0.865  -1.493
    1LIG     C3    3  -1.534   0.903  -1.648
    1LIG     C4    4  -1.569   0.791  -1.748
    1LIG     C5    5  -1.455   0.707  -1.799
    1LIG     C6    6  -1.469   0.644  -1.923
    1LIG     C7    7  -1.364   0.573  -1.979
    1LIG     F1    8  -1.380   0.513  -2.098
    1LIG     C8    9  -1.242   0.563  -1.915
    1LIG     C9   10  -1.227   0.628  -1.793
    1LIG    C10   11  -1.331   0.701  -1.735
    1LIG     F2   12  -1.109   0.622  -1.730
    1LIG     N1   13  -1.594   1.031  -1.694
    1LIG    C11   14  -1.724   1.066  -1.724
    1LIG     O1   15  -1.746   1.183  -1.752
    1LIG    C12   16  -1.836   0.963  -1.725
    1LIG     H1   17  -1.533   1.111  -1.704
    1LIG     O2   18  -1.589   0.986  -1.418
    1LIG     H2   19  -1.684   1.011  -1.424
    1LIG     N2   20  -1.684   0.619  -1.517
    1LIG     H3   21  -1.781   0.595  -1.543
    1LIG     H4   22  -1.633   0.624  -1.606
    1LIG    C13   23  -1.623   0.490  -1.448
    1LIG    C14   24  -1.745   0.394  -1.421
    1LIG    C15   25  -1.709   0.276  -1.328
    1LIG    C16   26  -1.660   0.324  -1.193
    1LIG    C17   27  -1.549   0.428  -1.206
    1LIG    C18   28  -1.580   0.539  -1.307
    1LIG    C19   29  -1.518   0.418  -1.537
    1LIG    C20   30  -1.383   0.389  -1.496
    1LIG    C21   31  -1.291   0.317  -1.577
    1LIG    C22   32  -1.336   0.274  -1.702
    1LIG    C23   33  -1.464   0.306  -1.747
    1LIG    C24   34  -1.553   0.377  -1.666
    1LIG    C25   35  -1.151   0.272  -1.534
    1LIG    C26   36  -1.099   0.137  -1.585
    1LIG    C27   37  -1.049   0.382  -1.567
    1LIG     H5   38  -1.707   0.763  -1.363
    1LIG     H6   39  -1.768   0.808  -1.530
    1LIG     H7   40  -1.485   0.809  -1.459
    1LIG     H8   41  -1.428   0.915  -1.646
    1LIG     H9   42  -1.638   0.725  -1.699
    1LIG    H10   43  -1.607   0.841  -1.834
    1LIG    H11   44  -1.559   0.651  -1.974
    1LIG    H12   45  -1.164   0.509  -1.956
    1LIG    H13   46  -1.316   0.749  -1.645
    1LIG    H14   47  -1.928   1.011  -1.750
    1LIG    H15   48  -1.844   0.919  -1.628
    1LIG    H16   49  -1.814   0.887  -1.797
    1LIG    H17   50  -1.779   0.355  -1.514
    1LIG    H18   51  -1.821   0.451  -1.372
    1LIG    H19   52  -1.632   0.218  -1.374
    1LIG    H20   53  -1.797   0.217  -1.313
    1LIG    H21   54  -1.623   0.241  -1.138
    1LIG    H22   55  -1.742   0.370  -1.143
    1LIG    H23   56  -1.533   0.473  -1.110
    1LIG    H24   57  -1.462   0.377  -1.241
    1LIG    H25   58  -1.660   0.599  -1.267
    1LIG    H26   59  -1.489   0.594  -1.321
    1LIG    H27   60  -1.351   0.423  -1.404
    1LIG    H28   61  -1.273   0.218  -1.762
    1LIG    H29   62  -1.493   0.276  -1.842
    1LIG    H30   63  -1.647   0.400  -1.703
    1LIG    H31   64  -1.161   0.256  -1.429
    1LIG    H32   65  -1.084   0.142  -1.691
    1LIG    H33   66  -1.171   0.061  -1.563
    1LIG    H34   67  -1.006   0.114  -1.538
    1LIG    H35   68  -1.042   0.393  -1.673
    1LIG    H36   69  -0.953   0.354  -1.528
    1LIG    H37   70  -1.080   0.474  -1.523
   0.00000   0.00000   0.00000
