; Created by cgenff_charmm2gmx.py

[ moleculetype ]
; Name			   nrexcl
LIG				 3

[ atoms ]
;	 nr		  type	resnr residue  atom   cgnr	   charge		mass  typeB    chargeB		massB
; residue	 1 LIG rtp LIG q	qsum
     1      NG3P2      1    LIG     N1      1     -0.450     14.007   ;
     2       HGP2      1    LIG     H1      2      0.341      1.008   ;
     3       HGP2      1    LIG     H2      3      0.341      1.008   ;
     4      CG301      1    LIG     C1      4      0.295     12.011   ;
     5      CG321      1    LIG     C2      5     -0.147     12.011   ;
     6      CG321      1    LIG     C3      6     -0.202     12.011   ;
     7      CG321      1    LIG     C4      7     -0.176     12.011   ;
     8      CG321      1    LIG     C5      8     -0.202     12.011   ;
     9      CG321      1    LIG     C6      9     -0.147     12.011   ;
    10     CG2R61      1    LIG     C7     10      0.085     12.011   ;
    11     CG2R61      1    LIG     C8     11     -0.086     12.011   ;
    12     CG2R61      1    LIG     C9     12     -0.022     12.011   ;
    13       IGR1      1    LIG      I     13     -0.170    126.904   ;
    14     CG2R61      1    LIG    C10     14     -0.078     12.011   ;
    15     CG2R61      1    LIG    C11     15      0.082     12.011   ;
    16     CG2R61      1    LIG    C12     16     -0.126     12.011   ;
    17      CG301      1    LIG    C13     17     -0.018     12.011   ;
    18      CG331      1    LIG    C14     18     -0.289     12.011   ;
    19      CG331      1    LIG    C15     19     -0.289     12.011   ;
    20      CG331      1    LIG    C16     20     -0.289     12.011   ;
    21      CG324      1    LIG    C17     21      0.208     12.011   ;
    22      CG311      1    LIG    C18     22      0.089     12.011   ;
    23      OG311      1    LIG     O1     23     -0.625     15.999   ;
    24       HGP1      1    LIG     H3     24      0.415      1.008   ;
    25      CG311      1    LIG    C19     25     -0.007     12.011   ;
    26      CG321      1    LIG    C20     26     -0.153     12.011   ;
    27     CG2R61      1    LIG    C21     27      0.057     12.011   ;
    28     CG2R61      1    LIG    C22     28     -0.218     12.011   ;
    29     CG2R66      1    LIG    C23     29      0.261     12.011   ;
    30       FGR1      1    LIG     F1     30     -0.210     18.998   ;
    31     CG2R61      1    LIG    C24     31     -0.240     12.011   ;
    32     CG2R66      1    LIG    C25     32      0.261     12.011   ;
    33       FGR1      1    LIG     F2     33     -0.210     18.998   ;
    34     CG2R61      1    LIG    C26     34     -0.218     12.011   ;
    35      NG2S1      1    LIG     N2     35     -0.339     14.007   ;
    36      CG2O1      1    LIG    C27     36      0.488     12.011   ;
    37      OG2D1      1    LIG     O2     37     -0.509     15.999   ;
    38      CG331      1    LIG    C28     38     -0.270     12.011   ;
    39       HGP1      1    LIG     H4     39      0.261      1.008   ;
    40       HGA2      1    LIG    HC2     40      0.090      1.008   ;
    41       HGA2      1    LIG    HC3     41      0.090      1.008   ;
    42       HGA2      1    LIG    HC4     42      0.090      1.008   ;
    43       HGA2      1    LIG    HC5     43      0.090      1.008   ;
    44       HGA2      1    LIG    HC6     44      0.090      1.008   ;
    45       HGA2      1    LIG    HC7     45      0.090      1.008   ;
    46       HGA2      1    LIG    HC8     46      0.090      1.008   ;
    47       HGA2      1    LIG    HC9     47      0.090      1.008   ;
    48       HGA2      1    LIG   HC10     48      0.090      1.008   ;
    49       HGA2      1    LIG   HC11     49      0.090      1.008   ;
    50      HGR62      1    LIG     HC     50      0.143      1.008   ;
    51      HGR62      1    LIG    HC1     51      0.143      1.008   ;
    52      HGR61      1    LIG   HC12     52      0.116      1.008   ;
    53       HGA2      1    LIG   HC13     53      0.090      1.008   ;
    54       HGA2      1    LIG   HC14     54      0.090      1.008   ;
    55       HGA1      1    LIG   HC15     55      0.090      1.008   ;
    56       HGA1      1    LIG   HC16     56      0.090      1.008   ;
    57       HGA2      1    LIG   HC17     57      0.090      1.008   ;
    58       HGA2      1    LIG   HC18     58      0.090      1.008   ;
    59      HGR62      1    LIG   HC19     59      0.174      1.008   ;
    60      HGR62      1    LIG   HC20     60      0.186      1.008   ;
    61      HGR62      1    LIG   HC21     61      0.174      1.008   ;
    62       HGA3      1    LIG   HC22     62      0.090      1.008   ;
    63       HGA3      1    LIG   HC23     63      0.090      1.008   ;
    64       HGA3      1    LIG   HC24     64      0.090      1.008   ;
    65       HGA3      1    LIG   HC25     65      0.090      1.008   ;
    66       HGA3      1    LIG   HC26     66      0.090      1.008   ;
    67       HGA3      1    LIG   HC27     67      0.090      1.008   ;
    68       HGA3      1    LIG   HC28     68      0.090      1.008   ;
    69       HGA3      1    LIG   HC29     69      0.090      1.008   ;
    70       HGA3      1    LIG   HC30     70      0.090      1.008   ;
    71       HGA3      1    LIG   HC31     71      0.090      1.008   ;
    72       HGA3      1    LIG   HC32     72      0.090      1.008   ;
    73       HGA3      1    LIG   HC33     73      0.090      1.008   ;
    74        LPH      1    LIG    LP1     74      0.050      0.000   ;

[ bonds ]
;	ai	  aj funct			  c0			c1			  c2			c3
    1    21	 1 ;       NG3P2      CG324
    1     3	 1 ;       NG3P2       HGP2
    1     4	 1 ;       NG3P2      CG301
    1     2	 1 ;       NG3P2       HGP2
    4    10	 1 ;       CG301     CG2R61
    4     9	 1 ;       CG301      CG321
    4     5	 1 ;       CG301      CG321
    5     6	 1 ;       CG321      CG321
    5    40	 1 ;       CG321       HGA2
    5    41	 1 ;       CG321       HGA2
    6     7	 1 ;       CG321      CG321
    6    42	 1 ;       CG321       HGA2
    6    43	 1 ;       CG321       HGA2
    7     8	 1 ;       CG321      CG321
    7    44	 1 ;       CG321       HGA2
    7    45	 1 ;       CG321       HGA2
    8     9	 1 ;       CG321      CG321
    8    46	 1 ;       CG321       HGA2
    8    47	 1 ;       CG321       HGA2
    9    48	 1 ;       CG321       HGA2
    9    49	 1 ;       CG321       HGA2
   10    11	 1 ;      CG2R61     CG2R61
   10    16	 1 ;      CG2R61     CG2R61
   11    12	 1 ;      CG2R61     CG2R61
   11    50	 1 ;      CG2R61      HGR62
   12    13	 1 ;      CG2R61       IGR1
   12    14	 1 ;      CG2R61     CG2R61
   14    15	 1 ;      CG2R61     CG2R61
   14    51	 1 ;      CG2R61      HGR62
   15    17	 1 ;      CG2R61      CG301
   15    16	 1 ;      CG2R61     CG2R61
   16    52	 1 ;      CG2R61      HGR61
   17    18	 1 ;       CG301      CG331
   17    20	 1 ;       CG301      CG331
   17    19	 1 ;       CG301      CG331
   18    71	 1 ;       CG331       HGA3
   18    72	 1 ;       CG331       HGA3
   18    73	 1 ;       CG331       HGA3
   19    68	 1 ;       CG331       HGA3
   19    69	 1 ;       CG331       HGA3
   19    70	 1 ;       CG331       HGA3
   20    62	 1 ;       CG331       HGA3
   20    63	 1 ;       CG331       HGA3
   20    64	 1 ;       CG331       HGA3
   21    22	 1 ;       CG324      CG311
   21    53	 1 ;       CG324       HGA2
   21    54	 1 ;       CG324       HGA2
   22    25	 1 ;       CG311      CG311
   22    23	 1 ;       CG311      OG311
   22    55	 1 ;       CG311       HGA1
   23    24	 1 ;       OG311       HGP1
   25    26	 1 ;       CG311      CG321
   25    35	 1 ;       CG311      NG2S1
   25    56	 1 ;       CG311       HGA1
   26    27	 1 ;       CG321     CG2R61
   26    57	 1 ;       CG321       HGA2
   26    58	 1 ;       CG321       HGA2
   27    34	 1 ;      CG2R61     CG2R61
   27    28	 1 ;      CG2R61     CG2R61
   28    29	 1 ;      CG2R61     CG2R66
   28    59	 1 ;      CG2R61      HGR62
   29    31	 1 ;      CG2R66     CG2R61
   29    30	 1 ;      CG2R66       FGR1
   31    32	 1 ;      CG2R61     CG2R66
   31    60	 1 ;      CG2R61      HGR62
   32    33	 1 ;      CG2R66       FGR1
   32    34	 1 ;      CG2R66     CG2R61
   34    61	 1 ;      CG2R61      HGR62
   35    39	 1 ;       NG2S1       HGP1
   35    36	 1 ;       NG2S1      CG2O1
   36    38	 1 ;       CG2O1      CG331
   36    37	 1 ;       CG2O1      OG2D1
   38    65	 1 ;       CG331       HGA3
   38    66	 1 ;       CG331       HGA3
   38    67	 1 ;       CG331       HGA3

[ pairs ]
;	ai	  aj funct			  c0			c1			  c2			c3
    1    11	 1
    1    16	 1
    1     8	 1
    1    48	 1
    1    49	 1
    1     6	 1
    1    40	 1
    1    41	 1
    1    25	 1
    1    23	 1
    1    55	 1
    2    22	 1
    2    53	 1
    2    54	 1
    2    10	 1
    2     9	 1
    2     5	 1
    3    22	 1
    3    53	 1
    3    54	 1
    3    10	 1
    3     9	 1
    3     5	 1
    4    22	 1
    4    53	 1
    4    54	 1
    4     7	 1
    4    42	 1
    4    43	 1
    4    46	 1
    4    47	 1
    4    12	 1
    4    50	 1
    4    15	 1
    4    52	 1
    5    21	 1
    5    11	 1
    5    16	 1
    5     8	 1
    5    48	 1
    5    49	 1
    5    44	 1
    5    45	 1
    6    10	 1
    6     9	 1
    6    46	 1
    6    47	 1
    7    40	 1
    7    41	 1
    7    48	 1
    7    49	 1
    8    10	 1
    8    42	 1
    8    43	 1
    9    21	 1
    9    11	 1
    9    16	 1
    9    40	 1
    9    41	 1
    9    44	 1
    9    45	 1
   10    21	 1
   10    48	 1
   10    49	 1
   10    40	 1
   10    41	 1
   10    13	 1
   74    10	 1
   10    14	 1
   10    17	 1
   11    15	 1
   11    52	 1
   11    51	 1
   12    16	 1
   12    17	 1
   13    50	 1
   74    50	 1
   13    15	 1
   74    15	 1
   13    51	 1
   74    51	 1
   14    50	 1
   14    18	 1
   14    20	 1
   14    19	 1
   14    52	 1
   15    71	 1
   15    72	 1
   15    73	 1
   15    62	 1
   15    63	 1
   15    64	 1
   15    68	 1
   15    69	 1
   15    70	 1
   16    50	 1
   16    51	 1
   16    18	 1
   16    20	 1
   16    19	 1
   17    51	 1
   17    52	 1
   18    62	 1
   18    63	 1
   18    64	 1
   18    68	 1
   18    69	 1
   18    70	 1
   19    71	 1
   19    72	 1
   19    73	 1
   19    62	 1
   19    63	 1
   19    64	 1
   20    71	 1
   20    72	 1
   20    73	 1
   20    68	 1
   20    69	 1
   20    70	 1
   21    26	 1
   21    35	 1
   21    56	 1
   21    24	 1
   22    27	 1
   22    57	 1
   22    58	 1
   22    39	 1
   22    36	 1
   23    53	 1
   23    54	 1
   23    26	 1
   23    35	 1
   23    56	 1
   24    25	 1
   24    55	 1
   25    53	 1
   25    54	 1
   25    34	 1
   25    28	 1
   25    38	 1
   25    37	 1
   26    55	 1
   26    39	 1
   26    36	 1
   26    32	 1
   26    61	 1
   26    29	 1
   26    59	 1
   27    35	 1
   27    56	 1
   27    31	 1
   27    30	 1
   27    33	 1
   28    57	 1
   28    58	 1
   28    32	 1
   28    61	 1
   28    60	 1
   29    34	 1
   29    33	 1
   30    59	 1
   30    32	 1
   30    60	 1
   31    59	 1
   31    61	 1
   33    60	 1
   33    61	 1
   34    57	 1
   34    58	 1
   34    59	 1
   34    60	 1
   35    55	 1
   35    57	 1
   35    58	 1
   35    65	 1
   35    66	 1
   35    67	 1
   36    56	 1
   37    39	 1
   37    65	 1
   37    66	 1
   37    67	 1
   38    39	 1
   39    56	 1
   40    42	 1
   40    43	 1
   41    42	 1
   41    43	 1
   42    44	 1
   42    45	 1
   43    44	 1
   43    45	 1
   44    46	 1
   44    47	 1
   45    46	 1
   45    47	 1
   46    48	 1
   46    49	 1
   47    48	 1
   47    49	 1
   53    55	 1
   54    55	 1
   55    56	 1
   56    57	 1
   56    58	 1

[ angles ]
;	ai	  aj	ak funct			c0			  c1			c2			  c3
   21     1     3	5 ;      CG324      NG3P2       HGP2
   21     1     4	5 ;      CG324      NG3P2      CG301
   21     1     2	5 ;      CG324      NG3P2       HGP2
    3     1     4	5 ;       HGP2      NG3P2      CG301
    3     1     2	5 ;       HGP2      NG3P2       HGP2
    4     1     2	5 ;      CG301      NG3P2       HGP2
   10     4     1	5 ;     CG2R61      CG301      NG3P2
   10     4     9	5 ;     CG2R61      CG301      CG321
   10     4     5	5 ;     CG2R61      CG301      CG321
    1     4     9	5 ;      NG3P2      CG301      CG321
    1     4     5	5 ;      NG3P2      CG301      CG321
    9     4     5	5 ;      CG321      CG301      CG321
    4     5     6	5 ;      CG301      CG321      CG321
    4     5    40	5 ;      CG301      CG321       HGA2
    4     5    41	5 ;      CG301      CG321       HGA2
    6     5    40	5 ;      CG321      CG321       HGA2
    6     5    41	5 ;      CG321      CG321       HGA2
   40     5    41	5 ;       HGA2      CG321       HGA2
    5     6     7	5 ;      CG321      CG321      CG321
    5     6    42	5 ;      CG321      CG321       HGA2
    5     6    43	5 ;      CG321      CG321       HGA2
    7     6    42	5 ;      CG321      CG321       HGA2
    7     6    43	5 ;      CG321      CG321       HGA2
   42     6    43	5 ;       HGA2      CG321       HGA2
    8     7     6	5 ;      CG321      CG321      CG321
    8     7    44	5 ;      CG321      CG321       HGA2
    8     7    45	5 ;      CG321      CG321       HGA2
    6     7    44	5 ;      CG321      CG321       HGA2
    6     7    45	5 ;      CG321      CG321       HGA2
   44     7    45	5 ;       HGA2      CG321       HGA2
    9     8     7	5 ;      CG321      CG321      CG321
    9     8    46	5 ;      CG321      CG321       HGA2
    9     8    47	5 ;      CG321      CG321       HGA2
    7     8    46	5 ;      CG321      CG321       HGA2
    7     8    47	5 ;      CG321      CG321       HGA2
   46     8    47	5 ;       HGA2      CG321       HGA2
    4     9     8	5 ;      CG301      CG321      CG321
    4     9    48	5 ;      CG301      CG321       HGA2
    4     9    49	5 ;      CG301      CG321       HGA2
    8     9    48	5 ;      CG321      CG321       HGA2
    8     9    49	5 ;      CG321      CG321       HGA2
   48     9    49	5 ;       HGA2      CG321       HGA2
   11    10    16	5 ;     CG2R61     CG2R61     CG2R61
   11    10     4	5 ;     CG2R61     CG2R61      CG301
   16    10     4	5 ;     CG2R61     CG2R61      CG301
   12    11    10	5 ;     CG2R61     CG2R61     CG2R61
   12    11    50	5 ;     CG2R61     CG2R61      HGR62
   10    11    50	5 ;     CG2R61     CG2R61      HGR62
   13    12    14	5 ;       IGR1     CG2R61     CG2R61
   13    12    11	5 ;       IGR1     CG2R61     CG2R61
   14    12    11	5 ;     CG2R61     CG2R61     CG2R61
   12    14    15	5 ;     CG2R61     CG2R61     CG2R61
   12    14    51	5 ;     CG2R61     CG2R61      HGR62
   15    14    51	5 ;     CG2R61     CG2R61      HGR62
   14    15    17	5 ;     CG2R61     CG2R61      CG301
   14    15    16	5 ;     CG2R61     CG2R61     CG2R61
   17    15    16	5 ;      CG301     CG2R61     CG2R61
   15    16    10	5 ;     CG2R61     CG2R61     CG2R61
   15    16    52	5 ;     CG2R61     CG2R61      HGR61
   10    16    52	5 ;     CG2R61     CG2R61      HGR61
   18    17    15	5 ;      CG331      CG301     CG2R61
   18    17    20	5 ;      CG331      CG301      CG331
   18    17    19	5 ;      CG331      CG301      CG331
   15    17    20	5 ;     CG2R61      CG301      CG331
   15    17    19	5 ;     CG2R61      CG301      CG331
   20    17    19	5 ;      CG331      CG301      CG331
   17    18    71	5 ;      CG301      CG331       HGA3
   17    18    72	5 ;      CG301      CG331       HGA3
   17    18    73	5 ;      CG301      CG331       HGA3
   71    18    72	5 ;       HGA3      CG331       HGA3
   71    18    73	5 ;       HGA3      CG331       HGA3
   72    18    73	5 ;       HGA3      CG331       HGA3
   17    19    68	5 ;      CG301      CG331       HGA3
   17    19    69	5 ;      CG301      CG331       HGA3
   17    19    70	5 ;      CG301      CG331       HGA3
   68    19    69	5 ;       HGA3      CG331       HGA3
   68    19    70	5 ;       HGA3      CG331       HGA3
   69    19    70	5 ;       HGA3      CG331       HGA3
   17    20    62	5 ;      CG301      CG331       HGA3
   17    20    63	5 ;      CG301      CG331       HGA3
   17    20    64	5 ;      CG301      CG331       HGA3
   62    20    63	5 ;       HGA3      CG331       HGA3
   62    20    64	5 ;       HGA3      CG331       HGA3
   63    20    64	5 ;       HGA3      CG331       HGA3
   22    21     1	5 ;      CG311      CG324      NG3P2
   22    21    53	5 ;      CG311      CG324       HGA2
   22    21    54	5 ;      CG311      CG324       HGA2
    1    21    53	5 ;      NG3P2      CG324       HGA2
    1    21    54	5 ;      NG3P2      CG324       HGA2
   53    21    54	5 ;       HGA2      CG324       HGA2
   25    22    21	5 ;      CG311      CG311      CG324
   25    22    23	5 ;      CG311      CG311      OG311
   25    22    55	5 ;      CG311      CG311       HGA1
   21    22    23	5 ;      CG324      CG311      OG311
   21    22    55	5 ;      CG324      CG311       HGA1
   23    22    55	5 ;      OG311      CG311       HGA1
   22    23    24	5 ;      CG311      OG311       HGP1
   26    25    22	5 ;      CG321      CG311      CG311
   26    25    35	5 ;      CG321      CG311      NG2S1
   26    25    56	5 ;      CG321      CG311       HGA1
   22    25    35	5 ;      CG311      CG311      NG2S1
   22    25    56	5 ;      CG311      CG311       HGA1
   35    25    56	5 ;      NG2S1      CG311       HGA1
   27    26    25	5 ;     CG2R61      CG321      CG311
   27    26    57	5 ;     CG2R61      CG321       HGA2
   27    26    58	5 ;     CG2R61      CG321       HGA2
   25    26    57	5 ;      CG311      CG321       HGA2
   25    26    58	5 ;      CG311      CG321       HGA2
   57    26    58	5 ;       HGA2      CG321       HGA2
   34    27    26	5 ;     CG2R61     CG2R61      CG321
   34    27    28	5 ;     CG2R61     CG2R61     CG2R61
   26    27    28	5 ;      CG321     CG2R61     CG2R61
   27    28    29	5 ;     CG2R61     CG2R61     CG2R66
   27    28    59	5 ;     CG2R61     CG2R61      HGR62
   29    28    59	5 ;     CG2R66     CG2R61      HGR62
   31    29    28	5 ;     CG2R61     CG2R66     CG2R61
   31    29    30	5 ;     CG2R61     CG2R66       FGR1
   28    29    30	5 ;     CG2R61     CG2R66       FGR1
   32    31    29	5 ;     CG2R66     CG2R61     CG2R66
   32    31    60	5 ;     CG2R66     CG2R61      HGR62
   29    31    60	5 ;     CG2R66     CG2R61      HGR62
   33    32    34	5 ;       FGR1     CG2R66     CG2R61
   33    32    31	5 ;       FGR1     CG2R66     CG2R61
   34    32    31	5 ;     CG2R61     CG2R66     CG2R61
   32    34    27	5 ;     CG2R66     CG2R61     CG2R61
   32    34    61	5 ;     CG2R66     CG2R61      HGR62
   27    34    61	5 ;     CG2R61     CG2R61      HGR62
   39    35    25	5 ;       HGP1      NG2S1      CG311
   39    35    36	5 ;       HGP1      NG2S1      CG2O1
   25    35    36	5 ;      CG311      NG2S1      CG2O1
   35    36    38	5 ;      NG2S1      CG2O1      CG331
   35    36    37	5 ;      NG2S1      CG2O1      OG2D1
   38    36    37	5 ;      CG331      CG2O1      OG2D1
   36    38    65	5 ;      CG2O1      CG331       HGA3
   36    38    66	5 ;      CG2O1      CG331       HGA3
   36    38    67	5 ;      CG2O1      CG331       HGA3
   65    38    66	5 ;       HGA3      CG331       HGA3
   65    38    67	5 ;       HGA3      CG331       HGA3
   66    38    67	5 ;       HGA3      CG331       HGA3

[ dihedrals ]
;	ai	  aj	ak	  al funct			  c0			c1			  c2			c3			  c4			c5
    3     1    21    22	 9 ;       HGP2      NG3P2      CG324      CG311
    3     1    21    53	 9 ;       HGP2      NG3P2      CG324       HGA2
    3     1    21    54	 9 ;       HGP2      NG3P2      CG324       HGA2
    4     1    21    22	 9 ;      CG301      NG3P2      CG324      CG311
    4     1    21    53	 9 ;      CG301      NG3P2      CG324       HGA2
    4     1    21    54	 9 ;      CG301      NG3P2      CG324       HGA2
    2     1    21    22	 9 ;       HGP2      NG3P2      CG324      CG311
    2     1    21    53	 9 ;       HGP2      NG3P2      CG324       HGA2
    2     1    21    54	 9 ;       HGP2      NG3P2      CG324       HGA2
   21     1     4    10	 9 ;      CG324      NG3P2      CG301     CG2R61
   21     1     4     9	 9 ;      CG324      NG3P2      CG301      CG321
   21     1     4     5	 9 ;      CG324      NG3P2      CG301      CG321
    3     1     4    10	 9 ;       HGP2      NG3P2      CG301     CG2R61
    3     1     4     9	 9 ;       HGP2      NG3P2      CG301      CG321
    3     1     4     5	 9 ;       HGP2      NG3P2      CG301      CG321
    2     1     4    10	 9 ;       HGP2      NG3P2      CG301     CG2R61
    2     1     4     9	 9 ;       HGP2      NG3P2      CG301      CG321
    2     1     4     5	 9 ;       HGP2      NG3P2      CG301      CG321
    1     4    10    11	 9 ;      NG3P2      CG301     CG2R61     CG2R61
    1     4    10    16	 9 ;      NG3P2      CG301     CG2R61     CG2R61
    9     4    10    11	 9 ;      CG321      CG301     CG2R61     CG2R61
    9     4    10    16	 9 ;      CG321      CG301     CG2R61     CG2R61
    5     4    10    11	 9 ;      CG321      CG301     CG2R61     CG2R61
    5     4    10    16	 9 ;      CG321      CG301     CG2R61     CG2R61
   10     4     9     8	 9 ;     CG2R61      CG301      CG321      CG321
   10     4     9    48	 9 ;     CG2R61      CG301      CG321       HGA2
   10     4     9    49	 9 ;     CG2R61      CG301      CG321       HGA2
    1     4     9     8	 9 ;      NG3P2      CG301      CG321      CG321
    1     4     9    48	 9 ;      NG3P2      CG301      CG321       HGA2
    1     4     9    49	 9 ;      NG3P2      CG301      CG321       HGA2
    5     4     9     8	 9 ;      CG321      CG301      CG321      CG321
    5     4     9    48	 9 ;      CG321      CG301      CG321       HGA2
    5     4     9    49	 9 ;      CG321      CG301      CG321       HGA2
   10     4     5     6	 9 ;     CG2R61      CG301      CG321      CG321
   10     4     5    40	 9 ;     CG2R61      CG301      CG321       HGA2
   10     4     5    41	 9 ;     CG2R61      CG301      CG321       HGA2
    1     4     5     6	 9 ;      NG3P2      CG301      CG321      CG321
    1     4     5    40	 9 ;      NG3P2      CG301      CG321       HGA2
    1     4     5    41	 9 ;      NG3P2      CG301      CG321       HGA2
    9     4     5     6	 9 ;      CG321      CG301      CG321      CG321
    9     4     5    40	 9 ;      CG321      CG301      CG321       HGA2
    9     4     5    41	 9 ;      CG321      CG301      CG321       HGA2
    4     5     6     7	 9 ;      CG301      CG321      CG321      CG321
    4     5     6    42	 9 ;      CG301      CG321      CG321       HGA2
    4     5     6    43	 9 ;      CG301      CG321      CG321       HGA2
   40     5     6     7	 9 ;       HGA2      CG321      CG321      CG321
   40     5     6    42	 9 ;       HGA2      CG321      CG321       HGA2
   40     5     6    43	 9 ;       HGA2      CG321      CG321       HGA2
   41     5     6     7	 9 ;       HGA2      CG321      CG321      CG321
   41     5     6    42	 9 ;       HGA2      CG321      CG321       HGA2
   41     5     6    43	 9 ;       HGA2      CG321      CG321       HGA2
    5     6     7     8	 9 ;      CG321      CG321      CG321      CG321
    5     6     7    44	 9 ;      CG321      CG321      CG321       HGA2
    5     6     7    45	 9 ;      CG321      CG321      CG321       HGA2
   42     6     7     8	 9 ;       HGA2      CG321      CG321      CG321
   42     6     7    44	 9 ;       HGA2      CG321      CG321       HGA2
   42     6     7    45	 9 ;       HGA2      CG321      CG321       HGA2
   43     6     7     8	 9 ;       HGA2      CG321      CG321      CG321
   43     6     7    44	 9 ;       HGA2      CG321      CG321       HGA2
   43     6     7    45	 9 ;       HGA2      CG321      CG321       HGA2
    6     7     8     9	 9 ;      CG321      CG321      CG321      CG321
    6     7     8    46	 9 ;      CG321      CG321      CG321       HGA2
    6     7     8    47	 9 ;      CG321      CG321      CG321       HGA2
   44     7     8     9	 9 ;       HGA2      CG321      CG321      CG321
   44     7     8    46	 9 ;       HGA2      CG321      CG321       HGA2
   44     7     8    47	 9 ;       HGA2      CG321      CG321       HGA2
   45     7     8     9	 9 ;       HGA2      CG321      CG321      CG321
   45     7     8    46	 9 ;       HGA2      CG321      CG321       HGA2
   45     7     8    47	 9 ;       HGA2      CG321      CG321       HGA2
    7     8     9     4	 9 ;      CG321      CG321      CG321      CG301
    7     8     9    48	 9 ;      CG321      CG321      CG321       HGA2
    7     8     9    49	 9 ;      CG321      CG321      CG321       HGA2
   46     8     9     4	 9 ;       HGA2      CG321      CG321      CG301
   46     8     9    48	 9 ;       HGA2      CG321      CG321       HGA2
   46     8     9    49	 9 ;       HGA2      CG321      CG321       HGA2
   47     8     9     4	 9 ;       HGA2      CG321      CG321      CG301
   47     8     9    48	 9 ;       HGA2      CG321      CG321       HGA2
   47     8     9    49	 9 ;       HGA2      CG321      CG321       HGA2
   16    10    11    12	 9 ;     CG2R61     CG2R61     CG2R61     CG2R61
   16    10    11    50	 9 ;     CG2R61     CG2R61     CG2R61      HGR62
    4    10    11    12	 9 ;      CG301     CG2R61     CG2R61     CG2R61
    4    10    11    50	 9 ;      CG301     CG2R61     CG2R61      HGR62
   11    10    16    15	 9 ;     CG2R61     CG2R61     CG2R61     CG2R61
   11    10    16    52	 9 ;     CG2R61     CG2R61     CG2R61      HGR61
    4    10    16    15	 9 ;      CG301     CG2R61     CG2R61     CG2R61
    4    10    16    52	 9 ;      CG301     CG2R61     CG2R61      HGR61
   10    11    12    13	 9 ;     CG2R61     CG2R61     CG2R61       IGR1
   10    11    12    14	 9 ;     CG2R61     CG2R61     CG2R61     CG2R61
   50    11    12    13	 9 ;      HGR62     CG2R61     CG2R61       IGR1
   50    11    12    14	 9 ;      HGR62     CG2R61     CG2R61     CG2R61
   13    12    14    15	 9 ;       IGR1     CG2R61     CG2R61     CG2R61
   13    12    14    51	 9 ;       IGR1     CG2R61     CG2R61      HGR62
   11    12    14    15	 9 ;     CG2R61     CG2R61     CG2R61     CG2R61
   11    12    14    51	 9 ;     CG2R61     CG2R61     CG2R61      HGR62
   12    14    15    17	 9 ;     CG2R61     CG2R61     CG2R61      CG301
   12    14    15    16	 9 ;     CG2R61     CG2R61     CG2R61     CG2R61
   51    14    15    17	 9 ;      HGR62     CG2R61     CG2R61      CG301
   51    14    15    16	 9 ;      HGR62     CG2R61     CG2R61     CG2R61
   14    15    17    18	 9 ;     CG2R61     CG2R61      CG301      CG331
   14    15    17    20	 9 ;     CG2R61     CG2R61      CG301      CG331
   14    15    17    19	 9 ;     CG2R61     CG2R61      CG301      CG331
   16    15    17    18	 9 ;     CG2R61     CG2R61      CG301      CG331
   16    15    17    20	 9 ;     CG2R61     CG2R61      CG301      CG331
   16    15    17    19	 9 ;     CG2R61     CG2R61      CG301      CG331
   14    15    16    10	 9 ;     CG2R61     CG2R61     CG2R61     CG2R61
   14    15    16    52	 9 ;     CG2R61     CG2R61     CG2R61      HGR61
   17    15    16    10	 9 ;      CG301     CG2R61     CG2R61     CG2R61
   17    15    16    52	 9 ;      CG301     CG2R61     CG2R61      HGR61
   15    17    18    71	 9 ;     CG2R61      CG301      CG331       HGA3
   15    17    18    72	 9 ;     CG2R61      CG301      CG331       HGA3
   15    17    18    73	 9 ;     CG2R61      CG301      CG331       HGA3
   20    17    18    71	 9 ;      CG331      CG301      CG331       HGA3
   20    17    18    72	 9 ;      CG331      CG301      CG331       HGA3
   20    17    18    73	 9 ;      CG331      CG301      CG331       HGA3
   19    17    18    71	 9 ;      CG331      CG301      CG331       HGA3
   19    17    18    72	 9 ;      CG331      CG301      CG331       HGA3
   19    17    18    73	 9 ;      CG331      CG301      CG331       HGA3
   18    17    20    62	 9 ;      CG331      CG301      CG331       HGA3
   18    17    20    63	 9 ;      CG331      CG301      CG331       HGA3
   18    17    20    64	 9 ;      CG331      CG301      CG331       HGA3
   15    17    20    62	 9 ;     CG2R61      CG301      CG331       HGA3
   15    17    20    63	 9 ;     CG2R61      CG301      CG331       HGA3
   15    17    20    64	 9 ;     CG2R61      CG301      CG331       HGA3
   19    17    20    62	 9 ;      CG331      CG301      CG331       HGA3
   19    17    20    63	 9 ;      CG331      CG301      CG331       HGA3
   19    17    20    64	 9 ;      CG331      CG301      CG331       HGA3
   18    17    19    68	 9 ;      CG331      CG301      CG331       HGA3
   18    17    19    69	 9 ;      CG331      CG301      CG331       HGA3
   18    17    19    70	 9 ;      CG331      CG301      CG331       HGA3
   15    17    19    68	 9 ;     CG2R61      CG301      CG331       HGA3
   15    17    19    69	 9 ;     CG2R61      CG301      CG331       HGA3
   15    17    19    70	 9 ;     CG2R61      CG301      CG331       HGA3
   20    17    19    68	 9 ;      CG331      CG301      CG331       HGA3
   20    17    19    69	 9 ;      CG331      CG301      CG331       HGA3
   20    17    19    70	 9 ;      CG331      CG301      CG331       HGA3
    1    21    22    25	 9 ;      NG3P2      CG324      CG311      CG311
    1    21    22    23	 9 ;      NG3P2      CG324      CG311      OG311
    1    21    22    55	 9 ;      NG3P2      CG324      CG311       HGA1
   53    21    22    25	 9 ;       HGA2      CG324      CG311      CG311
   53    21    22    23	 9 ;       HGA2      CG324      CG311      OG311
   53    21    22    55	 9 ;       HGA2      CG324      CG311       HGA1
   54    21    22    25	 9 ;       HGA2      CG324      CG311      CG311
   54    21    22    23	 9 ;       HGA2      CG324      CG311      OG311
   54    21    22    55	 9 ;       HGA2      CG324      CG311       HGA1
   21    22    25    26	 9 ;      CG324      CG311      CG311      CG321
   21    22    25    35	 9 ;      CG324      CG311      CG311      NG2S1
   21    22    25    56	 9 ;      CG324      CG311      CG311       HGA1
   23    22    25    26	 9 ;      OG311      CG311      CG311      CG321
   23    22    25    35	 9 ;      OG311      CG311      CG311      NG2S1
   23    22    25    56	 9 ;      OG311      CG311      CG311       HGA1
   55    22    25    26	 9 ;       HGA1      CG311      CG311      CG321
   55    22    25    35	 9 ;       HGA1      CG311      CG311      NG2S1
   55    22    25    56	 9 ;       HGA1      CG311      CG311       HGA1
   25    22    23    24	 9 ;      CG311      CG311      OG311       HGP1
   21    22    23    24	 9 ;      CG324      CG311      OG311       HGP1
   55    22    23    24	 9 ;       HGA1      CG311      OG311       HGP1
   22    25    26    27	 9 ;      CG311      CG311      CG321     CG2R61
   22    25    26    57	 9 ;      CG311      CG311      CG321       HGA2
   22    25    26    58	 9 ;      CG311      CG311      CG321       HGA2
   35    25    26    27	 9 ;      NG2S1      CG311      CG321     CG2R61
   35    25    26    57	 9 ;      NG2S1      CG311      CG321       HGA2
   35    25    26    58	 9 ;      NG2S1      CG311      CG321       HGA2
   56    25    26    27	 9 ;       HGA1      CG311      CG321     CG2R61
   56    25    26    57	 9 ;       HGA1      CG311      CG321       HGA2
   56    25    26    58	 9 ;       HGA1      CG311      CG321       HGA2
   26    25    35    39	 9 ;      CG321      CG311      NG2S1       HGP1
   26    25    35    36	 9 ;      CG321      CG311      NG2S1      CG2O1
   22    25    35    39	 9 ;      CG311      CG311      NG2S1       HGP1
   22    25    35    36	 9 ;      CG311      CG311      NG2S1      CG2O1
   56    25    35    39	 9 ;       HGA1      CG311      NG2S1       HGP1
   56    25    35    36	 9 ;       HGA1      CG311      NG2S1      CG2O1
   25    26    27    34	 9 ;      CG311      CG321     CG2R61     CG2R61
   25    26    27    28	 9 ;      CG311      CG321     CG2R61     CG2R61
   57    26    27    34	 9 ;       HGA2      CG321     CG2R61     CG2R61
   57    26    27    28	 9 ;       HGA2      CG321     CG2R61     CG2R61
   58    26    27    34	 9 ;       HGA2      CG321     CG2R61     CG2R61
   58    26    27    28	 9 ;       HGA2      CG321     CG2R61     CG2R61
   26    27    34    32	 9 ;      CG321     CG2R61     CG2R61     CG2R66
   26    27    34    61	 9 ;      CG321     CG2R61     CG2R61      HGR62
   28    27    34    32	 9 ;     CG2R61     CG2R61     CG2R61     CG2R66
   28    27    34    61	 9 ;     CG2R61     CG2R61     CG2R61      HGR62
   34    27    28    29	 9 ;     CG2R61     CG2R61     CG2R61     CG2R66
   34    27    28    59	 9 ;     CG2R61     CG2R61     CG2R61      HGR62
   26    27    28    29	 9 ;      CG321     CG2R61     CG2R61     CG2R66
   26    27    28    59	 9 ;      CG321     CG2R61     CG2R61      HGR62
   27    28    29    31	 9 ;     CG2R61     CG2R61     CG2R66     CG2R61
   27    28    29    30	 9 ;     CG2R61     CG2R61     CG2R66       FGR1
   59    28    29    31	 9 ;      HGR62     CG2R61     CG2R66     CG2R61
   59    28    29    30	 9 ;      HGR62     CG2R61     CG2R66       FGR1
   28    29    31    32	 9 ;     CG2R61     CG2R66     CG2R61     CG2R66
   28    29    31    60	 9 ;     CG2R61     CG2R66     CG2R61      HGR62
   30    29    31    32	 9 ;       FGR1     CG2R66     CG2R61     CG2R66
   30    29    31    60	 9 ;       FGR1     CG2R66     CG2R61      HGR62
   29    31    32    33	 9 ;     CG2R66     CG2R61     CG2R66       FGR1
   29    31    32    34	 9 ;     CG2R66     CG2R61     CG2R66     CG2R61
   60    31    32    33	 9 ;      HGR62     CG2R61     CG2R66       FGR1
   60    31    32    34	 9 ;      HGR62     CG2R61     CG2R66     CG2R61
   33    32    34    27	 9 ;       FGR1     CG2R66     CG2R61     CG2R61
   33    32    34    61	 9 ;       FGR1     CG2R66     CG2R61      HGR62
   31    32    34    27	 9 ;     CG2R61     CG2R66     CG2R61     CG2R61
   31    32    34    61	 9 ;     CG2R61     CG2R66     CG2R61      HGR62
   39    35    36    38	 9 ;       HGP1      NG2S1      CG2O1      CG331
   39    35    36    37	 9 ;       HGP1      NG2S1      CG2O1      OG2D1
   25    35    36    38	 9 ;      CG311      NG2S1      CG2O1      CG331
   25    35    36    37	 9 ;      CG311      NG2S1      CG2O1      OG2D1
   35    36    38    65	 9 ;      NG2S1      CG2O1      CG331       HGA3
   35    36    38    66	 9 ;      NG2S1      CG2O1      CG331       HGA3
   35    36    38    67	 9 ;      NG2S1      CG2O1      CG331       HGA3
   37    36    38    65	 9 ;      OG2D1      CG2O1      CG331       HGA3
   37    36    38    66	 9 ;      OG2D1      CG2O1      CG331       HGA3
   37    36    38    67	 9 ;      OG2D1      CG2O1      CG331       HGA3

[ dihedrals ]
;	ai	  aj	ak	  al funct			  c0			c1			  c2			c3
   36    38    35    37	 2

[ virtual_sites2 ]
; Site   from				funct a
   74    13    12     2   -0.220

[ exclusions ]
;	ai	  aj
   13    74
   74    12
   74    14
   74    11
   74    10
   74    50
   74    15
   74    51

