Gromacs Runs One Microsecond At Cannonball Speeds
   74
    1LIG     N1    1  -1.544   0.503  -1.634
    1LIG     H1    2  -1.610   0.574  -1.598
    1LIG     H2    3  -1.452   0.545  -1.615
    1LIG     C1    4  -1.560   0.376  -1.553
    1LIG     C2    5  -1.617   0.420  -1.415
    1LIG     C3    6  -1.758   0.483  -1.423
    1LIG     C4    7  -1.857   0.395  -1.497
    1LIG     C5    8  -1.805   0.350  -1.633
    1LIG     C6    9  -1.667   0.287  -1.622
    1LIG     C7   10  -1.422   0.308  -1.539
    1LIG     C8   11  -1.339   0.289  -1.651
    1LIG     C9   12  -1.222   0.213  -1.640
    1LIG      I   13  -1.104   0.183  -1.809
    1LIG    C10   14  -1.186   0.153  -1.520
    1LIG    C11   15  -1.265   0.169  -1.406
    1LIG    C12   16  -1.379   0.252  -1.417
    1LIG    C13   17  -1.237   0.088  -1.278
    1LIG    C14   18  -1.086   0.075  -1.245
    1LIG    C15   19  -1.304   0.161  -1.159
    1LIG    C16   20  -1.293  -0.056  -1.285
    1LIG    C17   21  -1.556   0.505  -1.785
    1LIG    C18   22  -1.572   0.653  -1.822
    1LIG     O1   23  -1.711   0.686  -1.801
    1LIG     H3   24  -1.737   0.750  -1.870
    1LIG    C19   25  -1.477   0.753  -1.751
    1LIG    C20   26  -1.330   0.742  -1.798
    1LIG    C21   27  -1.235   0.668  -1.704
    1LIG    C22   28  -1.261   0.650  -1.568
    1LIG    C23   29  -1.169   0.581  -1.487
    1LIG     F1   30  -1.196   0.566  -1.356
    1LIG    C24   31  -1.053   0.528  -1.540
    1LIG    C25   32  -1.028   0.543  -1.675
    1LIG     F2   33  -0.917   0.490  -1.729
    1LIG    C26   34  -1.118   0.611  -1.758
    1LIG     N2   35  -1.527   0.891  -1.759
    1LIG    C27   36  -1.593   0.946  -1.651
    1LIG     O2   37  -1.632   0.878  -1.556
    1LIG    C28   38  -1.613   1.095  -1.657
    1LIG     H4   39  -1.477   0.957  -1.819
    1LIG    HC2   40  -1.623   0.332  -1.351
    1LIG    HC3   41  -1.549   0.491  -1.369
    1LIG    HC4   42  -1.794   0.500  -1.322
    1LIG    HC5   43  -1.750   0.579  -1.474
    1LIG    HC6   44  -1.949   0.452  -1.512
    1LIG    HC7   45  -1.879   0.307  -1.436
    1LIG    HC8   46  -1.875   0.276  -1.674
    1LIG    HC9   47  -1.800   0.436  -1.699
    1LIG   HC10   48  -1.632   0.263  -1.722
    1LIG   HC11   49  -1.676   0.193  -1.566
    1LIG     HC   50  -1.366   0.333  -1.746
    1LIG    HC1   51  -1.096   0.093  -1.515
    1LIG   HC12   52  -1.436   0.273  -1.328
    1LIG   HC13   53  -1.643   0.447  -1.817
    1LIG   HC14   54  -1.466   0.464  -1.830
    1LIG   HC15   55  -1.554   0.662  -1.929
    1LIG   HC16   56  -1.478   0.727  -1.645
    1LIG   HC17   57  -1.330   0.689  -1.893
    1LIG   HC18   58  -1.291   0.842  -1.814
    1LIG   HC19   59  -1.351   0.689  -1.524
    1LIG   HC20   60  -0.982   0.476  -1.476
    1LIG   HC21   61  -1.097   0.621  -1.863
    1LIG   HC22   62  -1.400  -0.052  -1.308
    1LIG   HC23   63  -1.279  -0.105  -1.189
    1LIG   HC24   64  -1.241  -0.111  -1.363
    1LIG   HC25   65  -1.665   1.129  -1.568
    1LIG   HC26   66  -1.516   1.144  -1.663
    1LIG   HC27   67  -1.672   1.120  -1.745
    1LIG   HC28   68  -1.268   0.119  -1.065
    1LIG   HC29   69  -1.412   0.149  -1.166
    1LIG   HC30   70  -1.278   0.267  -1.163
    1LIG   HC31   71  -1.042   0.175  -1.238
    1LIG   HC32   72  -1.036   0.019  -1.323
    1LIG   HC33   73  -1.074   0.024  -1.149
    1LIG    LP1   74  -0.979   0.152  -1.988
   0.00000   0.00000   0.00000
