Giant Rising Ordinary Mutants for A Clerical Setup
   72
    1LIG     C1    1  -1.753   0.664  -1.348
    1LIG     C2    2  -1.704   0.567  -1.435
    1LIG     C3    3  -1.660   0.444  -1.385
    1LIG     C4    4  -1.670   0.419  -1.247
    1LIG     C5    5  -1.700   0.524  -1.157
    1LIG     C6    6  -1.745   0.645  -1.209
    1LIG     C7    7  -1.589   0.349  -1.472
    1LIG     O1    8  -1.473   0.393  -1.530
    1LIG     C8    9  -1.414   0.286  -1.592
    1LIG     C9   10  -1.492   0.174  -1.574
    1LIG    C10   11  -1.603   0.214  -1.495
    1LIG    C11   12  -1.281   0.310  -1.659
    1LIG    C12   13  -1.169   0.318  -1.553
    1LIG    C13   14  -1.255   0.200  -1.766
    1LIG    C14   15  -1.154   0.093  -1.730
    1LIG    C15   16  -1.020   0.106  -1.767
    1LIG    C16   17  -0.924   0.014  -1.724
    1LIG    C17   18  -0.962  -0.092  -1.641
    1LIG    C18   19  -1.096  -0.109  -1.608
    1LIG    C19   20  -1.192  -0.019  -1.654
    1LIG     N1   21  -1.283   0.445  -1.727
    1LIG     H1   22  -1.190   0.487  -1.732
    1LIG     H2   23  -1.317   0.438  -1.824
    1LIG     H3   24  -1.344   0.509  -1.676
    1LIG     N2   25  -1.805   0.785  -1.402
    1LIG    C20   26  -1.946   0.818  -1.376
    1LIG      S   27  -1.698   0.899  -1.464
    1LIG     O2   28  -1.568   0.877  -1.405
    1LIG     O3   29  -1.760   1.030  -1.454
    1LIG    C21   30  -1.687   0.857  -1.637
    1LIG    C22   31  -1.658   0.509  -1.013
    1LIG     O4   32  -1.594   0.598  -0.961
    1LIG     N3   33  -1.701   0.395  -0.947
    1LIG     H4   34  -1.739   0.319  -1.003
    1LIG    C23   35  -1.669   0.362  -0.808
    1LIG    C24   36  -1.773   0.424  -0.712
    1LIG    C25   37  -1.658   0.210  -0.793
    1LIG    C26   38  -1.768   0.128  -0.825
    1LIG    C27   39  -1.760  -0.011  -0.814
    1LIG    C28   40  -1.643  -0.071  -0.770
    1LIG      F   41  -1.635  -0.204  -0.761
    1LIG    C29   42  -1.534   0.007  -0.734
    1LIG    C30   43  -1.541   0.147  -0.744
    1LIG     H5   44  -1.700   0.586  -1.536
    1LIG     H6   45  -1.656   0.323  -1.211
    1LIG     H7   46  -1.774   0.720  -1.145
    1LIG     H8   47  -1.474   0.079  -1.610
    1LIG     H9   48  -1.680   0.154  -1.462
    1LIG    H10   49  -1.075   0.335  -1.601
    1LIG    H11   50  -1.165   0.226  -1.499
    1LIG    H12   51  -1.190   0.398  -1.485
    1LIG    H13   52  -1.348   0.152  -1.785
    1LIG    H14   53  -1.213   0.252  -1.849
    1LIG    H15   54  -0.990   0.185  -1.827
    1LIG    H16   55  -0.826   0.023  -1.752
    1LIG    H17   56  -0.891  -0.157  -1.605
    1LIG    H18   57  -1.125  -0.189  -1.549
    1LIG    H19   58  -1.292  -0.034  -1.632
    1LIG    H20   59  -1.970   0.911  -1.423
    1LIG    H21   60  -1.963   0.825  -1.271
    1LIG    H22   61  -2.008   0.741  -1.417
    1LIG    H23   62  -1.620   0.924  -1.687
    1LIG    H24   63  -1.784   0.863  -1.681
    1LIG    H25   64  -1.651   0.757  -1.647
    1LIG    H26   65  -1.575   0.404  -0.781
    1LIG    H27   66  -1.870   0.385  -0.735
    1LIG    H28   67  -1.774   0.530  -0.725
    1LIG    H29   68  -1.747   0.400  -0.611
    1LIG    H30   69  -1.856   0.172  -0.856
    1LIG    H31   70  -1.841  -0.070  -0.840
    1LIG    H32   71  -1.447  -0.037  -0.700
    1LIG    H33   72  -1.460   0.205  -0.716
   0.00000   0.00000   0.00000
