Grunge ROck MAChoS
   49
    1LIG     C1    1  -1.435   0.378  -1.592
    1LIG     N1    2  -1.414   0.356  -1.741
    1LIG     HN    3  -1.428   0.269  -1.792
    1LIG     C2    4  -1.374   0.468  -1.789
    1LIG     N2    5  -1.366   0.571  -1.704
    1LIG     C3    6  -1.296   0.696  -1.724
    1LIG     C4    7  -1.420   0.532  -1.584
    1LIG     O1    8  -1.442   0.606  -1.488
    1LIG     C5    9  -1.571   0.320  -1.550
    1LIG     C6   10  -1.618   0.348  -1.419
    1LIG     C7   11  -1.749   0.319  -1.380
    1LIG     C8   12  -1.835   0.257  -1.471
    1LIG     C9   13  -1.789   0.224  -1.599
    1LIG    C10   14  -1.658   0.256  -1.638
    1LIG    C11   15  -1.797   0.366  -1.245
    1LIG    C12   16  -1.927   0.297  -1.206
    1LIG    C13   17  -1.321   0.311  -1.511
    1LIG    C14   18  -1.275   0.366  -1.390
    1LIG    C15   19  -1.170   0.307  -1.319
    1LIG    C16   20  -1.112   0.190  -1.365
    1LIG    C17   21  -1.157   0.133  -1.484
    1LIG    C18   22  -1.262   0.192  -1.556
    1LIG     O2   23  -1.009   0.123  -1.305
    1LIG    C19   24  -0.938   0.032  -1.388
    1LIG     F1   25  -0.809   0.075  -1.393
    1LIG     F2   26  -0.936  -0.089  -1.328
    1LIG     N3   27  -1.344   0.483  -1.920
    1LIG     H1   28  -1.346   0.581  -1.949
    1LIG     H2   29  -1.262   0.436  -1.953
    1LIG    HN2   30  -1.510   0.382  -1.759
    1LIG     HC   31  -1.270   0.442  -1.768
    1LIG    HC1   32  -1.308   0.759  -1.636
    1LIG    HC2   33  -1.190   0.675  -1.739
    1LIG    HC3   34  -1.336   0.746  -1.811
    1LIG    HC4   35  -1.550   0.392  -1.348
    1LIG    HC5   36  -1.936   0.235  -1.442
    1LIG    HC6   37  -1.855   0.174  -1.668
    1LIG    HC7   38  -1.625   0.232  -1.738
    1LIG    HC8   39  -1.814   0.474  -1.249
    1LIG    HC9   40  -1.721   0.345  -1.170
    1LIG   HC10   41  -1.952   0.321  -1.103
    1LIG   HC11   42  -2.008   0.332  -1.271
    1LIG   HC12   43  -1.916   0.190  -1.217
    1LIG   HC13   44  -1.322   0.455  -1.351
    1LIG   HC14   45  -1.135   0.353  -1.228
    1LIG   HC15   46  -1.111   0.042  -1.521
    1LIG   HC16   47  -1.297   0.145  -1.647
    1LIG   HC17   48  -0.982   0.026  -1.487
    1LIG    HN1   49  -1.421   0.440  -1.970
   0.00000   0.00000   0.00000
