; Created by cgenff_charmm2gmx.py

[ moleculetype ]
; Name			   nrexcl
LIG				 3

[ atoms ]
;	 nr		  type	resnr residue  atom   cgnr	   charge		mass  typeB    chargeB		massB
; residue	 1 LIG rtp LIG q	qsum
     1     CG3C50      1    LIG     C1      1      1.599     12.011   ;
     2      NG3P2      1    LIG     N1      2     -0.701     14.007   ;
     3       HGP2      1    LIG     HN      3      0.353      1.008   ;
     4     CG3C53      1    LIG     C2      4      0.784     12.011   ;
     5     NG2R53      1    LIG     N2      5     -0.171     14.007   ;
     6      CG331      1    LIG     C3      6     -0.169     12.011   ;
     7     CG2R53      1    LIG     C4      7     -0.361     12.011   ;
     8      OG2D1      1    LIG     O1      8     -0.342     15.999   ;
     9     CG2R61      1    LIG     C5      9     -0.150     12.011   ;
    10     CG2R61      1    LIG     C6     10     -0.139     12.011   ;
    11     CG2R61      1    LIG     C7     11      0.015     12.011   ;
    12     CG2R61      1    LIG     C8     12     -0.124     12.011   ;
    13     CG2R61      1    LIG     C9     13     -0.101     12.011   ;
    14     CG2R61      1    LIG    C10     14     -0.131     12.011   ;
    15      CG321      1    LIG    C11     15     -0.175     12.011   ;
    16      CG331      1    LIG    C12     16     -0.271     12.011   ;
    17     CG2R61      1    LIG    C13     17     -0.154     12.011   ;
    18     CG2R61      1    LIG    C14     18     -0.128     12.011   ;
    19     CG2R61      1    LIG    C15     19     -0.108     12.011   ;
    20     CG2R61      1    LIG    C16     20      0.217     12.011   ;
    21     CG2R61      1    LIG    C17     21     -0.108     12.011   ;
    22     CG2R61      1    LIG    C18     22     -0.128     12.011   ;
    23      OG301      1    LIG     O2     23     -0.272     15.999   ;
    24      CG312      1    LIG    C19     24      0.216     12.011   ;
    25       FGA2      1    LIG     F1     25     -0.160     18.998   ;
    26       FGA2      1    LIG     F2     26     -0.160     18.998   ;
    27      NG3P3      1    LIG     N3     27     -0.267     14.007   ;
    28       HGP2      1    LIG     H1     28      0.301      1.008   ;
    29       HGP2      1    LIG     H2     29      0.301      1.008   ;
    30       HGP2      1    LIG    HN2     30      0.353      1.008   ;
    31       HGA1      1    LIG     HC     31      0.073      1.008   ;
    32       HGA3      1    LIG    HC1     32      0.090      1.008   ;
    33       HGA3      1    LIG    HC2     33      0.090      1.008   ;
    34       HGA3      1    LIG    HC3     34      0.090      1.008   ;
    35      HGR61      1    LIG    HC4     35      0.116      1.008   ;
    36      HGR61      1    LIG    HC5     36      0.116      1.008   ;
    37      HGR61      1    LIG    HC6     37      0.116      1.008   ;
    38      HGR61      1    LIG    HC7     38      0.116      1.008   ;
    39       HGA2      1    LIG    HC8     39      0.090      1.008   ;
    40       HGA2      1    LIG    HC9     40      0.090      1.008   ;
    41       HGA3      1    LIG   HC10     41      0.090      1.008   ;
    42       HGA3      1    LIG   HC11     42      0.090      1.008   ;
    43       HGA3      1    LIG   HC12     43      0.090      1.008   ;
    44      HGR61      1    LIG   HC13     44      0.116      1.008   ;
    45      HGR61      1    LIG   HC14     45      0.116      1.008   ;
    46      HGR61      1    LIG   HC15     46      0.116      1.008   ;
    47      HGR61      1    LIG   HC16     47      0.116      1.008   ;
    48       HGA7      1    LIG   HC17     48      0.159      1.008   ;
    49       HGP2      1    LIG    HN1     49      0.301      1.008   ;

[ bonds ]
;	ai	  aj funct			  c0			c1			  c2			c3
    1     2	 1 ;      CG3C50      NG3P2
    1     7	 1 ;      CG3C50     CG2R53
    1    17	 1 ;      CG3C50     CG2R61
    1     9	 1 ;      CG3C50     CG2R61
    2     4	 1 ;       NG3P2     CG3C53
    2     3	 1 ;       NG3P2       HGP2
    2    30	 1 ;       NG3P2       HGP2
    4    27	 1 ;      CG3C53      NG3P3
    4     5	 1 ;      CG3C53     NG2R53
    4    31	 1 ;      CG3C53       HGA1
    5     6	 1 ;      NG2R53      CG331
    5     7	 1 ;      NG2R53     CG2R53
    6    32	 1 ;       CG331       HGA3
    6    33	 1 ;       CG331       HGA3
    6    34	 1 ;       CG331       HGA3
    7     8	 1 ;      CG2R53      OG2D1
    9    14	 1 ;      CG2R61     CG2R61
    9    10	 1 ;      CG2R61     CG2R61
   10    11	 1 ;      CG2R61     CG2R61
   10    35	 1 ;      CG2R61      HGR61
   11    12	 1 ;      CG2R61     CG2R61
   11    15	 1 ;      CG2R61      CG321
   12    13	 1 ;      CG2R61     CG2R61
   12    36	 1 ;      CG2R61      HGR61
   13    14	 1 ;      CG2R61     CG2R61
   13    37	 1 ;      CG2R61      HGR61
   14    38	 1 ;      CG2R61      HGR61
   15    16	 1 ;       CG321      CG331
   15    39	 1 ;       CG321       HGA2
   15    40	 1 ;       CG321       HGA2
   16    41	 1 ;       CG331       HGA3
   16    42	 1 ;       CG331       HGA3
   16    43	 1 ;       CG331       HGA3
   17    22	 1 ;      CG2R61     CG2R61
   17    18	 1 ;      CG2R61     CG2R61
   18    19	 1 ;      CG2R61     CG2R61
   18    44	 1 ;      CG2R61      HGR61
   19    20	 1 ;      CG2R61     CG2R61
   19    45	 1 ;      CG2R61      HGR61
   20    21	 1 ;      CG2R61     CG2R61
   20    23	 1 ;      CG2R61      OG301
   21    22	 1 ;      CG2R61     CG2R61
   21    46	 1 ;      CG2R61      HGR61
   22    47	 1 ;      CG2R61      HGR61
   23    24	 1 ;       OG301      CG312
   24    25	 1 ;       CG312       FGA2
   24    26	 1 ;       CG312       FGA2
   24    48	 1 ;       CG312       HGA7
   27    29	 1 ;       NG3P3       HGP2
   27    28	 1 ;       NG3P3       HGP2
   27    49	 1 ;       NG3P3       HGP2

[ pairs ]
;	ai	  aj funct			  c0			c1			  c2			c3
    1    27	 1
    1    31	 1
    1     6	 1
    1    13	 1
    1    38	 1
    1    11	 1
    1    35	 1
    1    21	 1
    1    47	 1
    1    19	 1
    1    44	 1
    2     8	 1
    2    22	 1
    2    18	 1
    2    14	 1
    2    10	 1
    2    29	 1
    2    28	 1
    2    49	 1
    2     6	 1
    3     7	 1
    3    17	 1
    3     9	 1
    3    27	 1
    3     5	 1
    3    31	 1
    4    17	 1
    4     9	 1
    4    32	 1
    4    33	 1
    4    34	 1
    4     8	 1
    5    17	 1
    5     9	 1
    5    30	 1
    5    29	 1
    5    28	 1
    5    49	 1
    6    27	 1
    6    31	 1
    6     8	 1
    7    30	 1
    7    22	 1
    7    18	 1
    7    14	 1
    7    10	 1
    7    27	 1
    7    31	 1
    7    32	 1
    7    33	 1
    7    34	 1
    8    17	 1
    8     9	 1
    9    30	 1
    9    22	 1
    9    18	 1
    9    12	 1
    9    15	 1
    9    37	 1
   10    17	 1
   10    13	 1
   10    38	 1
   10    36	 1
   10    16	 1
   10    39	 1
   10    40	 1
   11    14	 1
   11    37	 1
   11    41	 1
   11    42	 1
   11    43	 1
   12    35	 1
   12    16	 1
   12    39	 1
   12    40	 1
   12    38	 1
   13    15	 1
   14    17	 1
   14    35	 1
   14    36	 1
   15    35	 1
   15    36	 1
   17    30	 1
   17    20	 1
   17    45	 1
   17    46	 1
   18    21	 1
   18    47	 1
   18    23	 1
   19    22	 1
   19    46	 1
   19    24	 1
   20    44	 1
   20    47	 1
   20    25	 1
   20    26	 1
   20    48	 1
   21    45	 1
   21    24	 1
   22    44	 1
   22    23	 1
   23    45	 1
   23    46	 1
   27    30	 1
   28    31	 1
   29    31	 1
   30    31	 1
   31    49	 1
   36    37	 1
   37    38	 1
   39    41	 1
   39    42	 1
   39    43	 1
   40    41	 1
   40    42	 1
   40    43	 1
   44    45	 1
   46    47	 1

[ angles ]
;	ai	  aj	ak funct			c0			  c1			c2			  c3
    2     1     7	5 ;      NG3P2     CG3C50     CG2R53
    2     1    17	5 ;      NG3P2     CG3C50     CG2R61
    2     1     9	5 ;      NG3P2     CG3C50     CG2R61
    7     1    17	5 ;     CG2R53     CG3C50     CG2R61
    7     1     9	5 ;     CG2R53     CG3C50     CG2R61
   17     1     9	5 ;     CG2R61     CG3C50     CG2R61
    4     2     3	5 ;     CG3C53      NG3P2       HGP2
    4     2     1	5 ;     CG3C53      NG3P2     CG3C50
    4     2    30	5 ;     CG3C53      NG3P2       HGP2
    3     2     1	5 ;       HGP2      NG3P2     CG3C50
    3     2    30	5 ;       HGP2      NG3P2       HGP2
    1     2    30	5 ;     CG3C50      NG3P2       HGP2
   27     4     5	5 ;      NG3P3     CG3C53     NG2R53
   27     4     2	5 ;      NG3P3     CG3C53      NG3P2
   27     4    31	5 ;      NG3P3     CG3C53       HGA1
    5     4     2	5 ;     NG2R53     CG3C53      NG3P2
    5     4    31	5 ;     NG2R53     CG3C53       HGA1
    2     4    31	5 ;      NG3P2     CG3C53       HGA1
    6     5     4	5 ;      CG331     NG2R53     CG3C53
    6     5     7	5 ;      CG331     NG2R53     CG2R53
    4     5     7	5 ;     CG3C53     NG2R53     CG2R53
    5     6    32	5 ;     NG2R53      CG331       HGA3
    5     6    33	5 ;     NG2R53      CG331       HGA3
    5     6    34	5 ;     NG2R53      CG331       HGA3
   32     6    33	5 ;       HGA3      CG331       HGA3
   32     6    34	5 ;       HGA3      CG331       HGA3
   33     6    34	5 ;       HGA3      CG331       HGA3
    5     7     1	5 ;     NG2R53     CG2R53     CG3C50
    5     7     8	5 ;     NG2R53     CG2R53      OG2D1
    1     7     8	5 ;     CG3C50     CG2R53      OG2D1
    1     9    14	5 ;     CG3C50     CG2R61     CG2R61
    1     9    10	5 ;     CG3C50     CG2R61     CG2R61
   14     9    10	5 ;     CG2R61     CG2R61     CG2R61
    9    10    11	5 ;     CG2R61     CG2R61     CG2R61
    9    10    35	5 ;     CG2R61     CG2R61      HGR61
   11    10    35	5 ;     CG2R61     CG2R61      HGR61
   10    11    12	5 ;     CG2R61     CG2R61     CG2R61
   10    11    15	5 ;     CG2R61     CG2R61      CG321
   12    11    15	5 ;     CG2R61     CG2R61      CG321
   13    12    11	5 ;     CG2R61     CG2R61     CG2R61
   13    12    36	5 ;     CG2R61     CG2R61      HGR61
   11    12    36	5 ;     CG2R61     CG2R61      HGR61
   14    13    12	5 ;     CG2R61     CG2R61     CG2R61
   14    13    37	5 ;     CG2R61     CG2R61      HGR61
   12    13    37	5 ;     CG2R61     CG2R61      HGR61
    9    14    13	5 ;     CG2R61     CG2R61     CG2R61
    9    14    38	5 ;     CG2R61     CG2R61      HGR61
   13    14    38	5 ;     CG2R61     CG2R61      HGR61
   11    15    16	5 ;     CG2R61      CG321      CG331
   11    15    39	5 ;     CG2R61      CG321       HGA2
   11    15    40	5 ;     CG2R61      CG321       HGA2
   16    15    39	5 ;      CG331      CG321       HGA2
   16    15    40	5 ;      CG331      CG321       HGA2
   39    15    40	5 ;       HGA2      CG321       HGA2
   15    16    41	5 ;      CG321      CG331       HGA3
   15    16    42	5 ;      CG321      CG331       HGA3
   15    16    43	5 ;      CG321      CG331       HGA3
   41    16    42	5 ;       HGA3      CG331       HGA3
   41    16    43	5 ;       HGA3      CG331       HGA3
   42    16    43	5 ;       HGA3      CG331       HGA3
   22    17     1	5 ;     CG2R61     CG2R61     CG3C50
   22    17    18	5 ;     CG2R61     CG2R61     CG2R61
    1    17    18	5 ;     CG3C50     CG2R61     CG2R61
   17    18    19	5 ;     CG2R61     CG2R61     CG2R61
   17    18    44	5 ;     CG2R61     CG2R61      HGR61
   19    18    44	5 ;     CG2R61     CG2R61      HGR61
   20    19    18	5 ;     CG2R61     CG2R61     CG2R61
   20    19    45	5 ;     CG2R61     CG2R61      HGR61
   18    19    45	5 ;     CG2R61     CG2R61      HGR61
   21    20    23	5 ;     CG2R61     CG2R61      OG301
   21    20    19	5 ;     CG2R61     CG2R61     CG2R61
   23    20    19	5 ;      OG301     CG2R61     CG2R61
   22    21    20	5 ;     CG2R61     CG2R61     CG2R61
   22    21    46	5 ;     CG2R61     CG2R61      HGR61
   20    21    46	5 ;     CG2R61     CG2R61      HGR61
   21    22    17	5 ;     CG2R61     CG2R61     CG2R61
   21    22    47	5 ;     CG2R61     CG2R61      HGR61
   17    22    47	5 ;     CG2R61     CG2R61      HGR61
   24    23    20	5 ;      CG312      OG301     CG2R61
   25    24    23	5 ;       FGA2      CG312      OG301
   25    24    26	5 ;       FGA2      CG312       FGA2
   25    24    48	5 ;       FGA2      CG312       HGA7
   23    24    26	5 ;      OG301      CG312       FGA2
   23    24    48	5 ;      OG301      CG312       HGA7
   26    24    48	5 ;       FGA2      CG312       HGA7
   29    27    28	5 ;       HGP2      NG3P3       HGP2
   29    27     4	5 ;       HGP2      NG3P3     CG3C53
   29    27    49	5 ;       HGP2      NG3P3       HGP2
   28    27     4	5 ;       HGP2      NG3P3     CG3C53
   28    27    49	5 ;       HGP2      NG3P3       HGP2
    4    27    49	5 ;     CG3C53      NG3P3       HGP2

[ dihedrals ]
;	ai	  aj	ak	  al funct			  c0			c1			  c2			c3			  c4			c5
    7     1     2     4	 9 ;     CG2R53     CG3C50      NG3P2     CG3C53
    7     1     2     3	 9 ;     CG2R53     CG3C50      NG3P2       HGP2
    7     1     2    30	 9 ;     CG2R53     CG3C50      NG3P2       HGP2
   17     1     2     4	 9 ;     CG2R61     CG3C50      NG3P2     CG3C53
   17     1     2     3	 9 ;     CG2R61     CG3C50      NG3P2       HGP2
   17     1     2    30	 9 ;     CG2R61     CG3C50      NG3P2       HGP2
    9     1     2     4	 9 ;     CG2R61     CG3C50      NG3P2     CG3C53
    9     1     2     3	 9 ;     CG2R61     CG3C50      NG3P2       HGP2
    9     1     2    30	 9 ;     CG2R61     CG3C50      NG3P2       HGP2
    2     1     7     5	 9 ;      NG3P2     CG3C50     CG2R53     NG2R53
    2     1     7     8	 9 ;      NG3P2     CG3C50     CG2R53      OG2D1
   17     1     7     5	 9 ;     CG2R61     CG3C50     CG2R53     NG2R53
   17     1     7     8	 9 ;     CG2R61     CG3C50     CG2R53      OG2D1
    9     1     7     5	 9 ;     CG2R61     CG3C50     CG2R53     NG2R53
    9     1     7     8	 9 ;     CG2R61     CG3C50     CG2R53      OG2D1
    2     1    17    22	 9 ;      NG3P2     CG3C50     CG2R61     CG2R61
    2     1    17    18	 9 ;      NG3P2     CG3C50     CG2R61     CG2R61
    7     1    17    22	 9 ;     CG2R53     CG3C50     CG2R61     CG2R61
    7     1    17    18	 9 ;     CG2R53     CG3C50     CG2R61     CG2R61
    9     1    17    22	 9 ;     CG2R61     CG3C50     CG2R61     CG2R61
    9     1    17    18	 9 ;     CG2R61     CG3C50     CG2R61     CG2R61
    2     1     9    14	 9 ;      NG3P2     CG3C50     CG2R61     CG2R61
    2     1     9    10	 9 ;      NG3P2     CG3C50     CG2R61     CG2R61
    7     1     9    14	 9 ;     CG2R53     CG3C50     CG2R61     CG2R61
    7     1     9    10	 9 ;     CG2R53     CG3C50     CG2R61     CG2R61
   17     1     9    14	 9 ;     CG2R61     CG3C50     CG2R61     CG2R61
   17     1     9    10	 9 ;     CG2R61     CG3C50     CG2R61     CG2R61
    3     2     4    27	 9 ;       HGP2      NG3P2     CG3C53      NG3P3
    3     2     4     5	 9 ;       HGP2      NG3P2     CG3C53     NG2R53
    3     2     4    31	 9 ;       HGP2      NG3P2     CG3C53       HGA1
    1     2     4    27	 9 ;     CG3C50      NG3P2     CG3C53      NG3P3
    1     2     4     5	 9 ;     CG3C50      NG3P2     CG3C53     NG2R53
    1     2     4    31	 9 ;     CG3C50      NG3P2     CG3C53       HGA1
   30     2     4    27	 9 ;       HGP2      NG3P2     CG3C53      NG3P3
   30     2     4     5	 9 ;       HGP2      NG3P2     CG3C53     NG2R53
   30     2     4    31	 9 ;       HGP2      NG3P2     CG3C53       HGA1
    5     4    27    29	 9 ;     NG2R53     CG3C53      NG3P3       HGP2
    5     4    27    28	 9 ;     NG2R53     CG3C53      NG3P3       HGP2
    5     4    27    49	 9 ;     NG2R53     CG3C53      NG3P3       HGP2
    2     4    27    29	 9 ;      NG3P2     CG3C53      NG3P3       HGP2
    2     4    27    28	 9 ;      NG3P2     CG3C53      NG3P3       HGP2
    2     4    27    49	 9 ;      NG3P2     CG3C53      NG3P3       HGP2
   31     4    27    29	 9 ;       HGA1     CG3C53      NG3P3       HGP2
   31     4    27    28	 9 ;       HGA1     CG3C53      NG3P3       HGP2
   31     4    27    49	 9 ;       HGA1     CG3C53      NG3P3       HGP2
   27     4     5     6	 9 ;      NG3P3     CG3C53     NG2R53      CG331
   27     4     5     7	 9 ;      NG3P3     CG3C53     NG2R53     CG2R53
    2     4     5     6	 9 ;      NG3P2     CG3C53     NG2R53      CG331
    2     4     5     7	 9 ;      NG3P2     CG3C53     NG2R53     CG2R53
   31     4     5     6	 9 ;       HGA1     CG3C53     NG2R53      CG331
   31     4     5     7	 9 ;       HGA1     CG3C53     NG2R53     CG2R53
    4     5     6    32	 9 ;     CG3C53     NG2R53      CG331       HGA3
    4     5     6    33	 9 ;     CG3C53     NG2R53      CG331       HGA3
    4     5     6    34	 9 ;     CG3C53     NG2R53      CG331       HGA3
    7     5     6    32	 9 ;     CG2R53     NG2R53      CG331       HGA3
    7     5     6    33	 9 ;     CG2R53     NG2R53      CG331       HGA3
    7     5     6    34	 9 ;     CG2R53     NG2R53      CG331       HGA3
    6     5     7     1	 9 ;      CG331     NG2R53     CG2R53     CG3C50
    6     5     7     8	 9 ;      CG331     NG2R53     CG2R53      OG2D1
    4     5     7     1	 9 ;     CG3C53     NG2R53     CG2R53     CG3C50
    4     5     7     8	 9 ;     CG3C53     NG2R53     CG2R53      OG2D1
    1     9    14    13	 9 ;     CG3C50     CG2R61     CG2R61     CG2R61
    1     9    14    38	 9 ;     CG3C50     CG2R61     CG2R61      HGR61
   10     9    14    13	 9 ;     CG2R61     CG2R61     CG2R61     CG2R61
   10     9    14    38	 9 ;     CG2R61     CG2R61     CG2R61      HGR61
    1     9    10    11	 9 ;     CG3C50     CG2R61     CG2R61     CG2R61
    1     9    10    35	 9 ;     CG3C50     CG2R61     CG2R61      HGR61
   14     9    10    11	 9 ;     CG2R61     CG2R61     CG2R61     CG2R61
   14     9    10    35	 9 ;     CG2R61     CG2R61     CG2R61      HGR61
    9    10    11    12	 9 ;     CG2R61     CG2R61     CG2R61     CG2R61
    9    10    11    15	 9 ;     CG2R61     CG2R61     CG2R61      CG321
   35    10    11    12	 9 ;      HGR61     CG2R61     CG2R61     CG2R61
   35    10    11    15	 9 ;      HGR61     CG2R61     CG2R61      CG321
   10    11    12    13	 9 ;     CG2R61     CG2R61     CG2R61     CG2R61
   10    11    12    36	 9 ;     CG2R61     CG2R61     CG2R61      HGR61
   15    11    12    13	 9 ;      CG321     CG2R61     CG2R61     CG2R61
   15    11    12    36	 9 ;      CG321     CG2R61     CG2R61      HGR61
   10    11    15    16	 9 ;     CG2R61     CG2R61      CG321      CG331
   10    11    15    39	 9 ;     CG2R61     CG2R61      CG321       HGA2
   10    11    15    40	 9 ;     CG2R61     CG2R61      CG321       HGA2
   12    11    15    16	 9 ;     CG2R61     CG2R61      CG321      CG331
   12    11    15    39	 9 ;     CG2R61     CG2R61      CG321       HGA2
   12    11    15    40	 9 ;     CG2R61     CG2R61      CG321       HGA2
   11    12    13    14	 9 ;     CG2R61     CG2R61     CG2R61     CG2R61
   11    12    13    37	 9 ;     CG2R61     CG2R61     CG2R61      HGR61
   36    12    13    14	 9 ;      HGR61     CG2R61     CG2R61     CG2R61
   36    12    13    37	 9 ;      HGR61     CG2R61     CG2R61      HGR61
   12    13    14     9	 9 ;     CG2R61     CG2R61     CG2R61     CG2R61
   12    13    14    38	 9 ;     CG2R61     CG2R61     CG2R61      HGR61
   37    13    14     9	 9 ;      HGR61     CG2R61     CG2R61     CG2R61
   37    13    14    38	 9 ;      HGR61     CG2R61     CG2R61      HGR61
   11    15    16    41	 9 ;     CG2R61      CG321      CG331       HGA3
   11    15    16    42	 9 ;     CG2R61      CG321      CG331       HGA3
   11    15    16    43	 9 ;     CG2R61      CG321      CG331       HGA3
   39    15    16    41	 9 ;       HGA2      CG321      CG331       HGA3
   39    15    16    42	 9 ;       HGA2      CG321      CG331       HGA3
   39    15    16    43	 9 ;       HGA2      CG321      CG331       HGA3
   40    15    16    41	 9 ;       HGA2      CG321      CG331       HGA3
   40    15    16    42	 9 ;       HGA2      CG321      CG331       HGA3
   40    15    16    43	 9 ;       HGA2      CG321      CG331       HGA3
    1    17    22    21	 9 ;     CG3C50     CG2R61     CG2R61     CG2R61
    1    17    22    47	 9 ;     CG3C50     CG2R61     CG2R61      HGR61
   18    17    22    21	 9 ;     CG2R61     CG2R61     CG2R61     CG2R61
   18    17    22    47	 9 ;     CG2R61     CG2R61     CG2R61      HGR61
   22    17    18    19	 9 ;     CG2R61     CG2R61     CG2R61     CG2R61
   22    17    18    44	 9 ;     CG2R61     CG2R61     CG2R61      HGR61
    1    17    18    19	 9 ;     CG3C50     CG2R61     CG2R61     CG2R61
    1    17    18    44	 9 ;     CG3C50     CG2R61     CG2R61      HGR61
   17    18    19    20	 9 ;     CG2R61     CG2R61     CG2R61     CG2R61
   17    18    19    45	 9 ;     CG2R61     CG2R61     CG2R61      HGR61
   44    18    19    20	 9 ;      HGR61     CG2R61     CG2R61     CG2R61
   44    18    19    45	 9 ;      HGR61     CG2R61     CG2R61      HGR61
   18    19    20    21	 9 ;     CG2R61     CG2R61     CG2R61     CG2R61
   18    19    20    23	 9 ;     CG2R61     CG2R61     CG2R61      OG301
   45    19    20    21	 9 ;      HGR61     CG2R61     CG2R61     CG2R61
   45    19    20    23	 9 ;      HGR61     CG2R61     CG2R61      OG301
   23    20    21    22	 9 ;      OG301     CG2R61     CG2R61     CG2R61
   23    20    21    46	 9 ;      OG301     CG2R61     CG2R61      HGR61
   19    20    21    22	 9 ;     CG2R61     CG2R61     CG2R61     CG2R61
   19    20    21    46	 9 ;     CG2R61     CG2R61     CG2R61      HGR61
   21    20    23    24	 9 ;     CG2R61     CG2R61      OG301      CG312
   19    20    23    24	 9 ;     CG2R61     CG2R61      OG301      CG312
   20    21    22    17	 9 ;     CG2R61     CG2R61     CG2R61     CG2R61
   20    21    22    47	 9 ;     CG2R61     CG2R61     CG2R61      HGR61
   46    21    22    17	 9 ;      HGR61     CG2R61     CG2R61     CG2R61
   46    21    22    47	 9 ;      HGR61     CG2R61     CG2R61      HGR61
   20    23    24    25	 9 ;     CG2R61      OG301      CG312       FGA2
   20    23    24    26	 9 ;     CG2R61      OG301      CG312       FGA2
   20    23    24    48	 9 ;     CG2R61      OG301      CG312       HGA7

[ dihedrals ]
;	ai	  aj	ak	  al funct			  c0			c1			  c2			c3
    7     1     5     8	 2

