Getting the Right Output Means no Artefacts in Calculating Stuff
   55
    1LIG     C1    1  -1.293   0.252  -1.469
    1LIG     N1    2  -1.194   0.359  -1.489
    1LIG     H1    3  -1.133   0.377  -1.410
    1LIG     C2    4  -1.168   0.421  -1.609
    1LIG     N2    5  -1.091   0.365  -1.696
    1LIG     C3    6  -1.071   0.432  -1.827
    1LIG    HN1    7  -1.044   0.276  -1.676
    1LIG     C4    8  -1.204   0.494  -1.876
    1LIG     C5    9  -1.026   0.325  -1.927
    1LIG     C6   10  -0.959   0.537  -1.814
    1LIG     C7   11  -1.260   0.585  -1.770
    1LIG     C8   12  -1.329   0.702  -1.801
    1LIG     C9   13  -1.237   0.551  -1.636
    1LIG    C10   14  -1.369   0.788  -1.698
    1LIG     CL   15  -1.453   0.933  -1.735
    1LIG    C11   16  -1.340   0.757  -1.565
    1LIG    C12   17  -1.275   0.638  -1.533
    1LIG    C13   18  -1.362   0.218  -1.603
    1LIG    C14   19  -1.506   0.266  -1.616
    1LIG    C15   20  -1.593   0.205  -1.706
    1LIG    C16   21  -1.727   0.243  -1.712
    1LIG    C17   22  -1.775   0.343  -1.627
    1LIG    C18   23  -1.689   0.405  -1.538
    1LIG    C19   24  -1.555   0.367  -1.532
    1LIG    C20   25  -1.228   0.127  -1.411
    1LIG     N3   26  -1.137   0.059  -1.483
    1LIG    C21   27  -1.091  -0.041  -1.403
    1LIG     H2   28  -1.105   0.084  -1.575
    1LIG      O   29  -1.004  -0.123  -1.428
    1LIG     N4   30  -1.162  -0.028  -1.285
    1LIG     N5   31  -1.247   0.080  -1.291
    1LIG     H3   32  -1.149  -0.083  -1.201
    1LIG    HN2   33  -1.310   0.115  -1.219
    1LIG     HC   34  -1.369   0.287  -1.399
    1LIG    HC2   35  -1.186   0.551  -1.967
    1LIG    HC3   36  -1.276   0.415  -1.896
    1LIG    HC1   37  -1.105   0.250  -1.937
    1LIG    HC4   38  -0.935   0.277  -1.891
    1LIG    HC5   39  -1.007   0.371  -2.024
    1LIG    HC6   40  -0.989   0.614  -1.743
    1LIG    HC7   41  -0.868   0.488  -1.778
    1LIG    HC8   42  -0.940   0.582  -1.911
    1LIG    HC9   43  -1.352   0.727  -1.903
    1LIG   HC10   44  -1.369   0.825  -1.486
    1LIG   HC11   45  -1.253   0.613  -1.430
    1LIG   HC12   46  -1.304   0.263  -1.683
    1LIG   HC13   47  -1.361   0.110  -1.616
    1LIG   HC14   48  -1.557   0.128  -1.773
    1LIG   HC15   49  -1.794   0.196  -1.783
    1LIG   HC16   50  -1.880   0.371  -1.631
    1LIG   HC17   51  -1.726   0.483  -1.473
    1LIG   HC18   52  -1.488   0.416  -1.462
    1LIG   HC19   53  -1.308   0.065  -1.450
    1LIG    H26   54  -1.084   0.473  -1.565
    1LIG    LP1   55  -1.533   1.072  -1.771
   0.00000   0.00000   0.00000
