; Created by cgenff_charmm2gmx.py

[ moleculetype ]
; Name			   nrexcl
LIG				 3

[ atoms ]
;	 nr		  type	resnr residue  atom   cgnr	   charge		mass  typeB    chargeB		massB
; residue	 1 LIG rtp LIG q	qsum
     1      CG311      1    LIG     C1      1      0.172     12.011   ;
     2      NG311      1    LIG     N1      2     -0.620     14.007   ;
     3     HGPAM1      1    LIG     H1      3      0.269      1.008   ;
     4      CG311      1    LIG     C2      4      0.284     12.011   ;
     5      NG311      1    LIG     N2      5     -0.864     14.007   ;
     6      CG301      1    LIG     C3      6      0.375     12.011   ;
     7     HGPAM1      1    LIG    HN1      7      0.350      1.008   ;
     8      CG321      1    LIG     C4      8     -0.230     12.011   ;
     9      CG331      1    LIG     C5      9     -0.295     12.011   ;
    10      CG331      1    LIG     C6     10     -0.295     12.011   ;
    11     CG2R61      1    LIG     C7     11      0.075     12.011   ;
    12     CG2R61      1    LIG     C8     12     -0.121     12.011   ;
    13     CG2R61      1    LIG     C9     13     -0.052     12.011   ;
    14     CG2R61      1    LIG    C10     14      0.048     12.011   ;
    15      CLGR1      1    LIG     CL     15     -0.200     35.453   ;
    16     CG2R61      1    LIG    C11     16     -0.099     12.011   ;
    17     CG2R61      1    LIG    C12     17     -0.108     12.011   ;
    18      CG321      1    LIG    C13     18     -0.210     12.011   ;
    19     CG2R61      1    LIG    C14     19      0.006     12.011   ;
    20     CG2R61      1    LIG    C15     20     -0.123     12.011   ;
    21     CG2R61      1    LIG    C16     21     -0.112     12.011   ;
    22     CG2R61      1    LIG    C17     22     -0.116     12.011   ;
    23     CG2R61      1    LIG    C18     23     -0.112     12.011   ;
    24     CG2R61      1    LIG    C19     24     -0.123     12.011   ;
    25     CG3C51      1    LIG    C20     25      0.215     12.011   ;
    26     NG2R53      1    LIG     N3     26     -0.427     14.007   ;
    27     CG2R53      1    LIG    C21     27      0.414     12.011   ;
    28       HGP1      1    LIG     H2     28      0.282      1.008   ;
    29      OG2D1      1    LIG      O     29     -0.534     15.999   ;
    30     NG2R53      1    LIG     N4     30     -0.350     14.007   ;
    31     NG3C51      1    LIG     N5     31     -0.365     14.007   ;
    32       HGP1      1    LIG     H3     32      0.351      1.008   ;
    33       HGP1      1    LIG    HN2     33      0.262      1.008   ;
    34       HGA1      1    LIG     HC     34      0.090      1.008   ;
    35       HGA2      1    LIG    HC2     35      0.090      1.008   ;
    36       HGA2      1    LIG    HC3     36      0.090      1.008   ;
    37       HGA3      1    LIG    HC1     37      0.090      1.008   ;
    38       HGA3      1    LIG    HC4     38      0.090      1.008   ;
    39       HGA3      1    LIG    HC5     39      0.090      1.008   ;
    40       HGA3      1    LIG    HC6     40      0.090      1.008   ;
    41       HGA3      1    LIG    HC7     41      0.090      1.008   ;
    42       HGA3      1    LIG    HC8     42      0.090      1.008   ;
    43      HGR62      1    LIG    HC9     43      0.145      1.008   ;
    44      HGR62      1    LIG   HC10     44      0.150      1.008   ;
    45      HGR61      1    LIG   HC11     45      0.116      1.008   ;
    46       HGA2      1    LIG   HC12     46      0.090      1.008   ;
    47       HGA2      1    LIG   HC13     47      0.090      1.008   ;
    48      HGR61      1    LIG   HC14     48      0.116      1.008   ;
    49      HGR61      1    LIG   HC15     49      0.116      1.008   ;
    50      HGR61      1    LIG   HC16     50      0.116      1.008   ;
    51      HGR61      1    LIG   HC17     51      0.116      1.008   ;
    52      HGR61      1    LIG   HC18     52      0.116      1.008   ;
    53       HGA1      1    LIG   HC19     53      0.132      1.008   ;
    54       HGA1      1    LIG    H26     54      0.090      1.008   ;
    55        LPH      1    LIG    LP1     55      0.050      0.000   ;

[ bonds ]
;	ai	  aj funct			  c0			c1			  c2			c3
    1     2	 1 ;       CG311      NG311
    1    18	 1 ;       CG311      CG321
    1    25	 1 ;       CG311     CG3C51
    1    34	 1 ;       CG311       HGA1
    2     4	 1 ;       NG311      CG311
    2     3	 1 ;       NG311     HGPAM1
    4     5	 1 ;       CG311      NG311
    4    13	 1 ;       CG311     CG2R61
    4    54	 1 ;       CG311       HGA1
    5     6	 1 ;       NG311      CG301
    5     7	 1 ;       NG311     HGPAM1
    6    10	 1 ;       CG301      CG331
    6     9	 1 ;       CG301      CG331
    6     8	 1 ;       CG301      CG321
    8    11	 1 ;       CG321     CG2R61
    8    35	 1 ;       CG321       HGA2
    8    36	 1 ;       CG321       HGA2
    9    37	 1 ;       CG331       HGA3
    9    38	 1 ;       CG331       HGA3
    9    39	 1 ;       CG331       HGA3
   10    40	 1 ;       CG331       HGA3
   10    41	 1 ;       CG331       HGA3
   10    42	 1 ;       CG331       HGA3
   11    12	 1 ;      CG2R61     CG2R61
   11    13	 1 ;      CG2R61     CG2R61
   12    14	 1 ;      CG2R61     CG2R61
   12    43	 1 ;      CG2R61      HGR62
   13    17	 1 ;      CG2R61     CG2R61
   14    15	 1 ;      CG2R61      CLGR1
   14    16	 1 ;      CG2R61     CG2R61
   16    17	 1 ;      CG2R61     CG2R61
   16    44	 1 ;      CG2R61      HGR62
   17    45	 1 ;      CG2R61      HGR61
   18    19	 1 ;       CG321     CG2R61
   18    46	 1 ;       CG321       HGA2
   18    47	 1 ;       CG321       HGA2
   19    20	 1 ;      CG2R61     CG2R61
   19    24	 1 ;      CG2R61     CG2R61
   20    21	 1 ;      CG2R61     CG2R61
   20    48	 1 ;      CG2R61      HGR61
   21    22	 1 ;      CG2R61     CG2R61
   21    49	 1 ;      CG2R61      HGR61
   22    23	 1 ;      CG2R61     CG2R61
   22    50	 1 ;      CG2R61      HGR61
   23    24	 1 ;      CG2R61     CG2R61
   23    51	 1 ;      CG2R61      HGR61
   24    52	 1 ;      CG2R61      HGR61
   25    26	 1 ;      CG3C51     NG2R53
   25    31	 1 ;      CG3C51     NG3C51
   25    53	 1 ;      CG3C51       HGA1
   26    28	 1 ;      NG2R53       HGP1
   26    27	 1 ;      NG2R53     CG2R53
   27    29	 1 ;      CG2R53      OG2D1
   27    30	 1 ;      CG2R53     NG2R53
   30    31	 1 ;      NG2R53     NG3C51
   30    32	 1 ;      NG2R53       HGP1
   31    33	 1 ;      NG3C51       HGP1

[ pairs ]
;	ai	  aj funct			  c0			c1			  c2			c3
    1     5	 1
    1    13	 1
    1    54	 1
    1    20	 1
    1    24	 1
    1    28	 1
    1    27	 1
    1    30	 1
    1    33	 1
    2    19	 1
    2    46	 1
    2    47	 1
    2    26	 1
    2    31	 1
    2    53	 1
    2     6	 1
    2     7	 1
    2    11	 1
    2    17	 1
    3    18	 1
    3    25	 1
    3    34	 1
    3     5	 1
    3    13	 1
    3    54	 1
    4    18	 1
    4    25	 1
    4    34	 1
    4    10	 1
    4     9	 1
    4     8	 1
    4    12	 1
    4    16	 1
    4    45	 1
    5    11	 1
    5    17	 1
    5    40	 1
    5    41	 1
    5    42	 1
    5    37	 1
    5    38	 1
    5    39	 1
    5    35	 1
    5    36	 1
    6    13	 1
    6    54	 1
    6    12	 1
    7    13	 1
    7    54	 1
    7    10	 1
    7     9	 1
    7     8	 1
    8    40	 1
    8    41	 1
    8    42	 1
    8    37	 1
    8    38	 1
    8    39	 1
    8    14	 1
    8    43	 1
    8    17	 1
    9    40	 1
    9    41	 1
    9    42	 1
    9    11	 1
    9    35	 1
    9    36	 1
   10    37	 1
   10    38	 1
   10    39	 1
   10    11	 1
   10    35	 1
   10    36	 1
   11    54	 1
   11    15	 1
   55    11	 1
   11    16	 1
   11    45	 1
   12    35	 1
   12    36	 1
   12    17	 1
   12    44	 1
   13    35	 1
   13    36	 1
   13    14	 1
   13    43	 1
   13    44	 1
   14    45	 1
   15    43	 1
   55    43	 1
   15    17	 1
   55    17	 1
   15    44	 1
   55    44	 1
   16    43	 1
   17    54	 1
   18    26	 1
   18    31	 1
   18    53	 1
   18    21	 1
   18    48	 1
   18    23	 1
   18    52	 1
   19    25	 1
   19    34	 1
   19    22	 1
   19    49	 1
   19    51	 1
   20    46	 1
   20    47	 1
   20    23	 1
   20    52	 1
   20    50	 1
   21    24	 1
   21    51	 1
   22    48	 1
   22    52	 1
   23    49	 1
   24    46	 1
   24    47	 1
   24    48	 1
   24    50	 1
   25    46	 1
   25    47	 1
   25    29	 1
   25    32	 1
   26    34	 1
   26    33	 1
   26    32	 1
   27    53	 1
   27    33	 1
   28    31	 1
   28    53	 1
   28    29	 1
   28    30	 1
   29    31	 1
   29    32	 1
   30    53	 1
   31    34	 1
   32    33	 1
   33    53	 1
   34    46	 1
   34    47	 1
   34    53	 1
   44    45	 1
   48    49	 1
   49    50	 1
   50    51	 1
   51    52	 1

[ angles ]
;	ai	  aj	ak funct			c0			  c1			c2			  c3
    2     1    18	5 ;      NG311      CG311      CG321
    2     1    25	5 ;      NG311      CG311     CG3C51
    2     1    34	5 ;      NG311      CG311       HGA1
   18     1    25	5 ;      CG321      CG311     CG3C51
   18     1    34	5 ;      CG321      CG311       HGA1
   25     1    34	5 ;     CG3C51      CG311       HGA1
    4     2     3	5 ;      CG311      NG311     HGPAM1
    4     2     1	5 ;      CG311      NG311      CG311
    3     2     1	5 ;     HGPAM1      NG311      CG311
    5     4    13	5 ;      NG311      CG311     CG2R61
    5     4     2	5 ;      NG311      CG311      NG311
    5     4    54	5 ;      NG311      CG311       HGA1
   13     4     2	5 ;     CG2R61      CG311      NG311
   13     4    54	5 ;     CG2R61      CG311       HGA1
    2     4    54	5 ;      NG311      CG311       HGA1
    6     5     7	5 ;      CG301      NG311     HGPAM1
    6     5     4	5 ;      CG301      NG311      CG311
    7     5     4	5 ;     HGPAM1      NG311      CG311
   10     6     9	5 ;      CG331      CG301      CG331
   10     6     8	5 ;      CG331      CG301      CG321
   10     6     5	5 ;      CG331      CG301      NG311
    9     6     8	5 ;      CG331      CG301      CG321
    9     6     5	5 ;      CG331      CG301      NG311
    8     6     5	5 ;      CG321      CG301      NG311
    6     8    11	5 ;      CG301      CG321     CG2R61
    6     8    35	5 ;      CG301      CG321       HGA2
    6     8    36	5 ;      CG301      CG321       HGA2
   11     8    35	5 ;     CG2R61      CG321       HGA2
   11     8    36	5 ;     CG2R61      CG321       HGA2
   35     8    36	5 ;       HGA2      CG321       HGA2
    6     9    37	5 ;      CG301      CG331       HGA3
    6     9    38	5 ;      CG301      CG331       HGA3
    6     9    39	5 ;      CG301      CG331       HGA3
   37     9    38	5 ;       HGA3      CG331       HGA3
   37     9    39	5 ;       HGA3      CG331       HGA3
   38     9    39	5 ;       HGA3      CG331       HGA3
    6    10    40	5 ;      CG301      CG331       HGA3
    6    10    41	5 ;      CG301      CG331       HGA3
    6    10    42	5 ;      CG301      CG331       HGA3
   40    10    41	5 ;       HGA3      CG331       HGA3
   40    10    42	5 ;       HGA3      CG331       HGA3
   41    10    42	5 ;       HGA3      CG331       HGA3
    8    11    12	5 ;      CG321     CG2R61     CG2R61
    8    11    13	5 ;      CG321     CG2R61     CG2R61
   12    11    13	5 ;     CG2R61     CG2R61     CG2R61
   11    12    14	5 ;     CG2R61     CG2R61     CG2R61
   11    12    43	5 ;     CG2R61     CG2R61      HGR62
   14    12    43	5 ;     CG2R61     CG2R61      HGR62
   11    13     4	5 ;     CG2R61     CG2R61      CG311
   11    13    17	5 ;     CG2R61     CG2R61     CG2R61
    4    13    17	5 ;      CG311     CG2R61     CG2R61
   12    14    15	5 ;     CG2R61     CG2R61      CLGR1
   12    14    16	5 ;     CG2R61     CG2R61     CG2R61
   15    14    16	5 ;      CLGR1     CG2R61     CG2R61
   14    16    17	5 ;     CG2R61     CG2R61     CG2R61
   14    16    44	5 ;     CG2R61     CG2R61      HGR62
   17    16    44	5 ;     CG2R61     CG2R61      HGR62
   13    17    16	5 ;     CG2R61     CG2R61     CG2R61
   13    17    45	5 ;     CG2R61     CG2R61      HGR61
   16    17    45	5 ;     CG2R61     CG2R61      HGR61
    1    18    19	5 ;      CG311      CG321     CG2R61
    1    18    46	5 ;      CG311      CG321       HGA2
    1    18    47	5 ;      CG311      CG321       HGA2
   19    18    46	5 ;     CG2R61      CG321       HGA2
   19    18    47	5 ;     CG2R61      CG321       HGA2
   46    18    47	5 ;       HGA2      CG321       HGA2
   18    19    20	5 ;      CG321     CG2R61     CG2R61
   18    19    24	5 ;      CG321     CG2R61     CG2R61
   20    19    24	5 ;     CG2R61     CG2R61     CG2R61
   19    20    21	5 ;     CG2R61     CG2R61     CG2R61
   19    20    48	5 ;     CG2R61     CG2R61      HGR61
   21    20    48	5 ;     CG2R61     CG2R61      HGR61
   20    21    22	5 ;     CG2R61     CG2R61     CG2R61
   20    21    49	5 ;     CG2R61     CG2R61      HGR61
   22    21    49	5 ;     CG2R61     CG2R61      HGR61
   21    22    23	5 ;     CG2R61     CG2R61     CG2R61
   21    22    50	5 ;     CG2R61     CG2R61      HGR61
   23    22    50	5 ;     CG2R61     CG2R61      HGR61
   24    23    22	5 ;     CG2R61     CG2R61     CG2R61
   24    23    51	5 ;     CG2R61     CG2R61      HGR61
   22    23    51	5 ;     CG2R61     CG2R61      HGR61
   19    24    23	5 ;     CG2R61     CG2R61     CG2R61
   19    24    52	5 ;     CG2R61     CG2R61      HGR61
   23    24    52	5 ;     CG2R61     CG2R61      HGR61
   26    25     1	5 ;     NG2R53     CG3C51      CG311
   26    25    31	5 ;     NG2R53     CG3C51     NG3C51
   26    25    53	5 ;     NG2R53     CG3C51       HGA1
    1    25    31	5 ;      CG311     CG3C51     NG3C51
    1    25    53	5 ;      CG311     CG3C51       HGA1
   31    25    53	5 ;     NG3C51     CG3C51       HGA1
   28    26    27	5 ;       HGP1     NG2R53     CG2R53
   28    26    25	5 ;       HGP1     NG2R53     CG3C51
   27    26    25	5 ;     CG2R53     NG2R53     CG3C51
   29    27    26	5 ;      OG2D1     CG2R53     NG2R53
   29    27    30	5 ;      OG2D1     CG2R53     NG2R53
   26    27    30	5 ;     NG2R53     CG2R53     NG2R53
   27    30    31	5 ;     CG2R53     NG2R53     NG3C51
   27    30    32	5 ;     CG2R53     NG2R53       HGP1
   31    30    32	5 ;     NG3C51     NG2R53       HGP1
   25    31    30	5 ;     CG3C51     NG3C51     NG2R53
   25    31    33	5 ;     CG3C51     NG3C51       HGP1
   30    31    33	5 ;     NG2R53     NG3C51       HGP1

[ dihedrals ]
;	ai	  aj	ak	  al funct			  c0			c1			  c2			c3			  c4			c5
   18     1     2     4	 9 ;      CG321      CG311      NG311      CG311
   18     1     2     3	 9 ;      CG321      CG311      NG311     HGPAM1
   25     1     2     4	 9 ;     CG3C51      CG311      NG311      CG311
   25     1     2     3	 9 ;     CG3C51      CG311      NG311     HGPAM1
   34     1     2     4	 9 ;       HGA1      CG311      NG311      CG311
   34     1     2     3	 9 ;       HGA1      CG311      NG311     HGPAM1
    2     1    18    19	 9 ;      NG311      CG311      CG321     CG2R61
    2     1    18    46	 9 ;      NG311      CG311      CG321       HGA2
    2     1    18    47	 9 ;      NG311      CG311      CG321       HGA2
   25     1    18    19	 9 ;     CG3C51      CG311      CG321     CG2R61
   25     1    18    46	 9 ;     CG3C51      CG311      CG321       HGA2
   25     1    18    47	 9 ;     CG3C51      CG311      CG321       HGA2
   34     1    18    19	 9 ;       HGA1      CG311      CG321     CG2R61
   34     1    18    46	 9 ;       HGA1      CG311      CG321       HGA2
   34     1    18    47	 9 ;       HGA1      CG311      CG321       HGA2
    2     1    25    26	 9 ;      NG311      CG311     CG3C51     NG2R53
    2     1    25    31	 9 ;      NG311      CG311     CG3C51     NG3C51
    2     1    25    53	 9 ;      NG311      CG311     CG3C51       HGA1
   18     1    25    26	 9 ;      CG321      CG311     CG3C51     NG2R53
   18     1    25    31	 9 ;      CG321      CG311     CG3C51     NG3C51
   18     1    25    53	 9 ;      CG321      CG311     CG3C51       HGA1
   34     1    25    26	 9 ;       HGA1      CG311     CG3C51     NG2R53
   34     1    25    31	 9 ;       HGA1      CG311     CG3C51     NG3C51
   34     1    25    53	 9 ;       HGA1      CG311     CG3C51       HGA1
    3     2     4     5	 9 ;     HGPAM1      NG311      CG311      NG311
    3     2     4    13	 9 ;     HGPAM1      NG311      CG311     CG2R61
    3     2     4    54	 9 ;     HGPAM1      NG311      CG311       HGA1
    1     2     4     5	 9 ;      CG311      NG311      CG311      NG311
    1     2     4    13	 9 ;      CG311      NG311      CG311     CG2R61
    1     2     4    54	 9 ;      CG311      NG311      CG311       HGA1
   13     4     5     6	 9 ;     CG2R61      CG311      NG311      CG301
   13     4     5     7	 9 ;     CG2R61      CG311      NG311     HGPAM1
    2     4     5     6	 9 ;      NG311      CG311      NG311      CG301
    2     4     5     7	 9 ;      NG311      CG311      NG311     HGPAM1
   54     4     5     6	 9 ;       HGA1      CG311      NG311      CG301
   54     4     5     7	 9 ;       HGA1      CG311      NG311     HGPAM1
    5     4    13    11	 9 ;      NG311      CG311     CG2R61     CG2R61
    5     4    13    17	 9 ;      NG311      CG311     CG2R61     CG2R61
    2     4    13    11	 9 ;      NG311      CG311     CG2R61     CG2R61
    2     4    13    17	 9 ;      NG311      CG311     CG2R61     CG2R61
   54     4    13    11	 9 ;       HGA1      CG311     CG2R61     CG2R61
   54     4    13    17	 9 ;       HGA1      CG311     CG2R61     CG2R61
    7     5     6    10	 9 ;     HGPAM1      NG311      CG301      CG331
    7     5     6     9	 9 ;     HGPAM1      NG311      CG301      CG331
    7     5     6     8	 9 ;     HGPAM1      NG311      CG301      CG321
    4     5     6    10	 9 ;      CG311      NG311      CG301      CG331
    4     5     6     9	 9 ;      CG311      NG311      CG301      CG331
    4     5     6     8	 9 ;      CG311      NG311      CG301      CG321
    9     6    10    40	 9 ;      CG331      CG301      CG331       HGA3
    9     6    10    41	 9 ;      CG331      CG301      CG331       HGA3
    9     6    10    42	 9 ;      CG331      CG301      CG331       HGA3
    8     6    10    40	 9 ;      CG321      CG301      CG331       HGA3
    8     6    10    41	 9 ;      CG321      CG301      CG331       HGA3
    8     6    10    42	 9 ;      CG321      CG301      CG331       HGA3
    5     6    10    40	 9 ;      NG311      CG301      CG331       HGA3
    5     6    10    41	 9 ;      NG311      CG301      CG331       HGA3
    5     6    10    42	 9 ;      NG311      CG301      CG331       HGA3
   10     6     9    37	 9 ;      CG331      CG301      CG331       HGA3
   10     6     9    38	 9 ;      CG331      CG301      CG331       HGA3
   10     6     9    39	 9 ;      CG331      CG301      CG331       HGA3
    8     6     9    37	 9 ;      CG321      CG301      CG331       HGA3
    8     6     9    38	 9 ;      CG321      CG301      CG331       HGA3
    8     6     9    39	 9 ;      CG321      CG301      CG331       HGA3
    5     6     9    37	 9 ;      NG311      CG301      CG331       HGA3
    5     6     9    38	 9 ;      NG311      CG301      CG331       HGA3
    5     6     9    39	 9 ;      NG311      CG301      CG331       HGA3
   10     6     8    11	 9 ;      CG331      CG301      CG321     CG2R61
   10     6     8    35	 9 ;      CG331      CG301      CG321       HGA2
   10     6     8    36	 9 ;      CG331      CG301      CG321       HGA2
    9     6     8    11	 9 ;      CG331      CG301      CG321     CG2R61
    9     6     8    35	 9 ;      CG331      CG301      CG321       HGA2
    9     6     8    36	 9 ;      CG331      CG301      CG321       HGA2
    5     6     8    11	 9 ;      NG311      CG301      CG321     CG2R61
    5     6     8    35	 9 ;      NG311      CG301      CG321       HGA2
    5     6     8    36	 9 ;      NG311      CG301      CG321       HGA2
    6     8    11    12	 9 ;      CG301      CG321     CG2R61     CG2R61
    6     8    11    13	 9 ;      CG301      CG321     CG2R61     CG2R61
   35     8    11    12	 9 ;       HGA2      CG321     CG2R61     CG2R61
   35     8    11    13	 9 ;       HGA2      CG321     CG2R61     CG2R61
   36     8    11    12	 9 ;       HGA2      CG321     CG2R61     CG2R61
   36     8    11    13	 9 ;       HGA2      CG321     CG2R61     CG2R61
    8    11    12    14	 9 ;      CG321     CG2R61     CG2R61     CG2R61
    8    11    12    43	 9 ;      CG321     CG2R61     CG2R61      HGR62
   13    11    12    14	 9 ;     CG2R61     CG2R61     CG2R61     CG2R61
   13    11    12    43	 9 ;     CG2R61     CG2R61     CG2R61      HGR62
    8    11    13     4	 9 ;      CG321     CG2R61     CG2R61      CG311
    8    11    13    17	 9 ;      CG321     CG2R61     CG2R61     CG2R61
   12    11    13     4	 9 ;     CG2R61     CG2R61     CG2R61      CG311
   12    11    13    17	 9 ;     CG2R61     CG2R61     CG2R61     CG2R61
   11    12    14    15	 9 ;     CG2R61     CG2R61     CG2R61      CLGR1
   11    12    14    16	 9 ;     CG2R61     CG2R61     CG2R61     CG2R61
   43    12    14    15	 9 ;      HGR62     CG2R61     CG2R61      CLGR1
   43    12    14    16	 9 ;      HGR62     CG2R61     CG2R61     CG2R61
   11    13    17    16	 9 ;     CG2R61     CG2R61     CG2R61     CG2R61
   11    13    17    45	 9 ;     CG2R61     CG2R61     CG2R61      HGR61
    4    13    17    16	 9 ;      CG311     CG2R61     CG2R61     CG2R61
    4    13    17    45	 9 ;      CG311     CG2R61     CG2R61      HGR61
   12    14    16    17	 9 ;     CG2R61     CG2R61     CG2R61     CG2R61
   12    14    16    44	 9 ;     CG2R61     CG2R61     CG2R61      HGR62
   15    14    16    17	 9 ;      CLGR1     CG2R61     CG2R61     CG2R61
   15    14    16    44	 9 ;      CLGR1     CG2R61     CG2R61      HGR62
   14    16    17    13	 9 ;     CG2R61     CG2R61     CG2R61     CG2R61
   14    16    17    45	 9 ;     CG2R61     CG2R61     CG2R61      HGR61
   44    16    17    13	 9 ;      HGR62     CG2R61     CG2R61     CG2R61
   44    16    17    45	 9 ;      HGR62     CG2R61     CG2R61      HGR61
    1    18    19    20	 9 ;      CG311      CG321     CG2R61     CG2R61
    1    18    19    24	 9 ;      CG311      CG321     CG2R61     CG2R61
   46    18    19    20	 9 ;       HGA2      CG321     CG2R61     CG2R61
   46    18    19    24	 9 ;       HGA2      CG321     CG2R61     CG2R61
   47    18    19    20	 9 ;       HGA2      CG321     CG2R61     CG2R61
   47    18    19    24	 9 ;       HGA2      CG321     CG2R61     CG2R61
   18    19    20    21	 9 ;      CG321     CG2R61     CG2R61     CG2R61
   18    19    20    48	 9 ;      CG321     CG2R61     CG2R61      HGR61
   24    19    20    21	 9 ;     CG2R61     CG2R61     CG2R61     CG2R61
   24    19    20    48	 9 ;     CG2R61     CG2R61     CG2R61      HGR61
   18    19    24    23	 9 ;      CG321     CG2R61     CG2R61     CG2R61
   18    19    24    52	 9 ;      CG321     CG2R61     CG2R61      HGR61
   20    19    24    23	 9 ;     CG2R61     CG2R61     CG2R61     CG2R61
   20    19    24    52	 9 ;     CG2R61     CG2R61     CG2R61      HGR61
   19    20    21    22	 9 ;     CG2R61     CG2R61     CG2R61     CG2R61
   19    20    21    49	 9 ;     CG2R61     CG2R61     CG2R61      HGR61
   48    20    21    22	 9 ;      HGR61     CG2R61     CG2R61     CG2R61
   48    20    21    49	 9 ;      HGR61     CG2R61     CG2R61      HGR61
   20    21    22    23	 9 ;     CG2R61     CG2R61     CG2R61     CG2R61
   20    21    22    50	 9 ;     CG2R61     CG2R61     CG2R61      HGR61
   49    21    22    23	 9 ;      HGR61     CG2R61     CG2R61     CG2R61
   49    21    22    50	 9 ;      HGR61     CG2R61     CG2R61      HGR61
   21    22    23    24	 9 ;     CG2R61     CG2R61     CG2R61     CG2R61
   21    22    23    51	 9 ;     CG2R61     CG2R61     CG2R61      HGR61
   50    22    23    24	 9 ;      HGR61     CG2R61     CG2R61     CG2R61
   50    22    23    51	 9 ;      HGR61     CG2R61     CG2R61      HGR61
   22    23    24    19	 9 ;     CG2R61     CG2R61     CG2R61     CG2R61
   22    23    24    52	 9 ;     CG2R61     CG2R61     CG2R61      HGR61
   51    23    24    19	 9 ;      HGR61     CG2R61     CG2R61     CG2R61
   51    23    24    52	 9 ;      HGR61     CG2R61     CG2R61      HGR61
    1    25    26    28	 9 ;      CG311     CG3C51     NG2R53       HGP1
    1    25    26    27	 9 ;      CG311     CG3C51     NG2R53     CG2R53
   31    25    26    28	 9 ;     NG3C51     CG3C51     NG2R53       HGP1
   31    25    26    27	 9 ;     NG3C51     CG3C51     NG2R53     CG2R53
   53    25    26    28	 9 ;       HGA1     CG3C51     NG2R53       HGP1
   53    25    26    27	 9 ;       HGA1     CG3C51     NG2R53     CG2R53
   26    25    31    30	 9 ;     NG2R53     CG3C51     NG3C51     NG2R53
   26    25    31    33	 9 ;     NG2R53     CG3C51     NG3C51       HGP1
    1    25    31    30	 9 ;      CG311     CG3C51     NG3C51     NG2R53
    1    25    31    33	 9 ;      CG311     CG3C51     NG3C51       HGP1
   53    25    31    30	 9 ;       HGA1     CG3C51     NG3C51     NG2R53
   53    25    31    33	 9 ;       HGA1     CG3C51     NG3C51       HGP1
   28    26    27    29	 9 ;       HGP1     NG2R53     CG2R53      OG2D1
   28    26    27    30	 9 ;       HGP1     NG2R53     CG2R53     NG2R53
   25    26    27    29	 9 ;     CG3C51     NG2R53     CG2R53      OG2D1
   25    26    27    30	 9 ;     CG3C51     NG2R53     CG2R53     NG2R53
   29    27    30    31	 9 ;      OG2D1     CG2R53     NG2R53     NG3C51
   29    27    30    32	 9 ;      OG2D1     CG2R53     NG2R53       HGP1
   26    27    30    31	 9 ;     NG2R53     CG2R53     NG2R53     NG3C51
   26    27    30    32	 9 ;     NG2R53     CG2R53     NG2R53       HGP1
   27    30    31    25	 9 ;     CG2R53     NG2R53     NG3C51     CG3C51
   27    30    31    33	 9 ;     CG2R53     NG2R53     NG3C51       HGP1
   32    30    31    25	 9 ;       HGP1     NG2R53     NG3C51     CG3C51
   32    30    31    33	 9 ;       HGP1     NG2R53     NG3C51       HGP1

[ dihedrals ]
;	ai	  aj	ak	  al funct			  c0			c1			  c2			c3
   27    26    30    29	 2

[ virtual_sites2 ]
; Site   from				funct a
   55    15    14     2   -0.164

[ exclusions ]
;	ai	  aj
   15    55
   55    14
   55    12
   55    16
   55    11
   55    43
   55    17
   55    44

