Giant Rising Ordinary Mutants for A Clerical Setup
   85
    1LIG     C1    1  -1.760   0.474  -1.423
    1LIG     N1    2  -1.775   0.389  -1.544
    1LIG     C2    3  -1.696   0.349  -1.650
    1LIG     O1    4  -1.756   0.297  -1.744
    1LIG     H1    5  -1.868   0.356  -1.566
    1LIG     C3    6  -1.547   0.360  -1.659
    1LIG     C4    7  -1.464   0.273  -1.589
    1LIG     C5    8  -1.324   0.273  -1.599
    1LIG     C6    9  -1.268   0.365  -1.689
    1LIG     C7   10  -1.348   0.451  -1.766
    1LIG     C8   11  -1.487   0.449  -1.749
    1LIG     C9   12  -1.284   0.541  -1.867
    1LIG    C10   13  -1.228   0.184  -1.524
    1LIG     O2   14  -1.209   0.072  -1.573
    1LIG     N2   15  -1.160   0.220  -1.406
    1LIG    C11   16  -1.195   0.327  -1.314
    1LIG    C12   17  -1.108   0.452  -1.322
    1LIG    C13   18  -1.168   0.562  -1.406
    1LIG    C14   19  -1.062   0.123  -1.352
    1LIG    C15   20  -0.921   0.130  -1.412
    1LIG    C16   21  -0.873  -0.001  -1.472
    1LIG    C17   22  -1.787   0.623  -1.452
    1LIG    C18   23  -1.683   0.698  -1.535
    1LIG    C19   24  -1.554   0.728  -1.487
    1LIG    C20   25  -1.461   0.796  -1.566
    1LIG     F1   26  -1.341   0.825  -1.516
    1LIG    C21   27  -1.492   0.833  -1.696
    1LIG    C22   28  -1.616   0.799  -1.746
    1LIG    C23   29  -1.711   0.732  -1.667
    1LIG     F2   30  -1.648   0.831  -1.872
    1LIG    C24   31  -1.839   0.415  -1.300
    1LIG     O3   32  -1.749   0.369  -1.199
    1LIG     H2   33  -1.666   0.337  -1.239
    1LIG    C25   34  -1.944   0.302  -1.322
    1LIG     N3   35  -2.074   0.346  -1.255
    1LIG    C26   36  -2.152   0.224  -1.211
    1LIG     H3   37  -2.047   0.400  -1.171
    1LIG     H4   38  -2.130   0.409  -1.314
    1LIG    C27   39  -2.056   0.106  -1.223
    1LIG    C28   40  -1.919   0.172  -1.248
    1LIG     O4   41  -2.039   0.032  -1.102
    1LIG    C29   42  -2.010  -0.101  -1.097
    1LIG    C30   43  -2.030  -0.196  -1.196
    1LIG    C31   44  -2.003  -0.331  -1.169
    1LIG    C32   45  -1.954  -0.371  -1.045
    1LIG    C33   46  -1.930  -0.276  -0.947
    1LIG    C34   47  -1.958  -0.142  -0.974
    1LIG     HC   48  -1.654   0.467  -1.395
    1LIG    HC1   49  -1.510   0.200  -1.524
    1LIG    HC2   50  -1.161   0.370  -1.699
    1LIG    HC3   51  -1.549   0.517  -1.806
    1LIG    HC4   52  -1.360   0.600  -1.918
    1LIG    HC5   53  -1.213   0.608  -1.818
    1LIG    HC6   54  -1.231   0.481  -1.941
    1LIG    HC7   55  -1.298   0.357  -1.336
    1LIG    HC8   56  -1.191   0.289  -1.212
    1LIG    HC9   57  -1.092   0.490  -1.221
    1LIG   HC10   58  -1.011   0.424  -1.364
    1LIG   HC11   59  -1.101   0.648  -1.407
    1LIG   HC12   60  -1.264   0.592  -1.363
    1LIG   HC13   61  -1.183   0.526  -1.508
    1LIG   HC14   62  -1.101   0.023  -1.371
    1LIG   HC15   63  -1.055   0.137  -1.245
    1LIG   HC16   64  -0.852   0.159  -1.333
    1LIG   HC17   65  -0.920   0.207  -1.489
    1LIG   HC18   66  -0.773   0.012  -1.512
    1LIG   HC19   67  -0.941  -0.031  -1.553
    1LIG   HC20   68  -0.872  -0.078  -1.395
    1LIG   HC21   69  -1.882   0.630  -1.505
    1LIG   HC22   70  -1.798   0.675  -1.357
    1LIG   HC23   71  -1.527   0.697  -1.388
    1LIG   HC24   72  -1.421   0.887  -1.756
    1LIG   HC25   73  -1.807   0.706  -1.710
    1LIG   HC26   74  -1.894   0.499  -1.256
    1LIG   HC27   75  -1.960   0.284  -1.428
    1LIG   HC28   76  -2.238   0.209  -1.276
    1LIG   HC29   77  -2.184   0.236  -1.108
    1LIG   HC30   78  -2.083   0.040  -1.305
    1LIG   HC31   79  -1.856   0.106  -1.309
    1LIG   HC32   80  -1.869   0.192  -1.153
    1LIG   HC33   81  -2.065  -0.166  -1.294
    1LIG   HC34   82  -2.020  -0.405  -1.246
    1LIG   HC35   83  -1.936  -0.476  -1.025
    1LIG   HC36   84  -1.890  -0.306  -0.851
    1LIG   HC37   85  -1.938  -0.068  -0.897
   0.00000   0.00000   0.00000
