; Created by cgenff_charmm2gmx.py

[ moleculetype ]
; Name			   nrexcl
LIG				 3

[ atoms ]
;	 nr		  type	resnr residue  atom   cgnr	   charge		mass  typeB    chargeB		massB
; residue	 1 LIG rtp LIG q	qsum
     1      CG311      1    LIG     C1      1      0.125     12.011   ;
     2      NG2S1      1    LIG     N1      2     -0.226     14.007   ;
     3      CG2O1      1    LIG     C2      3      0.302     12.011   ;
     4      OG2D1      1    LIG     O1      4     -0.463     15.999   ;
     5       HGP1      1    LIG     H1      5      0.262      1.008   ;
     6     CG2R61      1    LIG     C3      6     -0.120     12.011   ;
     7     CG2R61      1    LIG     C4      7     -0.003     12.011   ;
     8     CG2R61      1    LIG     C5      8     -0.179     12.011   ;
     9     CG2R61      1    LIG     C6      9     -0.064     12.011   ;
    10     CG2R61      1    LIG     C7     10      0.038     12.011   ;
    11     CG2R61      1    LIG     C8     11     -0.065     12.011   ;
    12      CG331      1    LIG     C9     12     -0.264     12.011   ;
    13      CG2O1      1    LIG    C10     13      0.400     12.011   ;
    14      OG2D1      1    LIG     O2     14     -0.476     15.999   ;
    15      NG2S0      1    LIG     N2     15     -0.418     14.007   ;
    16      CG321      1    LIG    C11     16      0.096     12.011   ;
    17      CG321      1    LIG    C12     17     -0.170     12.011   ;
    18      CG331      1    LIG    C13     18     -0.285     12.011   ;
    19      CG321      1    LIG    C14     19      0.096     12.011   ;
    20      CG321      1    LIG    C15     20     -0.170     12.011   ;
    21      CG331      1    LIG    C16     21     -0.285     12.011   ;
    22      CG321      1    LIG    C17     22     -0.149     12.011   ;
    23     CG2R61      1    LIG    C18     23      0.057     12.011   ;
    24     CG2R61      1    LIG    C19     24     -0.218     12.011   ;
    25     CG2R66      1    LIG    C20     25      0.261     12.011   ;
    26       FGR1      1    LIG     F1     26     -0.210     18.998   ;
    27     CG2R61      1    LIG    C21     27     -0.240     12.011   ;
    28     CG2R66      1    LIG    C22     28      0.261     12.011   ;
    29     CG2R61      1    LIG    C23     29     -0.218     12.011   ;
    30       FGR1      1    LIG     F2     30     -0.210     18.998   ;
    31      CG311      1    LIG    C24     31     -0.216     12.011   ;
    32      OG311      1    LIG     O3     32     -0.593     15.999   ;
    33       HGP1      1    LIG     H2     33      0.422      1.008   ;
    34     CG3C53      1    LIG    C25     34      0.379     12.011   ;
    35      NG3P2      1    LIG     N3     35     -0.259     14.007   ;
    36     CG3C54      1    LIG    C26     36     -0.437     12.011   ;
    37       HGP2      1    LIG     H3     37      0.302      1.008   ;
    38       HGP2      1    LIG     H4     38      0.302      1.008   ;
    39     CG3C51      1    LIG    C27     39      0.250     12.011   ;
    40     CG3C52      1    LIG    C28     40     -0.114     12.011   ;
    41      OG301      1    LIG     O4     41     -0.370     15.999   ;
    42     CG2R61      1    LIG    C29     42      0.217     12.011   ;
    43     CG2R61      1    LIG    C30     43     -0.119     12.011   ;
    44     CG2R61      1    LIG    C31     44     -0.113     12.011   ;
    45     CG2R61      1    LIG    C32     45     -0.116     12.011   ;
    46     CG2R61      1    LIG    C33     46     -0.113     12.011   ;
    47     CG2R61      1    LIG    C34     47     -0.119     12.011   ;
    48       HGA1      1    LIG     HC     48      0.090      1.008   ;
    49      HGR61      1    LIG    HC1     49      0.116      1.008   ;
    50      HGR61      1    LIG    HC2     50      0.116      1.008   ;
    51      HGR61      1    LIG    HC3     51      0.116      1.008   ;
    52       HGA3      1    LIG    HC4     52      0.090      1.008   ;
    53       HGA3      1    LIG    HC5     53      0.090      1.008   ;
    54       HGA3      1    LIG    HC6     54      0.090      1.008   ;
    55       HGA2      1    LIG    HC7     55      0.090      1.008   ;
    56       HGA2      1    LIG    HC8     56      0.090      1.008   ;
    57       HGA2      1    LIG    HC9     57      0.090      1.008   ;
    58       HGA2      1    LIG   HC10     58      0.090      1.008   ;
    59       HGA3      1    LIG   HC11     59      0.090      1.008   ;
    60       HGA3      1    LIG   HC12     60      0.090      1.008   ;
    61       HGA3      1    LIG   HC13     61      0.090      1.008   ;
    62       HGA2      1    LIG   HC14     62      0.090      1.008   ;
    63       HGA2      1    LIG   HC15     63      0.090      1.008   ;
    64       HGA2      1    LIG   HC16     64      0.090      1.008   ;
    65       HGA2      1    LIG   HC17     65      0.090      1.008   ;
    66       HGA3      1    LIG   HC18     66      0.090      1.008   ;
    67       HGA3      1    LIG   HC19     67      0.090      1.008   ;
    68       HGA3      1    LIG   HC20     68      0.090      1.008   ;
    69       HGA2      1    LIG   HC21     69      0.090      1.008   ;
    70       HGA2      1    LIG   HC22     70      0.090      1.008   ;
    71      HGR62      1    LIG   HC23     71      0.174      1.008   ;
    72      HGR62      1    LIG   HC24     72      0.186      1.008   ;
    73      HGR62      1    LIG   HC25     73      0.174      1.008   ;
    74       HGA1      1    LIG   HC26     74      0.090      1.008   ;
    75       HGA1      1    LIG   HC27     75      0.090      1.008   ;
    76       HGA2      1    LIG   HC28     76      0.260      1.008   ;
    77       HGA2      1    LIG   HC29     77      0.260      1.008   ;
    78       HGA1      1    LIG   HC30     78      0.090      1.008   ;
    79       HGA2      1    LIG   HC31     79      0.090      1.008   ;
    80       HGA2      1    LIG   HC32     80      0.090      1.008   ;
    81      HGR61      1    LIG   HC33     81      0.116      1.008   ;
    82      HGR61      1    LIG   HC34     82      0.116      1.008   ;
    83      HGR61      1    LIG   HC35     83      0.116      1.008   ;
    84      HGR61      1    LIG   HC36     84      0.116      1.008   ;
    85      HGR61      1    LIG   HC37     85      0.116      1.008   ;

[ bonds ]
;	ai	  aj funct			  c0			c1			  c2			c3
    1    22	 1 ;       CG311      CG321
    1     2	 1 ;       CG311      NG2S1
    1    31	 1 ;       CG311      CG311
    1    48	 1 ;       CG311       HGA1
    2     3	 1 ;       NG2S1      CG2O1
    2     5	 1 ;       NG2S1       HGP1
    3     6	 1 ;       CG2O1     CG2R61
    3     4	 1 ;       CG2O1      OG2D1
    6    11	 1 ;      CG2R61     CG2R61
    6     7	 1 ;      CG2R61     CG2R61
    7     8	 1 ;      CG2R61     CG2R61
    7    49	 1 ;      CG2R61      HGR61
    8     9	 1 ;      CG2R61     CG2R61
    8    13	 1 ;      CG2R61      CG2O1
    9    10	 1 ;      CG2R61     CG2R61
    9    50	 1 ;      CG2R61      HGR61
   10    12	 1 ;      CG2R61      CG331
   10    11	 1 ;      CG2R61     CG2R61
   11    51	 1 ;      CG2R61      HGR61
   12    52	 1 ;       CG331       HGA3
   12    53	 1 ;       CG331       HGA3
   12    54	 1 ;       CG331       HGA3
   13    14	 1 ;       CG2O1      OG2D1
   13    15	 1 ;       CG2O1      NG2S0
   15    19	 1 ;       NG2S0      CG321
   15    16	 1 ;       NG2S0      CG321
   16    17	 1 ;       CG321      CG321
   16    55	 1 ;       CG321       HGA2
   16    56	 1 ;       CG321       HGA2
   17    18	 1 ;       CG321      CG331
   17    57	 1 ;       CG321       HGA2
   17    58	 1 ;       CG321       HGA2
   18    59	 1 ;       CG331       HGA3
   18    60	 1 ;       CG331       HGA3
   18    61	 1 ;       CG331       HGA3
   19    20	 1 ;       CG321      CG321
   19    62	 1 ;       CG321       HGA2
   19    63	 1 ;       CG321       HGA2
   20    21	 1 ;       CG321      CG331
   20    64	 1 ;       CG321       HGA2
   20    65	 1 ;       CG321       HGA2
   21    66	 1 ;       CG331       HGA3
   21    67	 1 ;       CG331       HGA3
   21    68	 1 ;       CG331       HGA3
   22    23	 1 ;       CG321     CG2R61
   22    69	 1 ;       CG321       HGA2
   22    70	 1 ;       CG321       HGA2
   23    29	 1 ;      CG2R61     CG2R61
   23    24	 1 ;      CG2R61     CG2R61
   24    25	 1 ;      CG2R61     CG2R66
   24    71	 1 ;      CG2R61      HGR62
   25    27	 1 ;      CG2R66     CG2R61
   25    26	 1 ;      CG2R66       FGR1
   27    28	 1 ;      CG2R61     CG2R66
   27    72	 1 ;      CG2R61      HGR62
   28    30	 1 ;      CG2R66       FGR1
   28    29	 1 ;      CG2R66     CG2R61
   29    73	 1 ;      CG2R61      HGR62
   31    32	 1 ;       CG311      OG311
   31    34	 1 ;       CG311     CG3C53
   31    74	 1 ;       CG311       HGA1
   32    33	 1 ;       OG311       HGP1
   34    40	 1 ;      CG3C53     CG3C52
   34    35	 1 ;      CG3C53      NG3P2
   34    75	 1 ;      CG3C53       HGA1
   35    38	 1 ;       NG3P2       HGP2
   35    37	 1 ;       NG3P2       HGP2
   35    36	 1 ;       NG3P2     CG3C54
   36    39	 1 ;      CG3C54     CG3C51
   36    76	 1 ;      CG3C54       HGA2
   36    77	 1 ;      CG3C54       HGA2
   39    40	 1 ;      CG3C51     CG3C52
   39    41	 1 ;      CG3C51      OG301
   39    78	 1 ;      CG3C51       HGA1
   40    79	 1 ;      CG3C52       HGA2
   40    80	 1 ;      CG3C52       HGA2
   41    42	 1 ;       OG301     CG2R61
   42    43	 1 ;      CG2R61     CG2R61
   42    47	 1 ;      CG2R61     CG2R61
   43    44	 1 ;      CG2R61     CG2R61
   43    81	 1 ;      CG2R61      HGR61
   44    45	 1 ;      CG2R61     CG2R61
   44    82	 1 ;      CG2R61      HGR61
   45    46	 1 ;      CG2R61     CG2R61
   45    83	 1 ;      CG2R61      HGR61
   46    47	 1 ;      CG2R61     CG2R61
   46    84	 1 ;      CG2R61      HGR61
   47    85	 1 ;      CG2R61      HGR61

[ pairs ]
;	ai	  aj funct			  c0			c1			  c2			c3
    1     6	 1
    1     4	 1
    1    29	 1
    1    24	 1
    1    33	 1
    1    40	 1
    1    35	 1
    1    75	 1
    2    23	 1
    2    69	 1
    2    70	 1
    2    32	 1
    2    34	 1
    2    74	 1
    2    11	 1
    2     7	 1
    3    22	 1
    3    31	 1
    3    48	 1
    3    10	 1
    3    51	 1
    3     8	 1
    3    49	 1
    4     5	 1
    4    11	 1
    4     7	 1
    5    22	 1
    5    31	 1
    5    48	 1
    5     6	 1
    6     9	 1
    6    13	 1
    6    12	 1
    7    10	 1
    7    51	 1
    7    50	 1
    7    14	 1
    7    15	 1
    8    11	 1
    8    12	 1
    8    19	 1
    8    16	 1
    9    49	 1
    9    14	 1
    9    15	 1
    9    52	 1
    9    53	 1
    9    54	 1
    9    51	 1
   10    13	 1
   11    49	 1
   11    50	 1
   11    52	 1
   11    53	 1
   11    54	 1
   12    50	 1
   12    51	 1
   13    49	 1
   13    50	 1
   13    20	 1
   13    62	 1
   13    63	 1
   13    17	 1
   13    55	 1
   13    56	 1
   14    19	 1
   14    16	 1
   15    18	 1
   15    57	 1
   15    58	 1
   15    21	 1
   15    64	 1
   15    65	 1
   16    20	 1
   16    62	 1
   16    63	 1
   16    59	 1
   16    60	 1
   16    61	 1
   17    19	 1
   18    55	 1
   18    56	 1
   19    55	 1
   19    56	 1
   19    66	 1
   19    67	 1
   19    68	 1
   21    62	 1
   21    63	 1
   22    32	 1
   22    34	 1
   22    74	 1
   22    28	 1
   22    73	 1
   22    25	 1
   22    71	 1
   23    31	 1
   23    48	 1
   23    27	 1
   23    26	 1
   23    30	 1
   24    69	 1
   24    70	 1
   24    28	 1
   24    73	 1
   24    72	 1
   25    29	 1
   25    30	 1
   26    71	 1
   26    28	 1
   26    72	 1
   27    71	 1
   27    73	 1
   29    69	 1
   29    70	 1
   29    71	 1
   29    72	 1
   30    72	 1
   30    73	 1
   31    69	 1
   31    70	 1
   31    39	 1
   31    79	 1
   31    80	 1
   31    38	 1
   31    37	 1
   31    36	 1
   32    48	 1
   32    40	 1
   32    35	 1
   32    75	 1
   33    34	 1
   33    74	 1
   34    48	 1
   34    76	 1
   34    77	 1
   34    41	 1
   34    78	 1
   35    74	 1
   35    79	 1
   35    80	 1
   35    41	 1
   35    78	 1
   36    75	 1
   36    79	 1
   36    80	 1
   36    42	 1
   37    40	 1
   37    75	 1
   37    39	 1
   37    76	 1
   37    77	 1
   38    40	 1
   38    75	 1
   38    39	 1
   38    76	 1
   38    77	 1
   39    75	 1
   39    43	 1
   39    47	 1
   40    74	 1
   40    76	 1
   40    77	 1
   40    42	 1
   41    76	 1
   41    77	 1
   41    79	 1
   41    80	 1
   41    44	 1
   41    81	 1
   41    46	 1
   41    85	 1
   42    78	 1
   42    45	 1
   42    82	 1
   42    84	 1
   43    46	 1
   43    85	 1
   43    83	 1
   44    47	 1
   44    84	 1
   45    81	 1
   45    85	 1
   46    82	 1
   47    81	 1
   47    83	 1
   48    69	 1
   48    70	 1
   48    74	 1
   55    57	 1
   55    58	 1
   56    57	 1
   56    58	 1
   57    59	 1
   57    60	 1
   57    61	 1
   58    59	 1
   58    60	 1
   58    61	 1
   62    64	 1
   62    65	 1
   63    64	 1
   63    65	 1
   64    66	 1
   64    67	 1
   64    68	 1
   65    66	 1
   65    67	 1
   65    68	 1
   74    75	 1
   75    79	 1
   75    80	 1
   76    78	 1
   77    78	 1
   78    79	 1
   78    80	 1
   81    82	 1
   82    83	 1
   83    84	 1
   84    85	 1

[ angles ]
;	ai	  aj	ak funct			c0			  c1			c2			  c3
   22     1     2	5 ;      CG321      CG311      NG2S1
   22     1    31	5 ;      CG321      CG311      CG311
   22     1    48	5 ;      CG321      CG311       HGA1
    2     1    31	5 ;      NG2S1      CG311      CG311
    2     1    48	5 ;      NG2S1      CG311       HGA1
   31     1    48	5 ;      CG311      CG311       HGA1
    3     2     5	5 ;      CG2O1      NG2S1       HGP1
    3     2     1	5 ;      CG2O1      NG2S1      CG311
    5     2     1	5 ;       HGP1      NG2S1      CG311
    6     3     4	5 ;     CG2R61      CG2O1      OG2D1
    6     3     2	5 ;     CG2R61      CG2O1      NG2S1
    4     3     2	5 ;      OG2D1      CG2O1      NG2S1
   11     6     7	5 ;     CG2R61     CG2R61     CG2R61
   11     6     3	5 ;     CG2R61     CG2R61      CG2O1
    7     6     3	5 ;     CG2R61     CG2R61      CG2O1
    8     7     6	5 ;     CG2R61     CG2R61     CG2R61
    8     7    49	5 ;     CG2R61     CG2R61      HGR61
    6     7    49	5 ;     CG2R61     CG2R61      HGR61
    9     8    13	5 ;     CG2R61     CG2R61      CG2O1
    9     8     7	5 ;     CG2R61     CG2R61     CG2R61
   13     8     7	5 ;      CG2O1     CG2R61     CG2R61
   10     9     8	5 ;     CG2R61     CG2R61     CG2R61
   10     9    50	5 ;     CG2R61     CG2R61      HGR61
    8     9    50	5 ;     CG2R61     CG2R61      HGR61
   12    10     9	5 ;      CG331     CG2R61     CG2R61
   12    10    11	5 ;      CG331     CG2R61     CG2R61
    9    10    11	5 ;     CG2R61     CG2R61     CG2R61
   10    11     6	5 ;     CG2R61     CG2R61     CG2R61
   10    11    51	5 ;     CG2R61     CG2R61      HGR61
    6    11    51	5 ;     CG2R61     CG2R61      HGR61
   10    12    52	5 ;     CG2R61      CG331       HGA3
   10    12    53	5 ;     CG2R61      CG331       HGA3
   10    12    54	5 ;     CG2R61      CG331       HGA3
   52    12    53	5 ;       HGA3      CG331       HGA3
   52    12    54	5 ;       HGA3      CG331       HGA3
   53    12    54	5 ;       HGA3      CG331       HGA3
    8    13    14	5 ;     CG2R61      CG2O1      OG2D1
    8    13    15	5 ;     CG2R61      CG2O1      NG2S0
   14    13    15	5 ;      OG2D1      CG2O1      NG2S0
   13    15    19	5 ;      CG2O1      NG2S0      CG321
   13    15    16	5 ;      CG2O1      NG2S0      CG321
   19    15    16	5 ;      CG321      NG2S0      CG321
   17    16    15	5 ;      CG321      CG321      NG2S0
   17    16    55	5 ;      CG321      CG321       HGA2
   17    16    56	5 ;      CG321      CG321       HGA2
   15    16    55	5 ;      NG2S0      CG321       HGA2
   15    16    56	5 ;      NG2S0      CG321       HGA2
   55    16    56	5 ;       HGA2      CG321       HGA2
   18    17    16	5 ;      CG331      CG321      CG321
   18    17    57	5 ;      CG331      CG321       HGA2
   18    17    58	5 ;      CG331      CG321       HGA2
   16    17    57	5 ;      CG321      CG321       HGA2
   16    17    58	5 ;      CG321      CG321       HGA2
   57    17    58	5 ;       HGA2      CG321       HGA2
   17    18    59	5 ;      CG321      CG331       HGA3
   17    18    60	5 ;      CG321      CG331       HGA3
   17    18    61	5 ;      CG321      CG331       HGA3
   59    18    60	5 ;       HGA3      CG331       HGA3
   59    18    61	5 ;       HGA3      CG331       HGA3
   60    18    61	5 ;       HGA3      CG331       HGA3
   20    19    15	5 ;      CG321      CG321      NG2S0
   20    19    62	5 ;      CG321      CG321       HGA2
   20    19    63	5 ;      CG321      CG321       HGA2
   15    19    62	5 ;      NG2S0      CG321       HGA2
   15    19    63	5 ;      NG2S0      CG321       HGA2
   62    19    63	5 ;       HGA2      CG321       HGA2
   21    20    19	5 ;      CG331      CG321      CG321
   21    20    64	5 ;      CG331      CG321       HGA2
   21    20    65	5 ;      CG331      CG321       HGA2
   19    20    64	5 ;      CG321      CG321       HGA2
   19    20    65	5 ;      CG321      CG321       HGA2
   64    20    65	5 ;       HGA2      CG321       HGA2
   20    21    66	5 ;      CG321      CG331       HGA3
   20    21    67	5 ;      CG321      CG331       HGA3
   20    21    68	5 ;      CG321      CG331       HGA3
   66    21    67	5 ;       HGA3      CG331       HGA3
   66    21    68	5 ;       HGA3      CG331       HGA3
   67    21    68	5 ;       HGA3      CG331       HGA3
   23    22     1	5 ;     CG2R61      CG321      CG311
   23    22    69	5 ;     CG2R61      CG321       HGA2
   23    22    70	5 ;     CG2R61      CG321       HGA2
    1    22    69	5 ;      CG311      CG321       HGA2
    1    22    70	5 ;      CG311      CG321       HGA2
   69    22    70	5 ;       HGA2      CG321       HGA2
   29    23    24	5 ;     CG2R61     CG2R61     CG2R61
   29    23    22	5 ;     CG2R61     CG2R61      CG321
   24    23    22	5 ;     CG2R61     CG2R61      CG321
   25    24    23	5 ;     CG2R66     CG2R61     CG2R61
   25    24    71	5 ;     CG2R66     CG2R61      HGR62
   23    24    71	5 ;     CG2R61     CG2R61      HGR62
   27    25    26	5 ;     CG2R61     CG2R66       FGR1
   27    25    24	5 ;     CG2R61     CG2R66     CG2R61
   26    25    24	5 ;       FGR1     CG2R66     CG2R61
   28    27    25	5 ;     CG2R66     CG2R61     CG2R66
   28    27    72	5 ;     CG2R66     CG2R61      HGR62
   25    27    72	5 ;     CG2R66     CG2R61      HGR62
   30    28    27	5 ;       FGR1     CG2R66     CG2R61
   30    28    29	5 ;       FGR1     CG2R66     CG2R61
   27    28    29	5 ;     CG2R61     CG2R66     CG2R61
   28    29    23	5 ;     CG2R66     CG2R61     CG2R61
   28    29    73	5 ;     CG2R66     CG2R61      HGR62
   23    29    73	5 ;     CG2R61     CG2R61      HGR62
    1    31    32	5 ;      CG311      CG311      OG311
    1    31    34	5 ;      CG311      CG311     CG3C53
    1    31    74	5 ;      CG311      CG311       HGA1
   32    31    34	5 ;      OG311      CG311     CG3C53
   32    31    74	5 ;      OG311      CG311       HGA1
   34    31    74	5 ;     CG3C53      CG311       HGA1
   33    32    31	5 ;       HGP1      OG311      CG311
   31    34    40	5 ;      CG311     CG3C53     CG3C52
   31    34    35	5 ;      CG311     CG3C53      NG3P2
   31    34    75	5 ;      CG311     CG3C53       HGA1
   40    34    35	5 ;     CG3C52     CG3C53      NG3P2
   40    34    75	5 ;     CG3C52     CG3C53       HGA1
   35    34    75	5 ;      NG3P2     CG3C53       HGA1
   34    35    38	5 ;     CG3C53      NG3P2       HGP2
   34    35    37	5 ;     CG3C53      NG3P2       HGP2
   34    35    36	5 ;     CG3C53      NG3P2     CG3C54
   38    35    37	5 ;       HGP2      NG3P2       HGP2
   38    35    36	5 ;       HGP2      NG3P2     CG3C54
   37    35    36	5 ;       HGP2      NG3P2     CG3C54
   35    36    39	5 ;      NG3P2     CG3C54     CG3C51
   35    36    76	5 ;      NG3P2     CG3C54       HGA2
   35    36    77	5 ;      NG3P2     CG3C54       HGA2
   39    36    76	5 ;     CG3C51     CG3C54       HGA2
   39    36    77	5 ;     CG3C51     CG3C54       HGA2
   76    36    77	5 ;       HGA2     CG3C54       HGA2
   40    39    36	5 ;     CG3C52     CG3C51     CG3C54
   40    39    41	5 ;     CG3C52     CG3C51      OG301
   40    39    78	5 ;     CG3C52     CG3C51       HGA1
   36    39    41	5 ;     CG3C54     CG3C51      OG301
   36    39    78	5 ;     CG3C54     CG3C51       HGA1
   41    39    78	5 ;      OG301     CG3C51       HGA1
   34    40    39	5 ;     CG3C53     CG3C52     CG3C51
   34    40    79	5 ;     CG3C53     CG3C52       HGA2
   34    40    80	5 ;     CG3C53     CG3C52       HGA2
   39    40    79	5 ;     CG3C51     CG3C52       HGA2
   39    40    80	5 ;     CG3C51     CG3C52       HGA2
   79    40    80	5 ;       HGA2     CG3C52       HGA2
   39    41    42	5 ;     CG3C51      OG301     CG2R61
   43    42    41	5 ;     CG2R61     CG2R61      OG301
   43    42    47	5 ;     CG2R61     CG2R61     CG2R61
   41    42    47	5 ;      OG301     CG2R61     CG2R61
   42    43    44	5 ;     CG2R61     CG2R61     CG2R61
   42    43    81	5 ;     CG2R61     CG2R61      HGR61
   44    43    81	5 ;     CG2R61     CG2R61      HGR61
   43    44    45	5 ;     CG2R61     CG2R61     CG2R61
   43    44    82	5 ;     CG2R61     CG2R61      HGR61
   45    44    82	5 ;     CG2R61     CG2R61      HGR61
   44    45    46	5 ;     CG2R61     CG2R61     CG2R61
   44    45    83	5 ;     CG2R61     CG2R61      HGR61
   46    45    83	5 ;     CG2R61     CG2R61      HGR61
   47    46    45	5 ;     CG2R61     CG2R61     CG2R61
   47    46    84	5 ;     CG2R61     CG2R61      HGR61
   45    46    84	5 ;     CG2R61     CG2R61      HGR61
   42    47    46	5 ;     CG2R61     CG2R61     CG2R61
   42    47    85	5 ;     CG2R61     CG2R61      HGR61
   46    47    85	5 ;     CG2R61     CG2R61      HGR61

[ dihedrals ]
;	ai	  aj	ak	  al funct			  c0			c1			  c2			c3			  c4			c5
    2     1    22    23	 9 ;      NG2S1      CG311      CG321     CG2R61
    2     1    22    69	 9 ;      NG2S1      CG311      CG321       HGA2
    2     1    22    70	 9 ;      NG2S1      CG311      CG321       HGA2
   31     1    22    23	 9 ;      CG311      CG311      CG321     CG2R61
   31     1    22    69	 9 ;      CG311      CG311      CG321       HGA2
   31     1    22    70	 9 ;      CG311      CG311      CG321       HGA2
   48     1    22    23	 9 ;       HGA1      CG311      CG321     CG2R61
   48     1    22    69	 9 ;       HGA1      CG311      CG321       HGA2
   48     1    22    70	 9 ;       HGA1      CG311      CG321       HGA2
   22     1     2     3	 9 ;      CG321      CG311      NG2S1      CG2O1
   22     1     2     5	 9 ;      CG321      CG311      NG2S1       HGP1
   31     1     2     3	 9 ;      CG311      CG311      NG2S1      CG2O1
   31     1     2     5	 9 ;      CG311      CG311      NG2S1       HGP1
   48     1     2     3	 9 ;       HGA1      CG311      NG2S1      CG2O1
   48     1     2     5	 9 ;       HGA1      CG311      NG2S1       HGP1
   22     1    31    32	 9 ;      CG321      CG311      CG311      OG311
   22     1    31    34	 9 ;      CG321      CG311      CG311     CG3C53
   22     1    31    74	 9 ;      CG321      CG311      CG311       HGA1
    2     1    31    32	 9 ;      NG2S1      CG311      CG311      OG311
    2     1    31    34	 9 ;      NG2S1      CG311      CG311     CG3C53
    2     1    31    74	 9 ;      NG2S1      CG311      CG311       HGA1
   48     1    31    32	 9 ;       HGA1      CG311      CG311      OG311
   48     1    31    34	 9 ;       HGA1      CG311      CG311     CG3C53
   48     1    31    74	 9 ;       HGA1      CG311      CG311       HGA1
    5     2     3     6	 9 ;       HGP1      NG2S1      CG2O1     CG2R61
    5     2     3     4	 9 ;       HGP1      NG2S1      CG2O1      OG2D1
    1     2     3     6	 9 ;      CG311      NG2S1      CG2O1     CG2R61
    1     2     3     4	 9 ;      CG311      NG2S1      CG2O1      OG2D1
    4     3     6    11	 9 ;      OG2D1      CG2O1     CG2R61     CG2R61
    4     3     6     7	 9 ;      OG2D1      CG2O1     CG2R61     CG2R61
    2     3     6    11	 9 ;      NG2S1      CG2O1     CG2R61     CG2R61
    2     3     6     7	 9 ;      NG2S1      CG2O1     CG2R61     CG2R61
    7     6    11    10	 9 ;     CG2R61     CG2R61     CG2R61     CG2R61
    7     6    11    51	 9 ;     CG2R61     CG2R61     CG2R61      HGR61
    3     6    11    10	 9 ;      CG2O1     CG2R61     CG2R61     CG2R61
    3     6    11    51	 9 ;      CG2O1     CG2R61     CG2R61      HGR61
   11     6     7     8	 9 ;     CG2R61     CG2R61     CG2R61     CG2R61
   11     6     7    49	 9 ;     CG2R61     CG2R61     CG2R61      HGR61
    3     6     7     8	 9 ;      CG2O1     CG2R61     CG2R61     CG2R61
    3     6     7    49	 9 ;      CG2O1     CG2R61     CG2R61      HGR61
    6     7     8     9	 9 ;     CG2R61     CG2R61     CG2R61     CG2R61
    6     7     8    13	 9 ;     CG2R61     CG2R61     CG2R61      CG2O1
   49     7     8     9	 9 ;      HGR61     CG2R61     CG2R61     CG2R61
   49     7     8    13	 9 ;      HGR61     CG2R61     CG2R61      CG2O1
   13     8     9    10	 9 ;      CG2O1     CG2R61     CG2R61     CG2R61
   13     8     9    50	 9 ;      CG2O1     CG2R61     CG2R61      HGR61
    7     8     9    10	 9 ;     CG2R61     CG2R61     CG2R61     CG2R61
    7     8     9    50	 9 ;     CG2R61     CG2R61     CG2R61      HGR61
    9     8    13    14	 9 ;     CG2R61     CG2R61      CG2O1      OG2D1
    9     8    13    15	 9 ;     CG2R61     CG2R61      CG2O1      NG2S0
    7     8    13    14	 9 ;     CG2R61     CG2R61      CG2O1      OG2D1
    7     8    13    15	 9 ;     CG2R61     CG2R61      CG2O1      NG2S0
    8     9    10    12	 9 ;     CG2R61     CG2R61     CG2R61      CG331
    8     9    10    11	 9 ;     CG2R61     CG2R61     CG2R61     CG2R61
   50     9    10    12	 9 ;      HGR61     CG2R61     CG2R61      CG331
   50     9    10    11	 9 ;      HGR61     CG2R61     CG2R61     CG2R61
    9    10    12    52	 9 ;     CG2R61     CG2R61      CG331       HGA3
    9    10    12    53	 9 ;     CG2R61     CG2R61      CG331       HGA3
    9    10    12    54	 9 ;     CG2R61     CG2R61      CG331       HGA3
   11    10    12    52	 9 ;     CG2R61     CG2R61      CG331       HGA3
   11    10    12    53	 9 ;     CG2R61     CG2R61      CG331       HGA3
   11    10    12    54	 9 ;     CG2R61     CG2R61      CG331       HGA3
   12    10    11     6	 9 ;      CG331     CG2R61     CG2R61     CG2R61
   12    10    11    51	 9 ;      CG331     CG2R61     CG2R61      HGR61
    9    10    11     6	 9 ;     CG2R61     CG2R61     CG2R61     CG2R61
    9    10    11    51	 9 ;     CG2R61     CG2R61     CG2R61      HGR61
    8    13    15    19	 9 ;     CG2R61      CG2O1      NG2S0      CG321
    8    13    15    16	 9 ;     CG2R61      CG2O1      NG2S0      CG321
   14    13    15    19	 9 ;      OG2D1      CG2O1      NG2S0      CG321
   14    13    15    16	 9 ;      OG2D1      CG2O1      NG2S0      CG321
   13    15    19    20	 9 ;      CG2O1      NG2S0      CG321      CG321
   13    15    19    62	 9 ;      CG2O1      NG2S0      CG321       HGA2
   13    15    19    63	 9 ;      CG2O1      NG2S0      CG321       HGA2
   16    15    19    20	 9 ;      CG321      NG2S0      CG321      CG321
   16    15    19    62	 9 ;      CG321      NG2S0      CG321       HGA2
   16    15    19    63	 9 ;      CG321      NG2S0      CG321       HGA2
   13    15    16    17	 9 ;      CG2O1      NG2S0      CG321      CG321
   13    15    16    55	 9 ;      CG2O1      NG2S0      CG321       HGA2
   13    15    16    56	 9 ;      CG2O1      NG2S0      CG321       HGA2
   19    15    16    17	 9 ;      CG321      NG2S0      CG321      CG321
   19    15    16    55	 9 ;      CG321      NG2S0      CG321       HGA2
   19    15    16    56	 9 ;      CG321      NG2S0      CG321       HGA2
   15    16    17    18	 9 ;      NG2S0      CG321      CG321      CG331
   15    16    17    57	 9 ;      NG2S0      CG321      CG321       HGA2
   15    16    17    58	 9 ;      NG2S0      CG321      CG321       HGA2
   55    16    17    18	 9 ;       HGA2      CG321      CG321      CG331
   55    16    17    57	 9 ;       HGA2      CG321      CG321       HGA2
   55    16    17    58	 9 ;       HGA2      CG321      CG321       HGA2
   56    16    17    18	 9 ;       HGA2      CG321      CG321      CG331
   56    16    17    57	 9 ;       HGA2      CG321      CG321       HGA2
   56    16    17    58	 9 ;       HGA2      CG321      CG321       HGA2
   16    17    18    59	 9 ;      CG321      CG321      CG331       HGA3
   16    17    18    60	 9 ;      CG321      CG321      CG331       HGA3
   16    17    18    61	 9 ;      CG321      CG321      CG331       HGA3
   57    17    18    59	 9 ;       HGA2      CG321      CG331       HGA3
   57    17    18    60	 9 ;       HGA2      CG321      CG331       HGA3
   57    17    18    61	 9 ;       HGA2      CG321      CG331       HGA3
   58    17    18    59	 9 ;       HGA2      CG321      CG331       HGA3
   58    17    18    60	 9 ;       HGA2      CG321      CG331       HGA3
   58    17    18    61	 9 ;       HGA2      CG321      CG331       HGA3
   15    19    20    21	 9 ;      NG2S0      CG321      CG321      CG331
   15    19    20    64	 9 ;      NG2S0      CG321      CG321       HGA2
   15    19    20    65	 9 ;      NG2S0      CG321      CG321       HGA2
   62    19    20    21	 9 ;       HGA2      CG321      CG321      CG331
   62    19    20    64	 9 ;       HGA2      CG321      CG321       HGA2
   62    19    20    65	 9 ;       HGA2      CG321      CG321       HGA2
   63    19    20    21	 9 ;       HGA2      CG321      CG321      CG331
   63    19    20    64	 9 ;       HGA2      CG321      CG321       HGA2
   63    19    20    65	 9 ;       HGA2      CG321      CG321       HGA2
   19    20    21    66	 9 ;      CG321      CG321      CG331       HGA3
   19    20    21    67	 9 ;      CG321      CG321      CG331       HGA3
   19    20    21    68	 9 ;      CG321      CG321      CG331       HGA3
   64    20    21    66	 9 ;       HGA2      CG321      CG331       HGA3
   64    20    21    67	 9 ;       HGA2      CG321      CG331       HGA3
   64    20    21    68	 9 ;       HGA2      CG321      CG331       HGA3
   65    20    21    66	 9 ;       HGA2      CG321      CG331       HGA3
   65    20    21    67	 9 ;       HGA2      CG321      CG331       HGA3
   65    20    21    68	 9 ;       HGA2      CG321      CG331       HGA3
    1    22    23    29	 9 ;      CG311      CG321     CG2R61     CG2R61
    1    22    23    24	 9 ;      CG311      CG321     CG2R61     CG2R61
   69    22    23    29	 9 ;       HGA2      CG321     CG2R61     CG2R61
   69    22    23    24	 9 ;       HGA2      CG321     CG2R61     CG2R61
   70    22    23    29	 9 ;       HGA2      CG321     CG2R61     CG2R61
   70    22    23    24	 9 ;       HGA2      CG321     CG2R61     CG2R61
   24    23    29    28	 9 ;     CG2R61     CG2R61     CG2R61     CG2R66
   24    23    29    73	 9 ;     CG2R61     CG2R61     CG2R61      HGR62
   22    23    29    28	 9 ;      CG321     CG2R61     CG2R61     CG2R66
   22    23    29    73	 9 ;      CG321     CG2R61     CG2R61      HGR62
   29    23    24    25	 9 ;     CG2R61     CG2R61     CG2R61     CG2R66
   29    23    24    71	 9 ;     CG2R61     CG2R61     CG2R61      HGR62
   22    23    24    25	 9 ;      CG321     CG2R61     CG2R61     CG2R66
   22    23    24    71	 9 ;      CG321     CG2R61     CG2R61      HGR62
   23    24    25    27	 9 ;     CG2R61     CG2R61     CG2R66     CG2R61
   23    24    25    26	 9 ;     CG2R61     CG2R61     CG2R66       FGR1
   71    24    25    27	 9 ;      HGR62     CG2R61     CG2R66     CG2R61
   71    24    25    26	 9 ;      HGR62     CG2R61     CG2R66       FGR1
   26    25    27    28	 9 ;       FGR1     CG2R66     CG2R61     CG2R66
   26    25    27    72	 9 ;       FGR1     CG2R66     CG2R61      HGR62
   24    25    27    28	 9 ;     CG2R61     CG2R66     CG2R61     CG2R66
   24    25    27    72	 9 ;     CG2R61     CG2R66     CG2R61      HGR62
   25    27    28    30	 9 ;     CG2R66     CG2R61     CG2R66       FGR1
   25    27    28    29	 9 ;     CG2R66     CG2R61     CG2R66     CG2R61
   72    27    28    30	 9 ;      HGR62     CG2R61     CG2R66       FGR1
   72    27    28    29	 9 ;      HGR62     CG2R61     CG2R66     CG2R61
   30    28    29    23	 9 ;       FGR1     CG2R66     CG2R61     CG2R61
   30    28    29    73	 9 ;       FGR1     CG2R66     CG2R61      HGR62
   27    28    29    23	 9 ;     CG2R61     CG2R66     CG2R61     CG2R61
   27    28    29    73	 9 ;     CG2R61     CG2R66     CG2R61      HGR62
    1    31    32    33	 9 ;      CG311      CG311      OG311       HGP1
   34    31    32    33	 9 ;     CG3C53      CG311      OG311       HGP1
   74    31    32    33	 9 ;       HGA1      CG311      OG311       HGP1
    1    31    34    40	 9 ;      CG311      CG311     CG3C53     CG3C52
    1    31    34    35	 9 ;      CG311      CG311     CG3C53      NG3P2
    1    31    34    75	 9 ;      CG311      CG311     CG3C53       HGA1
   32    31    34    40	 9 ;      OG311      CG311     CG3C53     CG3C52
   32    31    34    35	 9 ;      OG311      CG311     CG3C53      NG3P2
   32    31    34    75	 9 ;      OG311      CG311     CG3C53       HGA1
   74    31    34    40	 9 ;       HGA1      CG311     CG3C53     CG3C52
   74    31    34    35	 9 ;       HGA1      CG311     CG3C53      NG3P2
   74    31    34    75	 9 ;       HGA1      CG311     CG3C53       HGA1
   31    34    40    39	 9 ;      CG311     CG3C53     CG3C52     CG3C51
   31    34    40    79	 9 ;      CG311     CG3C53     CG3C52       HGA2
   31    34    40    80	 9 ;      CG311     CG3C53     CG3C52       HGA2
   35    34    40    39	 9 ;      NG3P2     CG3C53     CG3C52     CG3C51
   35    34    40    79	 9 ;      NG3P2     CG3C53     CG3C52       HGA2
   35    34    40    80	 9 ;      NG3P2     CG3C53     CG3C52       HGA2
   75    34    40    39	 9 ;       HGA1     CG3C53     CG3C52     CG3C51
   75    34    40    79	 9 ;       HGA1     CG3C53     CG3C52       HGA2
   75    34    40    80	 9 ;       HGA1     CG3C53     CG3C52       HGA2
   31    34    35    38	 9 ;      CG311     CG3C53      NG3P2       HGP2
   31    34    35    37	 9 ;      CG311     CG3C53      NG3P2       HGP2
   31    34    35    36	 9 ;      CG311     CG3C53      NG3P2     CG3C54
   40    34    35    38	 9 ;     CG3C52     CG3C53      NG3P2       HGP2
   40    34    35    37	 9 ;     CG3C52     CG3C53      NG3P2       HGP2
   40    34    35    36	 9 ;     CG3C52     CG3C53      NG3P2     CG3C54
   75    34    35    38	 9 ;       HGA1     CG3C53      NG3P2       HGP2
   75    34    35    37	 9 ;       HGA1     CG3C53      NG3P2       HGP2
   75    34    35    36	 9 ;       HGA1     CG3C53      NG3P2     CG3C54
   34    35    36    39	 9 ;     CG3C53      NG3P2     CG3C54     CG3C51
   34    35    36    76	 9 ;     CG3C53      NG3P2     CG3C54       HGA2
   34    35    36    77	 9 ;     CG3C53      NG3P2     CG3C54       HGA2
   38    35    36    39	 9 ;       HGP2      NG3P2     CG3C54     CG3C51
   38    35    36    76	 9 ;       HGP2      NG3P2     CG3C54       HGA2
   38    35    36    77	 9 ;       HGP2      NG3P2     CG3C54       HGA2
   37    35    36    39	 9 ;       HGP2      NG3P2     CG3C54     CG3C51
   37    35    36    76	 9 ;       HGP2      NG3P2     CG3C54       HGA2
   37    35    36    77	 9 ;       HGP2      NG3P2     CG3C54       HGA2
   35    36    39    40	 9 ;      NG3P2     CG3C54     CG3C51     CG3C52
   35    36    39    41	 9 ;      NG3P2     CG3C54     CG3C51      OG301
   35    36    39    78	 9 ;      NG3P2     CG3C54     CG3C51       HGA1
   76    36    39    40	 9 ;       HGA2     CG3C54     CG3C51     CG3C52
   76    36    39    41	 9 ;       HGA2     CG3C54     CG3C51      OG301
   76    36    39    78	 9 ;       HGA2     CG3C54     CG3C51       HGA1
   77    36    39    40	 9 ;       HGA2     CG3C54     CG3C51     CG3C52
   77    36    39    41	 9 ;       HGA2     CG3C54     CG3C51      OG301
   77    36    39    78	 9 ;       HGA2     CG3C54     CG3C51       HGA1
   36    39    40    34	 9 ;     CG3C54     CG3C51     CG3C52     CG3C53
   36    39    40    79	 9 ;     CG3C54     CG3C51     CG3C52       HGA2
   36    39    40    80	 9 ;     CG3C54     CG3C51     CG3C52       HGA2
   41    39    40    34	 9 ;      OG301     CG3C51     CG3C52     CG3C53
   41    39    40    79	 9 ;      OG301     CG3C51     CG3C52       HGA2
   41    39    40    80	 9 ;      OG301     CG3C51     CG3C52       HGA2
   78    39    40    34	 9 ;       HGA1     CG3C51     CG3C52     CG3C53
   78    39    40    79	 9 ;       HGA1     CG3C51     CG3C52       HGA2
   78    39    40    80	 9 ;       HGA1     CG3C51     CG3C52       HGA2
   40    39    41    42	 9 ;     CG3C52     CG3C51      OG301     CG2R61
   36    39    41    42	 9 ;     CG3C54     CG3C51      OG301     CG2R61
   78    39    41    42	 9 ;       HGA1     CG3C51      OG301     CG2R61
   39    41    42    43	 9 ;     CG3C51      OG301     CG2R61     CG2R61
   39    41    42    47	 9 ;     CG3C51      OG301     CG2R61     CG2R61
   41    42    43    44	 9 ;      OG301     CG2R61     CG2R61     CG2R61
   41    42    43    81	 9 ;      OG301     CG2R61     CG2R61      HGR61
   47    42    43    44	 9 ;     CG2R61     CG2R61     CG2R61     CG2R61
   47    42    43    81	 9 ;     CG2R61     CG2R61     CG2R61      HGR61
   43    42    47    46	 9 ;     CG2R61     CG2R61     CG2R61     CG2R61
   43    42    47    85	 9 ;     CG2R61     CG2R61     CG2R61      HGR61
   41    42    47    46	 9 ;      OG301     CG2R61     CG2R61     CG2R61
   41    42    47    85	 9 ;      OG301     CG2R61     CG2R61      HGR61
   42    43    44    45	 9 ;     CG2R61     CG2R61     CG2R61     CG2R61
   42    43    44    82	 9 ;     CG2R61     CG2R61     CG2R61      HGR61
   81    43    44    45	 9 ;      HGR61     CG2R61     CG2R61     CG2R61
   81    43    44    82	 9 ;      HGR61     CG2R61     CG2R61      HGR61
   43    44    45    46	 9 ;     CG2R61     CG2R61     CG2R61     CG2R61
   43    44    45    83	 9 ;     CG2R61     CG2R61     CG2R61      HGR61
   82    44    45    46	 9 ;      HGR61     CG2R61     CG2R61     CG2R61
   82    44    45    83	 9 ;      HGR61     CG2R61     CG2R61      HGR61
   44    45    46    47	 9 ;     CG2R61     CG2R61     CG2R61     CG2R61
   44    45    46    84	 9 ;     CG2R61     CG2R61     CG2R61      HGR61
   83    45    46    47	 9 ;      HGR61     CG2R61     CG2R61     CG2R61
   83    45    46    84	 9 ;      HGR61     CG2R61     CG2R61      HGR61
   45    46    47    42	 9 ;     CG2R61     CG2R61     CG2R61     CG2R61
   45    46    47    85	 9 ;     CG2R61     CG2R61     CG2R61      HGR61
   84    46    47    42	 9 ;      HGR61     CG2R61     CG2R61     CG2R61
   84    46    47    85	 9 ;      HGR61     CG2R61     CG2R61      HGR61

[ dihedrals ]
;	ai	  aj	ak	  al funct			  c0			c1			  c2			c3
    3     6     2     4	 2
   13     8    15    14	 2

