Green Red Orange Magenta Azure Cyan Skyblue
   86
    1LIG     C1    1  -1.517   0.435  -1.640
    1LIG     O1    2  -1.555   0.396  -1.752
    1LIG     N1    3  -1.379   0.434  -1.622
    1LIG     H1    4  -1.348   0.468  -1.532
    1LIG     C2    5  -1.626   0.498  -1.531
    1LIG     C3    6  -1.686   0.645  -1.530
    1LIG     C4    7  -1.839   0.645  -1.513
    1LIG     C5    8  -1.899   0.547  -1.439
    1LIG     N2    9  -1.819   0.446  -1.380
    1LIG     C6   10  -2.051   0.541  -1.419
    1LIG     C7   11  -1.690   0.414  -1.441
    1LIG     C8   12  -1.629   0.280  -1.403
    1LIG     C9   13  -1.612   0.757  -1.440
    1LIG    C10   14  -1.558   0.898  -1.482
    1LIG    C11   15  -1.651   1.020  -1.489
    1LIG    C12   16  -1.913   0.755  -1.579
    1LIG     O2   17  -1.955   0.848  -1.512
    1LIG    C13   18  -1.925   0.763  -1.732
    1LIG    C14   19  -1.887   0.352  -1.278
    1LIG    C15   20  -1.863   0.384  -1.129
    1LIG     O3   21  -1.954   0.421  -1.054
    1LIG     O4   22  -1.733   0.373  -1.090
    1LIG    C16   23  -1.652   0.489  -1.061
    1LIG    C17   24  -1.509   0.476  -1.113
    1LIG    C18   25  -1.717   0.621  -1.102
    1LIG    C19   26  -1.258   0.389  -1.717
    1LIG    C20   27  -1.242   0.247  -1.784
    1LIG    C21   28  -1.152   0.138  -1.734
    1LIG    C22   29  -1.211   0.023  -1.680
    1LIG    C23   30  -1.134  -0.087  -1.644
    1LIG    C24   31  -0.996  -0.085  -1.661
    1LIG    C25   32  -0.935   0.026  -1.719
    1LIG    C26   33  -1.013   0.136  -1.757
    1LIG    C27   34  -1.183   0.496  -1.815
    1LIG    C28   35  -1.231   0.537  -1.961
    1LIG     N3   36  -1.381   0.571  -1.948
    1LIG     H2   37  -1.423   0.529  -2.032
    1LIG     H3   38  -1.420   0.515  -1.871
    1LIG    C29   39  -1.441   0.706  -1.932
    1LIG    C30   40  -1.459   0.774  -1.800
    1LIG    C31   41  -1.579   0.722  -1.875
    1LIG     O5   42  -1.146   0.618  -1.749
    1LIG     H4   43  -1.061   0.600  -1.703
    1LIG     H5   44  -1.525   0.532  -1.526
    1LIG     H6   45  -1.661   0.680  -1.628
    1LIG     H7   46  -2.097   0.624  -1.470
    1LIG     H8   47  -2.074   0.545  -1.315
    1LIG     H9   48  -2.089   0.449  -1.461
    1LIG    H10   49  -1.658   0.503  -1.490
    1LIG    H11   50  -1.703   0.221  -1.353
    1LIG    H12   51  -1.546   0.297  -1.337
    1LIG    H13   52  -1.596   0.230  -1.491
    1LIG    H14   53  -1.527   0.706  -1.399
    1LIG    H15   54  -1.697   0.789  -1.384
    1LIG    H16   55  -1.480   0.923  -1.413
    1LIG    H17   56  -1.531   0.883  -1.585
    1LIG    H18   57  -1.684   1.045  -1.390
    1LIG    H19   58  -1.735   0.997  -1.551
    1LIG    H20   59  -1.598   1.103  -1.531
    1LIG    H21   60  -1.885   0.675  -1.776
    1LIG    H22   61  -1.872   0.849  -1.767
    1LIG    H23   62  -2.028   0.773  -1.759
    1LIG    H24   63  -1.851   0.253  -1.296
    1LIG    H25   64  -1.992   0.365  -1.294
    1LIG    H26   65  -1.646   0.493  -0.955
    1LIG    H27   66  -1.511   0.471  -1.220
    1LIG    H28   67  -1.466   0.386  -1.074
    1LIG    H29   68  -1.452   0.560  -1.082
    1LIG    H30   69  -1.727   0.624  -1.209
    1LIG    H31   70  -1.656   0.703  -1.070
    1LIG    H32   71  -1.814   0.629  -1.058
    1LIG    H33   72  -1.340   0.205  -1.785
    1LIG    H34   73  -1.192   0.274  -1.875
    1LIG    H35   74  -1.313   0.021  -1.667
    1LIG    H36   75  -1.179  -0.170  -1.603
    1LIG    H37   76  -0.938  -0.166  -1.631
    1LIG    H38   77  -0.833   0.027  -1.734
    1LIG    H39   78  -0.967   0.218  -1.803
    1LIG    H40   79  -1.105   0.426  -1.836
    1LIG    H41   80  -1.176   0.622  -1.995
    1LIG    H42   81  -1.215   0.458  -2.031
    1LIG    H43   82  -1.392   0.734  -2.023
    1LIG    H44   83  -1.442   0.879  -1.791
    1LIG    H45   84  -1.419   0.759  -1.702
    1LIG    H46   85  -1.632   0.637  -1.839
    1LIG    H47   86  -1.671   0.765  -1.909
   0.00000   0.00000   0.00000
