; Created by cgenff_charmm2gmx.py

[ moleculetype ]
; Name			   nrexcl
LIG				 3

[ atoms ]
;	 nr		  type	resnr residue  atom   cgnr	   charge		mass  typeB    chargeB		massB
; residue	 1 LIG rtp LIG q	qsum
     1      CG2O1      1    LIG     C1      1      0.705     12.011   ;
     2      OG2D1      1    LIG     O1      2     -0.510     15.999   ;
     3      NG2P1      1    LIG     N1      3     -0.328     14.007   ;
     4       HGP2      1    LIG     H1      4      0.414      1.008   ;
     5      CG311      1    LIG     C2      5     -0.057     12.011   ;
     6      CG311      1    LIG     C3      6     -0.066     12.011   ;
     7     CG2DC1      1    LIG     C4      7      0.261     12.011   ;
     8     CG2D1O      1    LIG     C5      8      0.448     12.011   ;
     9      NG301      1    LIG     N2      9     -0.521     14.007   ;
    10      CG331      1    LIG     C6     10     -0.281     12.011   ;
    11      CG311      1    LIG     C7     11      0.119     12.011   ;
    12      CG331      1    LIG     C8     12     -0.256     12.011   ;
    13      CG321      1    LIG     C9     13     -0.273     12.011   ;
    14      CG321      1    LIG    C10     14     -0.183     12.011   ;
    15      CG331      1    LIG    C11     15     -0.270     12.011   ;
    16      CG2O5      1    LIG    C12     16      0.006     12.011   ;
    17      OG2D3      1    LIG     O2     17     -0.503     15.999   ;
    18      CG331      1    LIG    C13     18     -0.234     12.011   ;
    19      CG321      1    LIG    C14     19     -0.095     12.011   ;
    20      CG2O2      1    LIG    C15     20      0.901     12.011   ;
    21      OG2D1      1    LIG     O3     21     -0.615     15.999   ;
    22      OG302      1    LIG     O4     22     -0.479     15.999   ;
    23      CG311      1    LIG    C16     23      0.165     12.011   ;
    24      CG331      1    LIG    C17     24     -0.273     12.011   ;
    25      CG331      1    LIG    C18     25     -0.273     12.011   ;
    26     CG2DC1      1    LIG    C19     26      0.640     12.011   ;
    27      CG321      1    LIG    C20     27     -0.050     12.011   ;
    28     CG2R61      1    LIG    C21     28     -0.189     12.011   ;
    29     CG2R61      1    LIG    C22     29     -0.123     12.011   ;
    30     CG2R61      1    LIG    C23     30     -0.112     12.011   ;
    31     CG2R61      1    LIG    C24     31     -0.116     12.011   ;
    32     CG2R61      1    LIG    C25     32     -0.112     12.011   ;
    33     CG2R61      1    LIG    C26     33     -0.123     12.011   ;
    34      CG311      1    LIG    C27     34      0.230     12.011   ;
    35      CG324      1    LIG    C28     35      0.175     12.011   ;
    36      NG3P2      1    LIG     N3     36     -0.411     14.007   ;
    37       HGP2      1    LIG     H2     37      0.335      1.008   ;
    38       HGP2      1    LIG     H3     38      0.335      1.008   ;
    39     CG3C31      1    LIG    C29     39      0.283     12.011   ;
    40     CG3C31      1    LIG    C30     40     -0.179     12.011   ;
    41     CG3C31      1    LIG    C31     41     -0.179     12.011   ;
    42      OG311      1    LIG     O5     42     -0.614     15.999   ;
    43       HGP1      1    LIG     H4     43      0.408      1.008   ;
    44       HGA1      1    LIG     H5     44      0.090      1.008   ;
    45       HGA1      1    LIG     H6     45      0.090      1.008   ;
    46       HGA3      1    LIG     H7     46      0.090      1.008   ;
    47       HGA3      1    LIG     H8     47      0.090      1.008   ;
    48       HGA3      1    LIG     H9     48      0.090      1.008   ;
    49       HGA1      1    LIG    H10     49      0.090      1.008   ;
    50       HGA3      1    LIG    H11     50      0.090      1.008   ;
    51       HGA3      1    LIG    H12     51      0.090      1.008   ;
    52       HGA3      1    LIG    H13     52      0.090      1.008   ;
    53       HGA2      1    LIG    H14     53      0.090      1.008   ;
    54       HGA2      1    LIG    H15     54      0.090      1.008   ;
    55       HGA2      1    LIG    H16     55      0.090      1.008   ;
    56       HGA2      1    LIG    H17     56      0.090      1.008   ;
    57       HGA3      1    LIG    H18     57      0.090      1.008   ;
    58       HGA3      1    LIG    H19     58      0.090      1.008   ;
    59       HGA3      1    LIG    H20     59      0.090      1.008   ;
    60       HGA3      1    LIG    H21     60      0.090      1.008   ;
    61       HGA3      1    LIG    H22     61      0.090      1.008   ;
    62       HGA3      1    LIG    H23     62      0.090      1.008   ;
    63       HGA2      1    LIG    H24     63      0.090      1.008   ;
    64       HGA2      1    LIG    H25     64      0.090      1.008   ;
    65       HGA1      1    LIG    H26     65      0.090      1.008   ;
    66       HGA3      1    LIG    H27     66      0.090      1.008   ;
    67       HGA3      1    LIG    H28     67      0.090      1.008   ;
    68       HGA3      1    LIG    H29     68      0.090      1.008   ;
    69       HGA3      1    LIG    H30     69      0.090      1.008   ;
    70       HGA3      1    LIG    H31     70      0.090      1.008   ;
    71       HGA3      1    LIG    H32     71      0.090      1.008   ;
    72       HGA2      1    LIG    H33     72      0.090      1.008   ;
    73       HGA2      1    LIG    H34     73      0.090      1.008   ;
    74      HGR61      1    LIG    H35     74      0.116      1.008   ;
    75      HGR61      1    LIG    H36     75      0.116      1.008   ;
    76      HGR61      1    LIG    H37     76      0.116      1.008   ;
    77      HGR61      1    LIG    H38     77      0.116      1.008   ;
    78      HGR61      1    LIG    H39     78      0.116      1.008   ;
    79       HGA1      1    LIG    H40     79      0.090      1.008   ;
    80       HGA2      1    LIG    H41     80      0.090      1.008   ;
    81       HGA2      1    LIG    H42     81      0.090      1.008   ;
    82       HGA1      1    LIG    H43     82      0.090      1.008   ;
    83       HGA2      1    LIG    H44     83      0.090      1.008   ;
    84       HGA2      1    LIG    H45     84      0.090      1.008   ;
    85       HGA2      1    LIG    H46     85      0.090      1.008   ;
    86       HGA2      1    LIG    H47     86      0.090      1.008   ;

[ bonds ]
;	ai	  aj funct			  c0			c1			  c2			c3
    1     2	 1 ;       CG2O1      OG2D1
    1     3	 1 ;       CG2O1      NG2P1
    1     5	 1 ;       CG2O1      CG311
    3    26	 1 ;       NG2P1     CG2DC1
    3     4	 1 ;       NG2P1       HGP2
    5     6	 1 ;       CG311      CG311
    5    11	 1 ;       CG311      CG311
    5    44	 1 ;       CG311       HGA1
    6     7	 1 ;       CG311     CG2DC1
    6    13	 1 ;       CG311      CG321
    6    45	 1 ;       CG311       HGA1
    7    16	 1 ;      CG2DC1      CG2O5
    7     8	 1 ;      CG2DC1     CG2D1O
    8    10	 1 ;      CG2D1O      CG331
    8     9	 1 ;      CG2D1O      NG301
    9    11	 1 ;       NG301      CG311
    9    19	 1 ;       NG301      CG321
   10    46	 1 ;       CG331       HGA3
   10    47	 1 ;       CG331       HGA3
   10    48	 1 ;       CG331       HGA3
   11    12	 1 ;       CG311      CG331
   11    49	 1 ;       CG311       HGA1
   12    50	 1 ;       CG331       HGA3
   12    51	 1 ;       CG331       HGA3
   12    52	 1 ;       CG331       HGA3
   13    14	 1 ;       CG321      CG321
   13    53	 1 ;       CG321       HGA2
   13    54	 1 ;       CG321       HGA2
   14    15	 1 ;       CG321      CG331
   14    55	 1 ;       CG321       HGA2
   14    56	 1 ;       CG321       HGA2
   15    57	 1 ;       CG331       HGA3
   15    58	 1 ;       CG331       HGA3
   15    59	 1 ;       CG331       HGA3
   16    18	 1 ;       CG2O5      CG331
   16    17	 1 ;       CG2O5      OG2D3
   18    60	 1 ;       CG331       HGA3
   18    61	 1 ;       CG331       HGA3
   18    62	 1 ;       CG331       HGA3
   19    20	 1 ;       CG321      CG2O2
   19    63	 1 ;       CG321       HGA2
   19    64	 1 ;       CG321       HGA2
   20    22	 1 ;       CG2O2      OG302
   20    21	 1 ;       CG2O2      OG2D1
   22    23	 1 ;       OG302      CG311
   23    24	 1 ;       CG311      CG331
   23    25	 1 ;       CG311      CG331
   23    65	 1 ;       CG311       HGA1
   24    66	 1 ;       CG331       HGA3
   24    67	 1 ;       CG331       HGA3
   24    68	 1 ;       CG331       HGA3
   25    69	 1 ;       CG331       HGA3
   25    70	 1 ;       CG331       HGA3
   25    71	 1 ;       CG331       HGA3
   26    34	 1 ;      CG2DC1      CG311
   26    27	 1 ;      CG2DC1      CG321
   27    28	 1 ;       CG321     CG2R61
   27    72	 1 ;       CG321       HGA2
   27    73	 1 ;       CG321       HGA2
   28    33	 1 ;      CG2R61     CG2R61
   28    29	 1 ;      CG2R61     CG2R61
   29    30	 1 ;      CG2R61     CG2R61
   29    74	 1 ;      CG2R61      HGR61
   30    31	 1 ;      CG2R61     CG2R61
   30    75	 1 ;      CG2R61      HGR61
   31    32	 1 ;      CG2R61     CG2R61
   31    76	 1 ;      CG2R61      HGR61
   32    33	 1 ;      CG2R61     CG2R61
   32    77	 1 ;      CG2R61      HGR61
   33    78	 1 ;      CG2R61      HGR61
   34    35	 1 ;       CG311      CG324
   34    42	 1 ;       CG311      OG311
   34    79	 1 ;       CG311       HGA1
   35    36	 1 ;       CG324      NG3P2
   35    80	 1 ;       CG324       HGA2
   35    81	 1 ;       CG324       HGA2
   36    37	 1 ;       NG3P2       HGP2
   36    39	 1 ;       NG3P2     CG3C31
   36    38	 1 ;       NG3P2       HGP2
   39    41	 1 ;      CG3C31     CG3C31
   39    40	 1 ;      CG3C31     CG3C31
   39    82	 1 ;      CG3C31       HGA1
   40    41	 1 ;      CG3C31     CG3C31
   40    83	 1 ;      CG3C31       HGA2
   40    84	 1 ;      CG3C31       HGA2
   41    85	 1 ;      CG3C31       HGA2
   41    86	 1 ;      CG3C31       HGA2
   42    43	 1 ;       OG311       HGP1

[ pairs ]
;	ai	  aj funct			  c0			c1			  c2			c3
    1    34	 1
    1    27	 1
    1     7	 1
    1    13	 1
    1    45	 1
    1    12	 1
    1     9	 1
    1    49	 1
    2    26	 1
    2     4	 1
    2     6	 1
    2    11	 1
    2    44	 1
    3     6	 1
    3    11	 1
    3    44	 1
    3    35	 1
    3    42	 1
    3    79	 1
    3    28	 1
    3    72	 1
    3    73	 1
    4     5	 1
    4    34	 1
    4    27	 1
    5    26	 1
    5    16	 1
    5     8	 1
    5    14	 1
    5    53	 1
    5    54	 1
    5    19	 1
    5    50	 1
    5    51	 1
    5    52	 1
    6    12	 1
    6     9	 1
    6    49	 1
    6    18	 1
    6    17	 1
    6    10	 1
    6    15	 1
    6    55	 1
    6    56	 1
    7    11	 1
    7    44	 1
    7    14	 1
    7    53	 1
    7    54	 1
    7    46	 1
    7    47	 1
    7    48	 1
    7    19	 1
    7    60	 1
    7    61	 1
    7    62	 1
    8    13	 1
    8    45	 1
    8    18	 1
    8    17	 1
    8    12	 1
    8    49	 1
    8    20	 1
    8    63	 1
    8    64	 1
    9    44	 1
    9    16	 1
    9    46	 1
    9    47	 1
    9    48	 1
    9    50	 1
    9    51	 1
    9    52	 1
    9    22	 1
    9    21	 1
   10    16	 1
   10    11	 1
   10    19	 1
   11    13	 1
   11    45	 1
   11    20	 1
   11    63	 1
   11    64	 1
   12    44	 1
   12    19	 1
   13    44	 1
   13    16	 1
   13    57	 1
   13    58	 1
   13    59	 1
   14    45	 1
   15    53	 1
   15    54	 1
   16    45	 1
   17    60	 1
   17    61	 1
   17    62	 1
   19    49	 1
   19    23	 1
   20    24	 1
   20    25	 1
   20    65	 1
   21    63	 1
   21    64	 1
   21    23	 1
   22    63	 1
   22    64	 1
   22    66	 1
   22    67	 1
   22    68	 1
   22    69	 1
   22    70	 1
   22    71	 1
   24    69	 1
   24    70	 1
   24    71	 1
   25    66	 1
   25    67	 1
   25    68	 1
   26    33	 1
   26    29	 1
   26    36	 1
   26    80	 1
   26    81	 1
   26    43	 1
   27    35	 1
   27    42	 1
   27    79	 1
   27    32	 1
   27    78	 1
   27    30	 1
   27    74	 1
   28    34	 1
   28    31	 1
   28    75	 1
   28    77	 1
   29    72	 1
   29    73	 1
   29    32	 1
   29    78	 1
   29    76	 1
   30    33	 1
   30    77	 1
   31    74	 1
   31    78	 1
   32    75	 1
   33    72	 1
   33    73	 1
   33    74	 1
   33    76	 1
   34    72	 1
   34    73	 1
   34    37	 1
   34    39	 1
   34    38	 1
   35    43	 1
   35    41	 1
   35    40	 1
   35    82	 1
   36    42	 1
   36    79	 1
   36    85	 1
   36    86	 1
   36    83	 1
   36    84	 1
   37    80	 1
   37    81	 1
   37    41	 1
   37    40	 1
   37    82	 1
   38    80	 1
   38    81	 1
   38    41	 1
   38    40	 1
   38    82	 1
   39    80	 1
   39    81	 1
   42    80	 1
   42    81	 1
   43    79	 1
   44    45	 1
   44    49	 1
   45    53	 1
   45    54	 1
   49    50	 1
   49    51	 1
   49    52	 1
   53    55	 1
   53    56	 1
   54    55	 1
   54    56	 1
   55    57	 1
   55    58	 1
   55    59	 1
   56    57	 1
   56    58	 1
   56    59	 1
   65    66	 1
   65    67	 1
   65    68	 1
   65    69	 1
   65    70	 1
   65    71	 1
   74    75	 1
   75    76	 1
   76    77	 1
   77    78	 1
   79    80	 1
   79    81	 1
   82    85	 1
   82    86	 1
   82    83	 1
   82    84	 1
   83    85	 1
   83    86	 1
   84    85	 1
   84    86	 1

[ angles ]
;	ai	  aj	ak funct			c0			  c1			c2			  c3
    2     1     3	5 ;      OG2D1      CG2O1      NG2P1
    2     1     5	5 ;      OG2D1      CG2O1      CG311
    3     1     5	5 ;      NG2P1      CG2O1      CG311
   26     3     1	5 ;     CG2DC1      NG2P1      CG2O1
   26     3     4	5 ;     CG2DC1      NG2P1       HGP2
    1     3     4	5 ;      CG2O1      NG2P1       HGP2
    1     5     6	5 ;      CG2O1      CG311      CG311
    1     5    11	5 ;      CG2O1      CG311      CG311
    1     5    44	5 ;      CG2O1      CG311       HGA1
    6     5    11	5 ;      CG311      CG311      CG311
    6     5    44	5 ;      CG311      CG311       HGA1
   11     5    44	5 ;      CG311      CG311       HGA1
    5     6     7	5 ;      CG311      CG311     CG2DC1
    5     6    13	5 ;      CG311      CG311      CG321
    5     6    45	5 ;      CG311      CG311       HGA1
    7     6    13	5 ;     CG2DC1      CG311      CG321
    7     6    45	5 ;     CG2DC1      CG311       HGA1
   13     6    45	5 ;      CG321      CG311       HGA1
   16     7     6	5 ;      CG2O5     CG2DC1      CG311
   16     7     8	5 ;      CG2O5     CG2DC1     CG2D1O
    6     7     8	5 ;      CG311     CG2DC1     CG2D1O
    7     8    10	5 ;     CG2DC1     CG2D1O      CG331
    7     8     9	5 ;     CG2DC1     CG2D1O      NG301
   10     8     9	5 ;      CG331     CG2D1O      NG301
   11     9     8	5 ;      CG311      NG301     CG2D1O
   11     9    19	5 ;      CG311      NG301      CG321
    8     9    19	5 ;     CG2D1O      NG301      CG321
    8    10    46	5 ;     CG2D1O      CG331       HGA3
    8    10    47	5 ;     CG2D1O      CG331       HGA3
    8    10    48	5 ;     CG2D1O      CG331       HGA3
   46    10    47	5 ;       HGA3      CG331       HGA3
   46    10    48	5 ;       HGA3      CG331       HGA3
   47    10    48	5 ;       HGA3      CG331       HGA3
    5    11    12	5 ;      CG311      CG311      CG331
    5    11     9	5 ;      CG311      CG311      NG301
    5    11    49	5 ;      CG311      CG311       HGA1
   12    11     9	5 ;      CG331      CG311      NG301
   12    11    49	5 ;      CG331      CG311       HGA1
    9    11    49	5 ;      NG301      CG311       HGA1
   11    12    50	5 ;      CG311      CG331       HGA3
   11    12    51	5 ;      CG311      CG331       HGA3
   11    12    52	5 ;      CG311      CG331       HGA3
   50    12    51	5 ;       HGA3      CG331       HGA3
   50    12    52	5 ;       HGA3      CG331       HGA3
   51    12    52	5 ;       HGA3      CG331       HGA3
    6    13    14	5 ;      CG311      CG321      CG321
    6    13    53	5 ;      CG311      CG321       HGA2
    6    13    54	5 ;      CG311      CG321       HGA2
   14    13    53	5 ;      CG321      CG321       HGA2
   14    13    54	5 ;      CG321      CG321       HGA2
   53    13    54	5 ;       HGA2      CG321       HGA2
   15    14    13	5 ;      CG331      CG321      CG321
   15    14    55	5 ;      CG331      CG321       HGA2
   15    14    56	5 ;      CG331      CG321       HGA2
   13    14    55	5 ;      CG321      CG321       HGA2
   13    14    56	5 ;      CG321      CG321       HGA2
   55    14    56	5 ;       HGA2      CG321       HGA2
   14    15    57	5 ;      CG321      CG331       HGA3
   14    15    58	5 ;      CG321      CG331       HGA3
   14    15    59	5 ;      CG321      CG331       HGA3
   57    15    58	5 ;       HGA3      CG331       HGA3
   57    15    59	5 ;       HGA3      CG331       HGA3
   58    15    59	5 ;       HGA3      CG331       HGA3
   18    16     7	5 ;      CG331      CG2O5     CG2DC1
   18    16    17	5 ;      CG331      CG2O5      OG2D3
    7    16    17	5 ;     CG2DC1      CG2O5      OG2D3
   16    18    60	5 ;      CG2O5      CG331       HGA3
   16    18    61	5 ;      CG2O5      CG331       HGA3
   16    18    62	5 ;      CG2O5      CG331       HGA3
   60    18    61	5 ;       HGA3      CG331       HGA3
   60    18    62	5 ;       HGA3      CG331       HGA3
   61    18    62	5 ;       HGA3      CG331       HGA3
    9    19    20	5 ;      NG301      CG321      CG2O2
    9    19    63	5 ;      NG301      CG321       HGA2
    9    19    64	5 ;      NG301      CG321       HGA2
   20    19    63	5 ;      CG2O2      CG321       HGA2
   20    19    64	5 ;      CG2O2      CG321       HGA2
   63    19    64	5 ;       HGA2      CG321       HGA2
   19    20    22	5 ;      CG321      CG2O2      OG302
   19    20    21	5 ;      CG321      CG2O2      OG2D1
   22    20    21	5 ;      OG302      CG2O2      OG2D1
   20    22    23	5 ;      CG2O2      OG302      CG311
   24    23    25	5 ;      CG331      CG311      CG331
   24    23    22	5 ;      CG331      CG311      OG302
   24    23    65	5 ;      CG331      CG311       HGA1
   25    23    22	5 ;      CG331      CG311      OG302
   25    23    65	5 ;      CG331      CG311       HGA1
   22    23    65	5 ;      OG302      CG311       HGA1
   23    24    66	5 ;      CG311      CG331       HGA3
   23    24    67	5 ;      CG311      CG331       HGA3
   23    24    68	5 ;      CG311      CG331       HGA3
   66    24    67	5 ;       HGA3      CG331       HGA3
   66    24    68	5 ;       HGA3      CG331       HGA3
   67    24    68	5 ;       HGA3      CG331       HGA3
   23    25    69	5 ;      CG311      CG331       HGA3
   23    25    70	5 ;      CG311      CG331       HGA3
   23    25    71	5 ;      CG311      CG331       HGA3
   69    25    70	5 ;       HGA3      CG331       HGA3
   69    25    71	5 ;       HGA3      CG331       HGA3
   70    25    71	5 ;       HGA3      CG331       HGA3
   34    26    27	5 ;      CG311     CG2DC1      CG321
   34    26     3	5 ;      CG311     CG2DC1      NG2P1
   27    26     3	5 ;      CG321     CG2DC1      NG2P1
   28    27    26	5 ;     CG2R61      CG321     CG2DC1
   28    27    72	5 ;     CG2R61      CG321       HGA2
   28    27    73	5 ;     CG2R61      CG321       HGA2
   26    27    72	5 ;     CG2DC1      CG321       HGA2
   26    27    73	5 ;     CG2DC1      CG321       HGA2
   72    27    73	5 ;       HGA2      CG321       HGA2
   27    28    33	5 ;      CG321     CG2R61     CG2R61
   27    28    29	5 ;      CG321     CG2R61     CG2R61
   33    28    29	5 ;     CG2R61     CG2R61     CG2R61
   28    29    30	5 ;     CG2R61     CG2R61     CG2R61
   28    29    74	5 ;     CG2R61     CG2R61      HGR61
   30    29    74	5 ;     CG2R61     CG2R61      HGR61
   29    30    31	5 ;     CG2R61     CG2R61     CG2R61
   29    30    75	5 ;     CG2R61     CG2R61      HGR61
   31    30    75	5 ;     CG2R61     CG2R61      HGR61
   32    31    30	5 ;     CG2R61     CG2R61     CG2R61
   32    31    76	5 ;     CG2R61     CG2R61      HGR61
   30    31    76	5 ;     CG2R61     CG2R61      HGR61
   33    32    31	5 ;     CG2R61     CG2R61     CG2R61
   33    32    77	5 ;     CG2R61     CG2R61      HGR61
   31    32    77	5 ;     CG2R61     CG2R61      HGR61
   28    33    32	5 ;     CG2R61     CG2R61     CG2R61
   28    33    78	5 ;     CG2R61     CG2R61      HGR61
   32    33    78	5 ;     CG2R61     CG2R61      HGR61
   35    34    42	5 ;      CG324      CG311      OG311
   35    34    26	5 ;      CG324      CG311     CG2DC1
   35    34    79	5 ;      CG324      CG311       HGA1
   42    34    26	5 ;      OG311      CG311     CG2DC1
   42    34    79	5 ;      OG311      CG311       HGA1
   26    34    79	5 ;     CG2DC1      CG311       HGA1
   36    35    34	5 ;      NG3P2      CG324      CG311
   36    35    80	5 ;      NG3P2      CG324       HGA2
   36    35    81	5 ;      NG3P2      CG324       HGA2
   34    35    80	5 ;      CG311      CG324       HGA2
   34    35    81	5 ;      CG311      CG324       HGA2
   80    35    81	5 ;       HGA2      CG324       HGA2
   37    36    35	5 ;       HGP2      NG3P2      CG324
   37    36    39	5 ;       HGP2      NG3P2     CG3C31
   37    36    38	5 ;       HGP2      NG3P2       HGP2
   35    36    39	5 ;      CG324      NG3P2     CG3C31
   35    36    38	5 ;      CG324      NG3P2       HGP2
   39    36    38	5 ;     CG3C31      NG3P2       HGP2
   36    39    41	5 ;      NG3P2     CG3C31     CG3C31
   36    39    40	5 ;      NG3P2     CG3C31     CG3C31
   36    39    82	5 ;      NG3P2     CG3C31       HGA1
   41    39    40	5 ;     CG3C31     CG3C31     CG3C31
   41    39    82	5 ;     CG3C31     CG3C31       HGA1
   40    39    82	5 ;     CG3C31     CG3C31       HGA1
   39    40    41	5 ;     CG3C31     CG3C31     CG3C31
   39    40    83	5 ;     CG3C31     CG3C31       HGA2
   39    40    84	5 ;     CG3C31     CG3C31       HGA2
   41    40    83	5 ;     CG3C31     CG3C31       HGA2
   41    40    84	5 ;     CG3C31     CG3C31       HGA2
   83    40    84	5 ;       HGA2     CG3C31       HGA2
   39    41    40	5 ;     CG3C31     CG3C31     CG3C31
   39    41    85	5 ;     CG3C31     CG3C31       HGA2
   39    41    86	5 ;     CG3C31     CG3C31       HGA2
   40    41    85	5 ;     CG3C31     CG3C31       HGA2
   40    41    86	5 ;     CG3C31     CG3C31       HGA2
   85    41    86	5 ;       HGA2     CG3C31       HGA2
   34    42    43	5 ;      CG311      OG311       HGP1

[ dihedrals ]
;	ai	  aj	ak	  al funct			  c0			c1			  c2			c3			  c4			c5
    2     1     3    26	 9 ;      OG2D1      CG2O1      NG2P1     CG2DC1
    2     1     3     4	 9 ;      OG2D1      CG2O1      NG2P1       HGP2
    5     1     3    26	 9 ;      CG311      CG2O1      NG2P1     CG2DC1
    5     1     3     4	 9 ;      CG311      CG2O1      NG2P1       HGP2
    2     1     5     6	 9 ;      OG2D1      CG2O1      CG311      CG311
    2     1     5    11	 9 ;      OG2D1      CG2O1      CG311      CG311
    2     1     5    44	 9 ;      OG2D1      CG2O1      CG311       HGA1
    3     1     5     6	 9 ;      NG2P1      CG2O1      CG311      CG311
    3     1     5    11	 9 ;      NG2P1      CG2O1      CG311      CG311
    3     1     5    44	 9 ;      NG2P1      CG2O1      CG311       HGA1
    1     3    26    34	 9 ;      CG2O1      NG2P1     CG2DC1      CG311
    1     3    26    27	 9 ;      CG2O1      NG2P1     CG2DC1      CG321
    4     3    26    34	 9 ;       HGP2      NG2P1     CG2DC1      CG311
    4     3    26    27	 9 ;       HGP2      NG2P1     CG2DC1      CG321
    1     5     6     7	 9 ;      CG2O1      CG311      CG311     CG2DC1
    1     5     6    13	 9 ;      CG2O1      CG311      CG311      CG321
    1     5     6    45	 9 ;      CG2O1      CG311      CG311       HGA1
   11     5     6     7	 9 ;      CG311      CG311      CG311     CG2DC1
   11     5     6    13	 9 ;      CG311      CG311      CG311      CG321
   11     5     6    45	 9 ;      CG311      CG311      CG311       HGA1
   44     5     6     7	 9 ;       HGA1      CG311      CG311     CG2DC1
   44     5     6    13	 9 ;       HGA1      CG311      CG311      CG321
   44     5     6    45	 9 ;       HGA1      CG311      CG311       HGA1
    1     5    11    12	 9 ;      CG2O1      CG311      CG311      CG331
    1     5    11     9	 9 ;      CG2O1      CG311      CG311      NG301
    1     5    11    49	 9 ;      CG2O1      CG311      CG311       HGA1
    6     5    11    12	 9 ;      CG311      CG311      CG311      CG331
    6     5    11     9	 9 ;      CG311      CG311      CG311      NG301
    6     5    11    49	 9 ;      CG311      CG311      CG311       HGA1
   44     5    11    12	 9 ;       HGA1      CG311      CG311      CG331
   44     5    11     9	 9 ;       HGA1      CG311      CG311      NG301
   44     5    11    49	 9 ;       HGA1      CG311      CG311       HGA1
    5     6     7    16	 9 ;      CG311      CG311     CG2DC1      CG2O5
    5     6     7     8	 9 ;      CG311      CG311     CG2DC1     CG2D1O
   13     6     7    16	 9 ;      CG321      CG311     CG2DC1      CG2O5
   13     6     7     8	 9 ;      CG321      CG311     CG2DC1     CG2D1O
   45     6     7    16	 9 ;       HGA1      CG311     CG2DC1      CG2O5
   45     6     7     8	 9 ;       HGA1      CG311     CG2DC1     CG2D1O
    5     6    13    14	 9 ;      CG311      CG311      CG321      CG321
    5     6    13    53	 9 ;      CG311      CG311      CG321       HGA2
    5     6    13    54	 9 ;      CG311      CG311      CG321       HGA2
    7     6    13    14	 9 ;     CG2DC1      CG311      CG321      CG321
    7     6    13    53	 9 ;     CG2DC1      CG311      CG321       HGA2
    7     6    13    54	 9 ;     CG2DC1      CG311      CG321       HGA2
   45     6    13    14	 9 ;       HGA1      CG311      CG321      CG321
   45     6    13    53	 9 ;       HGA1      CG311      CG321       HGA2
   45     6    13    54	 9 ;       HGA1      CG311      CG321       HGA2
    6     7    16    18	 9 ;      CG311     CG2DC1      CG2O5      CG331
    6     7    16    17	 9 ;      CG311     CG2DC1      CG2O5      OG2D3
    8     7    16    18	 9 ;     CG2D1O     CG2DC1      CG2O5      CG331
    8     7    16    17	 9 ;     CG2D1O     CG2DC1      CG2O5      OG2D3
   16     7     8    10	 9 ;      CG2O5     CG2DC1     CG2D1O      CG331
   16     7     8     9	 9 ;      CG2O5     CG2DC1     CG2D1O      NG301
    6     7     8    10	 9 ;      CG311     CG2DC1     CG2D1O      CG331
    6     7     8     9	 9 ;      CG311     CG2DC1     CG2D1O      NG301
    7     8    10    46	 9 ;     CG2DC1     CG2D1O      CG331       HGA3
    7     8    10    47	 9 ;     CG2DC1     CG2D1O      CG331       HGA3
    7     8    10    48	 9 ;     CG2DC1     CG2D1O      CG331       HGA3
    9     8    10    46	 9 ;      NG301     CG2D1O      CG331       HGA3
    9     8    10    47	 9 ;      NG301     CG2D1O      CG331       HGA3
    9     8    10    48	 9 ;      NG301     CG2D1O      CG331       HGA3
    7     8     9    11	 9 ;     CG2DC1     CG2D1O      NG301      CG311
    7     8     9    19	 9 ;     CG2DC1     CG2D1O      NG301      CG321
   10     8     9    11	 9 ;      CG331     CG2D1O      NG301      CG311
   10     8     9    19	 9 ;      CG331     CG2D1O      NG301      CG321
    8     9    11     5	 9 ;     CG2D1O      NG301      CG311      CG311
    8     9    11    12	 9 ;     CG2D1O      NG301      CG311      CG331
    8     9    11    49	 9 ;     CG2D1O      NG301      CG311       HGA1
   19     9    11     5	 9 ;      CG321      NG301      CG311      CG311
   19     9    11    12	 9 ;      CG321      NG301      CG311      CG331
   19     9    11    49	 9 ;      CG321      NG301      CG311       HGA1
   11     9    19    20	 9 ;      CG311      NG301      CG321      CG2O2
   11     9    19    63	 9 ;      CG311      NG301      CG321       HGA2
   11     9    19    64	 9 ;      CG311      NG301      CG321       HGA2
    8     9    19    20	 9 ;     CG2D1O      NG301      CG321      CG2O2
    8     9    19    63	 9 ;     CG2D1O      NG301      CG321       HGA2
    8     9    19    64	 9 ;     CG2D1O      NG301      CG321       HGA2
    5    11    12    50	 9 ;      CG311      CG311      CG331       HGA3
    5    11    12    51	 9 ;      CG311      CG311      CG331       HGA3
    5    11    12    52	 9 ;      CG311      CG311      CG331       HGA3
    9    11    12    50	 9 ;      NG301      CG311      CG331       HGA3
    9    11    12    51	 9 ;      NG301      CG311      CG331       HGA3
    9    11    12    52	 9 ;      NG301      CG311      CG331       HGA3
   49    11    12    50	 9 ;       HGA1      CG311      CG331       HGA3
   49    11    12    51	 9 ;       HGA1      CG311      CG331       HGA3
   49    11    12    52	 9 ;       HGA1      CG311      CG331       HGA3
    6    13    14    15	 9 ;      CG311      CG321      CG321      CG331
    6    13    14    55	 9 ;      CG311      CG321      CG321       HGA2
    6    13    14    56	 9 ;      CG311      CG321      CG321       HGA2
   53    13    14    15	 9 ;       HGA2      CG321      CG321      CG331
   53    13    14    55	 9 ;       HGA2      CG321      CG321       HGA2
   53    13    14    56	 9 ;       HGA2      CG321      CG321       HGA2
   54    13    14    15	 9 ;       HGA2      CG321      CG321      CG331
   54    13    14    55	 9 ;       HGA2      CG321      CG321       HGA2
   54    13    14    56	 9 ;       HGA2      CG321      CG321       HGA2
   13    14    15    57	 9 ;      CG321      CG321      CG331       HGA3
   13    14    15    58	 9 ;      CG321      CG321      CG331       HGA3
   13    14    15    59	 9 ;      CG321      CG321      CG331       HGA3
   55    14    15    57	 9 ;       HGA2      CG321      CG331       HGA3
   55    14    15    58	 9 ;       HGA2      CG321      CG331       HGA3
   55    14    15    59	 9 ;       HGA2      CG321      CG331       HGA3
   56    14    15    57	 9 ;       HGA2      CG321      CG331       HGA3
   56    14    15    58	 9 ;       HGA2      CG321      CG331       HGA3
   56    14    15    59	 9 ;       HGA2      CG321      CG331       HGA3
    7    16    18    60	 9 ;     CG2DC1      CG2O5      CG331       HGA3
    7    16    18    61	 9 ;     CG2DC1      CG2O5      CG331       HGA3
    7    16    18    62	 9 ;     CG2DC1      CG2O5      CG331       HGA3
   17    16    18    60	 9 ;      OG2D3      CG2O5      CG331       HGA3
   17    16    18    61	 9 ;      OG2D3      CG2O5      CG331       HGA3
   17    16    18    62	 9 ;      OG2D3      CG2O5      CG331       HGA3
    9    19    20    22	 9 ;      NG301      CG321      CG2O2      OG302
    9    19    20    21	 9 ;      NG301      CG321      CG2O2      OG2D1
   63    19    20    22	 9 ;       HGA2      CG321      CG2O2      OG302
   63    19    20    21	 9 ;       HGA2      CG321      CG2O2      OG2D1
   64    19    20    22	 9 ;       HGA2      CG321      CG2O2      OG302
   64    19    20    21	 9 ;       HGA2      CG321      CG2O2      OG2D1
   19    20    22    23	 9 ;      CG321      CG2O2      OG302      CG311
   21    20    22    23	 9 ;      OG2D1      CG2O2      OG302      CG311
   20    22    23    24	 9 ;      CG2O2      OG302      CG311      CG331
   20    22    23    25	 9 ;      CG2O2      OG302      CG311      CG331
   20    22    23    65	 9 ;      CG2O2      OG302      CG311       HGA1
   25    23    24    66	 9 ;      CG331      CG311      CG331       HGA3
   25    23    24    67	 9 ;      CG331      CG311      CG331       HGA3
   25    23    24    68	 9 ;      CG331      CG311      CG331       HGA3
   22    23    24    66	 9 ;      OG302      CG311      CG331       HGA3
   22    23    24    67	 9 ;      OG302      CG311      CG331       HGA3
   22    23    24    68	 9 ;      OG302      CG311      CG331       HGA3
   65    23    24    66	 9 ;       HGA1      CG311      CG331       HGA3
   65    23    24    67	 9 ;       HGA1      CG311      CG331       HGA3
   65    23    24    68	 9 ;       HGA1      CG311      CG331       HGA3
   24    23    25    69	 9 ;      CG331      CG311      CG331       HGA3
   24    23    25    70	 9 ;      CG331      CG311      CG331       HGA3
   24    23    25    71	 9 ;      CG331      CG311      CG331       HGA3
   22    23    25    69	 9 ;      OG302      CG311      CG331       HGA3
   22    23    25    70	 9 ;      OG302      CG311      CG331       HGA3
   22    23    25    71	 9 ;      OG302      CG311      CG331       HGA3
   65    23    25    69	 9 ;       HGA1      CG311      CG331       HGA3
   65    23    25    70	 9 ;       HGA1      CG311      CG331       HGA3
   65    23    25    71	 9 ;       HGA1      CG311      CG331       HGA3
   27    26    34    35	 9 ;      CG321     CG2DC1      CG311      CG324
   27    26    34    42	 9 ;      CG321     CG2DC1      CG311      OG311
   27    26    34    79	 9 ;      CG321     CG2DC1      CG311       HGA1
    3    26    34    35	 9 ;      NG2P1     CG2DC1      CG311      CG324
    3    26    34    42	 9 ;      NG2P1     CG2DC1      CG311      OG311
    3    26    34    79	 9 ;      NG2P1     CG2DC1      CG311       HGA1
   34    26    27    28	 9 ;      CG311     CG2DC1      CG321     CG2R61
   34    26    27    72	 9 ;      CG311     CG2DC1      CG321       HGA2
   34    26    27    73	 9 ;      CG311     CG2DC1      CG321       HGA2
    3    26    27    28	 9 ;      NG2P1     CG2DC1      CG321     CG2R61
    3    26    27    72	 9 ;      NG2P1     CG2DC1      CG321       HGA2
    3    26    27    73	 9 ;      NG2P1     CG2DC1      CG321       HGA2
   26    27    28    33	 9 ;     CG2DC1      CG321     CG2R61     CG2R61
   26    27    28    29	 9 ;     CG2DC1      CG321     CG2R61     CG2R61
   72    27    28    33	 9 ;       HGA2      CG321     CG2R61     CG2R61
   72    27    28    29	 9 ;       HGA2      CG321     CG2R61     CG2R61
   73    27    28    33	 9 ;       HGA2      CG321     CG2R61     CG2R61
   73    27    28    29	 9 ;       HGA2      CG321     CG2R61     CG2R61
   27    28    33    32	 9 ;      CG321     CG2R61     CG2R61     CG2R61
   27    28    33    78	 9 ;      CG321     CG2R61     CG2R61      HGR61
   29    28    33    32	 9 ;     CG2R61     CG2R61     CG2R61     CG2R61
   29    28    33    78	 9 ;     CG2R61     CG2R61     CG2R61      HGR61
   27    28    29    30	 9 ;      CG321     CG2R61     CG2R61     CG2R61
   27    28    29    74	 9 ;      CG321     CG2R61     CG2R61      HGR61
   33    28    29    30	 9 ;     CG2R61     CG2R61     CG2R61     CG2R61
   33    28    29    74	 9 ;     CG2R61     CG2R61     CG2R61      HGR61
   28    29    30    31	 9 ;     CG2R61     CG2R61     CG2R61     CG2R61
   28    29    30    75	 9 ;     CG2R61     CG2R61     CG2R61      HGR61
   74    29    30    31	 9 ;      HGR61     CG2R61     CG2R61     CG2R61
   74    29    30    75	 9 ;      HGR61     CG2R61     CG2R61      HGR61
   29    30    31    32	 9 ;     CG2R61     CG2R61     CG2R61     CG2R61
   29    30    31    76	 9 ;     CG2R61     CG2R61     CG2R61      HGR61
   75    30    31    32	 9 ;      HGR61     CG2R61     CG2R61     CG2R61
   75    30    31    76	 9 ;      HGR61     CG2R61     CG2R61      HGR61
   30    31    32    33	 9 ;     CG2R61     CG2R61     CG2R61     CG2R61
   30    31    32    77	 9 ;     CG2R61     CG2R61     CG2R61      HGR61
   76    31    32    33	 9 ;      HGR61     CG2R61     CG2R61     CG2R61
   76    31    32    77	 9 ;      HGR61     CG2R61     CG2R61      HGR61
   31    32    33    28	 9 ;     CG2R61     CG2R61     CG2R61     CG2R61
   31    32    33    78	 9 ;     CG2R61     CG2R61     CG2R61      HGR61
   77    32    33    28	 9 ;      HGR61     CG2R61     CG2R61     CG2R61
   77    32    33    78	 9 ;      HGR61     CG2R61     CG2R61      HGR61
   42    34    35    36	 9 ;      OG311      CG311      CG324      NG3P2
   42    34    35    80	 9 ;      OG311      CG311      CG324       HGA2
   42    34    35    81	 9 ;      OG311      CG311      CG324       HGA2
   26    34    35    36	 9 ;     CG2DC1      CG311      CG324      NG3P2
   26    34    35    80	 9 ;     CG2DC1      CG311      CG324       HGA2
   26    34    35    81	 9 ;     CG2DC1      CG311      CG324       HGA2
   79    34    35    36	 9 ;       HGA1      CG311      CG324      NG3P2
   79    34    35    80	 9 ;       HGA1      CG311      CG324       HGA2
   79    34    35    81	 9 ;       HGA1      CG311      CG324       HGA2
   35    34    42    43	 9 ;      CG324      CG311      OG311       HGP1
   26    34    42    43	 9 ;     CG2DC1      CG311      OG311       HGP1
   79    34    42    43	 9 ;       HGA1      CG311      OG311       HGP1
   34    35    36    37	 9 ;      CG311      CG324      NG3P2       HGP2
   34    35    36    39	 9 ;      CG311      CG324      NG3P2     CG3C31
   34    35    36    38	 9 ;      CG311      CG324      NG3P2       HGP2
   80    35    36    37	 9 ;       HGA2      CG324      NG3P2       HGP2
   80    35    36    39	 9 ;       HGA2      CG324      NG3P2     CG3C31
   80    35    36    38	 9 ;       HGA2      CG324      NG3P2       HGP2
   81    35    36    37	 9 ;       HGA2      CG324      NG3P2       HGP2
   81    35    36    39	 9 ;       HGA2      CG324      NG3P2     CG3C31
   81    35    36    38	 9 ;       HGA2      CG324      NG3P2       HGP2
   37    36    39    41	 9 ;       HGP2      NG3P2     CG3C31     CG3C31
   37    36    39    40	 9 ;       HGP2      NG3P2     CG3C31     CG3C31
   37    36    39    82	 9 ;       HGP2      NG3P2     CG3C31       HGA1
   35    36    39    41	 9 ;      CG324      NG3P2     CG3C31     CG3C31
   35    36    39    40	 9 ;      CG324      NG3P2     CG3C31     CG3C31
   35    36    39    82	 9 ;      CG324      NG3P2     CG3C31       HGA1
   38    36    39    41	 9 ;       HGP2      NG3P2     CG3C31     CG3C31
   38    36    39    40	 9 ;       HGP2      NG3P2     CG3C31     CG3C31
   38    36    39    82	 9 ;       HGP2      NG3P2     CG3C31       HGA1
   36    39    41    40	 9 ;      NG3P2     CG3C31     CG3C31     CG3C31
   36    39    41    85	 9 ;      NG3P2     CG3C31     CG3C31       HGA2
   36    39    41    86	 9 ;      NG3P2     CG3C31     CG3C31       HGA2
   40    39    41    85	 9 ;     CG3C31     CG3C31     CG3C31       HGA2
   40    39    41    86	 9 ;     CG3C31     CG3C31     CG3C31       HGA2
   82    39    41    40	 9 ;       HGA1     CG3C31     CG3C31     CG3C31
   82    39    41    85	 9 ;       HGA1     CG3C31     CG3C31       HGA2
   82    39    41    86	 9 ;       HGA1     CG3C31     CG3C31       HGA2
   36    39    40    41	 9 ;      NG3P2     CG3C31     CG3C31     CG3C31
   36    39    40    83	 9 ;      NG3P2     CG3C31     CG3C31       HGA2
   36    39    40    84	 9 ;      NG3P2     CG3C31     CG3C31       HGA2
   41    39    40    83	 9 ;     CG3C31     CG3C31     CG3C31       HGA2
   41    39    40    84	 9 ;     CG3C31     CG3C31     CG3C31       HGA2
   82    39    40    41	 9 ;       HGA1     CG3C31     CG3C31     CG3C31
   82    39    40    83	 9 ;       HGA1     CG3C31     CG3C31       HGA2
   82    39    40    84	 9 ;       HGA1     CG3C31     CG3C31       HGA2
   39    40    41    85	 9 ;     CG3C31     CG3C31     CG3C31       HGA2
   39    40    41    86	 9 ;     CG3C31     CG3C31     CG3C31       HGA2
   83    40    41    39	 9 ;       HGA2     CG3C31     CG3C31     CG3C31
   83    40    41    85	 9 ;       HGA2     CG3C31     CG3C31       HGA2
   83    40    41    86	 9 ;       HGA2     CG3C31     CG3C31       HGA2
   84    40    41    39	 9 ;       HGA2     CG3C31     CG3C31     CG3C31
   84    40    41    85	 9 ;       HGA2     CG3C31     CG3C31       HGA2
   84    40    41    86	 9 ;       HGA2     CG3C31     CG3C31       HGA2

[ dihedrals ]
;	ai	  aj	ak	  al funct			  c0			c1			  c2			c3
    1     5     3     2	 2
    8     7    10     9	 2
   16     7    18    17	 2
   20    19    21    22	 2
   26    34    27     3	 2

