GROtesk MACabre and Sinister
   94
    1LIG     C1    1  -1.397   0.398  -1.525
    1LIG     N1    2  -1.243   0.350  -1.523
    1LIG     C2    3  -1.120   0.374  -1.593
    1LIG     O1    4  -1.026   0.417  -1.525
    1LIG     C3    5  -1.072   0.331  -1.733
    1LIG     C4    6  -1.066   0.195  -1.745
    1LIG     C5    7  -1.190   0.135  -1.753
    1LIG     C6    8  -1.294   0.219  -1.806
    1LIG     C7    9  -1.266   0.353  -1.854
    1LIG     N2   10  -1.358   0.462  -1.887
    1LIG     C8   11  -1.353   0.568  -1.774
    1LIG     C9   12  -1.360   0.720  -1.768
    1LIG    C10   13  -1.488   0.802  -1.799
    1LIG    C11   14  -1.625   0.765  -1.738
    1LIG     O2   15  -1.658   0.825  -1.610
    1LIG    C12   16  -1.647   0.750  -1.496
    1LIG    C13   17  -1.559   0.643  -1.487
    1LIG    C14   18  -1.543   0.558  -1.377
    1LIG    C15   19  -1.452   0.434  -1.382
    1LIG    C16   20  -1.612   0.595  -1.262
    1LIG    C17   21  -1.699   0.707  -1.265
    1LIG    C18   22  -1.718   0.782  -1.382
    1LIG    C19   23  -1.135   0.392  -1.838
    1LIG     H1   24  -1.210   0.385  -1.433
    1LIG     H2   25  -1.314   0.510  -1.969
    1LIG    C20   26  -1.518   0.328  -1.617
    1LIG     O3   27  -1.546   0.195  -1.571
    1LIG     H3   28  -1.493   0.174  -1.492
    1LIG    C21   29  -1.664   0.394  -1.631
    1LIG     N3   30  -1.775   0.290  -1.605
    1LIG     H4   31  -1.730   0.205  -1.566
    1LIG     H5   32  -1.815   0.258  -1.694
    1LIG    C22   33  -1.893   0.324  -1.507
    1LIG    C23   34  -1.970   0.453  -1.558
    1LIG     F1   35  -1.970   0.452  -1.694
    1LIG     F2   36  -1.914   0.569  -1.519
    1LIG     F3   37  -2.099   0.451  -1.518
    1LIG    C24   38  -1.860   0.327  -1.360
    1LIG    C25   39  -1.943   0.405  -1.275
    1LIG    C26   40  -1.915   0.428  -1.140
    1LIG    C27   41  -1.800   0.366  -1.086
    1LIG    C28   42  -1.718   0.289  -1.167
    1LIG    C29   43  -1.745   0.273  -1.304
    1LIG    C30   44  -2.001   0.526  -1.055
    1LIG    C31   45  -2.067   0.625  -1.153
    1LIG    C32   46  -2.112   0.457  -0.973
    1LIG    C33   47  -1.915   0.605  -0.954
    1LIG    C34   48  -1.189   0.005  -1.671
    1LIG     O4   49  -1.086  -0.092  -1.687
    1LIG    C35   50  -1.008  -0.095  -1.564
    1LIG     H6   51  -1.377   0.480  -1.590
    1LIG     H7   52  -0.973   0.370  -1.741
    1LIG     H8   53  -1.011   0.171  -1.833
    1LIG     H9   54  -1.019   0.159  -1.656
    1LIG    H10   55  -1.248   0.078  -1.823
    1LIG    H11   56  -1.391   0.183  -1.811
    1LIG    H12   57  -1.260   0.547  -1.725
    1LIG    H13   58  -1.454   0.553  -1.743
    1LIG    H14   59  -1.332   0.747  -1.669
    1LIG    H15   60  -1.299   0.746  -1.852
    1LIG    H16   61  -1.501   0.799  -1.906
    1LIG    H17   62  -1.467   0.896  -1.752
    1LIG    H18   63  -1.627   0.659  -1.727
    1LIG    H19   64  -1.697   0.805  -1.807
    1LIG    H20   65  -1.500   0.624  -1.570
    1LIG    H21   66  -1.369   0.451  -1.317
    1LIG    H22   67  -1.513   0.351  -1.351
    1LIG    H23   68  -1.600   0.542  -1.174
    1LIG    H24   69  -1.749   0.734  -1.179
    1LIG    H25   70  -1.785   0.861  -1.383
    1LIG    H26   71  -1.133   0.498  -1.822
    1LIG    H27   72  -1.082   0.364  -1.927
    1LIG    H28   73  -1.472   0.341  -1.712
    1LIG    H29   74  -1.676   0.433  -1.730
    1LIG    H30   75  -1.674   0.472  -1.558
    1LIG    H31   76  -1.959   0.240  -1.512
    1LIG    H32   77  -2.028   0.448  -1.315
    1LIG    H33   78  -1.776   0.378  -0.986
    1LIG    H34   79  -1.636   0.243  -1.126
    1LIG    H35   80  -1.678   0.221  -1.364
    1LIG    H36   81  -2.127   0.571  -1.223
    1LIG    H37   82  -1.992   0.680  -1.204
    1LIG    H38   83  -2.129   0.693  -1.098
    1LIG    H39   84  -2.175   0.400  -1.038
    1LIG    H40   85  -2.171   0.531  -0.922
    1LIG    H41   86  -2.068   0.391  -0.901
    1LIG    H42   87  -1.836   0.655  -1.005
    1LIG    H43   88  -1.874   0.537  -0.882
    1LIG    H44   89  -1.976   0.677  -0.903
    1LIG    H45   90  -1.281  -0.045  -1.694
    1LIG    H46   91  -1.173   0.040  -1.571
    1LIG    H47   92  -0.930  -0.168  -1.574
    1LIG    H48   93  -1.072  -0.122  -1.483
    1LIG    H49   94  -0.966   0.001  -1.547
   0.00000   0.00000   0.00000
