; Created by cgenff_charmm2gmx.py

[ moleculetype ]
; Name			   nrexcl
LIG				 3

[ atoms ]
;	 nr		  type	resnr residue  atom   cgnr	   charge		mass  typeB    chargeB		massB
; residue	 1 LIG rtp LIG q	qsum
     1      CG311      1    LIG     C1      1     -0.003     12.011   ;
     2      NG2S1      1    LIG     N1      2     -0.388     14.007   ;
     3      CG2O1      1    LIG     C2      3      0.468     12.011   ;
     4      OG2D1      1    LIG     O1      4     -0.508     15.999   ;
     5      CG311      1    LIG     C3      5      0.003     12.011   ;
     6      CG321      1    LIG     C4      6     -0.247     12.011   ;
     7      CG311      1    LIG     C5      7      0.103     12.011   ;
     8      CG2D1      1    LIG     C6      8     -0.280     12.011   ;
     9     CG2D1O      1    LIG     C7      9      0.091     12.011   ;
    10      NG311      1    LIG     N2     10     -0.676     14.007   ;
    11      CG321      1    LIG     C8     11     -0.013     12.011   ;
    12      CG321      1    LIG     C9     12     -0.167     12.011   ;
    13      CG321      1    LIG    C10     13     -0.175     12.011   ;
    14      CG321      1    LIG    C11     14     -0.008     12.011   ;
    15      OG301      1    LIG     O2     15     -0.398     15.999   ;
    16     CG2R61      1    LIG    C12     16      0.226     12.011   ;
    17     CG2R61      1    LIG    C13     17     -0.126     12.011   ;
    18     CG2R61      1    LIG    C14     18     -0.016     12.011   ;
    19      CG321      1    LIG    C15     19     -0.111     12.011   ;
    20     CG2R61      1    LIG    C16     20     -0.123     12.011   ;
    21     CG2R61      1    LIG    C17     21     -0.109     12.011   ;
    22     CG2R61      1    LIG    C18     22     -0.119     12.011   ;
    23      CG321      1    LIG    C19     23     -0.117     12.011   ;
    24       HGP1      1    LIG     H1     24      0.269      1.008   ;
    25     HGPAM1      1    LIG     H2     25      0.317      1.008   ;
    26      CG311      1    LIG    C20     26      0.089     12.011   ;
    27      OG311      1    LIG     O3     27     -0.625     15.999   ;
    28       HGP1      1    LIG     H3     28      0.415      1.008   ;
    29      CG324      1    LIG    C21     29      0.195     12.011   ;
    30      NG3P2      1    LIG     N3     30     -0.457     14.007   ;
    31       HGP2      1    LIG     H4     31      0.333      1.008   ;
    32       HGP2      1    LIG     H5     32      0.333      1.008   ;
    33      CG314      1    LIG    C22     33      0.377     12.011   ;
    34      CG302      1    LIG    C23     34      0.446     12.011   ;
    35       FGA3      1    LIG     F1     35     -0.160     18.998   ;
    36       FGA3      1    LIG     F2     36     -0.160     18.998   ;
    37       FGA3      1    LIG     F3     37     -0.160     18.998   ;
    38     CG2R61      1    LIG    C24     38     -0.137     12.011   ;
    39     CG2R61      1    LIG    C25     39     -0.061     12.011   ;
    40     CG2R61      1    LIG    C26     40      0.082     12.011   ;
    41     CG2R61      1    LIG    C27     41     -0.121     12.011   ;
    42     CG2R61      1    LIG    C28     42     -0.110     12.011   ;
    43     CG2R61      1    LIG    C29     43     -0.056     12.011   ;
    44      CG301      1    LIG    C30     44     -0.018     12.011   ;
    45      CG331      1    LIG    C31     45     -0.289     12.011   ;
    46      CG331      1    LIG    C32     46     -0.289     12.011   ;
    47      CG331      1    LIG    C33     47     -0.289     12.011   ;
    48      CG321      1    LIG    C34     48     -0.056     12.011   ;
    49      OG301      1    LIG     O4     49     -0.327     15.999   ;
    50      CG331      1    LIG    C35     50     -0.100     12.011   ;
    51       HGA1      1    LIG     H6     51      0.090      1.008   ;
    52       HGA1      1    LIG     H7     52      0.090      1.008   ;
    53       HGA2      1    LIG     H8     53      0.090      1.008   ;
    54       HGA2      1    LIG     H9     54      0.090      1.008   ;
    55       HGA1      1    LIG    H10     55      0.090      1.008   ;
    56       HGA4      1    LIG    H11     56      0.174      1.008   ;
    57       HGA2      1    LIG    H12     57      0.090      1.008   ;
    58       HGA2      1    LIG    H13     58      0.090      1.008   ;
    59       HGA2      1    LIG    H14     59      0.090      1.008   ;
    60       HGA2      1    LIG    H15     60      0.090      1.008   ;
    61       HGA2      1    LIG    H16     61      0.090      1.008   ;
    62       HGA2      1    LIG    H17     62      0.090      1.008   ;
    63       HGA2      1    LIG    H18     63      0.090      1.008   ;
    64       HGA2      1    LIG    H19     64      0.090      1.008   ;
    65      HGR61      1    LIG    H20     65      0.116      1.008   ;
    66       HGA2      1    LIG    H21     66      0.090      1.008   ;
    67       HGA2      1    LIG    H22     67      0.090      1.008   ;
    68      HGR61      1    LIG    H23     68      0.116      1.008   ;
    69      HGR61      1    LIG    H24     69      0.116      1.008   ;
    70      HGR61      1    LIG    H25     70      0.116      1.008   ;
    71       HGA2      1    LIG    H26     71      0.090      1.008   ;
    72       HGA2      1    LIG    H27     72      0.090      1.008   ;
    73       HGA1      1    LIG    H28     73      0.090      1.008   ;
    74       HGA2      1    LIG    H29     74      0.090      1.008   ;
    75       HGA2      1    LIG    H30     75      0.090      1.008   ;
    76       HGA1      1    LIG    H31     76      0.090      1.008   ;
    77      HGR61      1    LIG    H32     77      0.116      1.008   ;
    78      HGR61      1    LIG    H33     78      0.116      1.008   ;
    79      HGR61      1    LIG    H34     79      0.116      1.008   ;
    80      HGR61      1    LIG    H35     80      0.116      1.008   ;
    81       HGA3      1    LIG    H36     81      0.090      1.008   ;
    82       HGA3      1    LIG    H37     82      0.090      1.008   ;
    83       HGA3      1    LIG    H38     83      0.090      1.008   ;
    84       HGA3      1    LIG    H39     84      0.090      1.008   ;
    85       HGA3      1    LIG    H40     85      0.090      1.008   ;
    86       HGA3      1    LIG    H41     86      0.090      1.008   ;
    87       HGA3      1    LIG    H42     87      0.090      1.008   ;
    88       HGA3      1    LIG    H43     88      0.090      1.008   ;
    89       HGA3      1    LIG    H44     89      0.090      1.008   ;
    90       HGA2      1    LIG    H45     90      0.090      1.008   ;
    91       HGA2      1    LIG    H46     91      0.090      1.008   ;
    92       HGA3      1    LIG    H47     92      0.090      1.008   ;
    93       HGA3      1    LIG    H48     93      0.090      1.008   ;
    94       HGA3      1    LIG    H49     94      0.090      1.008   ;

[ bonds ]
;	ai	  aj funct			  c0			c1			  c2			c3
    1    26	 1 ;       CG311      CG311
    1     2	 1 ;       CG311      NG2S1
    1    19	 1 ;       CG311      CG321
    1    51	 1 ;       CG311       HGA1
    2     3	 1 ;       NG2S1      CG2O1
    2    24	 1 ;       NG2S1       HGP1
    3     5	 1 ;       CG2O1      CG311
    3     4	 1 ;       CG2O1      OG2D1
    5    23	 1 ;       CG311      CG321
    5     6	 1 ;       CG311      CG321
    5    52	 1 ;       CG311       HGA1
    6     7	 1 ;       CG321      CG311
    6    53	 1 ;       CG321       HGA2
    6    54	 1 ;       CG321       HGA2
    7     8	 1 ;       CG311      CG2D1
    7    48	 1 ;       CG311      CG321
    7    55	 1 ;       CG311       HGA1
    8     9	 1 ;       CG2D1     CG2D1O
    8    56	 1 ;       CG2D1       HGA4
    9    10	 1 ;      CG2D1O      NG311
    9    23	 1 ;      CG2D1O      CG321
   10    25	 1 ;       NG311     HGPAM1
   10    11	 1 ;       NG311      CG321
   11    12	 1 ;       CG321      CG321
   11    57	 1 ;       CG321       HGA2
   11    58	 1 ;       CG321       HGA2
   12    13	 1 ;       CG321      CG321
   12    59	 1 ;       CG321       HGA2
   12    60	 1 ;       CG321       HGA2
   13    14	 1 ;       CG321      CG321
   13    61	 1 ;       CG321       HGA2
   13    62	 1 ;       CG321       HGA2
   14    15	 1 ;       CG321      OG301
   14    63	 1 ;       CG321       HGA2
   14    64	 1 ;       CG321       HGA2
   15    16	 1 ;       OG301     CG2R61
   16    17	 1 ;      CG2R61     CG2R61
   16    22	 1 ;      CG2R61     CG2R61
   17    18	 1 ;      CG2R61     CG2R61
   17    65	 1 ;      CG2R61      HGR61
   18    19	 1 ;      CG2R61      CG321
   18    20	 1 ;      CG2R61     CG2R61
   19    66	 1 ;       CG321       HGA2
   19    67	 1 ;       CG321       HGA2
   20    21	 1 ;      CG2R61     CG2R61
   20    68	 1 ;      CG2R61      HGR61
   21    22	 1 ;      CG2R61     CG2R61
   21    69	 1 ;      CG2R61      HGR61
   22    70	 1 ;      CG2R61      HGR61
   23    71	 1 ;       CG321       HGA2
   23    72	 1 ;       CG321       HGA2
   26    29	 1 ;       CG311      CG324
   26    27	 1 ;       CG311      OG311
   26    73	 1 ;       CG311       HGA1
   27    28	 1 ;       OG311       HGP1
   29    30	 1 ;       CG324      NG3P2
   29    74	 1 ;       CG324       HGA2
   29    75	 1 ;       CG324       HGA2
   30    32	 1 ;       NG3P2       HGP2
   30    31	 1 ;       NG3P2       HGP2
   30    33	 1 ;       NG3P2      CG314
   33    34	 1 ;       CG314      CG302
   33    38	 1 ;       CG314     CG2R61
   33    76	 1 ;       CG314       HGA1
   34    35	 1 ;       CG302       FGA3
   34    36	 1 ;       CG302       FGA3
   34    37	 1 ;       CG302       FGA3
   38    43	 1 ;      CG2R61     CG2R61
   38    39	 1 ;      CG2R61     CG2R61
   39    40	 1 ;      CG2R61     CG2R61
   39    77	 1 ;      CG2R61      HGR61
   40    41	 1 ;      CG2R61     CG2R61
   40    44	 1 ;      CG2R61      CG301
   41    42	 1 ;      CG2R61     CG2R61
   41    78	 1 ;      CG2R61      HGR61
   42    43	 1 ;      CG2R61     CG2R61
   42    79	 1 ;      CG2R61      HGR61
   43    80	 1 ;      CG2R61      HGR61
   44    45	 1 ;       CG301      CG331
   44    46	 1 ;       CG301      CG331
   44    47	 1 ;       CG301      CG331
   45    81	 1 ;       CG331       HGA3
   45    82	 1 ;       CG331       HGA3
   45    83	 1 ;       CG331       HGA3
   46    84	 1 ;       CG331       HGA3
   46    85	 1 ;       CG331       HGA3
   46    86	 1 ;       CG331       HGA3
   47    87	 1 ;       CG331       HGA3
   47    88	 1 ;       CG331       HGA3
   47    89	 1 ;       CG331       HGA3
   48    49	 1 ;       CG321      OG301
   48    90	 1 ;       CG321       HGA2
   48    91	 1 ;       CG321       HGA2
   49    50	 1 ;       OG301      CG331
   50    92	 1 ;       CG331       HGA3
   50    93	 1 ;       CG331       HGA3
   50    94	 1 ;       CG331       HGA3

[ pairs ]
;	ai	  aj funct			  c0			c1			  c2			c3
    1     5	 1
    1     4	 1
    1    17	 1
    1    20	 1
    1    30	 1
    1    74	 1
    1    75	 1
    1    28	 1
    2    29	 1
    2    27	 1
    2    73	 1
    2    18	 1
    2    66	 1
    2    67	 1
    2    23	 1
    2     6	 1
    2    52	 1
    3    26	 1
    3    19	 1
    3    51	 1
    3     9	 1
    3    71	 1
    3    72	 1
    3     7	 1
    3    53	 1
    3    54	 1
    4    24	 1
    4    23	 1
    4     6	 1
    4    52	 1
    5    24	 1
    5     8	 1
    5    48	 1
    5    55	 1
    5    10	 1
    6     9	 1
    6    71	 1
    6    72	 1
    6    56	 1
    6    49	 1
    6    90	 1
    6    91	 1
    7    23	 1
    7    52	 1
    7    10	 1
    7    50	 1
    8    53	 1
    8    54	 1
    8    49	 1
    8    90	 1
    8    91	 1
    8    25	 1
    8    11	 1
    8    71	 1
    8    72	 1
    9    52	 1
    9    48	 1
    9    55	 1
    9    12	 1
    9    57	 1
    9    58	 1
   10    56	 1
   10    71	 1
   10    72	 1
   10    13	 1
   10    59	 1
   10    60	 1
   11    23	 1
   11    14	 1
   11    61	 1
   11    62	 1
   12    25	 1
   12    15	 1
   12    63	 1
   12    64	 1
   13    57	 1
   13    58	 1
   13    16	 1
   14    59	 1
   14    60	 1
   14    17	 1
   14    22	 1
   15    61	 1
   15    62	 1
   15    18	 1
   15    65	 1
   15    21	 1
   15    70	 1
   16    63	 1
   16    64	 1
   16    19	 1
   16    20	 1
   16    69	 1
   17    21	 1
   17    70	 1
   17    66	 1
   17    67	 1
   17    68	 1
   18    26	 1
   18    51	 1
   18    22	 1
   18    69	 1
   19    29	 1
   19    27	 1
   19    73	 1
   19    24	 1
   19    65	 1
   19    21	 1
   19    68	 1
   20    65	 1
   20    66	 1
   20    67	 1
   20    70	 1
   22    65	 1
   22    68	 1
   23    53	 1
   23    54	 1
   23    56	 1
   23    25	 1
   24    26	 1
   24    51	 1
   25    57	 1
   25    58	 1
   26    66	 1
   26    67	 1
   26    32	 1
   26    31	 1
   26    33	 1
   27    51	 1
   27    30	 1
   27    74	 1
   27    75	 1
   28    29	 1
   28    73	 1
   29    51	 1
   29    34	 1
   29    38	 1
   29    76	 1
   30    73	 1
   30    35	 1
   30    36	 1
   30    37	 1
   30    43	 1
   30    39	 1
   31    74	 1
   31    75	 1
   31    34	 1
   31    38	 1
   31    76	 1
   32    74	 1
   32    75	 1
   32    34	 1
   32    38	 1
   32    76	 1
   33    74	 1
   33    75	 1
   33    42	 1
   33    80	 1
   33    40	 1
   33    77	 1
   34    43	 1
   34    39	 1
   35    38	 1
   35    76	 1
   36    38	 1
   36    76	 1
   37    38	 1
   37    76	 1
   38    41	 1
   38    44	 1
   38    79	 1
   39    76	 1
   39    42	 1
   39    80	 1
   39    78	 1
   39    45	 1
   39    46	 1
   39    47	 1
   40    43	 1
   40    79	 1
   40    81	 1
   40    82	 1
   40    83	 1
   40    84	 1
   40    85	 1
   40    86	 1
   40    87	 1
   40    88	 1
   40    89	 1
   41    77	 1
   41    45	 1
   41    46	 1
   41    47	 1
   41    80	 1
   42    44	 1
   43    76	 1
   43    77	 1
   43    78	 1
   44    77	 1
   44    78	 1
   45    84	 1
   45    85	 1
   45    86	 1
   45    87	 1
   45    88	 1
   45    89	 1
   46    81	 1
   46    82	 1
   46    83	 1
   46    87	 1
   46    88	 1
   46    89	 1
   47    81	 1
   47    82	 1
   47    83	 1
   47    84	 1
   47    85	 1
   47    86	 1
   48    53	 1
   48    54	 1
   48    56	 1
   48    92	 1
   48    93	 1
   48    94	 1
   49    55	 1
   50    90	 1
   50    91	 1
   51    73	 1
   51    66	 1
   51    67	 1
   52    71	 1
   52    72	 1
   52    53	 1
   52    54	 1
   53    55	 1
   54    55	 1
   55    56	 1
   55    90	 1
   55    91	 1
   57    59	 1
   57    60	 1
   58    59	 1
   58    60	 1
   59    61	 1
   59    62	 1
   60    61	 1
   60    62	 1
   61    63	 1
   61    64	 1
   62    63	 1
   62    64	 1
   68    69	 1
   69    70	 1
   73    74	 1
   73    75	 1
   78    79	 1
   79    80	 1

[ angles ]
;	ai	  aj	ak funct			c0			  c1			c2			  c3
   26     1     2	5 ;      CG311      CG311      NG2S1
   26     1    19	5 ;      CG311      CG311      CG321
   26     1    51	5 ;      CG311      CG311       HGA1
    2     1    19	5 ;      NG2S1      CG311      CG321
    2     1    51	5 ;      NG2S1      CG311       HGA1
   19     1    51	5 ;      CG321      CG311       HGA1
    3     2     1	5 ;      CG2O1      NG2S1      CG311
    3     2    24	5 ;      CG2O1      NG2S1       HGP1
    1     2    24	5 ;      CG311      NG2S1       HGP1
    5     3     4	5 ;      CG311      CG2O1      OG2D1
    5     3     2	5 ;      CG311      CG2O1      NG2S1
    4     3     2	5 ;      OG2D1      CG2O1      NG2S1
   23     5     6	5 ;      CG321      CG311      CG321
   23     5     3	5 ;      CG321      CG311      CG2O1
   23     5    52	5 ;      CG321      CG311       HGA1
    6     5     3	5 ;      CG321      CG311      CG2O1
    6     5    52	5 ;      CG321      CG311       HGA1
    3     5    52	5 ;      CG2O1      CG311       HGA1
    7     6     5	5 ;      CG311      CG321      CG311
    7     6    53	5 ;      CG311      CG321       HGA2
    7     6    54	5 ;      CG311      CG321       HGA2
    5     6    53	5 ;      CG311      CG321       HGA2
    5     6    54	5 ;      CG311      CG321       HGA2
   53     6    54	5 ;       HGA2      CG321       HGA2
    8     7     6	5 ;      CG2D1      CG311      CG321
    8     7    48	5 ;      CG2D1      CG311      CG321
    8     7    55	5 ;      CG2D1      CG311       HGA1
    6     7    48	5 ;      CG321      CG311      CG321
    6     7    55	5 ;      CG321      CG311       HGA1
   48     7    55	5 ;      CG321      CG311       HGA1
    9     8     7	5 ;     CG2D1O      CG2D1      CG311
    9     8    56	5 ;     CG2D1O      CG2D1       HGA4
    7     8    56	5 ;      CG311      CG2D1       HGA4
   10     9    23	5 ;      NG311     CG2D1O      CG321
   10     9     8	5 ;      NG311     CG2D1O      CG2D1
   23     9     8	5 ;      CG321     CG2D1O      CG2D1
   25    10     9	5 ;     HGPAM1      NG311     CG2D1O
   25    10    11	5 ;     HGPAM1      NG311      CG321
    9    10    11	5 ;     CG2D1O      NG311      CG321
   10    11    12	5 ;      NG311      CG321      CG321
   10    11    57	5 ;      NG311      CG321       HGA2
   10    11    58	5 ;      NG311      CG321       HGA2
   12    11    57	5 ;      CG321      CG321       HGA2
   12    11    58	5 ;      CG321      CG321       HGA2
   57    11    58	5 ;       HGA2      CG321       HGA2
   13    12    11	5 ;      CG321      CG321      CG321
   13    12    59	5 ;      CG321      CG321       HGA2
   13    12    60	5 ;      CG321      CG321       HGA2
   11    12    59	5 ;      CG321      CG321       HGA2
   11    12    60	5 ;      CG321      CG321       HGA2
   59    12    60	5 ;       HGA2      CG321       HGA2
   12    13    14	5 ;      CG321      CG321      CG321
   12    13    61	5 ;      CG321      CG321       HGA2
   12    13    62	5 ;      CG321      CG321       HGA2
   14    13    61	5 ;      CG321      CG321       HGA2
   14    13    62	5 ;      CG321      CG321       HGA2
   61    13    62	5 ;       HGA2      CG321       HGA2
   13    14    15	5 ;      CG321      CG321      OG301
   13    14    63	5 ;      CG321      CG321       HGA2
   13    14    64	5 ;      CG321      CG321       HGA2
   15    14    63	5 ;      OG301      CG321       HGA2
   15    14    64	5 ;      OG301      CG321       HGA2
   63    14    64	5 ;       HGA2      CG321       HGA2
   14    15    16	5 ;      CG321      OG301     CG2R61
   15    16    17	5 ;      OG301     CG2R61     CG2R61
   15    16    22	5 ;      OG301     CG2R61     CG2R61
   17    16    22	5 ;     CG2R61     CG2R61     CG2R61
   16    17    18	5 ;     CG2R61     CG2R61     CG2R61
   16    17    65	5 ;     CG2R61     CG2R61      HGR61
   18    17    65	5 ;     CG2R61     CG2R61      HGR61
   17    18    19	5 ;     CG2R61     CG2R61      CG321
   17    18    20	5 ;     CG2R61     CG2R61     CG2R61
   19    18    20	5 ;      CG321     CG2R61     CG2R61
    1    19    18	5 ;      CG311      CG321     CG2R61
    1    19    66	5 ;      CG311      CG321       HGA2
    1    19    67	5 ;      CG311      CG321       HGA2
   18    19    66	5 ;     CG2R61      CG321       HGA2
   18    19    67	5 ;     CG2R61      CG321       HGA2
   66    19    67	5 ;       HGA2      CG321       HGA2
   18    20    21	5 ;     CG2R61     CG2R61     CG2R61
   18    20    68	5 ;     CG2R61     CG2R61      HGR61
   21    20    68	5 ;     CG2R61     CG2R61      HGR61
   22    21    20	5 ;     CG2R61     CG2R61     CG2R61
   22    21    69	5 ;     CG2R61     CG2R61      HGR61
   20    21    69	5 ;     CG2R61     CG2R61      HGR61
   16    22    21	5 ;     CG2R61     CG2R61     CG2R61
   16    22    70	5 ;     CG2R61     CG2R61      HGR61
   21    22    70	5 ;     CG2R61     CG2R61      HGR61
    9    23     5	5 ;     CG2D1O      CG321      CG311
    9    23    71	5 ;     CG2D1O      CG321       HGA2
    9    23    72	5 ;     CG2D1O      CG321       HGA2
    5    23    71	5 ;      CG311      CG321       HGA2
    5    23    72	5 ;      CG311      CG321       HGA2
   71    23    72	5 ;       HGA2      CG321       HGA2
   29    26    27	5 ;      CG324      CG311      OG311
   29    26     1	5 ;      CG324      CG311      CG311
   29    26    73	5 ;      CG324      CG311       HGA1
   27    26     1	5 ;      OG311      CG311      CG311
   27    26    73	5 ;      OG311      CG311       HGA1
    1    26    73	5 ;      CG311      CG311       HGA1
   26    27    28	5 ;      CG311      OG311       HGP1
   26    29    30	5 ;      CG311      CG324      NG3P2
   26    29    74	5 ;      CG311      CG324       HGA2
   26    29    75	5 ;      CG311      CG324       HGA2
   30    29    74	5 ;      NG3P2      CG324       HGA2
   30    29    75	5 ;      NG3P2      CG324       HGA2
   74    29    75	5 ;       HGA2      CG324       HGA2
   32    30    29	5 ;       HGP2      NG3P2      CG324
   32    30    31	5 ;       HGP2      NG3P2       HGP2
   32    30    33	5 ;       HGP2      NG3P2      CG314
   29    30    31	5 ;      CG324      NG3P2       HGP2
   29    30    33	5 ;      CG324      NG3P2      CG314
   31    30    33	5 ;       HGP2      NG3P2      CG314
   30    33    34	5 ;      NG3P2      CG314      CG302
   30    33    38	5 ;      NG3P2      CG314     CG2R61
   30    33    76	5 ;      NG3P2      CG314       HGA1
   34    33    38	5 ;      CG302      CG314     CG2R61
   34    33    76	5 ;      CG302      CG314       HGA1
   38    33    76	5 ;     CG2R61      CG314       HGA1
   35    34    36	5 ;       FGA3      CG302       FGA3
   35    34    37	5 ;       FGA3      CG302       FGA3
   35    34    33	5 ;       FGA3      CG302      CG314
   36    34    37	5 ;       FGA3      CG302       FGA3
   36    34    33	5 ;       FGA3      CG302      CG314
   37    34    33	5 ;       FGA3      CG302      CG314
   33    38    43	5 ;      CG314     CG2R61     CG2R61
   33    38    39	5 ;      CG314     CG2R61     CG2R61
   43    38    39	5 ;     CG2R61     CG2R61     CG2R61
   38    39    40	5 ;     CG2R61     CG2R61     CG2R61
   38    39    77	5 ;     CG2R61     CG2R61      HGR61
   40    39    77	5 ;     CG2R61     CG2R61      HGR61
   39    40    41	5 ;     CG2R61     CG2R61     CG2R61
   39    40    44	5 ;     CG2R61     CG2R61      CG301
   41    40    44	5 ;     CG2R61     CG2R61      CG301
   42    41    40	5 ;     CG2R61     CG2R61     CG2R61
   42    41    78	5 ;     CG2R61     CG2R61      HGR61
   40    41    78	5 ;     CG2R61     CG2R61      HGR61
   43    42    41	5 ;     CG2R61     CG2R61     CG2R61
   43    42    79	5 ;     CG2R61     CG2R61      HGR61
   41    42    79	5 ;     CG2R61     CG2R61      HGR61
   38    43    42	5 ;     CG2R61     CG2R61     CG2R61
   38    43    80	5 ;     CG2R61     CG2R61      HGR61
   42    43    80	5 ;     CG2R61     CG2R61      HGR61
   45    44    40	5 ;      CG331      CG301     CG2R61
   45    44    46	5 ;      CG331      CG301      CG331
   45    44    47	5 ;      CG331      CG301      CG331
   40    44    46	5 ;     CG2R61      CG301      CG331
   40    44    47	5 ;     CG2R61      CG301      CG331
   46    44    47	5 ;      CG331      CG301      CG331
   44    45    81	5 ;      CG301      CG331       HGA3
   44    45    82	5 ;      CG301      CG331       HGA3
   44    45    83	5 ;      CG301      CG331       HGA3
   81    45    82	5 ;       HGA3      CG331       HGA3
   81    45    83	5 ;       HGA3      CG331       HGA3
   82    45    83	5 ;       HGA3      CG331       HGA3
   44    46    84	5 ;      CG301      CG331       HGA3
   44    46    85	5 ;      CG301      CG331       HGA3
   44    46    86	5 ;      CG301      CG331       HGA3
   84    46    85	5 ;       HGA3      CG331       HGA3
   84    46    86	5 ;       HGA3      CG331       HGA3
   85    46    86	5 ;       HGA3      CG331       HGA3
   44    47    87	5 ;      CG301      CG331       HGA3
   44    47    88	5 ;      CG301      CG331       HGA3
   44    47    89	5 ;      CG301      CG331       HGA3
   87    47    88	5 ;       HGA3      CG331       HGA3
   87    47    89	5 ;       HGA3      CG331       HGA3
   88    47    89	5 ;       HGA3      CG331       HGA3
    7    48    49	5 ;      CG311      CG321      OG301
    7    48    90	5 ;      CG311      CG321       HGA2
    7    48    91	5 ;      CG311      CG321       HGA2
   49    48    90	5 ;      OG301      CG321       HGA2
   49    48    91	5 ;      OG301      CG321       HGA2
   90    48    91	5 ;       HGA2      CG321       HGA2
   48    49    50	5 ;      CG321      OG301      CG331
   49    50    92	5 ;      OG301      CG331       HGA3
   49    50    93	5 ;      OG301      CG331       HGA3
   49    50    94	5 ;      OG301      CG331       HGA3
   92    50    93	5 ;       HGA3      CG331       HGA3
   92    50    94	5 ;       HGA3      CG331       HGA3
   93    50    94	5 ;       HGA3      CG331       HGA3

[ dihedrals ]
;	ai	  aj	ak	  al funct			  c0			c1			  c2			c3			  c4			c5
    2     1    26    29	 9 ;      NG2S1      CG311      CG311      CG324
    2     1    26    27	 9 ;      NG2S1      CG311      CG311      OG311
    2     1    26    73	 9 ;      NG2S1      CG311      CG311       HGA1
   19     1    26    29	 9 ;      CG321      CG311      CG311      CG324
   19     1    26    27	 9 ;      CG321      CG311      CG311      OG311
   19     1    26    73	 9 ;      CG321      CG311      CG311       HGA1
   51     1    26    29	 9 ;       HGA1      CG311      CG311      CG324
   51     1    26    27	 9 ;       HGA1      CG311      CG311      OG311
   51     1    26    73	 9 ;       HGA1      CG311      CG311       HGA1
   26     1     2     3	 9 ;      CG311      CG311      NG2S1      CG2O1
   26     1     2    24	 9 ;      CG311      CG311      NG2S1       HGP1
   19     1     2     3	 9 ;      CG321      CG311      NG2S1      CG2O1
   19     1     2    24	 9 ;      CG321      CG311      NG2S1       HGP1
   51     1     2     3	 9 ;       HGA1      CG311      NG2S1      CG2O1
   51     1     2    24	 9 ;       HGA1      CG311      NG2S1       HGP1
   26     1    19    18	 9 ;      CG311      CG311      CG321     CG2R61
   26     1    19    66	 9 ;      CG311      CG311      CG321       HGA2
   26     1    19    67	 9 ;      CG311      CG311      CG321       HGA2
    2     1    19    18	 9 ;      NG2S1      CG311      CG321     CG2R61
    2     1    19    66	 9 ;      NG2S1      CG311      CG321       HGA2
    2     1    19    67	 9 ;      NG2S1      CG311      CG321       HGA2
   51     1    19    18	 9 ;       HGA1      CG311      CG321     CG2R61
   51     1    19    66	 9 ;       HGA1      CG311      CG321       HGA2
   51     1    19    67	 9 ;       HGA1      CG311      CG321       HGA2
    1     2     3     5	 9 ;      CG311      NG2S1      CG2O1      CG311
    1     2     3     4	 9 ;      CG311      NG2S1      CG2O1      OG2D1
   24     2     3     5	 9 ;       HGP1      NG2S1      CG2O1      CG311
   24     2     3     4	 9 ;       HGP1      NG2S1      CG2O1      OG2D1
    4     3     5    23	 9 ;      OG2D1      CG2O1      CG311      CG321
    4     3     5     6	 9 ;      OG2D1      CG2O1      CG311      CG321
    4     3     5    52	 9 ;      OG2D1      CG2O1      CG311       HGA1
    2     3     5    23	 9 ;      NG2S1      CG2O1      CG311      CG321
    2     3     5     6	 9 ;      NG2S1      CG2O1      CG311      CG321
    2     3     5    52	 9 ;      NG2S1      CG2O1      CG311       HGA1
    6     5    23     9	 9 ;      CG321      CG311      CG321     CG2D1O
    6     5    23    71	 9 ;      CG321      CG311      CG321       HGA2
    6     5    23    72	 9 ;      CG321      CG311      CG321       HGA2
    3     5    23     9	 9 ;      CG2O1      CG311      CG321     CG2D1O
    3     5    23    71	 9 ;      CG2O1      CG311      CG321       HGA2
    3     5    23    72	 9 ;      CG2O1      CG311      CG321       HGA2
   52     5    23     9	 9 ;       HGA1      CG311      CG321     CG2D1O
   52     5    23    71	 9 ;       HGA1      CG311      CG321       HGA2
   52     5    23    72	 9 ;       HGA1      CG311      CG321       HGA2
   23     5     6     7	 9 ;      CG321      CG311      CG321      CG311
   23     5     6    53	 9 ;      CG321      CG311      CG321       HGA2
   23     5     6    54	 9 ;      CG321      CG311      CG321       HGA2
    3     5     6     7	 9 ;      CG2O1      CG311      CG321      CG311
    3     5     6    53	 9 ;      CG2O1      CG311      CG321       HGA2
    3     5     6    54	 9 ;      CG2O1      CG311      CG321       HGA2
   52     5     6     7	 9 ;       HGA1      CG311      CG321      CG311
   52     5     6    53	 9 ;       HGA1      CG311      CG321       HGA2
   52     5     6    54	 9 ;       HGA1      CG311      CG321       HGA2
    5     6     7     8	 9 ;      CG311      CG321      CG311      CG2D1
    5     6     7    48	 9 ;      CG311      CG321      CG311      CG321
    5     6     7    55	 9 ;      CG311      CG321      CG311       HGA1
   53     6     7     8	 9 ;       HGA2      CG321      CG311      CG2D1
   53     6     7    48	 9 ;       HGA2      CG321      CG311      CG321
   53     6     7    55	 9 ;       HGA2      CG321      CG311       HGA1
   54     6     7     8	 9 ;       HGA2      CG321      CG311      CG2D1
   54     6     7    48	 9 ;       HGA2      CG321      CG311      CG321
   54     6     7    55	 9 ;       HGA2      CG321      CG311       HGA1
    6     7     8     9	 9 ;      CG321      CG311      CG2D1     CG2D1O
    6     7     8    56	 9 ;      CG321      CG311      CG2D1       HGA4
   48     7     8     9	 9 ;      CG321      CG311      CG2D1     CG2D1O
   48     7     8    56	 9 ;      CG321      CG311      CG2D1       HGA4
   55     7     8     9	 9 ;       HGA1      CG311      CG2D1     CG2D1O
   55     7     8    56	 9 ;       HGA1      CG311      CG2D1       HGA4
    8     7    48    49	 9 ;      CG2D1      CG311      CG321      OG301
    8     7    48    90	 9 ;      CG2D1      CG311      CG321       HGA2
    8     7    48    91	 9 ;      CG2D1      CG311      CG321       HGA2
    6     7    48    49	 9 ;      CG321      CG311      CG321      OG301
    6     7    48    90	 9 ;      CG321      CG311      CG321       HGA2
    6     7    48    91	 9 ;      CG321      CG311      CG321       HGA2
   55     7    48    49	 9 ;       HGA1      CG311      CG321      OG301
   55     7    48    90	 9 ;       HGA1      CG311      CG321       HGA2
   55     7    48    91	 9 ;       HGA1      CG311      CG321       HGA2
    7     8     9    10	 9 ;      CG311      CG2D1     CG2D1O      NG311
    7     8     9    23	 9 ;      CG311      CG2D1     CG2D1O      CG321
   56     8     9    10	 9 ;       HGA4      CG2D1     CG2D1O      NG311
   56     8     9    23	 9 ;       HGA4      CG2D1     CG2D1O      CG321
   23     9    10    25	 9 ;      CG321     CG2D1O      NG311     HGPAM1
   23     9    10    11	 9 ;      CG321     CG2D1O      NG311      CG321
    8     9    10    25	 9 ;      CG2D1     CG2D1O      NG311     HGPAM1
    8     9    10    11	 9 ;      CG2D1     CG2D1O      NG311      CG321
   10     9    23     5	 9 ;      NG311     CG2D1O      CG321      CG311
   10     9    23    71	 9 ;      NG311     CG2D1O      CG321       HGA2
   10     9    23    72	 9 ;      NG311     CG2D1O      CG321       HGA2
    8     9    23     5	 9 ;      CG2D1     CG2D1O      CG321      CG311
    8     9    23    71	 9 ;      CG2D1     CG2D1O      CG321       HGA2
    8     9    23    72	 9 ;      CG2D1     CG2D1O      CG321       HGA2
   25    10    11    12	 9 ;     HGPAM1      NG311      CG321      CG321
   25    10    11    57	 9 ;     HGPAM1      NG311      CG321       HGA2
   25    10    11    58	 9 ;     HGPAM1      NG311      CG321       HGA2
    9    10    11    12	 9 ;     CG2D1O      NG311      CG321      CG321
    9    10    11    57	 9 ;     CG2D1O      NG311      CG321       HGA2
    9    10    11    58	 9 ;     CG2D1O      NG311      CG321       HGA2
   10    11    12    13	 9 ;      NG311      CG321      CG321      CG321
   10    11    12    59	 9 ;      NG311      CG321      CG321       HGA2
   10    11    12    60	 9 ;      NG311      CG321      CG321       HGA2
   57    11    12    13	 9 ;       HGA2      CG321      CG321      CG321
   57    11    12    59	 9 ;       HGA2      CG321      CG321       HGA2
   57    11    12    60	 9 ;       HGA2      CG321      CG321       HGA2
   58    11    12    13	 9 ;       HGA2      CG321      CG321      CG321
   58    11    12    59	 9 ;       HGA2      CG321      CG321       HGA2
   58    11    12    60	 9 ;       HGA2      CG321      CG321       HGA2
   11    12    13    14	 9 ;      CG321      CG321      CG321      CG321
   11    12    13    61	 9 ;      CG321      CG321      CG321       HGA2
   11    12    13    62	 9 ;      CG321      CG321      CG321       HGA2
   59    12    13    14	 9 ;       HGA2      CG321      CG321      CG321
   59    12    13    61	 9 ;       HGA2      CG321      CG321       HGA2
   59    12    13    62	 9 ;       HGA2      CG321      CG321       HGA2
   60    12    13    14	 9 ;       HGA2      CG321      CG321      CG321
   60    12    13    61	 9 ;       HGA2      CG321      CG321       HGA2
   60    12    13    62	 9 ;       HGA2      CG321      CG321       HGA2
   12    13    14    15	 9 ;      CG321      CG321      CG321      OG301
   12    13    14    63	 9 ;      CG321      CG321      CG321       HGA2
   12    13    14    64	 9 ;      CG321      CG321      CG321       HGA2
   61    13    14    15	 9 ;       HGA2      CG321      CG321      OG301
   61    13    14    63	 9 ;       HGA2      CG321      CG321       HGA2
   61    13    14    64	 9 ;       HGA2      CG321      CG321       HGA2
   62    13    14    15	 9 ;       HGA2      CG321      CG321      OG301
   62    13    14    63	 9 ;       HGA2      CG321      CG321       HGA2
   62    13    14    64	 9 ;       HGA2      CG321      CG321       HGA2
   13    14    15    16	 9 ;      CG321      CG321      OG301     CG2R61
   63    14    15    16	 9 ;       HGA2      CG321      OG301     CG2R61
   64    14    15    16	 9 ;       HGA2      CG321      OG301     CG2R61
   14    15    16    17	 9 ;      CG321      OG301     CG2R61     CG2R61
   14    15    16    22	 9 ;      CG321      OG301     CG2R61     CG2R61
   15    16    17    18	 9 ;      OG301     CG2R61     CG2R61     CG2R61
   15    16    17    65	 9 ;      OG301     CG2R61     CG2R61      HGR61
   22    16    17    18	 9 ;     CG2R61     CG2R61     CG2R61     CG2R61
   22    16    17    65	 9 ;     CG2R61     CG2R61     CG2R61      HGR61
   15    16    22    21	 9 ;      OG301     CG2R61     CG2R61     CG2R61
   15    16    22    70	 9 ;      OG301     CG2R61     CG2R61      HGR61
   17    16    22    21	 9 ;     CG2R61     CG2R61     CG2R61     CG2R61
   17    16    22    70	 9 ;     CG2R61     CG2R61     CG2R61      HGR61
   16    17    18    19	 9 ;     CG2R61     CG2R61     CG2R61      CG321
   16    17    18    20	 9 ;     CG2R61     CG2R61     CG2R61     CG2R61
   65    17    18    19	 9 ;      HGR61     CG2R61     CG2R61      CG321
   65    17    18    20	 9 ;      HGR61     CG2R61     CG2R61     CG2R61
   17    18    19     1	 9 ;     CG2R61     CG2R61      CG321      CG311
   17    18    19    66	 9 ;     CG2R61     CG2R61      CG321       HGA2
   17    18    19    67	 9 ;     CG2R61     CG2R61      CG321       HGA2
   20    18    19     1	 9 ;     CG2R61     CG2R61      CG321      CG311
   20    18    19    66	 9 ;     CG2R61     CG2R61      CG321       HGA2
   20    18    19    67	 9 ;     CG2R61     CG2R61      CG321       HGA2
   17    18    20    21	 9 ;     CG2R61     CG2R61     CG2R61     CG2R61
   17    18    20    68	 9 ;     CG2R61     CG2R61     CG2R61      HGR61
   19    18    20    21	 9 ;      CG321     CG2R61     CG2R61     CG2R61
   19    18    20    68	 9 ;      CG321     CG2R61     CG2R61      HGR61
   18    20    21    22	 9 ;     CG2R61     CG2R61     CG2R61     CG2R61
   18    20    21    69	 9 ;     CG2R61     CG2R61     CG2R61      HGR61
   68    20    21    22	 9 ;      HGR61     CG2R61     CG2R61     CG2R61
   68    20    21    69	 9 ;      HGR61     CG2R61     CG2R61      HGR61
   20    21    22    16	 9 ;     CG2R61     CG2R61     CG2R61     CG2R61
   20    21    22    70	 9 ;     CG2R61     CG2R61     CG2R61      HGR61
   69    21    22    16	 9 ;      HGR61     CG2R61     CG2R61     CG2R61
   69    21    22    70	 9 ;      HGR61     CG2R61     CG2R61      HGR61
   27    26    29    30	 9 ;      OG311      CG311      CG324      NG3P2
   27    26    29    74	 9 ;      OG311      CG311      CG324       HGA2
   27    26    29    75	 9 ;      OG311      CG311      CG324       HGA2
    1    26    29    30	 9 ;      CG311      CG311      CG324      NG3P2
    1    26    29    74	 9 ;      CG311      CG311      CG324       HGA2
    1    26    29    75	 9 ;      CG311      CG311      CG324       HGA2
   73    26    29    30	 9 ;       HGA1      CG311      CG324      NG3P2
   73    26    29    74	 9 ;       HGA1      CG311      CG324       HGA2
   73    26    29    75	 9 ;       HGA1      CG311      CG324       HGA2
   29    26    27    28	 9 ;      CG324      CG311      OG311       HGP1
    1    26    27    28	 9 ;      CG311      CG311      OG311       HGP1
   73    26    27    28	 9 ;       HGA1      CG311      OG311       HGP1
   26    29    30    32	 9 ;      CG311      CG324      NG3P2       HGP2
   26    29    30    31	 9 ;      CG311      CG324      NG3P2       HGP2
   26    29    30    33	 9 ;      CG311      CG324      NG3P2      CG314
   74    29    30    32	 9 ;       HGA2      CG324      NG3P2       HGP2
   74    29    30    31	 9 ;       HGA2      CG324      NG3P2       HGP2
   74    29    30    33	 9 ;       HGA2      CG324      NG3P2      CG314
   75    29    30    32	 9 ;       HGA2      CG324      NG3P2       HGP2
   75    29    30    31	 9 ;       HGA2      CG324      NG3P2       HGP2
   75    29    30    33	 9 ;       HGA2      CG324      NG3P2      CG314
   32    30    33    34	 9 ;       HGP2      NG3P2      CG314      CG302
   32    30    33    38	 9 ;       HGP2      NG3P2      CG314     CG2R61
   32    30    33    76	 9 ;       HGP2      NG3P2      CG314       HGA1
   29    30    33    34	 9 ;      CG324      NG3P2      CG314      CG302
   29    30    33    38	 9 ;      CG324      NG3P2      CG314     CG2R61
   29    30    33    76	 9 ;      CG324      NG3P2      CG314       HGA1
   31    30    33    34	 9 ;       HGP2      NG3P2      CG314      CG302
   31    30    33    38	 9 ;       HGP2      NG3P2      CG314     CG2R61
   31    30    33    76	 9 ;       HGP2      NG3P2      CG314       HGA1
   30    33    34    35	 9 ;      NG3P2      CG314      CG302       FGA3
   30    33    34    36	 9 ;      NG3P2      CG314      CG302       FGA3
   30    33    34    37	 9 ;      NG3P2      CG314      CG302       FGA3
   38    33    34    35	 9 ;     CG2R61      CG314      CG302       FGA3
   38    33    34    36	 9 ;     CG2R61      CG314      CG302       FGA3
   38    33    34    37	 9 ;     CG2R61      CG314      CG302       FGA3
   76    33    34    35	 9 ;       HGA1      CG314      CG302       FGA3
   76    33    34    36	 9 ;       HGA1      CG314      CG302       FGA3
   76    33    34    37	 9 ;       HGA1      CG314      CG302       FGA3
   30    33    38    43	 9 ;      NG3P2      CG314     CG2R61     CG2R61
   30    33    38    39	 9 ;      NG3P2      CG314     CG2R61     CG2R61
   34    33    38    43	 9 ;      CG302      CG314     CG2R61     CG2R61
   34    33    38    39	 9 ;      CG302      CG314     CG2R61     CG2R61
   76    33    38    43	 9 ;       HGA1      CG314     CG2R61     CG2R61
   76    33    38    39	 9 ;       HGA1      CG314     CG2R61     CG2R61
   33    38    43    42	 9 ;      CG314     CG2R61     CG2R61     CG2R61
   33    38    43    80	 9 ;      CG314     CG2R61     CG2R61      HGR61
   39    38    43    42	 9 ;     CG2R61     CG2R61     CG2R61     CG2R61
   39    38    43    80	 9 ;     CG2R61     CG2R61     CG2R61      HGR61
   33    38    39    40	 9 ;      CG314     CG2R61     CG2R61     CG2R61
   33    38    39    77	 9 ;      CG314     CG2R61     CG2R61      HGR61
   43    38    39    40	 9 ;     CG2R61     CG2R61     CG2R61     CG2R61
   43    38    39    77	 9 ;     CG2R61     CG2R61     CG2R61      HGR61
   38    39    40    41	 9 ;     CG2R61     CG2R61     CG2R61     CG2R61
   38    39    40    44	 9 ;     CG2R61     CG2R61     CG2R61      CG301
   77    39    40    41	 9 ;      HGR61     CG2R61     CG2R61     CG2R61
   77    39    40    44	 9 ;      HGR61     CG2R61     CG2R61      CG301
   39    40    41    42	 9 ;     CG2R61     CG2R61     CG2R61     CG2R61
   39    40    41    78	 9 ;     CG2R61     CG2R61     CG2R61      HGR61
   44    40    41    42	 9 ;      CG301     CG2R61     CG2R61     CG2R61
   44    40    41    78	 9 ;      CG301     CG2R61     CG2R61      HGR61
   39    40    44    45	 9 ;     CG2R61     CG2R61      CG301      CG331
   39    40    44    46	 9 ;     CG2R61     CG2R61      CG301      CG331
   39    40    44    47	 9 ;     CG2R61     CG2R61      CG301      CG331
   41    40    44    45	 9 ;     CG2R61     CG2R61      CG301      CG331
   41    40    44    46	 9 ;     CG2R61     CG2R61      CG301      CG331
   41    40    44    47	 9 ;     CG2R61     CG2R61      CG301      CG331
   40    41    42    43	 9 ;     CG2R61     CG2R61     CG2R61     CG2R61
   40    41    42    79	 9 ;     CG2R61     CG2R61     CG2R61      HGR61
   78    41    42    43	 9 ;      HGR61     CG2R61     CG2R61     CG2R61
   78    41    42    79	 9 ;      HGR61     CG2R61     CG2R61      HGR61
   41    42    43    38	 9 ;     CG2R61     CG2R61     CG2R61     CG2R61
   41    42    43    80	 9 ;     CG2R61     CG2R61     CG2R61      HGR61
   79    42    43    38	 9 ;      HGR61     CG2R61     CG2R61     CG2R61
   79    42    43    80	 9 ;      HGR61     CG2R61     CG2R61      HGR61
   40    44    45    81	 9 ;     CG2R61      CG301      CG331       HGA3
   40    44    45    82	 9 ;     CG2R61      CG301      CG331       HGA3
   40    44    45    83	 9 ;     CG2R61      CG301      CG331       HGA3
   46    44    45    81	 9 ;      CG331      CG301      CG331       HGA3
   46    44    45    82	 9 ;      CG331      CG301      CG331       HGA3
   46    44    45    83	 9 ;      CG331      CG301      CG331       HGA3
   47    44    45    81	 9 ;      CG331      CG301      CG331       HGA3
   47    44    45    82	 9 ;      CG331      CG301      CG331       HGA3
   47    44    45    83	 9 ;      CG331      CG301      CG331       HGA3
   45    44    46    84	 9 ;      CG331      CG301      CG331       HGA3
   45    44    46    85	 9 ;      CG331      CG301      CG331       HGA3
   45    44    46    86	 9 ;      CG331      CG301      CG331       HGA3
   40    44    46    84	 9 ;     CG2R61      CG301      CG331       HGA3
   40    44    46    85	 9 ;     CG2R61      CG301      CG331       HGA3
   40    44    46    86	 9 ;     CG2R61      CG301      CG331       HGA3
   47    44    46    84	 9 ;      CG331      CG301      CG331       HGA3
   47    44    46    85	 9 ;      CG331      CG301      CG331       HGA3
   47    44    46    86	 9 ;      CG331      CG301      CG331       HGA3
   45    44    47    87	 9 ;      CG331      CG301      CG331       HGA3
   45    44    47    88	 9 ;      CG331      CG301      CG331       HGA3
   45    44    47    89	 9 ;      CG331      CG301      CG331       HGA3
   40    44    47    87	 9 ;     CG2R61      CG301      CG331       HGA3
   40    44    47    88	 9 ;     CG2R61      CG301      CG331       HGA3
   40    44    47    89	 9 ;     CG2R61      CG301      CG331       HGA3
   46    44    47    87	 9 ;      CG331      CG301      CG331       HGA3
   46    44    47    88	 9 ;      CG331      CG301      CG331       HGA3
   46    44    47    89	 9 ;      CG331      CG301      CG331       HGA3
    7    48    49    50	 9 ;      CG311      CG321      OG301      CG331
   90    48    49    50	 9 ;       HGA2      CG321      OG301      CG331
   91    48    49    50	 9 ;       HGA2      CG321      OG301      CG331
   48    49    50    92	 9 ;      CG321      OG301      CG331       HGA3
   48    49    50    93	 9 ;      CG321      OG301      CG331       HGA3
   48    49    50    94	 9 ;      CG321      OG301      CG331       HGA3

[ dihedrals ]
;	ai	  aj	ak	  al funct			  c0			c1			  c2			c3
    3     5     2     4	 2
    9     8    23    10	 2

