GROup of MAchos and Cynical Suckers
   45
    1LIG     C2    1   2.129   3.896  -1.613
    1LIG     O5    2   2.230   3.747  -1.821
    1LIG     C4    3   2.454   3.803  -1.769
    1LIG     C5    4   2.541   3.872  -1.684
    1LIG     C6    5   2.505   3.720  -1.869
    1LIG     C7    6   2.680   3.855  -1.699
    1LIG     C8    7   2.643   3.705  -1.884
    1LIG     C9    8   2.731   3.773  -1.799
    1LIG    C10    9   2.256   3.914  -1.653
    1LIG    C11   10   2.353   4.020  -1.612
    1LIG    C12   11   2.306   3.815  -1.754
    1LIG    C13   12   2.487   3.960  -1.574
    1LIG     N1   13   2.076   3.929  -1.384
    1LIG     O4   14   1.999   4.082  -1.540
    1LIG     C3   15   2.061   3.980  -1.512
    1LIG     H5   16   2.097   3.830  -1.382
    1LIG    C14   17   1.998   3.987  -1.273
    1LIG    C16   18   2.088   4.050  -1.163
    1LIG    C17   19   2.234   4.070  -1.206
    1LIG    C18   20   2.033   4.186  -1.118
    1LIG     O2   21   1.806   3.884  -1.162
    1LIG    C15   22   1.917   3.872  -1.211
    1LIG     O3   23   1.985   3.754  -1.208
    1LIG     H4   24   2.055   3.753  -1.139
    1LIG     C1   25   2.942   3.699  -1.717
    1LIG     O1   26   2.863   3.749  -1.824
    1LIG     H1   27   2.075   3.820  -1.656
    1LIG     H2   28   2.440   3.669  -1.932
    1LIG     H3   29   2.745   3.905  -1.636
    1LIG     H6   30   2.680   3.644  -1.958
    1LIG     H7   31   2.313   4.074  -1.528
    1LIG     H8   32   2.368   4.087  -1.695
    1LIG     H9   33   2.557   4.039  -1.554
    1LIG    H10   34   2.474   3.899  -1.486
    1LIG     HA   35   1.937   4.065  -1.310
    1LIG     HB   36   2.086   3.981  -1.082
    1LIG   HG11   37   2.238   4.139  -1.288
    1LIG   HG12   38   2.274   3.976  -1.238
    1LIG   HG13   39   2.291   4.107  -1.124
    1LIG   HG21   40   2.035   4.255  -1.200
    1LIG   HG22   41   2.093   4.225  -1.038
    1LIG   HG23   42   1.932   4.174  -1.084
    1LIG    H11   43   3.043   3.685  -1.750
    1LIG    H12   44   2.902   3.606  -1.683
    1LIG    H13   45   2.940   3.770  -1.636
   0.00000   0.00000   0.00000
