; Created by cgenff_charmm2gmx.py

[ moleculetype ]
; Name			   nrexcl
LIG				 3

[ atoms ]
;	 nr		  type	resnr residue  atom   cgnr	   charge		mass  typeB    chargeB		massB
; residue	 1 LIG rtp LIG q	qsum
     1      CG2O1      1    LIG     C1      1      0.302     12.011   ;
     2      OG2D1      1    LIG     O1      2     -0.463     15.999   ;
     3      NG2S1      1    LIG     N1      3     -0.226     14.007   ;
     4       HGP1      1    LIG     H1      4      0.262      1.008   ;
     5      CG311      1    LIG     C2      5      0.010     12.011   ;
     6      CG321      1    LIG     C3      6     -0.153     12.011   ;
     7     CG2R61      1    LIG     C4      7      0.057     12.011   ;
     8     CG2R61      1    LIG     C5      8     -0.218     12.011   ;
     9     CG2R66      1    LIG     C6      9      0.261     12.011   ;
    10       FGR1      1    LIG     F1     10     -0.210     18.998   ;
    11     CG2R61      1    LIG     C7     11     -0.240     12.011   ;
    12     CG2R66      1    LIG     C8     12      0.261     12.011   ;
    13       FGR1      1    LIG     F2     13     -0.210     18.998   ;
    14     CG2R61      1    LIG     C9     14     -0.218     12.011   ;
    15      CG311      1    LIG    C10     15      0.094     12.011   ;
    16      CG324      1    LIG    C11     16      0.178     12.011   ;
    17      NG3P2      1    LIG     N2     17     -0.444     14.007   ;
    18       HGP2      1    LIG     H2     18      0.348      1.008   ;
    19       HGP2      1    LIG     H3     19      0.348      1.008   ;
    20      CG324      1    LIG    C12     20      0.171     12.011   ;
    21     CG2R61      1    LIG    C13     21      0.036     12.011   ;
    22     CG2R61      1    LIG    C14     22     -0.124     12.011   ;
    23     CG2R61      1    LIG    C15     23      0.216     12.011   ;
    24     CG2R61      1    LIG    C16     24     -0.121     12.011   ;
    25     CG2R61      1    LIG    C17     25     -0.108     12.011   ;
    26     CG2R61      1    LIG    C18     26     -0.119     12.011   ;
    27      OG301      1    LIG     O2     27     -0.383     15.999   ;
    28      CG331      1    LIG    C19     28     -0.094     12.011   ;
    29      OG311      1    LIG     O3     29     -0.625     15.999   ;
    30       HGP1      1    LIG     H4     30      0.415      1.008   ;
    31     CG2R61      1    LIG    C20     31     -0.103     12.011   ;
    32     CG2R61      1    LIG    C21     32     -0.003     12.011   ;
    33     CG2R61      1    LIG    C22     33     -0.162     12.011   ;
    34     CG2R61      1    LIG    C23     34     -0.060     12.011   ;
    35     CG2R61      1    LIG    C24     35      0.151     12.011   ;
    36     CG2R61      1    LIG    C25     36     -0.061     12.011   ;
    37      CG2O1      1    LIG    C26     37      0.400     12.011   ;
    38      OG2D1      1    LIG     O4     38     -0.476     15.999   ;
    39      NG2S0      1    LIG     N3     39     -0.418     14.007   ;
    40      CG321      1    LIG    C27     40      0.096     12.011   ;
    41      CG321      1    LIG    C28     41     -0.170     12.011   ;
    42      CG331      1    LIG    C29     42     -0.285     12.011   ;
    43      CG321      1    LIG    C30     43      0.096     12.011   ;
    44      CG321      1    LIG    C31     44     -0.170     12.011   ;
    45      CG331      1    LIG    C32     45     -0.285     12.011   ;
    46      SG311      1    LIG      S     46     -0.298     32.060   ;
    47     CG2R61      1    LIG    C33     47      0.147     12.011   ;
    48     CG2R61      1    LIG    C34     48     -0.117     12.011   ;
    49     CG2R61      1    LIG    C35     49     -0.114     12.011   ;
    50     CG2R61      1    LIG    C36     50     -0.116     12.011   ;
    51     CG2R61      1    LIG    C37     51     -0.114     12.011   ;
    52     CG2R61      1    LIG    C38     52     -0.117     12.011   ;
    53       HGA1      1    LIG     HC     53      0.090      1.008   ;
    54       HGA2      1    LIG    HC2     54      0.090      1.008   ;
    55       HGA2      1    LIG    HC3     55      0.090      1.008   ;
    56      HGR62      1    LIG    HC1     56      0.174      1.008   ;
    57      HGR62      1    LIG    HC4     57      0.186      1.008   ;
    58      HGR62      1    LIG    HC5     58      0.174      1.008   ;
    59       HGA1      1    LIG    HC6     59      0.090      1.008   ;
    60       HGA2      1    LIG    HC7     60      0.090      1.008   ;
    61       HGA2      1    LIG    HC8     61      0.090      1.008   ;
    62       HGA2      1    LIG    HC9     62      0.090      1.008   ;
    63       HGA2      1    LIG   HC10     63      0.090      1.008   ;
    64      HGR61      1    LIG   HC11     64      0.116      1.008   ;
    65      HGR61      1    LIG   HC12     65      0.116      1.008   ;
    66      HGR61      1    LIG   HC13     66      0.116      1.008   ;
    67      HGR61      1    LIG   HC14     67      0.116      1.008   ;
    68      HGR61      1    LIG   HC15     68      0.116      1.008   ;
    69      HGR61      1    LIG   HC16     69      0.116      1.008   ;
    70      HGR61      1    LIG   HC17     70      0.116      1.008   ;
    71       HGA2      1    LIG   HC18     71      0.090      1.008   ;
    72       HGA2      1    LIG   HC19     72      0.090      1.008   ;
    73       HGA2      1    LIG   HC20     73      0.090      1.008   ;
    74       HGA2      1    LIG   HC21     74      0.090      1.008   ;
    75       HGA2      1    LIG   HC22     75      0.090      1.008   ;
    76       HGA2      1    LIG   HC23     76      0.090      1.008   ;
    77       HGA2      1    LIG   HC24     77      0.090      1.008   ;
    78       HGA2      1    LIG   HC25     78      0.090      1.008   ;
    79      HGR61      1    LIG   HC26     79      0.116      1.008   ;
    80      HGR61      1    LIG   HC27     80      0.116      1.008   ;
    81      HGR61      1    LIG   HC28     81      0.116      1.008   ;
    82      HGR61      1    LIG   HC29     82      0.116      1.008   ;
    83      HGR61      1    LIG   HC30     83      0.116      1.008   ;
    84       HGA3      1    LIG   HC31     84      0.090      1.008   ;
    85       HGA3      1    LIG   HC32     85      0.090      1.008   ;
    86       HGA3      1    LIG   HC33     86      0.090      1.008   ;
    87       HGA3      1    LIG   HC34     87      0.090      1.008   ;
    88       HGA3      1    LIG   HC35     88      0.090      1.008   ;
    89       HGA3      1    LIG   HC36     89      0.090      1.008   ;
    90       HGA3      1    LIG   HC37     90      0.090      1.008   ;
    91       HGA3      1    LIG   HC38     91      0.090      1.008   ;
    92       HGA3      1    LIG   HC39     92      0.090      1.008   ;

[ bonds ]
;	ai	  aj funct			  c0			c1			  c2			c3
    1    31	 1 ;       CG2O1     CG2R61
    1     2	 1 ;       CG2O1      OG2D1
    1     3	 1 ;       CG2O1      NG2S1
    3     4	 1 ;       NG2S1       HGP1
    3     5	 1 ;       NG2S1      CG311
    5     6	 1 ;       CG311      CG321
    5    15	 1 ;       CG311      CG311
    5    53	 1 ;       CG311       HGA1
    6     7	 1 ;       CG321     CG2R61
    6    54	 1 ;       CG321       HGA2
    6    55	 1 ;       CG321       HGA2
    7    14	 1 ;      CG2R61     CG2R61
    7     8	 1 ;      CG2R61     CG2R61
    8     9	 1 ;      CG2R61     CG2R66
    8    56	 1 ;      CG2R61      HGR62
    9    11	 1 ;      CG2R66     CG2R61
    9    10	 1 ;      CG2R66       FGR1
   11    12	 1 ;      CG2R61     CG2R66
   11    57	 1 ;      CG2R61      HGR62
   12    13	 1 ;      CG2R66       FGR1
   12    14	 1 ;      CG2R66     CG2R61
   14    58	 1 ;      CG2R61      HGR62
   15    16	 1 ;       CG311      CG324
   15    29	 1 ;       CG311      OG311
   15    59	 1 ;       CG311       HGA1
   16    17	 1 ;       CG324      NG3P2
   16    60	 1 ;       CG324       HGA2
   16    61	 1 ;       CG324       HGA2
   17    18	 1 ;       NG3P2       HGP2
   17    19	 1 ;       NG3P2       HGP2
   17    20	 1 ;       NG3P2      CG324
   20    21	 1 ;       CG324     CG2R61
   20    62	 1 ;       CG324       HGA2
   20    63	 1 ;       CG324       HGA2
   21    22	 1 ;      CG2R61     CG2R61
   21    26	 1 ;      CG2R61     CG2R61
   22    23	 1 ;      CG2R61     CG2R61
   22    64	 1 ;      CG2R61      HGR61
   23    27	 1 ;      CG2R61      OG301
   23    24	 1 ;      CG2R61     CG2R61
   24    25	 1 ;      CG2R61     CG2R61
   24    65	 1 ;      CG2R61      HGR61
   25    26	 1 ;      CG2R61     CG2R61
   25    66	 1 ;      CG2R61      HGR61
   26    67	 1 ;      CG2R61      HGR61
   27    28	 1 ;       OG301      CG331
   28    87	 1 ;       CG331       HGA3
   28    88	 1 ;       CG331       HGA3
   28    89	 1 ;       CG331       HGA3
   29    30	 1 ;       OG311       HGP1
   31    36	 1 ;      CG2R61     CG2R61
   31    32	 1 ;      CG2R61     CG2R61
   32    33	 1 ;      CG2R61     CG2R61
   32    68	 1 ;      CG2R61      HGR61
   33    34	 1 ;      CG2R61     CG2R61
   33    37	 1 ;      CG2R61      CG2O1
   34    35	 1 ;      CG2R61     CG2R61
   34    69	 1 ;      CG2R61      HGR61
   35    46	 1 ;      CG2R61      SG311
   35    36	 1 ;      CG2R61     CG2R61
   36    70	 1 ;      CG2R61      HGR61
   37    38	 1 ;       CG2O1      OG2D1
   37    39	 1 ;       CG2O1      NG2S0
   39    40	 1 ;       NG2S0      CG321
   39    43	 1 ;       NG2S0      CG321
   40    41	 1 ;       CG321      CG321
   40    71	 1 ;       CG321       HGA2
   40    72	 1 ;       CG321       HGA2
   41    42	 1 ;       CG321      CG331
   41    73	 1 ;       CG321       HGA2
   41    74	 1 ;       CG321       HGA2
   42    84	 1 ;       CG331       HGA3
   42    85	 1 ;       CG331       HGA3
   42    86	 1 ;       CG331       HGA3
   43    44	 1 ;       CG321      CG321
   43    75	 1 ;       CG321       HGA2
   43    76	 1 ;       CG321       HGA2
   44    45	 1 ;       CG321      CG331
   44    77	 1 ;       CG321       HGA2
   44    78	 1 ;       CG321       HGA2
   45    90	 1 ;       CG331       HGA3
   45    91	 1 ;       CG331       HGA3
   45    92	 1 ;       CG331       HGA3
   46    47	 1 ;       SG311     CG2R61
   47    48	 1 ;      CG2R61     CG2R61
   47    52	 1 ;      CG2R61     CG2R61
   48    49	 1 ;      CG2R61     CG2R61
   48    79	 1 ;      CG2R61      HGR61
   49    50	 1 ;      CG2R61     CG2R61
   49    80	 1 ;      CG2R61      HGR61
   50    51	 1 ;      CG2R61     CG2R61
   50    81	 1 ;      CG2R61      HGR61
   51    52	 1 ;      CG2R61     CG2R61
   51    82	 1 ;      CG2R61      HGR61
   52    83	 1 ;      CG2R61      HGR61

[ pairs ]
;	ai	  aj funct			  c0			c1			  c2			c3
    1     6	 1
    1    15	 1
    1    53	 1
    1    35	 1
    1    70	 1
    1    33	 1
    1    68	 1
    2    36	 1
    2    32	 1
    2     4	 1
    2     5	 1
    3    36	 1
    3    32	 1
    3     7	 1
    3    54	 1
    3    55	 1
    3    16	 1
    3    29	 1
    3    59	 1
    4    31	 1
    4     6	 1
    4    15	 1
    4    53	 1
    5    31	 1
    5    14	 1
    5     8	 1
    5    17	 1
    5    60	 1
    5    61	 1
    5    30	 1
    6    16	 1
    6    29	 1
    6    59	 1
    6    12	 1
    6    58	 1
    6     9	 1
    6    56	 1
    7    15	 1
    7    53	 1
    7    11	 1
    7    10	 1
    7    13	 1
    8    54	 1
    8    55	 1
    8    12	 1
    8    58	 1
    8    57	 1
    9    14	 1
    9    13	 1
   10    56	 1
   10    12	 1
   10    57	 1
   11    56	 1
   11    58	 1
   13    57	 1
   13    58	 1
   14    54	 1
   14    55	 1
   14    56	 1
   14    57	 1
   15    54	 1
   15    55	 1
   15    18	 1
   15    19	 1
   15    20	 1
   16    53	 1
   16    30	 1
   16    21	 1
   16    62	 1
   16    63	 1
   17    29	 1
   17    59	 1
   17    22	 1
   17    26	 1
   18    60	 1
   18    61	 1
   18    21	 1
   18    62	 1
   18    63	 1
   19    60	 1
   19    61	 1
   19    21	 1
   19    62	 1
   19    63	 1
   20    60	 1
   20    61	 1
   20    23	 1
   20    64	 1
   20    25	 1
   20    67	 1
   21    27	 1
   21    24	 1
   21    66	 1
   22    62	 1
   22    63	 1
   22    25	 1
   22    67	 1
   22    28	 1
   22    65	 1
   23    26	 1
   23    66	 1
   23    87	 1
   23    88	 1
   23    89	 1
   24    64	 1
   24    28	 1
   24    67	 1
   25    27	 1
   26    62	 1
   26    63	 1
   26    64	 1
   26    65	 1
   27    64	 1
   27    65	 1
   29    53	 1
   29    60	 1
   29    61	 1
   30    59	 1
   31    34	 1
   31    37	 1
   31    46	 1
   32    35	 1
   32    70	 1
   32    69	 1
   32    38	 1
   32    39	 1
   33    36	 1
   33    46	 1
   33    40	 1
   33    43	 1
   34    68	 1
   34    38	 1
   34    39	 1
   34    47	 1
   34    70	 1
   35    37	 1
   35    48	 1
   35    52	 1
   36    68	 1
   36    69	 1
   36    47	 1
   37    68	 1
   37    69	 1
   37    41	 1
   37    71	 1
   37    72	 1
   37    44	 1
   37    75	 1
   37    76	 1
   38    40	 1
   38    43	 1
   39    42	 1
   39    73	 1
   39    74	 1
   39    45	 1
   39    77	 1
   39    78	 1
   40    44	 1
   40    75	 1
   40    76	 1
   40    84	 1
   40    85	 1
   40    86	 1
   41    43	 1
   42    71	 1
   42    72	 1
   43    71	 1
   43    72	 1
   43    90	 1
   43    91	 1
   43    92	 1
   45    75	 1
   45    76	 1
   46    69	 1
   46    70	 1
   46    49	 1
   46    79	 1
   46    51	 1
   46    83	 1
   47    50	 1
   47    80	 1
   47    82	 1
   48    51	 1
   48    83	 1
   48    81	 1
   49    52	 1
   49    82	 1
   50    79	 1
   50    83	 1
   51    80	 1
   52    79	 1
   52    81	 1
   53    54	 1
   53    55	 1
   53    59	 1
   59    60	 1
   59    61	 1
   65    66	 1
   66    67	 1
   71    73	 1
   71    74	 1
   72    73	 1
   72    74	 1
   73    84	 1
   73    85	 1
   73    86	 1
   74    84	 1
   74    85	 1
   74    86	 1
   75    77	 1
   75    78	 1
   76    77	 1
   76    78	 1
   77    90	 1
   77    91	 1
   77    92	 1
   78    90	 1
   78    91	 1
   78    92	 1
   79    80	 1
   80    81	 1
   81    82	 1
   82    83	 1

[ angles ]
;	ai	  aj	ak funct			c0			  c1			c2			  c3
   31     1     2	5 ;     CG2R61      CG2O1      OG2D1
   31     1     3	5 ;     CG2R61      CG2O1      NG2S1
    2     1     3	5 ;      OG2D1      CG2O1      NG2S1
    1     3     4	5 ;      CG2O1      NG2S1       HGP1
    1     3     5	5 ;      CG2O1      NG2S1      CG311
    4     3     5	5 ;       HGP1      NG2S1      CG311
    3     5     6	5 ;      NG2S1      CG311      CG321
    3     5    15	5 ;      NG2S1      CG311      CG311
    3     5    53	5 ;      NG2S1      CG311       HGA1
    6     5    15	5 ;      CG321      CG311      CG311
    6     5    53	5 ;      CG321      CG311       HGA1
   15     5    53	5 ;      CG311      CG311       HGA1
    7     6     5	5 ;     CG2R61      CG321      CG311
    7     6    54	5 ;     CG2R61      CG321       HGA2
    7     6    55	5 ;     CG2R61      CG321       HGA2
    5     6    54	5 ;      CG311      CG321       HGA2
    5     6    55	5 ;      CG311      CG321       HGA2
   54     6    55	5 ;       HGA2      CG321       HGA2
   14     7     8	5 ;     CG2R61     CG2R61     CG2R61
   14     7     6	5 ;     CG2R61     CG2R61      CG321
    8     7     6	5 ;     CG2R61     CG2R61      CG321
    9     8     7	5 ;     CG2R66     CG2R61     CG2R61
    9     8    56	5 ;     CG2R66     CG2R61      HGR62
    7     8    56	5 ;     CG2R61     CG2R61      HGR62
   11     9    10	5 ;     CG2R61     CG2R66       FGR1
   11     9     8	5 ;     CG2R61     CG2R66     CG2R61
   10     9     8	5 ;       FGR1     CG2R66     CG2R61
   12    11     9	5 ;     CG2R66     CG2R61     CG2R66
   12    11    57	5 ;     CG2R66     CG2R61      HGR62
    9    11    57	5 ;     CG2R66     CG2R61      HGR62
   13    12    11	5 ;       FGR1     CG2R66     CG2R61
   13    12    14	5 ;       FGR1     CG2R66     CG2R61
   11    12    14	5 ;     CG2R61     CG2R66     CG2R61
   12    14     7	5 ;     CG2R66     CG2R61     CG2R61
   12    14    58	5 ;     CG2R66     CG2R61      HGR62
    7    14    58	5 ;     CG2R61     CG2R61      HGR62
    5    15    16	5 ;      CG311      CG311      CG324
    5    15    29	5 ;      CG311      CG311      OG311
    5    15    59	5 ;      CG311      CG311       HGA1
   16    15    29	5 ;      CG324      CG311      OG311
   16    15    59	5 ;      CG324      CG311       HGA1
   29    15    59	5 ;      OG311      CG311       HGA1
   15    16    17	5 ;      CG311      CG324      NG3P2
   15    16    60	5 ;      CG311      CG324       HGA2
   15    16    61	5 ;      CG311      CG324       HGA2
   17    16    60	5 ;      NG3P2      CG324       HGA2
   17    16    61	5 ;      NG3P2      CG324       HGA2
   60    16    61	5 ;       HGA2      CG324       HGA2
   16    17    18	5 ;      CG324      NG3P2       HGP2
   16    17    19	5 ;      CG324      NG3P2       HGP2
   16    17    20	5 ;      CG324      NG3P2      CG324
   18    17    19	5 ;       HGP2      NG3P2       HGP2
   18    17    20	5 ;       HGP2      NG3P2      CG324
   19    17    20	5 ;       HGP2      NG3P2      CG324
   17    20    21	5 ;      NG3P2      CG324     CG2R61
   17    20    62	5 ;      NG3P2      CG324       HGA2
   17    20    63	5 ;      NG3P2      CG324       HGA2
   21    20    62	5 ;     CG2R61      CG324       HGA2
   21    20    63	5 ;     CG2R61      CG324       HGA2
   62    20    63	5 ;       HGA2      CG324       HGA2
   20    21    22	5 ;      CG324     CG2R61     CG2R61
   20    21    26	5 ;      CG324     CG2R61     CG2R61
   22    21    26	5 ;     CG2R61     CG2R61     CG2R61
   21    22    23	5 ;     CG2R61     CG2R61     CG2R61
   21    22    64	5 ;     CG2R61     CG2R61      HGR61
   23    22    64	5 ;     CG2R61     CG2R61      HGR61
   22    23    27	5 ;     CG2R61     CG2R61      OG301
   22    23    24	5 ;     CG2R61     CG2R61     CG2R61
   27    23    24	5 ;      OG301     CG2R61     CG2R61
   23    24    25	5 ;     CG2R61     CG2R61     CG2R61
   23    24    65	5 ;     CG2R61     CG2R61      HGR61
   25    24    65	5 ;     CG2R61     CG2R61      HGR61
   26    25    24	5 ;     CG2R61     CG2R61     CG2R61
   26    25    66	5 ;     CG2R61     CG2R61      HGR61
   24    25    66	5 ;     CG2R61     CG2R61      HGR61
   21    26    25	5 ;     CG2R61     CG2R61     CG2R61
   21    26    67	5 ;     CG2R61     CG2R61      HGR61
   25    26    67	5 ;     CG2R61     CG2R61      HGR61
   23    27    28	5 ;     CG2R61      OG301      CG331
   27    28    87	5 ;      OG301      CG331       HGA3
   27    28    88	5 ;      OG301      CG331       HGA3
   27    28    89	5 ;      OG301      CG331       HGA3
   87    28    88	5 ;       HGA3      CG331       HGA3
   87    28    89	5 ;       HGA3      CG331       HGA3
   88    28    89	5 ;       HGA3      CG331       HGA3
   15    29    30	5 ;      CG311      OG311       HGP1
   36    31    32	5 ;     CG2R61     CG2R61     CG2R61
   36    31     1	5 ;     CG2R61     CG2R61      CG2O1
   32    31     1	5 ;     CG2R61     CG2R61      CG2O1
   33    32    31	5 ;     CG2R61     CG2R61     CG2R61
   33    32    68	5 ;     CG2R61     CG2R61      HGR61
   31    32    68	5 ;     CG2R61     CG2R61      HGR61
   34    33    37	5 ;     CG2R61     CG2R61      CG2O1
   34    33    32	5 ;     CG2R61     CG2R61     CG2R61
   37    33    32	5 ;      CG2O1     CG2R61     CG2R61
   35    34    33	5 ;     CG2R61     CG2R61     CG2R61
   35    34    69	5 ;     CG2R61     CG2R61      HGR61
   33    34    69	5 ;     CG2R61     CG2R61      HGR61
   46    35    34	5 ;      SG311     CG2R61     CG2R61
   46    35    36	5 ;      SG311     CG2R61     CG2R61
   34    35    36	5 ;     CG2R61     CG2R61     CG2R61
   35    36    31	5 ;     CG2R61     CG2R61     CG2R61
   35    36    70	5 ;     CG2R61     CG2R61      HGR61
   31    36    70	5 ;     CG2R61     CG2R61      HGR61
   33    37    38	5 ;     CG2R61      CG2O1      OG2D1
   33    37    39	5 ;     CG2R61      CG2O1      NG2S0
   38    37    39	5 ;      OG2D1      CG2O1      NG2S0
   37    39    40	5 ;      CG2O1      NG2S0      CG321
   37    39    43	5 ;      CG2O1      NG2S0      CG321
   40    39    43	5 ;      CG321      NG2S0      CG321
   41    40    39	5 ;      CG321      CG321      NG2S0
   41    40    71	5 ;      CG321      CG321       HGA2
   41    40    72	5 ;      CG321      CG321       HGA2
   39    40    71	5 ;      NG2S0      CG321       HGA2
   39    40    72	5 ;      NG2S0      CG321       HGA2
   71    40    72	5 ;       HGA2      CG321       HGA2
   42    41    40	5 ;      CG331      CG321      CG321
   42    41    73	5 ;      CG331      CG321       HGA2
   42    41    74	5 ;      CG331      CG321       HGA2
   40    41    73	5 ;      CG321      CG321       HGA2
   40    41    74	5 ;      CG321      CG321       HGA2
   73    41    74	5 ;       HGA2      CG321       HGA2
   41    42    84	5 ;      CG321      CG331       HGA3
   41    42    85	5 ;      CG321      CG331       HGA3
   41    42    86	5 ;      CG321      CG331       HGA3
   84    42    85	5 ;       HGA3      CG331       HGA3
   84    42    86	5 ;       HGA3      CG331       HGA3
   85    42    86	5 ;       HGA3      CG331       HGA3
   44    43    39	5 ;      CG321      CG321      NG2S0
   44    43    75	5 ;      CG321      CG321       HGA2
   44    43    76	5 ;      CG321      CG321       HGA2
   39    43    75	5 ;      NG2S0      CG321       HGA2
   39    43    76	5 ;      NG2S0      CG321       HGA2
   75    43    76	5 ;       HGA2      CG321       HGA2
   45    44    43	5 ;      CG331      CG321      CG321
   45    44    77	5 ;      CG331      CG321       HGA2
   45    44    78	5 ;      CG331      CG321       HGA2
   43    44    77	5 ;      CG321      CG321       HGA2
   43    44    78	5 ;      CG321      CG321       HGA2
   77    44    78	5 ;       HGA2      CG321       HGA2
   44    45    90	5 ;      CG321      CG331       HGA3
   44    45    91	5 ;      CG321      CG331       HGA3
   44    45    92	5 ;      CG321      CG331       HGA3
   90    45    91	5 ;       HGA3      CG331       HGA3
   90    45    92	5 ;       HGA3      CG331       HGA3
   91    45    92	5 ;       HGA3      CG331       HGA3
   47    46    35	5 ;     CG2R61      SG311     CG2R61
   48    47    46	5 ;     CG2R61     CG2R61      SG311
   48    47    52	5 ;     CG2R61     CG2R61     CG2R61
   46    47    52	5 ;      SG311     CG2R61     CG2R61
   49    48    47	5 ;     CG2R61     CG2R61     CG2R61
   49    48    79	5 ;     CG2R61     CG2R61      HGR61
   47    48    79	5 ;     CG2R61     CG2R61      HGR61
   48    49    50	5 ;     CG2R61     CG2R61     CG2R61
   48    49    80	5 ;     CG2R61     CG2R61      HGR61
   50    49    80	5 ;     CG2R61     CG2R61      HGR61
   49    50    51	5 ;     CG2R61     CG2R61     CG2R61
   49    50    81	5 ;     CG2R61     CG2R61      HGR61
   51    50    81	5 ;     CG2R61     CG2R61      HGR61
   50    51    52	5 ;     CG2R61     CG2R61     CG2R61
   50    51    82	5 ;     CG2R61     CG2R61      HGR61
   52    51    82	5 ;     CG2R61     CG2R61      HGR61
   47    52    51	5 ;     CG2R61     CG2R61     CG2R61
   47    52    83	5 ;     CG2R61     CG2R61      HGR61
   51    52    83	5 ;     CG2R61     CG2R61      HGR61

[ dihedrals ]
;	ai	  aj	ak	  al funct			  c0			c1			  c2			c3			  c4			c5
    2     1    31    36	 9 ;      OG2D1      CG2O1     CG2R61     CG2R61
    2     1    31    32	 9 ;      OG2D1      CG2O1     CG2R61     CG2R61
    3     1    31    36	 9 ;      NG2S1      CG2O1     CG2R61     CG2R61
    3     1    31    32	 9 ;      NG2S1      CG2O1     CG2R61     CG2R61
   31     1     3     4	 9 ;     CG2R61      CG2O1      NG2S1       HGP1
   31     1     3     5	 9 ;     CG2R61      CG2O1      NG2S1      CG311
    2     1     3     4	 9 ;      OG2D1      CG2O1      NG2S1       HGP1
    2     1     3     5	 9 ;      OG2D1      CG2O1      NG2S1      CG311
    1     3     5     6	 9 ;      CG2O1      NG2S1      CG311      CG321
    1     3     5    15	 9 ;      CG2O1      NG2S1      CG311      CG311
    1     3     5    53	 9 ;      CG2O1      NG2S1      CG311       HGA1
    4     3     5     6	 9 ;       HGP1      NG2S1      CG311      CG321
    4     3     5    15	 9 ;       HGP1      NG2S1      CG311      CG311
    4     3     5    53	 9 ;       HGP1      NG2S1      CG311       HGA1
    3     5     6     7	 9 ;      NG2S1      CG311      CG321     CG2R61
    3     5     6    54	 9 ;      NG2S1      CG311      CG321       HGA2
    3     5     6    55	 9 ;      NG2S1      CG311      CG321       HGA2
   15     5     6     7	 9 ;      CG311      CG311      CG321     CG2R61
   15     5     6    54	 9 ;      CG311      CG311      CG321       HGA2
   15     5     6    55	 9 ;      CG311      CG311      CG321       HGA2
   53     5     6     7	 9 ;       HGA1      CG311      CG321     CG2R61
   53     5     6    54	 9 ;       HGA1      CG311      CG321       HGA2
   53     5     6    55	 9 ;       HGA1      CG311      CG321       HGA2
    3     5    15    16	 9 ;      NG2S1      CG311      CG311      CG324
    3     5    15    29	 9 ;      NG2S1      CG311      CG311      OG311
    3     5    15    59	 9 ;      NG2S1      CG311      CG311       HGA1
    6     5    15    16	 9 ;      CG321      CG311      CG311      CG324
    6     5    15    29	 9 ;      CG321      CG311      CG311      OG311
    6     5    15    59	 9 ;      CG321      CG311      CG311       HGA1
   53     5    15    16	 9 ;       HGA1      CG311      CG311      CG324
   53     5    15    29	 9 ;       HGA1      CG311      CG311      OG311
   53     5    15    59	 9 ;       HGA1      CG311      CG311       HGA1
    5     6     7    14	 9 ;      CG311      CG321     CG2R61     CG2R61
    5     6     7     8	 9 ;      CG311      CG321     CG2R61     CG2R61
   54     6     7    14	 9 ;       HGA2      CG321     CG2R61     CG2R61
   54     6     7     8	 9 ;       HGA2      CG321     CG2R61     CG2R61
   55     6     7    14	 9 ;       HGA2      CG321     CG2R61     CG2R61
   55     6     7     8	 9 ;       HGA2      CG321     CG2R61     CG2R61
    8     7    14    12	 9 ;     CG2R61     CG2R61     CG2R61     CG2R66
    8     7    14    58	 9 ;     CG2R61     CG2R61     CG2R61      HGR62
    6     7    14    12	 9 ;      CG321     CG2R61     CG2R61     CG2R66
    6     7    14    58	 9 ;      CG321     CG2R61     CG2R61      HGR62
   14     7     8     9	 9 ;     CG2R61     CG2R61     CG2R61     CG2R66
   14     7     8    56	 9 ;     CG2R61     CG2R61     CG2R61      HGR62
    6     7     8     9	 9 ;      CG321     CG2R61     CG2R61     CG2R66
    6     7     8    56	 9 ;      CG321     CG2R61     CG2R61      HGR62
    7     8     9    11	 9 ;     CG2R61     CG2R61     CG2R66     CG2R61
    7     8     9    10	 9 ;     CG2R61     CG2R61     CG2R66       FGR1
   56     8     9    11	 9 ;      HGR62     CG2R61     CG2R66     CG2R61
   56     8     9    10	 9 ;      HGR62     CG2R61     CG2R66       FGR1
   10     9    11    12	 9 ;       FGR1     CG2R66     CG2R61     CG2R66
   10     9    11    57	 9 ;       FGR1     CG2R66     CG2R61      HGR62
    8     9    11    12	 9 ;     CG2R61     CG2R66     CG2R61     CG2R66
    8     9    11    57	 9 ;     CG2R61     CG2R66     CG2R61      HGR62
    9    11    12    13	 9 ;     CG2R66     CG2R61     CG2R66       FGR1
    9    11    12    14	 9 ;     CG2R66     CG2R61     CG2R66     CG2R61
   57    11    12    13	 9 ;      HGR62     CG2R61     CG2R66       FGR1
   57    11    12    14	 9 ;      HGR62     CG2R61     CG2R66     CG2R61
   13    12    14     7	 9 ;       FGR1     CG2R66     CG2R61     CG2R61
   13    12    14    58	 9 ;       FGR1     CG2R66     CG2R61      HGR62
   11    12    14     7	 9 ;     CG2R61     CG2R66     CG2R61     CG2R61
   11    12    14    58	 9 ;     CG2R61     CG2R66     CG2R61      HGR62
    5    15    16    17	 9 ;      CG311      CG311      CG324      NG3P2
    5    15    16    60	 9 ;      CG311      CG311      CG324       HGA2
    5    15    16    61	 9 ;      CG311      CG311      CG324       HGA2
   29    15    16    17	 9 ;      OG311      CG311      CG324      NG3P2
   29    15    16    60	 9 ;      OG311      CG311      CG324       HGA2
   29    15    16    61	 9 ;      OG311      CG311      CG324       HGA2
   59    15    16    17	 9 ;       HGA1      CG311      CG324      NG3P2
   59    15    16    60	 9 ;       HGA1      CG311      CG324       HGA2
   59    15    16    61	 9 ;       HGA1      CG311      CG324       HGA2
    5    15    29    30	 9 ;      CG311      CG311      OG311       HGP1
   16    15    29    30	 9 ;      CG324      CG311      OG311       HGP1
   59    15    29    30	 9 ;       HGA1      CG311      OG311       HGP1
   15    16    17    18	 9 ;      CG311      CG324      NG3P2       HGP2
   15    16    17    19	 9 ;      CG311      CG324      NG3P2       HGP2
   15    16    17    20	 9 ;      CG311      CG324      NG3P2      CG324
   60    16    17    18	 9 ;       HGA2      CG324      NG3P2       HGP2
   60    16    17    19	 9 ;       HGA2      CG324      NG3P2       HGP2
   60    16    17    20	 9 ;       HGA2      CG324      NG3P2      CG324
   61    16    17    18	 9 ;       HGA2      CG324      NG3P2       HGP2
   61    16    17    19	 9 ;       HGA2      CG324      NG3P2       HGP2
   61    16    17    20	 9 ;       HGA2      CG324      NG3P2      CG324
   16    17    20    21	 9 ;      CG324      NG3P2      CG324     CG2R61
   16    17    20    62	 9 ;      CG324      NG3P2      CG324       HGA2
   16    17    20    63	 9 ;      CG324      NG3P2      CG324       HGA2
   18    17    20    21	 9 ;       HGP2      NG3P2      CG324     CG2R61
   18    17    20    62	 9 ;       HGP2      NG3P2      CG324       HGA2
   18    17    20    63	 9 ;       HGP2      NG3P2      CG324       HGA2
   19    17    20    21	 9 ;       HGP2      NG3P2      CG324     CG2R61
   19    17    20    62	 9 ;       HGP2      NG3P2      CG324       HGA2
   19    17    20    63	 9 ;       HGP2      NG3P2      CG324       HGA2
   17    20    21    22	 9 ;      NG3P2      CG324     CG2R61     CG2R61
   17    20    21    26	 9 ;      NG3P2      CG324     CG2R61     CG2R61
   62    20    21    22	 9 ;       HGA2      CG324     CG2R61     CG2R61
   62    20    21    26	 9 ;       HGA2      CG324     CG2R61     CG2R61
   63    20    21    22	 9 ;       HGA2      CG324     CG2R61     CG2R61
   63    20    21    26	 9 ;       HGA2      CG324     CG2R61     CG2R61
   20    21    22    23	 9 ;      CG324     CG2R61     CG2R61     CG2R61
   20    21    22    64	 9 ;      CG324     CG2R61     CG2R61      HGR61
   26    21    22    23	 9 ;     CG2R61     CG2R61     CG2R61     CG2R61
   26    21    22    64	 9 ;     CG2R61     CG2R61     CG2R61      HGR61
   20    21    26    25	 9 ;      CG324     CG2R61     CG2R61     CG2R61
   20    21    26    67	 9 ;      CG324     CG2R61     CG2R61      HGR61
   22    21    26    25	 9 ;     CG2R61     CG2R61     CG2R61     CG2R61
   22    21    26    67	 9 ;     CG2R61     CG2R61     CG2R61      HGR61
   21    22    23    27	 9 ;     CG2R61     CG2R61     CG2R61      OG301
   21    22    23    24	 9 ;     CG2R61     CG2R61     CG2R61     CG2R61
   64    22    23    27	 9 ;      HGR61     CG2R61     CG2R61      OG301
   64    22    23    24	 9 ;      HGR61     CG2R61     CG2R61     CG2R61
   22    23    27    28	 9 ;     CG2R61     CG2R61      OG301      CG331
   24    23    27    28	 9 ;     CG2R61     CG2R61      OG301      CG331
   22    23    24    25	 9 ;     CG2R61     CG2R61     CG2R61     CG2R61
   22    23    24    65	 9 ;     CG2R61     CG2R61     CG2R61      HGR61
   27    23    24    25	 9 ;      OG301     CG2R61     CG2R61     CG2R61
   27    23    24    65	 9 ;      OG301     CG2R61     CG2R61      HGR61
   23    24    25    26	 9 ;     CG2R61     CG2R61     CG2R61     CG2R61
   23    24    25    66	 9 ;     CG2R61     CG2R61     CG2R61      HGR61
   65    24    25    26	 9 ;      HGR61     CG2R61     CG2R61     CG2R61
   65    24    25    66	 9 ;      HGR61     CG2R61     CG2R61      HGR61
   24    25    26    21	 9 ;     CG2R61     CG2R61     CG2R61     CG2R61
   24    25    26    67	 9 ;     CG2R61     CG2R61     CG2R61      HGR61
   66    25    26    21	 9 ;      HGR61     CG2R61     CG2R61     CG2R61
   66    25    26    67	 9 ;      HGR61     CG2R61     CG2R61      HGR61
   23    27    28    87	 9 ;     CG2R61      OG301      CG331       HGA3
   23    27    28    88	 9 ;     CG2R61      OG301      CG331       HGA3
   23    27    28    89	 9 ;     CG2R61      OG301      CG331       HGA3
   32    31    36    35	 9 ;     CG2R61     CG2R61     CG2R61     CG2R61
   32    31    36    70	 9 ;     CG2R61     CG2R61     CG2R61      HGR61
    1    31    36    35	 9 ;      CG2O1     CG2R61     CG2R61     CG2R61
    1    31    36    70	 9 ;      CG2O1     CG2R61     CG2R61      HGR61
   36    31    32    33	 9 ;     CG2R61     CG2R61     CG2R61     CG2R61
   36    31    32    68	 9 ;     CG2R61     CG2R61     CG2R61      HGR61
    1    31    32    33	 9 ;      CG2O1     CG2R61     CG2R61     CG2R61
    1    31    32    68	 9 ;      CG2O1     CG2R61     CG2R61      HGR61
   31    32    33    34	 9 ;     CG2R61     CG2R61     CG2R61     CG2R61
   31    32    33    37	 9 ;     CG2R61     CG2R61     CG2R61      CG2O1
   68    32    33    34	 9 ;      HGR61     CG2R61     CG2R61     CG2R61
   68    32    33    37	 9 ;      HGR61     CG2R61     CG2R61      CG2O1
   37    33    34    35	 9 ;      CG2O1     CG2R61     CG2R61     CG2R61
   37    33    34    69	 9 ;      CG2O1     CG2R61     CG2R61      HGR61
   32    33    34    35	 9 ;     CG2R61     CG2R61     CG2R61     CG2R61
   32    33    34    69	 9 ;     CG2R61     CG2R61     CG2R61      HGR61
   34    33    37    38	 9 ;     CG2R61     CG2R61      CG2O1      OG2D1
   34    33    37    39	 9 ;     CG2R61     CG2R61      CG2O1      NG2S0
   32    33    37    38	 9 ;     CG2R61     CG2R61      CG2O1      OG2D1
   32    33    37    39	 9 ;     CG2R61     CG2R61      CG2O1      NG2S0
   33    34    35    46	 9 ;     CG2R61     CG2R61     CG2R61      SG311
   33    34    35    36	 9 ;     CG2R61     CG2R61     CG2R61     CG2R61
   69    34    35    46	 9 ;      HGR61     CG2R61     CG2R61      SG311
   69    34    35    36	 9 ;      HGR61     CG2R61     CG2R61     CG2R61
   34    35    46    47	 9 ;     CG2R61     CG2R61      SG311     CG2R61
   36    35    46    47	 9 ;     CG2R61     CG2R61      SG311     CG2R61
   46    35    36    31	 9 ;      SG311     CG2R61     CG2R61     CG2R61
   46    35    36    70	 9 ;      SG311     CG2R61     CG2R61      HGR61
   34    35    36    31	 9 ;     CG2R61     CG2R61     CG2R61     CG2R61
   34    35    36    70	 9 ;     CG2R61     CG2R61     CG2R61      HGR61
   33    37    39    40	 9 ;     CG2R61      CG2O1      NG2S0      CG321
   33    37    39    43	 9 ;     CG2R61      CG2O1      NG2S0      CG321
   38    37    39    40	 9 ;      OG2D1      CG2O1      NG2S0      CG321
   38    37    39    43	 9 ;      OG2D1      CG2O1      NG2S0      CG321
   37    39    40    41	 9 ;      CG2O1      NG2S0      CG321      CG321
   37    39    40    71	 9 ;      CG2O1      NG2S0      CG321       HGA2
   37    39    40    72	 9 ;      CG2O1      NG2S0      CG321       HGA2
   43    39    40    41	 9 ;      CG321      NG2S0      CG321      CG321
   43    39    40    71	 9 ;      CG321      NG2S0      CG321       HGA2
   43    39    40    72	 9 ;      CG321      NG2S0      CG321       HGA2
   37    39    43    44	 9 ;      CG2O1      NG2S0      CG321      CG321
   37    39    43    75	 9 ;      CG2O1      NG2S0      CG321       HGA2
   37    39    43    76	 9 ;      CG2O1      NG2S0      CG321       HGA2
   40    39    43    44	 9 ;      CG321      NG2S0      CG321      CG321
   40    39    43    75	 9 ;      CG321      NG2S0      CG321       HGA2
   40    39    43    76	 9 ;      CG321      NG2S0      CG321       HGA2
   39    40    41    42	 9 ;      NG2S0      CG321      CG321      CG331
   39    40    41    73	 9 ;      NG2S0      CG321      CG321       HGA2
   39    40    41    74	 9 ;      NG2S0      CG321      CG321       HGA2
   71    40    41    42	 9 ;       HGA2      CG321      CG321      CG331
   71    40    41    73	 9 ;       HGA2      CG321      CG321       HGA2
   71    40    41    74	 9 ;       HGA2      CG321      CG321       HGA2
   72    40    41    42	 9 ;       HGA2      CG321      CG321      CG331
   72    40    41    73	 9 ;       HGA2      CG321      CG321       HGA2
   72    40    41    74	 9 ;       HGA2      CG321      CG321       HGA2
   40    41    42    84	 9 ;      CG321      CG321      CG331       HGA3
   40    41    42    85	 9 ;      CG321      CG321      CG331       HGA3
   40    41    42    86	 9 ;      CG321      CG321      CG331       HGA3
   73    41    42    84	 9 ;       HGA2      CG321      CG331       HGA3
   73    41    42    85	 9 ;       HGA2      CG321      CG331       HGA3
   73    41    42    86	 9 ;       HGA2      CG321      CG331       HGA3
   74    41    42    84	 9 ;       HGA2      CG321      CG331       HGA3
   74    41    42    85	 9 ;       HGA2      CG321      CG331       HGA3
   74    41    42    86	 9 ;       HGA2      CG321      CG331       HGA3
   39    43    44    45	 9 ;      NG2S0      CG321      CG321      CG331
   39    43    44    77	 9 ;      NG2S0      CG321      CG321       HGA2
   39    43    44    78	 9 ;      NG2S0      CG321      CG321       HGA2
   75    43    44    45	 9 ;       HGA2      CG321      CG321      CG331
   75    43    44    77	 9 ;       HGA2      CG321      CG321       HGA2
   75    43    44    78	 9 ;       HGA2      CG321      CG321       HGA2
   76    43    44    45	 9 ;       HGA2      CG321      CG321      CG331
   76    43    44    77	 9 ;       HGA2      CG321      CG321       HGA2
   76    43    44    78	 9 ;       HGA2      CG321      CG321       HGA2
   43    44    45    90	 9 ;      CG321      CG321      CG331       HGA3
   43    44    45    91	 9 ;      CG321      CG321      CG331       HGA3
   43    44    45    92	 9 ;      CG321      CG321      CG331       HGA3
   77    44    45    90	 9 ;       HGA2      CG321      CG331       HGA3
   77    44    45    91	 9 ;       HGA2      CG321      CG331       HGA3
   77    44    45    92	 9 ;       HGA2      CG321      CG331       HGA3
   78    44    45    90	 9 ;       HGA2      CG321      CG331       HGA3
   78    44    45    91	 9 ;       HGA2      CG321      CG331       HGA3
   78    44    45    92	 9 ;       HGA2      CG321      CG331       HGA3
   35    46    47    48	 9 ;     CG2R61      SG311     CG2R61     CG2R61
   35    46    47    52	 9 ;     CG2R61      SG311     CG2R61     CG2R61
   46    47    48    49	 9 ;      SG311     CG2R61     CG2R61     CG2R61
   46    47    48    79	 9 ;      SG311     CG2R61     CG2R61      HGR61
   52    47    48    49	 9 ;     CG2R61     CG2R61     CG2R61     CG2R61
   52    47    48    79	 9 ;     CG2R61     CG2R61     CG2R61      HGR61
   48    47    52    51	 9 ;     CG2R61     CG2R61     CG2R61     CG2R61
   48    47    52    83	 9 ;     CG2R61     CG2R61     CG2R61      HGR61
   46    47    52    51	 9 ;      SG311     CG2R61     CG2R61     CG2R61
   46    47    52    83	 9 ;      SG311     CG2R61     CG2R61      HGR61
   47    48    49    50	 9 ;     CG2R61     CG2R61     CG2R61     CG2R61
   47    48    49    80	 9 ;     CG2R61     CG2R61     CG2R61      HGR61
   79    48    49    50	 9 ;      HGR61     CG2R61     CG2R61     CG2R61
   79    48    49    80	 9 ;      HGR61     CG2R61     CG2R61      HGR61
   48    49    50    51	 9 ;     CG2R61     CG2R61     CG2R61     CG2R61
   48    49    50    81	 9 ;     CG2R61     CG2R61     CG2R61      HGR61
   80    49    50    51	 9 ;      HGR61     CG2R61     CG2R61     CG2R61
   80    49    50    81	 9 ;      HGR61     CG2R61     CG2R61      HGR61
   49    50    51    52	 9 ;     CG2R61     CG2R61     CG2R61     CG2R61
   49    50    51    82	 9 ;     CG2R61     CG2R61     CG2R61      HGR61
   81    50    51    52	 9 ;      HGR61     CG2R61     CG2R61     CG2R61
   81    50    51    82	 9 ;      HGR61     CG2R61     CG2R61      HGR61
   50    51    52    47	 9 ;     CG2R61     CG2R61     CG2R61     CG2R61
   50    51    52    83	 9 ;     CG2R61     CG2R61     CG2R61      HGR61
   82    51    52    47	 9 ;      HGR61     CG2R61     CG2R61     CG2R61
   82    51    52    83	 9 ;      HGR61     CG2R61     CG2R61      HGR61

[ dihedrals ]
;	ai	  aj	ak	  al funct			  c0			c1			  c2			c3
    1    31     3     2	 2
   37    33    39    38	 2

