Good ROcking Metal Altar for Chronical Sinners
   92
    1LIG     C1    1  -1.650   0.420  -1.570
    1LIG     O1    2  -1.742   0.457  -1.642
    1LIG     N1    3  -1.643   0.454  -1.436
    1LIG     H1    4  -1.554   0.436  -1.391
    1LIG     C2    5  -1.725   0.565  -1.382
    1LIG     C3    6  -1.632   0.678  -1.333
    1LIG     C4    7  -1.572   0.762  -1.443
    1LIG     C5    8  -1.635   0.880  -1.485
    1LIG     C6    9  -1.571   0.965  -1.575
    1LIG     F1   10  -1.631   1.080  -1.610
    1LIG     C7   11  -1.446   0.934  -1.628
    1LIG     C8   12  -1.386   0.816  -1.589
    1LIG     F2   13  -1.265   0.784  -1.638
    1LIG     C9   14  -1.447   0.730  -1.497
    1LIG    C10   15  -1.823   0.516  -1.271
    1LIG    C11   16  -1.922   0.407  -1.317
    1LIG     N2   17  -2.064   0.454  -1.300
    1LIG     H2   18  -2.080   0.541  -1.351
    1LIG     H3   19  -2.127   0.384  -1.343
    1LIG    C12   20  -2.109   0.472  -1.159
    1LIG    C13   21  -2.172   0.347  -1.104
    1LIG    C14   22  -2.095   0.259  -1.025
    1LIG    C15   23  -2.154   0.144  -0.972
    1LIG    C16   24  -2.288   0.117  -0.997
    1LIG    C17   25  -2.365   0.203  -1.076
    1LIG    C18   26  -2.306   0.318  -1.130
    1LIG     O2   27  -2.089   0.052  -0.894
    1LIG    C19   28  -2.007   0.101  -0.789
    1LIG     O3   29  -1.761   0.466  -1.152
    1LIG     H4   30  -1.783   0.372  -1.136
    1LIG    C20   31  -1.534   0.344  -1.628
    1LIG    C21   32  -1.501   0.224  -1.563
    1LIG    C22   33  -1.405   0.135  -1.611
    1LIG    C23   34  -1.327   0.176  -1.721
    1LIG    C24   35  -1.355   0.298  -1.786
    1LIG    C25   36  -1.461   0.380  -1.741
    1LIG    C26   37  -1.381   0.003  -1.543
    1LIG     O4   38  -1.440  -0.093  -1.591
    1LIG     N3   39  -1.294  -0.006  -1.431
    1LIG    C27   40  -1.259  -0.139  -1.380
    1LIG    C28   41  -1.130  -0.196  -1.441
    1LIG    C29   42  -1.159  -0.287  -1.559
    1LIG    C30   43  -1.229   0.109  -1.367
    1LIG    C31   44  -1.113   0.176  -1.439
    1LIG    C32   45  -1.124   0.327  -1.426
    1LIG      S   46  -1.271   0.342  -1.937
    1LIG    C33   47  -1.116   0.414  -1.886
    1LIG    C34   48  -1.002   0.421  -1.967
    1LIG    C35   49  -0.889   0.492  -1.924
    1LIG    C36   50  -0.888   0.557  -1.801
    1LIG    C37   51  -1.000   0.549  -1.718
    1LIG    C38   52  -1.113   0.477  -1.760
    1LIG     HC   53  -1.785   0.605  -1.464
    1LIG    HC2   54  -1.689   0.743  -1.267
    1LIG    HC3   55  -1.551   0.633  -1.276
    1LIG    HC1   56  -1.733   0.905  -1.448
    1LIG    HC4   57  -1.398   1.000  -1.699
    1LIG    HC5   58  -1.398   0.638  -1.468
    1LIG    HC6   59  -1.883   0.602  -1.242
    1LIG    HC7   60  -1.904   0.384  -1.423
    1LIG    HC8   61  -1.906   0.317  -1.258
    1LIG    HC9   62  -2.023   0.498  -1.097
    1LIG   HC10   63  -2.182   0.553  -1.155
    1LIG   HC11   64  -1.992   0.281  -1.006
    1LIG   HC12   65  -2.333   0.028  -0.955
    1LIG   HC13   66  -2.468   0.181  -1.095
    1LIG   HC14   67  -2.365   0.384  -1.191
    1LIG   HC15   68  -1.553   0.200  -1.471
    1LIG   HC16   69  -1.246   0.114  -1.756
    1LIG   HC17   70  -1.486   0.471  -1.794
    1LIG   HC18   71  -1.245  -0.132  -1.272
    1LIG   HC19   72  -1.341  -0.208  -1.401
    1LIG   HC20   73  -1.077  -0.252  -1.365
    1LIG   HC21   74  -1.067  -0.113  -1.475
    1LIG   HC22   75  -1.192   0.075  -1.270
    1LIG   HC23   76  -1.306   0.185  -1.349
    1LIG   HC24   77  -1.019   0.143  -1.395
    1LIG   HC25   78  -1.115   0.149  -1.544
    1LIG   HC26   79  -1.002   0.372  -2.063
    1LIG   HC27   80  -0.802   0.496  -1.988
    1LIG   HC28   81  -0.802   0.613  -1.770
    1LIG   HC29   82  -1.000   0.598  -1.622
    1LIG   HC30   83  -1.199   0.470  -1.695
    1LIG   HC31   84  -1.065  -0.325  -1.600
    1LIG   HC32   85  -1.220  -0.371  -1.526
    1LIG   HC33   86  -1.212  -0.231  -1.636
    1LIG   HC34   87  -1.963   0.017  -0.735
    1LIG   HC35   88  -2.068   0.160  -0.720
    1LIG   HC36   89  -1.929   0.164  -0.831
    1LIG   HC37   90  -1.040   0.374  -1.478
    1LIG   HC38   91  -1.217   0.361  -1.470
    1LIG   HC39   92  -1.121   0.354  -1.320
   0.00000   0.00000   0.00000
