Glycine aRginine prOline Methionine Alanine Cystine Serine
   65
    1LIG     C1    1  -1.228   0.480  -1.396
    1LIG     N1    2  -1.128   0.514  -1.502
    1LIG     H1    3  -1.140   0.442  -1.575
    1LIG     H2    4  -1.032   0.501  -1.468
    1LIG     C2    5  -1.141   0.647  -1.568
    1LIG     C3    6  -1.060   0.758  -1.502
    1LIG     C4    7  -1.012   0.701  -1.631
    1LIG     C5    8  -1.268   0.680  -1.653
    1LIG     C6    9  -1.314   0.592  -1.749
    1LIG      S   10  -1.470   0.636  -1.799
    1LIG     C7   11  -1.457   0.784  -1.709
    1LIG     N2   12  -1.349   0.793  -1.633
    1LIG     HN   13  -1.327   0.870  -1.569
    1LIG     C8   14  -1.574   0.878  -1.728
    1LIG     C9   15  -1.699   0.864  -1.640
    1LIG    C10   16  -1.682   0.761  -1.528
    1LIG    C11   17  -1.722   1.003  -1.574
    1LIG    C12   18  -1.822   0.831  -1.725
    1LIG    C13   19  -1.209   0.332  -1.353
    1LIG     O1   20  -1.259   0.329  -1.217
    1LIG     H3   21  -1.328   0.260  -1.211
    1LIG    C14   22  -1.280   0.221  -1.438
    1LIG    C15   23  -1.322   0.266  -1.580
    1LIG    C16   24  -1.471   0.291  -1.595
    1LIG    C17   25  -1.543   0.356  -1.494
    1LIG    C18   26  -1.681   0.377  -1.507
    1LIG     F1   27  -1.747   0.440  -1.408
    1LIG    C19   28  -1.749   0.335  -1.620
    1LIG    C20   29  -1.678   0.272  -1.720
    1LIG     F2   30  -1.742   0.231  -1.831
    1LIG    C21   31  -1.540   0.250  -1.709
    1LIG     N3   32  -1.190   0.103  -1.450
    1LIG    C22   33  -1.177   0.009  -1.350
    1LIG     O2   34  -1.233   0.023  -1.241
    1LIG    C23   35  -1.081  -0.102  -1.380
    1LIG     H4   36  -1.138   0.088  -1.536
    1LIG    HC2   37  -1.213   0.545  -1.310
    1LIG    HC3   38  -1.329   0.494  -1.435
    1LIG    HC4   39  -1.099   0.859  -1.500
    1LIG    HC5   40  -1.003   0.728  -1.414
    1LIG    HC6   41  -0.923   0.638  -1.633
    1LIG    HC7   42  -1.027   0.764  -1.719
    1LIG     HC   43  -1.259   0.508  -1.788
    1LIG    HC8   44  -1.607   0.867  -1.832
    1LIG    HC9   45  -1.536   0.979  -1.717
    1LIG    HC1   46  -1.666   0.662  -1.572
    1LIG   HC10   47  -1.596   0.788  -1.467
    1LIG   HC11   48  -1.772   0.759  -1.467
    1LIG   HC12   49  -1.811   0.998  -1.510
    1LIG   HC13   50  -1.737   1.078  -1.651
    1LIG   HC14   51  -1.635   1.029  -1.513
    1LIG   HC15   52  -1.809   0.734  -1.773
    1LIG   HC16   53  -1.836   0.907  -1.802
    1LIG   HC17   54  -1.911   0.827  -1.662
    1LIG   HC18   55  -1.102   0.310  -1.350
    1LIG   HC19   56  -1.370   0.191  -1.385
    1LIG   HC20   57  -1.293   0.188  -1.651
    1LIG   HC21   58  -1.268   0.357  -1.606
    1LIG   HC22   59  -1.492   0.390  -1.405
    1LIG   HC23   60  -1.856   0.351  -1.628
    1LIG   HC24   61  -1.487   0.202  -1.790
    1LIG   HC25   62  -1.077  -0.171  -1.296
    1LIG   HC26   63  -1.113  -0.156  -1.469
    1LIG   HC27   64  -0.981  -0.060  -1.397
    1LIG    H34   65  -1.404   0.831  -1.792
   0.00000   0.00000   0.00000
