; Created by cgenff_charmm2gmx.py

[ moleculetype ]
; Name			   nrexcl
LIG				 3

[ atoms ]
;	 nr		  type	resnr residue  atom   cgnr	   charge		mass  typeB    chargeB		massB
; residue	 1 LIG rtp LIG q	qsum
     1     CG3C50      1    LIG     C1      1      1.875     12.011   ;
     2      NG3P2      1    LIG     N1      2     -0.573     14.007   ;
     3       HGP2      1    LIG    HN3      3      0.364      1.008   ;
     4     CG3C53      1    LIG     C2      4      0.784     12.011   ;
     5     NG2R53      1    LIG     N2      5     -0.209     14.007   ;
     6      CG331      1    LIG     C3      6     -0.169     12.011   ;
     7     CG2R53      1    LIG     C4      7     -0.361     12.011   ;
     8      OG2D1      1    LIG      O      8     -0.296     15.999   ;
     9     CG2R61      1    LIG     C5      9      0.008     12.011   ;
    10     CG2R61      1    LIG     C6     10     -0.165     12.011   ;
    11     CG2R61      1    LIG     C7     11      0.037     12.011   ;
    12     CG2R66      1    LIG     C8     12      0.006     12.011   ;
    13       FGR1      1    LIG     F1     13     -0.169     18.998   ;
    14     CG2R61      1    LIG     C9     14     -0.075     12.011   ;
    15     CG2R61      1    LIG    C10     15     -0.167     12.011   ;
    16     CG2DC1      1    LIG    C11     16     -0.008     12.011   ;
    17     CG2DC2      1    LIG    C12     17     -0.246     12.011   ;
    18     CG2DC2      1    LIG    C13     18     -0.181     12.011   ;
    19      CG321      1    LIG    C14     19     -0.037     12.011   ;
    20      NG311      1    LIG     N3     20     -0.466     14.007   ;
    21     CG2D1O      1    LIG    C15     21      0.321     12.011   ;
    22     HGPAM1      1    LIG    HN4     22      0.324      1.008   ;
    23       FGA1      1    LIG     F2     23     -0.107     18.998   ;
    24     CG2R57      1    LIG    C16     24     -0.650     12.011   ;
    25     CG2R51      1    LIG    C17     25     -0.205     12.011   ;
    26     SG2R50      1    LIG      S     26      0.018     32.060   ;
    27     CG2R51      1    LIG    C18     27     -0.390     12.011   ;
    28     CG2R51      1    LIG    C19     28     -0.077     12.011   ;
    29      NG3P3      1    LIG     N4     29     -0.267     14.007   ;
    30       HGP2      1    LIG     H1     30      0.301      1.008   ;
    31       HGP2      1    LIG     H2     31      0.301      1.008   ;
    32       HGP2      1    LIG    HN2     32      0.364      1.008   ;
    33       HGA1      1    LIG     HC     33      0.073      1.008   ;
    34       HGA3      1    LIG    HC1     34      0.090      1.008   ;
    35       HGA3      1    LIG    HC2     35      0.090      1.008   ;
    36       HGA3      1    LIG    HC3     36      0.090      1.008   ;
    37      HGR61      1    LIG    HC4     37      0.116      1.008   ;
    38      HGR62      1    LIG    HC5     38      0.179      1.008   ;
    39      HGR61      1    LIG    HC6     39      0.116      1.008   ;
    40       HGA4      1    LIG    HC7     40      0.153      1.008   ;
    41       HGA4      1    LIG    HC8     41      0.150      1.008   ;
    42       HGA2      1    LIG    HC9     42      0.090      1.008   ;
    43      HGR52      1    LIG   HC10     43      0.191      1.008   ;
    44      HGR52      1    LIG   HC11     44      0.194      1.008   ;
    45      HGR51      1    LIG   HC12     45      0.192      1.008   ;
    46       HGP2      1    LIG    HN1     46      0.301      1.008   ;
    47       HGA2      1    LIG    H20     47      0.090      1.008   ;

[ bonds ]
;	ai	  aj funct			  c0			c1			  c2			c3
    1    24	 1 ;      CG3C50     CG2R57
    1     7	 1 ;      CG3C50     CG2R53
    1     9	 1 ;      CG3C50     CG2R61
    1     2	 1 ;      CG3C50      NG3P2
    2     4	 1 ;       NG3P2     CG3C53
    2     3	 1 ;       NG3P2       HGP2
    2    32	 1 ;       NG3P2       HGP2
    4     5	 1 ;      CG3C53     NG2R53
    4    29	 1 ;      CG3C53      NG3P3
    4    33	 1 ;      CG3C53       HGA1
    5     6	 1 ;      NG2R53      CG331
    5     7	 1 ;      NG2R53     CG2R53
    6    34	 1 ;       CG331       HGA3
    6    35	 1 ;       CG331       HGA3
    6    36	 1 ;       CG331       HGA3
    7     8	 1 ;      CG2R53      OG2D1
    9    15	 1 ;      CG2R61     CG2R61
    9    10	 1 ;      CG2R61     CG2R61
   10    11	 1 ;      CG2R61     CG2R61
   10    37	 1 ;      CG2R61      HGR61
   11    12	 1 ;      CG2R61     CG2R66
   11    16	 1 ;      CG2R61     CG2DC1
   12    14	 1 ;      CG2R66     CG2R61
   12    13	 1 ;      CG2R66       FGR1
   14    15	 1 ;      CG2R61     CG2R61
   14    38	 1 ;      CG2R61      HGR62
   15    39	 1 ;      CG2R61      HGR61
   16    17	 1 ;      CG2DC1     CG2DC2
   16    21	 1 ;      CG2DC1     CG2D1O
   17    18	 1 ;      CG2DC2     CG2DC2
   17    40	 1 ;      CG2DC2       HGA4
   18    19	 1 ;      CG2DC2      CG321
   18    41	 1 ;      CG2DC2       HGA4
   19    20	 1 ;       CG321      NG311
   19    42	 1 ;       CG321       HGA2
   19    47	 1 ;       CG321       HGA2
   20    21	 1 ;       NG311     CG2D1O
   20    22	 1 ;       NG311     HGPAM1
   21    23	 1 ;      CG2D1O       FGA1
   24    25	 1 ;      CG2R57     CG2R51
   24    28	 1 ;      CG2R57     CG2R51
   25    26	 1 ;      CG2R51     SG2R50
   25    43	 1 ;      CG2R51      HGR52
   26    27	 1 ;      SG2R50     CG2R51
   27    28	 1 ;      CG2R51     CG2R51
   27    44	 1 ;      CG2R51      HGR52
   28    45	 1 ;      CG2R51      HGR51
   29    31	 1 ;       NG3P3       HGP2
   29    30	 1 ;       NG3P3       HGP2
   29    46	 1 ;       NG3P3       HGP2

[ pairs ]
;	ai	  aj funct			  c0			c1			  c2			c3
    1    29	 1
    1    33	 1
    1     6	 1
    1    14	 1
    1    39	 1
    1    11	 1
    1    37	 1
    1    26	 1
    1    43	 1
    1    27	 1
    1    45	 1
    2    25	 1
    2    28	 1
    2     8	 1
    2    15	 1
    2    10	 1
    2     6	 1
    2    31	 1
    2    30	 1
    2    46	 1
    3    24	 1
    3     7	 1
    3     9	 1
    3     5	 1
    3    29	 1
    3    33	 1
    4    24	 1
    4     9	 1
    4    34	 1
    4    35	 1
    4    36	 1
    4     8	 1
    5    24	 1
    5     9	 1
    5    32	 1
    5    31	 1
    5    30	 1
    5    46	 1
    6    29	 1
    6    33	 1
    6     8	 1
    7    25	 1
    7    28	 1
    7    15	 1
    7    10	 1
    7    32	 1
    7    29	 1
    7    33	 1
    7    34	 1
    7    35	 1
    7    36	 1
    8    24	 1
    8     9	 1
    9    25	 1
    9    28	 1
    9    32	 1
    9    12	 1
    9    16	 1
    9    38	 1
   10    24	 1
   10    14	 1
   10    39	 1
   10    13	 1
   10    17	 1
   10    21	 1
   11    15	 1
   11    38	 1
   11    18	 1
   11    40	 1
   11    23	 1
   11    20	 1
   12    37	 1
   12    17	 1
   12    21	 1
   12    39	 1
   13    16	 1
   13    15	 1
   13    38	 1
   14    16	 1
   15    24	 1
   15    37	 1
   16    37	 1
   16    19	 1
   16    41	 1
   16    22	 1
   17    23	 1
   17    20	 1
   17    42	 1
   17    47	 1
   18    21	 1
   18    22	 1
   19    40	 1
   19    23	 1
   20    41	 1
   21    40	 1
   21    42	 1
   21    47	 1
   22    42	 1
   22    47	 1
   22    23	 1
   24    32	 1
   24    44	 1
   25    45	 1
   25    44	 1
   26    45	 1
   27    43	 1
   28    43	 1
   29    32	 1
   30    33	 1
   31    33	 1
   32    33	 1
   33    46	 1
   38    39	 1
   40    41	 1
   41    42	 1
   41    47	 1
   44    45	 1

[ angles ]
;	ai	  aj	ak funct			c0			  c1			c2			  c3
   24     1     7	5 ;     CG2R57     CG3C50     CG2R53
   24     1     9	5 ;     CG2R57     CG3C50     CG2R61
   24     1     2	5 ;     CG2R57     CG3C50      NG3P2
    7     1     9	5 ;     CG2R53     CG3C50     CG2R61
    7     1     2	5 ;     CG2R53     CG3C50      NG3P2
    9     1     2	5 ;     CG2R61     CG3C50      NG3P2
    1     2     4	5 ;     CG3C50      NG3P2     CG3C53
    1     2     3	5 ;     CG3C50      NG3P2       HGP2
    1     2    32	5 ;     CG3C50      NG3P2       HGP2
    4     2     3	5 ;     CG3C53      NG3P2       HGP2
    4     2    32	5 ;     CG3C53      NG3P2       HGP2
    3     2    32	5 ;       HGP2      NG3P2       HGP2
    5     4     2	5 ;     NG2R53     CG3C53      NG3P2
    5     4    29	5 ;     NG2R53     CG3C53      NG3P3
    5     4    33	5 ;     NG2R53     CG3C53       HGA1
    2     4    29	5 ;      NG3P2     CG3C53      NG3P3
    2     4    33	5 ;      NG3P2     CG3C53       HGA1
   29     4    33	5 ;      NG3P3     CG3C53       HGA1
    6     5     7	5 ;      CG331     NG2R53     CG2R53
    6     5     4	5 ;      CG331     NG2R53     CG3C53
    7     5     4	5 ;     CG2R53     NG2R53     CG3C53
    5     6    34	5 ;     NG2R53      CG331       HGA3
    5     6    35	5 ;     NG2R53      CG331       HGA3
    5     6    36	5 ;     NG2R53      CG331       HGA3
   34     6    35	5 ;       HGA3      CG331       HGA3
   34     6    36	5 ;       HGA3      CG331       HGA3
   35     6    36	5 ;       HGA3      CG331       HGA3
    8     7     5	5 ;      OG2D1     CG2R53     NG2R53
    8     7     1	5 ;      OG2D1     CG2R53     CG3C50
    5     7     1	5 ;     NG2R53     CG2R53     CG3C50
   15     9     1	5 ;     CG2R61     CG2R61     CG3C50
   15     9    10	5 ;     CG2R61     CG2R61     CG2R61
    1     9    10	5 ;     CG3C50     CG2R61     CG2R61
    9    10    11	5 ;     CG2R61     CG2R61     CG2R61
    9    10    37	5 ;     CG2R61     CG2R61      HGR61
   11    10    37	5 ;     CG2R61     CG2R61      HGR61
   12    11    10	5 ;     CG2R66     CG2R61     CG2R61
   12    11    16	5 ;     CG2R66     CG2R61     CG2DC1
   10    11    16	5 ;     CG2R61     CG2R61     CG2DC1
   14    12    13	5 ;     CG2R61     CG2R66       FGR1
   14    12    11	5 ;     CG2R61     CG2R66     CG2R61
   13    12    11	5 ;       FGR1     CG2R66     CG2R61
   15    14    12	5 ;     CG2R61     CG2R61     CG2R66
   15    14    38	5 ;     CG2R61     CG2R61      HGR62
   12    14    38	5 ;     CG2R66     CG2R61      HGR62
   14    15     9	5 ;     CG2R61     CG2R61     CG2R61
   14    15    39	5 ;     CG2R61     CG2R61      HGR61
    9    15    39	5 ;     CG2R61     CG2R61      HGR61
   11    16    17	5 ;     CG2R61     CG2DC1     CG2DC2
   11    16    21	5 ;     CG2R61     CG2DC1     CG2D1O
   17    16    21	5 ;     CG2DC2     CG2DC1     CG2D1O
   16    17    18	5 ;     CG2DC1     CG2DC2     CG2DC2
   16    17    40	5 ;     CG2DC1     CG2DC2       HGA4
   18    17    40	5 ;     CG2DC2     CG2DC2       HGA4
   17    18    19	5 ;     CG2DC2     CG2DC2      CG321
   17    18    41	5 ;     CG2DC2     CG2DC2       HGA4
   19    18    41	5 ;      CG321     CG2DC2       HGA4
   18    19    20	5 ;     CG2DC2      CG321      NG311
   18    19    42	5 ;     CG2DC2      CG321       HGA2
   18    19    47	5 ;     CG2DC2      CG321       HGA2
   20    19    42	5 ;      NG311      CG321       HGA2
   20    19    47	5 ;      NG311      CG321       HGA2
   42    19    47	5 ;       HGA2      CG321       HGA2
   21    20    19	5 ;     CG2D1O      NG311      CG321
   21    20    22	5 ;     CG2D1O      NG311     HGPAM1
   19    20    22	5 ;      CG321      NG311     HGPAM1
   16    21    23	5 ;     CG2DC1     CG2D1O       FGA1
   16    21    20	5 ;     CG2DC1     CG2D1O      NG311
   23    21    20	5 ;       FGA1     CG2D1O      NG311
   25    24    28	5 ;     CG2R51     CG2R57     CG2R51
   25    24     1	5 ;     CG2R51     CG2R57     CG3C50
   28    24     1	5 ;     CG2R51     CG2R57     CG3C50
   26    25    24	5 ;     SG2R50     CG2R51     CG2R57
   26    25    43	5 ;     SG2R50     CG2R51      HGR52
   24    25    43	5 ;     CG2R57     CG2R51      HGR52
   25    26    27	5 ;     CG2R51     SG2R50     CG2R51
   26    27    28	5 ;     SG2R50     CG2R51     CG2R51
   26    27    44	5 ;     SG2R50     CG2R51      HGR52
   28    27    44	5 ;     CG2R51     CG2R51      HGR52
   27    28    24	5 ;     CG2R51     CG2R51     CG2R57
   27    28    45	5 ;     CG2R51     CG2R51      HGR51
   24    28    45	5 ;     CG2R57     CG2R51      HGR51
    4    29    31	5 ;     CG3C53      NG3P3       HGP2
    4    29    30	5 ;     CG3C53      NG3P3       HGP2
    4    29    46	5 ;     CG3C53      NG3P3       HGP2
   31    29    30	5 ;       HGP2      NG3P3       HGP2
   31    29    46	5 ;       HGP2      NG3P3       HGP2
   30    29    46	5 ;       HGP2      NG3P3       HGP2

[ dihedrals ]
;	ai	  aj	ak	  al funct			  c0			c1			  c2			c3			  c4			c5
    7     1    24    25	 9 ;     CG2R53     CG3C50     CG2R57     CG2R51
    7     1    24    28	 9 ;     CG2R53     CG3C50     CG2R57     CG2R51
    9     1    24    25	 9 ;     CG2R61     CG3C50     CG2R57     CG2R51
    9     1    24    28	 9 ;     CG2R61     CG3C50     CG2R57     CG2R51
    2     1    24    25	 9 ;      NG3P2     CG3C50     CG2R57     CG2R51
    2     1    24    28	 9 ;      NG3P2     CG3C50     CG2R57     CG2R51
   24     1     7     8	 9 ;     CG2R57     CG3C50     CG2R53      OG2D1
   24     1     7     5	 9 ;     CG2R57     CG3C50     CG2R53     NG2R53
    9     1     7     8	 9 ;     CG2R61     CG3C50     CG2R53      OG2D1
    9     1     7     5	 9 ;     CG2R61     CG3C50     CG2R53     NG2R53
    2     1     7     8	 9 ;      NG3P2     CG3C50     CG2R53      OG2D1
    2     1     7     5	 9 ;      NG3P2     CG3C50     CG2R53     NG2R53
   24     1     9    15	 9 ;     CG2R57     CG3C50     CG2R61     CG2R61
   24     1     9    10	 9 ;     CG2R57     CG3C50     CG2R61     CG2R61
    7     1     9    15	 9 ;     CG2R53     CG3C50     CG2R61     CG2R61
    7     1     9    10	 9 ;     CG2R53     CG3C50     CG2R61     CG2R61
    2     1     9    15	 9 ;      NG3P2     CG3C50     CG2R61     CG2R61
    2     1     9    10	 9 ;      NG3P2     CG3C50     CG2R61     CG2R61
   24     1     2     4	 9 ;     CG2R57     CG3C50      NG3P2     CG3C53
   24     1     2     3	 9 ;     CG2R57     CG3C50      NG3P2       HGP2
   24     1     2    32	 9 ;     CG2R57     CG3C50      NG3P2       HGP2
    7     1     2     4	 9 ;     CG2R53     CG3C50      NG3P2     CG3C53
    7     1     2     3	 9 ;     CG2R53     CG3C50      NG3P2       HGP2
    7     1     2    32	 9 ;     CG2R53     CG3C50      NG3P2       HGP2
    9     1     2     4	 9 ;     CG2R61     CG3C50      NG3P2     CG3C53
    9     1     2     3	 9 ;     CG2R61     CG3C50      NG3P2       HGP2
    9     1     2    32	 9 ;     CG2R61     CG3C50      NG3P2       HGP2
    1     2     4     5	 9 ;     CG3C50      NG3P2     CG3C53     NG2R53
    1     2     4    29	 9 ;     CG3C50      NG3P2     CG3C53      NG3P3
    1     2     4    33	 9 ;     CG3C50      NG3P2     CG3C53       HGA1
    3     2     4     5	 9 ;       HGP2      NG3P2     CG3C53     NG2R53
    3     2     4    29	 9 ;       HGP2      NG3P2     CG3C53      NG3P3
    3     2     4    33	 9 ;       HGP2      NG3P2     CG3C53       HGA1
   32     2     4     5	 9 ;       HGP2      NG3P2     CG3C53     NG2R53
   32     2     4    29	 9 ;       HGP2      NG3P2     CG3C53      NG3P3
   32     2     4    33	 9 ;       HGP2      NG3P2     CG3C53       HGA1
    2     4     5     6	 9 ;      NG3P2     CG3C53     NG2R53      CG331
    2     4     5     7	 9 ;      NG3P2     CG3C53     NG2R53     CG2R53
   29     4     5     6	 9 ;      NG3P3     CG3C53     NG2R53      CG331
   29     4     5     7	 9 ;      NG3P3     CG3C53     NG2R53     CG2R53
   33     4     5     6	 9 ;       HGA1     CG3C53     NG2R53      CG331
   33     4     5     7	 9 ;       HGA1     CG3C53     NG2R53     CG2R53
    5     4    29    31	 9 ;     NG2R53     CG3C53      NG3P3       HGP2
    5     4    29    30	 9 ;     NG2R53     CG3C53      NG3P3       HGP2
    5     4    29    46	 9 ;     NG2R53     CG3C53      NG3P3       HGP2
    2     4    29    31	 9 ;      NG3P2     CG3C53      NG3P3       HGP2
    2     4    29    30	 9 ;      NG3P2     CG3C53      NG3P3       HGP2
    2     4    29    46	 9 ;      NG3P2     CG3C53      NG3P3       HGP2
   33     4    29    31	 9 ;       HGA1     CG3C53      NG3P3       HGP2
   33     4    29    30	 9 ;       HGA1     CG3C53      NG3P3       HGP2
   33     4    29    46	 9 ;       HGA1     CG3C53      NG3P3       HGP2
    7     5     6    34	 9 ;     CG2R53     NG2R53      CG331       HGA3
    7     5     6    35	 9 ;     CG2R53     NG2R53      CG331       HGA3
    7     5     6    36	 9 ;     CG2R53     NG2R53      CG331       HGA3
    4     5     6    34	 9 ;     CG3C53     NG2R53      CG331       HGA3
    4     5     6    35	 9 ;     CG3C53     NG2R53      CG331       HGA3
    4     5     6    36	 9 ;     CG3C53     NG2R53      CG331       HGA3
    6     5     7     8	 9 ;      CG331     NG2R53     CG2R53      OG2D1
    6     5     7     1	 9 ;      CG331     NG2R53     CG2R53     CG3C50
    4     5     7     8	 9 ;     CG3C53     NG2R53     CG2R53      OG2D1
    4     5     7     1	 9 ;     CG3C53     NG2R53     CG2R53     CG3C50
    1     9    15    14	 9 ;     CG3C50     CG2R61     CG2R61     CG2R61
    1     9    15    39	 9 ;     CG3C50     CG2R61     CG2R61      HGR61
   10     9    15    14	 9 ;     CG2R61     CG2R61     CG2R61     CG2R61
   10     9    15    39	 9 ;     CG2R61     CG2R61     CG2R61      HGR61
   15     9    10    11	 9 ;     CG2R61     CG2R61     CG2R61     CG2R61
   15     9    10    37	 9 ;     CG2R61     CG2R61     CG2R61      HGR61
    1     9    10    11	 9 ;     CG3C50     CG2R61     CG2R61     CG2R61
    1     9    10    37	 9 ;     CG3C50     CG2R61     CG2R61      HGR61
    9    10    11    12	 9 ;     CG2R61     CG2R61     CG2R61     CG2R66
    9    10    11    16	 9 ;     CG2R61     CG2R61     CG2R61     CG2DC1
   37    10    11    12	 9 ;      HGR61     CG2R61     CG2R61     CG2R66
   37    10    11    16	 9 ;      HGR61     CG2R61     CG2R61     CG2DC1
   10    11    12    14	 9 ;     CG2R61     CG2R61     CG2R66     CG2R61
   10    11    12    13	 9 ;     CG2R61     CG2R61     CG2R66       FGR1
   16    11    12    14	 9 ;     CG2DC1     CG2R61     CG2R66     CG2R61
   16    11    12    13	 9 ;     CG2DC1     CG2R61     CG2R66       FGR1
   12    11    16    17	 9 ;     CG2R66     CG2R61     CG2DC1     CG2DC2
   12    11    16    21	 9 ;     CG2R66     CG2R61     CG2DC1     CG2D1O
   10    11    16    17	 9 ;     CG2R61     CG2R61     CG2DC1     CG2DC2
   10    11    16    21	 9 ;     CG2R61     CG2R61     CG2DC1     CG2D1O
   13    12    14    15	 9 ;       FGR1     CG2R66     CG2R61     CG2R61
   13    12    14    38	 9 ;       FGR1     CG2R66     CG2R61      HGR62
   11    12    14    15	 9 ;     CG2R61     CG2R66     CG2R61     CG2R61
   11    12    14    38	 9 ;     CG2R61     CG2R66     CG2R61      HGR62
   12    14    15     9	 9 ;     CG2R66     CG2R61     CG2R61     CG2R61
   12    14    15    39	 9 ;     CG2R66     CG2R61     CG2R61      HGR61
   38    14    15     9	 9 ;      HGR62     CG2R61     CG2R61     CG2R61
   38    14    15    39	 9 ;      HGR62     CG2R61     CG2R61      HGR61
   11    16    17    18	 9 ;     CG2R61     CG2DC1     CG2DC2     CG2DC2
   11    16    17    40	 9 ;     CG2R61     CG2DC1     CG2DC2       HGA4
   21    16    17    18	 9 ;     CG2D1O     CG2DC1     CG2DC2     CG2DC2
   21    16    17    40	 9 ;     CG2D1O     CG2DC1     CG2DC2       HGA4
   11    16    21    23	 9 ;     CG2R61     CG2DC1     CG2D1O       FGA1
   11    16    21    20	 9 ;     CG2R61     CG2DC1     CG2D1O      NG311
   17    16    21    23	 9 ;     CG2DC2     CG2DC1     CG2D1O       FGA1
   17    16    21    20	 9 ;     CG2DC2     CG2DC1     CG2D1O      NG311
   16    17    18    19	 9 ;     CG2DC1     CG2DC2     CG2DC2      CG321
   16    17    18    41	 9 ;     CG2DC1     CG2DC2     CG2DC2       HGA4
   40    17    18    19	 9 ;       HGA4     CG2DC2     CG2DC2      CG321
   40    17    18    41	 9 ;       HGA4     CG2DC2     CG2DC2       HGA4
   17    18    19    20	 9 ;     CG2DC2     CG2DC2      CG321      NG311
   17    18    19    42	 9 ;     CG2DC2     CG2DC2      CG321       HGA2
   17    18    19    47	 9 ;     CG2DC2     CG2DC2      CG321       HGA2
   41    18    19    20	 9 ;       HGA4     CG2DC2      CG321      NG311
   41    18    19    42	 9 ;       HGA4     CG2DC2      CG321       HGA2
   41    18    19    47	 9 ;       HGA4     CG2DC2      CG321       HGA2
   18    19    20    21	 9 ;     CG2DC2      CG321      NG311     CG2D1O
   18    19    20    22	 9 ;     CG2DC2      CG321      NG311     HGPAM1
   42    19    20    21	 9 ;       HGA2      CG321      NG311     CG2D1O
   42    19    20    22	 9 ;       HGA2      CG321      NG311     HGPAM1
   47    19    20    21	 9 ;       HGA2      CG321      NG311     CG2D1O
   47    19    20    22	 9 ;       HGA2      CG321      NG311     HGPAM1
   19    20    21    16	 9 ;      CG321      NG311     CG2D1O     CG2DC1
   19    20    21    23	 9 ;      CG321      NG311     CG2D1O       FGA1
   22    20    21    16	 9 ;     HGPAM1      NG311     CG2D1O     CG2DC1
   22    20    21    23	 9 ;     HGPAM1      NG311     CG2D1O       FGA1
   28    24    25    26	 9 ;     CG2R51     CG2R57     CG2R51     SG2R50
   28    24    25    43	 9 ;     CG2R51     CG2R57     CG2R51      HGR52
    1    24    25    26	 9 ;     CG3C50     CG2R57     CG2R51     SG2R50
    1    24    25    43	 9 ;     CG3C50     CG2R57     CG2R51      HGR52
   25    24    28    27	 9 ;     CG2R51     CG2R57     CG2R51     CG2R51
   25    24    28    45	 9 ;     CG2R51     CG2R57     CG2R51      HGR51
    1    24    28    27	 9 ;     CG3C50     CG2R57     CG2R51     CG2R51
    1    24    28    45	 9 ;     CG3C50     CG2R57     CG2R51      HGR51
   24    25    26    27	 9 ;     CG2R57     CG2R51     SG2R50     CG2R51
   43    25    26    27	 9 ;      HGR52     CG2R51     SG2R50     CG2R51
   25    26    27    28	 9 ;     CG2R51     SG2R50     CG2R51     CG2R51
   25    26    27    44	 9 ;     CG2R51     SG2R50     CG2R51      HGR52
   26    27    28    24	 9 ;     SG2R50     CG2R51     CG2R51     CG2R57
   26    27    28    45	 9 ;     SG2R50     CG2R51     CG2R51      HGR51
   44    27    28    24	 9 ;      HGR52     CG2R51     CG2R51     CG2R57
   44    27    28    45	 9 ;      HGR52     CG2R51     CG2R51      HGR51

[ dihedrals ]
;	ai	  aj	ak	  al funct			  c0			c1			  c2			c3
    7     1     5     8	 2
   21    16    20    23	 2

