Guyana Rwanda Oman Macau Angola Cameroon Senegal
   47
    1LIG     C1    1  -1.366   0.521  -1.376
    1LIG     N1    2  -1.392   0.642  -1.292
    1LIG    HN3    3  -1.416   0.736  -1.324
    1LIG     C2    4  -1.377   0.603  -1.169
    1LIG     N2    5  -1.350   0.473  -1.150
    1LIG     C3    6  -1.306   0.411  -1.027
    1LIG     C4    7  -1.354   0.409  -1.270
    1LIG      O    8  -1.345   0.288  -1.288
    1LIG     C5    9  -1.470   0.505  -1.487
    1LIG     C6   10  -1.599   0.562  -1.470
    1LIG     C7   11  -1.701   0.556  -1.567
    1LIG     C8   12  -1.668   0.489  -1.686
    1LIG     F1   13  -1.758   0.477  -1.785
    1LIG     C9   14  -1.542   0.433  -1.707
    1LIG    C10   15  -1.444   0.441  -1.608
    1LIG    C11   16  -1.834   0.618  -1.545
    1LIG    C12   17  -1.951   0.540  -1.530
    1LIG    C13   18  -2.075   0.599  -1.507
    1LIG    C14   19  -2.081   0.737  -1.502
    1LIG     N3   20  -1.974   0.817  -1.516
    1LIG    C15   21  -1.855   0.756  -1.537
    1LIG    HN4   22  -1.982   0.919  -1.513
    1LIG     F2   23  -1.750   0.839  -1.548
    1LIG    C16   24  -1.233   0.537  -1.450
    1LIG    C17   25  -1.134   0.440  -1.459
    1LIG      S   26  -1.001   0.487  -1.554
    1LIG    C18   27  -1.070   0.640  -1.585
    1LIG    C19   28  -1.192   0.655  -1.523
    1LIG     N4   29  -1.393   0.689  -1.066
    1LIG     H1   30  -1.476   0.669  -1.012
    1LIG     H2   31  -1.312   0.703  -1.007
    1LIG    HN2   32  -1.490   0.618  -1.288
    1LIG     HC   33  -1.271   0.626  -1.174
    1LIG    HC1   34  -1.292   0.304  -1.043
    1LIG    HC2   35  -1.212   0.456  -0.995
    1LIG    HC3   36  -1.381   0.427  -0.950
    1LIG    HC4   37  -1.621   0.614  -1.377
    1LIG    HC5   38  -1.521   0.383  -1.800
    1LIG    HC6   39  -1.346   0.398  -1.626
    1LIG    HC7   40  -1.943   0.432  -1.536
    1LIG    HC8   41  -2.164   0.539  -1.495
    1LIG    HC9   42  -2.178   0.783  -1.485
    1LIG   HC10   43  -1.142   0.343  -1.411
    1LIG   HC11   44  -1.024   0.716  -1.646
    1LIG   HC12   45  -1.251   0.745  -1.528
    1LIG    HN1   46  -1.410   0.779  -1.108
    1LIG    H20   47  -2.099   0.740  -1.609
   0.00000   0.00000   0.00000
