; Created by cgenff_charmm2gmx.py

[ moleculetype ]
; Name			   nrexcl
LIG				 3

[ atoms ]
;	 nr		  type	resnr residue  atom   cgnr	   charge		mass  typeB    chargeB		massB
; residue	 1 LIG rtp LIG q	qsum
     1      CG311      1    LIG     C1      1      0.066     12.011   ;
     2      NG2S1      1    LIG     N1      2     -0.467     14.007   ;
     3      CG2O1      1    LIG     C2      3      0.513     12.011   ;
     4      OG2D1      1    LIG     O1      4     -0.509     15.999   ;
     5       HGP1      1    LIG     H1      5      0.316      1.008   ;
     6      CG311      1    LIG     C3      6      0.149     12.011   ;
     7      NG2S1      1    LIG     N2      7     -0.325     14.007   ;
     8      CG2O6      1    LIG     C4      8      0.199     12.011   ;
     9      OG2D1      1    LIG     O2      9     -0.395     15.999   ;
    10       HGP1      1    LIG     H2     10      0.329      1.008   ;
    11      OG302      1    LIG     O3     11     -0.291     15.999   ;
    12      CG301      1    LIG     C5     12      0.283     12.011   ;
    13      CG331      1    LIG     C6     13     -0.262     12.011   ;
    14      CG331      1    LIG     C7     14     -0.262     12.011   ;
    15      CG331      1    LIG     C8     15     -0.262     12.011   ;
    16      CG321      1    LIG     C9     16     -0.211     12.011   ;
    17      CG311      1    LIG    C10     17     -0.099     12.011   ;
    18      CG331      1    LIG    C11     18     -0.268     12.011   ;
    19      CG331      1    LIG    C12     19     -0.268     12.011   ;
    20      CG321      1    LIG    C13     20     -0.180     12.011   ;
    21     CG2R61      1    LIG    C14     21     -0.003     12.011   ;
    22     CG2R61      1    LIG    C15     22     -0.123     12.011   ;
    23     CG2R61      1    LIG    C16     23     -0.112     12.011   ;
    24     CG2R61      1    LIG    C17     24     -0.116     12.011   ;
    25     CG2R61      1    LIG    C18     25     -0.112     12.011   ;
    26     CG2R61      1    LIG    C19     26     -0.123     12.011   ;
    27      CG2O1      1    LIG    C20     27      0.495     12.011   ;
    28      OG2D1      1    LIG     O4     28     -0.509     15.999   ;
    29      NG2S1      1    LIG     N3     29     -0.401     14.007   ;
    30       HGP1      1    LIG     H3     30      0.269      1.008   ;
    31      CG311      1    LIG    C21     31     -0.042     12.011   ;
    32      CG321      1    LIG    C22     32     -0.101     12.011   ;
    33      CG311      1    LIG    C23     33     -0.109     12.011   ;
    34      CG331      1    LIG    C24     34     -0.268     12.011   ;
    35      CG331      1    LIG    C25     35     -0.268     12.011   ;
    36      CG311      1    LIG    C26     36      0.119     12.011   ;
    37      OG311      1    LIG     O5     37     -0.648     15.999   ;
    38       HGP1      1    LIG     H4     38      0.421      1.008   ;
    39      CG321      1    LIG    C27     39     -0.187     12.011   ;
    40      CG311      1    LIG    C28     40     -0.033     12.011   ;
    41      CG331      1    LIG    C29     41     -0.266     12.011   ;
    42      CG2O1      1    LIG    C30     42      0.492     12.011   ;
    43      OG2D1      1    LIG     O6     43     -0.514     15.999   ;
    44      NG2S1      1    LIG     N4     44     -0.471     14.007   ;
    45       HGP1      1    LIG     H5     45      0.310      1.008   ;
    46      CG321      1    LIG    C31     46     -0.007     12.011   ;
    47      CG311      1    LIG    C32     47     -0.133     12.011   ;
    48      CG331      1    LIG    C33     48     -0.258     12.011   ;
    49      CG331      1    LIG    C34     49     -0.258     12.011   ;
    50       HGA1      1    LIG     HC     50      0.090      1.008   ;
    51       HGA1      1    LIG    HC1     51      0.090      1.008   ;
    52       HGA3      1    LIG    HC2     52      0.090      1.008   ;
    53       HGA3      1    LIG    HC3     53      0.090      1.008   ;
    54       HGA3      1    LIG    HC4     54      0.090      1.008   ;
    55       HGA3      1    LIG    HC5     55      0.090      1.008   ;
    56       HGA3      1    LIG    HC6     56      0.090      1.008   ;
    57       HGA3      1    LIG    HC7     57      0.090      1.008   ;
    58       HGA3      1    LIG    HC8     58      0.090      1.008   ;
    59       HGA3      1    LIG    HC9     59      0.090      1.008   ;
    60       HGA3      1    LIG   HC10     60      0.090      1.008   ;
    61       HGA2      1    LIG   HC11     61      0.090      1.008   ;
    62       HGA2      1    LIG   HC12     62      0.090      1.008   ;
    63       HGA1      1    LIG   HC13     63      0.090      1.008   ;
    64       HGA3      1    LIG   HC14     64      0.090      1.008   ;
    65       HGA3      1    LIG   HC15     65      0.090      1.008   ;
    66       HGA3      1    LIG   HC16     66      0.090      1.008   ;
    67       HGA3      1    LIG   HC17     67      0.090      1.008   ;
    68       HGA3      1    LIG   HC18     68      0.090      1.008   ;
    69       HGA3      1    LIG   HC19     69      0.090      1.008   ;
    70       HGA2      1    LIG   HC20     70      0.090      1.008   ;
    71       HGA2      1    LIG   HC21     71      0.090      1.008   ;
    72      HGR61      1    LIG   HC22     72      0.116      1.008   ;
    73      HGR61      1    LIG   HC23     73      0.116      1.008   ;
    74      HGR61      1    LIG   HC24     74      0.116      1.008   ;
    75      HGR61      1    LIG   HC25     75      0.116      1.008   ;
    76      HGR61      1    LIG   HC26     76      0.116      1.008   ;
    77       HGA1      1    LIG   HC27     77      0.090      1.008   ;
    78       HGA2      1    LIG   HC28     78      0.090      1.008   ;
    79       HGA2      1    LIG   HC29     79      0.090      1.008   ;
    80       HGA1      1    LIG   HC30     80      0.090      1.008   ;
    81       HGA3      1    LIG   HC31     81      0.090      1.008   ;
    82       HGA3      1    LIG   HC32     82      0.090      1.008   ;
    83       HGA3      1    LIG   HC33     83      0.090      1.008   ;
    84       HGA3      1    LIG   HC34     84      0.090      1.008   ;
    85       HGA3      1    LIG   HC35     85      0.090      1.008   ;
    86       HGA3      1    LIG   HC36     86      0.090      1.008   ;
    87       HGA1      1    LIG   HC37     87      0.090      1.008   ;
    88       HGA2      1    LIG   HC38     88      0.090      1.008   ;
    89       HGA2      1    LIG   HC39     89      0.090      1.008   ;
    90       HGA3      1    LIG   HC40     90      0.090      1.008   ;
    91       HGA3      1    LIG   HC41     91      0.090      1.008   ;
    92       HGA3      1    LIG   HC42     92      0.090      1.008   ;
    93       HGA2      1    LIG   HC43     93      0.090      1.008   ;
    94       HGA2      1    LIG   HC44     94      0.090      1.008   ;
    95       HGA1      1    LIG   HC45     95      0.090      1.008   ;
    96       HGA3      1    LIG   HC46     96      0.090      1.008   ;
    97       HGA3      1    LIG   HC47     97      0.090      1.008   ;
    98       HGA3      1    LIG   HC48     98      0.090      1.008   ;
    99       HGA3      1    LIG   HC49     99      0.090      1.008   ;
   100       HGA3      1    LIG   HC50    100      0.090      1.008   ;
   101       HGA3      1    LIG   HC51    101      0.090      1.008   ;
   102       HGA1      1    LIG    H58    102      0.090      1.008   ;

[ bonds ]
;	ai	  aj funct			  c0			c1			  c2			c3
    1    20	 1 ;       CG311      CG321
    1    27	 1 ;       CG311      CG2O1
    1     2	 1 ;       CG311      NG2S1
    1    50	 1 ;       CG311       HGA1
    2     5	 1 ;       NG2S1       HGP1
    2     3	 1 ;       NG2S1      CG2O1
    3     6	 1 ;       CG2O1      CG311
    3     4	 1 ;       CG2O1      OG2D1
    6     7	 1 ;       CG311      NG2S1
    6    16	 1 ;       CG311      CG321
    6    51	 1 ;       CG311       HGA1
    7     8	 1 ;       NG2S1      CG2O6
    7    10	 1 ;       NG2S1       HGP1
    8     9	 1 ;       CG2O6      OG2D1
    8    11	 1 ;       CG2O6      OG302
   11    12	 1 ;       OG302      CG301
   12    15	 1 ;       CG301      CG331
   12    14	 1 ;       CG301      CG331
   12    13	 1 ;       CG301      CG331
   13    52	 1 ;       CG331       HGA3
   13    53	 1 ;       CG331       HGA3
   13    54	 1 ;       CG331       HGA3
   14    55	 1 ;       CG331       HGA3
   14    56	 1 ;       CG331       HGA3
   14    57	 1 ;       CG331       HGA3
   15    58	 1 ;       CG331       HGA3
   15    59	 1 ;       CG331       HGA3
   15    60	 1 ;       CG331       HGA3
   16    17	 1 ;       CG321      CG311
   16    61	 1 ;       CG321       HGA2
   16    62	 1 ;       CG321       HGA2
   17    19	 1 ;       CG311      CG331
   17    18	 1 ;       CG311      CG331
   17    63	 1 ;       CG311       HGA1
   18    64	 1 ;       CG331       HGA3
   18    65	 1 ;       CG331       HGA3
   18    66	 1 ;       CG331       HGA3
   19    67	 1 ;       CG331       HGA3
   19    68	 1 ;       CG331       HGA3
   19    69	 1 ;       CG331       HGA3
   20    21	 1 ;       CG321     CG2R61
   20    70	 1 ;       CG321       HGA2
   20    71	 1 ;       CG321       HGA2
   21    26	 1 ;      CG2R61     CG2R61
   21    22	 1 ;      CG2R61     CG2R61
   22    23	 1 ;      CG2R61     CG2R61
   22    72	 1 ;      CG2R61      HGR61
   23    24	 1 ;      CG2R61     CG2R61
   23    73	 1 ;      CG2R61      HGR61
   24    25	 1 ;      CG2R61     CG2R61
   24    74	 1 ;      CG2R61      HGR61
   25    26	 1 ;      CG2R61     CG2R61
   25    75	 1 ;      CG2R61      HGR61
   26    76	 1 ;      CG2R61      HGR61
   27    28	 1 ;       CG2O1      OG2D1
   27    29	 1 ;       CG2O1      NG2S1
   29    30	 1 ;       NG2S1       HGP1
   29    31	 1 ;       NG2S1      CG311
   31    32	 1 ;       CG311      CG321
   31    36	 1 ;       CG311      CG311
   31    77	 1 ;       CG311       HGA1
   32    33	 1 ;       CG321      CG311
   32    78	 1 ;       CG321       HGA2
   32    79	 1 ;       CG321       HGA2
   33    35	 1 ;       CG311      CG331
   33    34	 1 ;       CG311      CG331
   33    80	 1 ;       CG311       HGA1
   34    81	 1 ;       CG331       HGA3
   34    82	 1 ;       CG331       HGA3
   34    83	 1 ;       CG331       HGA3
   35    84	 1 ;       CG331       HGA3
   35    85	 1 ;       CG331       HGA3
   35    86	 1 ;       CG331       HGA3
   36    37	 1 ;       CG311      OG311
   36    39	 1 ;       CG311      CG321
   36    87	 1 ;       CG311       HGA1
   37    38	 1 ;       OG311       HGP1
   39    40	 1 ;       CG321      CG311
   39    88	 1 ;       CG321       HGA2
   39    89	 1 ;       CG321       HGA2
   40    41	 1 ;       CG311      CG331
   40    42	 1 ;       CG311      CG2O1
   40   102	 1 ;       CG311       HGA1
   41    90	 1 ;       CG331       HGA3
   41    91	 1 ;       CG331       HGA3
   41    92	 1 ;       CG331       HGA3
   42    44	 1 ;       CG2O1      NG2S1
   42    43	 1 ;       CG2O1      OG2D1
   44    45	 1 ;       NG2S1       HGP1
   44    46	 1 ;       NG2S1      CG321
   46    47	 1 ;       CG321      CG311
   46    93	 1 ;       CG321       HGA2
   46    94	 1 ;       CG321       HGA2
   47    48	 1 ;       CG311      CG331
   47    49	 1 ;       CG311      CG331
   47    95	 1 ;       CG311       HGA1
   48    96	 1 ;       CG331       HGA3
   48    97	 1 ;       CG331       HGA3
   48    98	 1 ;       CG331       HGA3
   49    99	 1 ;       CG331       HGA3
   49   100	 1 ;       CG331       HGA3
   49   101	 1 ;       CG331       HGA3

[ pairs ]
;	ai	  aj funct			  c0			c1			  c2			c3
    1     6	 1
    1     4	 1
    1    26	 1
    1    22	 1
    1    30	 1
    1    31	 1
    2    21	 1
    2    70	 1
    2    71	 1
    2    28	 1
    2    29	 1
    2     7	 1
    2    16	 1
    2    51	 1
    3    20	 1
    3    27	 1
    3    50	 1
    3     8	 1
    3    10	 1
    3    17	 1
    3    61	 1
    3    62	 1
    4     5	 1
    4     7	 1
    4    16	 1
    4    51	 1
    5    20	 1
    5    27	 1
    5    50	 1
    5     6	 1
    6     9	 1
    6    11	 1
    6    19	 1
    6    18	 1
    6    63	 1
    7    17	 1
    7    61	 1
    7    62	 1
    7    12	 1
    8    16	 1
    8    51	 1
    8    15	 1
    8    14	 1
    8    13	 1
    9    10	 1
    9    12	 1
   10    16	 1
   10    51	 1
   10    11	 1
   11    58	 1
   11    59	 1
   11    60	 1
   11    55	 1
   11    56	 1
   11    57	 1
   11    52	 1
   11    53	 1
   11    54	 1
   13    58	 1
   13    59	 1
   13    60	 1
   13    55	 1
   13    56	 1
   13    57	 1
   14    58	 1
   14    59	 1
   14    60	 1
   14    52	 1
   14    53	 1
   14    54	 1
   15    55	 1
   15    56	 1
   15    57	 1
   15    52	 1
   15    53	 1
   15    54	 1
   16    67	 1
   16    68	 1
   16    69	 1
   16    64	 1
   16    65	 1
   16    66	 1
   17    51	 1
   18    61	 1
   18    62	 1
   18    67	 1
   18    68	 1
   18    69	 1
   19    61	 1
   19    62	 1
   19    64	 1
   19    65	 1
   19    66	 1
   20    28	 1
   20    29	 1
   20    25	 1
   20    76	 1
   20    23	 1
   20    72	 1
   21    27	 1
   21    50	 1
   21    24	 1
   21    73	 1
   21    75	 1
   22    70	 1
   22    71	 1
   22    25	 1
   22    76	 1
   22    74	 1
   23    26	 1
   23    75	 1
   24    72	 1
   24    76	 1
   25    73	 1
   26    70	 1
   26    71	 1
   26    72	 1
   26    74	 1
   27    70	 1
   27    71	 1
   27    32	 1
   27    36	 1
   27    77	 1
   28    50	 1
   28    30	 1
   28    31	 1
   29    50	 1
   29    33	 1
   29    78	 1
   29    79	 1
   29    37	 1
   29    39	 1
   29    87	 1
   30    32	 1
   30    36	 1
   30    77	 1
   31    35	 1
   31    34	 1
   31    80	 1
   31    38	 1
   31    40	 1
   31    88	 1
   31    89	 1
   32    37	 1
   32    39	 1
   32    87	 1
   32    84	 1
   32    85	 1
   32    86	 1
   32    81	 1
   32    82	 1
   32    83	 1
   33    36	 1
   33    77	 1
   34    78	 1
   34    79	 1
   34    84	 1
   34    85	 1
   34    86	 1
   35    78	 1
   35    79	 1
   35    81	 1
   35    82	 1
   35    83	 1
   36    78	 1
   36    79	 1
   36    41	 1
   36    42	 1
   36   102	 1
   37    77	 1
   37    40	 1
   37    88	 1
   37    89	 1
   38    39	 1
   38    87	 1
   39    77	 1
   39    90	 1
   39    91	 1
   39    92	 1
   39    44	 1
   39    43	 1
   40    87	 1
   40    45	 1
   40    46	 1
   41    88	 1
   41    89	 1
   41    44	 1
   41    43	 1
   42    88	 1
   42    89	 1
   42    90	 1
   42    91	 1
   42    92	 1
   42    47	 1
   42    93	 1
   42    94	 1
   43   102	 1
   43    45	 1
   43    46	 1
   44   102	 1
   44    48	 1
   44    49	 1
   44    95	 1
   45    47	 1
   45    93	 1
   45    94	 1
   46    96	 1
   46    97	 1
   46    98	 1
   46    99	 1
   46   100	 1
   46   101	 1
   48    93	 1
   48    94	 1
   48    99	 1
   48   100	 1
   48   101	 1
   49    93	 1
   49    94	 1
   49    96	 1
   49    97	 1
   49    98	 1
   50    70	 1
   50    71	 1
   51    61	 1
   51    62	 1
   61    63	 1
   62    63	 1
   63    67	 1
   63    68	 1
   63    69	 1
   63    64	 1
   63    65	 1
   63    66	 1
   72    73	 1
   73    74	 1
   74    75	 1
   75    76	 1
   77    78	 1
   77    79	 1
   77    87	 1
   78    80	 1
   79    80	 1
   80    84	 1
   80    85	 1
   80    86	 1
   80    81	 1
   80    82	 1
   80    83	 1
   87    88	 1
   87    89	 1
   88   102	 1
   89   102	 1
   90   102	 1
   91   102	 1
   92   102	 1
   93    95	 1
   94    95	 1
   95    96	 1
   95    97	 1
   95    98	 1
   95    99	 1
   95   100	 1
   95   101	 1

[ angles ]
;	ai	  aj	ak funct			c0			  c1			c2			  c3
   20     1    27	5 ;      CG321      CG311      CG2O1
   20     1     2	5 ;      CG321      CG311      NG2S1
   20     1    50	5 ;      CG321      CG311       HGA1
   27     1     2	5 ;      CG2O1      CG311      NG2S1
   27     1    50	5 ;      CG2O1      CG311       HGA1
    2     1    50	5 ;      NG2S1      CG311       HGA1
    1     2     5	5 ;      CG311      NG2S1       HGP1
    1     2     3	5 ;      CG311      NG2S1      CG2O1
    5     2     3	5 ;       HGP1      NG2S1      CG2O1
    2     3     6	5 ;      NG2S1      CG2O1      CG311
    2     3     4	5 ;      NG2S1      CG2O1      OG2D1
    6     3     4	5 ;      CG311      CG2O1      OG2D1
    3     6     7	5 ;      CG2O1      CG311      NG2S1
    3     6    16	5 ;      CG2O1      CG311      CG321
    3     6    51	5 ;      CG2O1      CG311       HGA1
    7     6    16	5 ;      NG2S1      CG311      CG321
    7     6    51	5 ;      NG2S1      CG311       HGA1
   16     6    51	5 ;      CG321      CG311       HGA1
    8     7     6	5 ;      CG2O6      NG2S1      CG311
    8     7    10	5 ;      CG2O6      NG2S1       HGP1
    6     7    10	5 ;      CG311      NG2S1       HGP1
    9     8    11	5 ;      OG2D1      CG2O6      OG302
    9     8     7	5 ;      OG2D1      CG2O6      NG2S1
   11     8     7	5 ;      OG302      CG2O6      NG2S1
    8    11    12	5 ;      CG2O6      OG302      CG301
   15    12    11	5 ;      CG331      CG301      OG302
   15    12    14	5 ;      CG331      CG301      CG331
   15    12    13	5 ;      CG331      CG301      CG331
   11    12    14	5 ;      OG302      CG301      CG331
   11    12    13	5 ;      OG302      CG301      CG331
   14    12    13	5 ;      CG331      CG301      CG331
   12    13    52	5 ;      CG301      CG331       HGA3
   12    13    53	5 ;      CG301      CG331       HGA3
   12    13    54	5 ;      CG301      CG331       HGA3
   52    13    53	5 ;       HGA3      CG331       HGA3
   52    13    54	5 ;       HGA3      CG331       HGA3
   53    13    54	5 ;       HGA3      CG331       HGA3
   12    14    55	5 ;      CG301      CG331       HGA3
   12    14    56	5 ;      CG301      CG331       HGA3
   12    14    57	5 ;      CG301      CG331       HGA3
   55    14    56	5 ;       HGA3      CG331       HGA3
   55    14    57	5 ;       HGA3      CG331       HGA3
   56    14    57	5 ;       HGA3      CG331       HGA3
   12    15    58	5 ;      CG301      CG331       HGA3
   12    15    59	5 ;      CG301      CG331       HGA3
   12    15    60	5 ;      CG301      CG331       HGA3
   58    15    59	5 ;       HGA3      CG331       HGA3
   58    15    60	5 ;       HGA3      CG331       HGA3
   59    15    60	5 ;       HGA3      CG331       HGA3
    6    16    17	5 ;      CG311      CG321      CG311
    6    16    61	5 ;      CG311      CG321       HGA2
    6    16    62	5 ;      CG311      CG321       HGA2
   17    16    61	5 ;      CG311      CG321       HGA2
   17    16    62	5 ;      CG311      CG321       HGA2
   61    16    62	5 ;       HGA2      CG321       HGA2
   19    17    16	5 ;      CG331      CG311      CG321
   19    17    18	5 ;      CG331      CG311      CG331
   19    17    63	5 ;      CG331      CG311       HGA1
   16    17    18	5 ;      CG321      CG311      CG331
   16    17    63	5 ;      CG321      CG311       HGA1
   18    17    63	5 ;      CG331      CG311       HGA1
   17    18    64	5 ;      CG311      CG331       HGA3
   17    18    65	5 ;      CG311      CG331       HGA3
   17    18    66	5 ;      CG311      CG331       HGA3
   64    18    65	5 ;       HGA3      CG331       HGA3
   64    18    66	5 ;       HGA3      CG331       HGA3
   65    18    66	5 ;       HGA3      CG331       HGA3
   17    19    67	5 ;      CG311      CG331       HGA3
   17    19    68	5 ;      CG311      CG331       HGA3
   17    19    69	5 ;      CG311      CG331       HGA3
   67    19    68	5 ;       HGA3      CG331       HGA3
   67    19    69	5 ;       HGA3      CG331       HGA3
   68    19    69	5 ;       HGA3      CG331       HGA3
   21    20     1	5 ;     CG2R61      CG321      CG311
   21    20    70	5 ;     CG2R61      CG321       HGA2
   21    20    71	5 ;     CG2R61      CG321       HGA2
    1    20    70	5 ;      CG311      CG321       HGA2
    1    20    71	5 ;      CG311      CG321       HGA2
   70    20    71	5 ;       HGA2      CG321       HGA2
   26    21    22	5 ;     CG2R61     CG2R61     CG2R61
   26    21    20	5 ;     CG2R61     CG2R61      CG321
   22    21    20	5 ;     CG2R61     CG2R61      CG321
   23    22    21	5 ;     CG2R61     CG2R61     CG2R61
   23    22    72	5 ;     CG2R61     CG2R61      HGR61
   21    22    72	5 ;     CG2R61     CG2R61      HGR61
   24    23    22	5 ;     CG2R61     CG2R61     CG2R61
   24    23    73	5 ;     CG2R61     CG2R61      HGR61
   22    23    73	5 ;     CG2R61     CG2R61      HGR61
   25    24    23	5 ;     CG2R61     CG2R61     CG2R61
   25    24    74	5 ;     CG2R61     CG2R61      HGR61
   23    24    74	5 ;     CG2R61     CG2R61      HGR61
   24    25    26	5 ;     CG2R61     CG2R61     CG2R61
   24    25    75	5 ;     CG2R61     CG2R61      HGR61
   26    25    75	5 ;     CG2R61     CG2R61      HGR61
   25    26    21	5 ;     CG2R61     CG2R61     CG2R61
   25    26    76	5 ;     CG2R61     CG2R61      HGR61
   21    26    76	5 ;     CG2R61     CG2R61      HGR61
    1    27    28	5 ;      CG311      CG2O1      OG2D1
    1    27    29	5 ;      CG311      CG2O1      NG2S1
   28    27    29	5 ;      OG2D1      CG2O1      NG2S1
   27    29    30	5 ;      CG2O1      NG2S1       HGP1
   27    29    31	5 ;      CG2O1      NG2S1      CG311
   30    29    31	5 ;       HGP1      NG2S1      CG311
   29    31    32	5 ;      NG2S1      CG311      CG321
   29    31    36	5 ;      NG2S1      CG311      CG311
   29    31    77	5 ;      NG2S1      CG311       HGA1
   32    31    36	5 ;      CG321      CG311      CG311
   32    31    77	5 ;      CG321      CG311       HGA1
   36    31    77	5 ;      CG311      CG311       HGA1
   33    32    31	5 ;      CG311      CG321      CG311
   33    32    78	5 ;      CG311      CG321       HGA2
   33    32    79	5 ;      CG311      CG321       HGA2
   31    32    78	5 ;      CG311      CG321       HGA2
   31    32    79	5 ;      CG311      CG321       HGA2
   78    32    79	5 ;       HGA2      CG321       HGA2
   35    33    34	5 ;      CG331      CG311      CG331
   35    33    32	5 ;      CG331      CG311      CG321
   35    33    80	5 ;      CG331      CG311       HGA1
   34    33    32	5 ;      CG331      CG311      CG321
   34    33    80	5 ;      CG331      CG311       HGA1
   32    33    80	5 ;      CG321      CG311       HGA1
   33    34    81	5 ;      CG311      CG331       HGA3
   33    34    82	5 ;      CG311      CG331       HGA3
   33    34    83	5 ;      CG311      CG331       HGA3
   81    34    82	5 ;       HGA3      CG331       HGA3
   81    34    83	5 ;       HGA3      CG331       HGA3
   82    34    83	5 ;       HGA3      CG331       HGA3
   33    35    84	5 ;      CG311      CG331       HGA3
   33    35    85	5 ;      CG311      CG331       HGA3
   33    35    86	5 ;      CG311      CG331       HGA3
   84    35    85	5 ;       HGA3      CG331       HGA3
   84    35    86	5 ;       HGA3      CG331       HGA3
   85    35    86	5 ;       HGA3      CG331       HGA3
   31    36    37	5 ;      CG311      CG311      OG311
   31    36    39	5 ;      CG311      CG311      CG321
   31    36    87	5 ;      CG311      CG311       HGA1
   37    36    39	5 ;      OG311      CG311      CG321
   37    36    87	5 ;      OG311      CG311       HGA1
   39    36    87	5 ;      CG321      CG311       HGA1
   38    37    36	5 ;       HGP1      OG311      CG311
   36    39    40	5 ;      CG311      CG321      CG311
   36    39    88	5 ;      CG311      CG321       HGA2
   36    39    89	5 ;      CG311      CG321       HGA2
   40    39    88	5 ;      CG311      CG321       HGA2
   40    39    89	5 ;      CG311      CG321       HGA2
   88    39    89	5 ;       HGA2      CG321       HGA2
   41    40    39	5 ;      CG331      CG311      CG321
   41    40    42	5 ;      CG331      CG311      CG2O1
   41    40   102	5 ;      CG331      CG311       HGA1
   39    40    42	5 ;      CG321      CG311      CG2O1
   39    40   102	5 ;      CG321      CG311       HGA1
   42    40   102	5 ;      CG2O1      CG311       HGA1
   40    41    90	5 ;      CG311      CG331       HGA3
   40    41    91	5 ;      CG311      CG331       HGA3
   40    41    92	5 ;      CG311      CG331       HGA3
   90    41    91	5 ;       HGA3      CG331       HGA3
   90    41    92	5 ;       HGA3      CG331       HGA3
   91    41    92	5 ;       HGA3      CG331       HGA3
   40    42    44	5 ;      CG311      CG2O1      NG2S1
   40    42    43	5 ;      CG311      CG2O1      OG2D1
   44    42    43	5 ;      NG2S1      CG2O1      OG2D1
   45    44    42	5 ;       HGP1      NG2S1      CG2O1
   45    44    46	5 ;       HGP1      NG2S1      CG321
   42    44    46	5 ;      CG2O1      NG2S1      CG321
   44    46    47	5 ;      NG2S1      CG321      CG311
   44    46    93	5 ;      NG2S1      CG321       HGA2
   44    46    94	5 ;      NG2S1      CG321       HGA2
   47    46    93	5 ;      CG311      CG321       HGA2
   47    46    94	5 ;      CG311      CG321       HGA2
   93    46    94	5 ;       HGA2      CG321       HGA2
   46    47    48	5 ;      CG321      CG311      CG331
   46    47    49	5 ;      CG321      CG311      CG331
   46    47    95	5 ;      CG321      CG311       HGA1
   48    47    49	5 ;      CG331      CG311      CG331
   48    47    95	5 ;      CG331      CG311       HGA1
   49    47    95	5 ;      CG331      CG311       HGA1
   47    48    96	5 ;      CG311      CG331       HGA3
   47    48    97	5 ;      CG311      CG331       HGA3
   47    48    98	5 ;      CG311      CG331       HGA3
   96    48    97	5 ;       HGA3      CG331       HGA3
   96    48    98	5 ;       HGA3      CG331       HGA3
   97    48    98	5 ;       HGA3      CG331       HGA3
   47    49    99	5 ;      CG311      CG331       HGA3
   47    49   100	5 ;      CG311      CG331       HGA3
   47    49   101	5 ;      CG311      CG331       HGA3
   99    49   100	5 ;       HGA3      CG331       HGA3
   99    49   101	5 ;       HGA3      CG331       HGA3
  100    49   101	5 ;       HGA3      CG331       HGA3

[ dihedrals ]
;	ai	  aj	ak	  al funct			  c0			c1			  c2			c3			  c4			c5
   27     1    20    21	 9 ;      CG2O1      CG311      CG321     CG2R61
   27     1    20    70	 9 ;      CG2O1      CG311      CG321       HGA2
   27     1    20    71	 9 ;      CG2O1      CG311      CG321       HGA2
    2     1    20    21	 9 ;      NG2S1      CG311      CG321     CG2R61
    2     1    20    70	 9 ;      NG2S1      CG311      CG321       HGA2
    2     1    20    71	 9 ;      NG2S1      CG311      CG321       HGA2
   50     1    20    21	 9 ;       HGA1      CG311      CG321     CG2R61
   50     1    20    70	 9 ;       HGA1      CG311      CG321       HGA2
   50     1    20    71	 9 ;       HGA1      CG311      CG321       HGA2
   20     1    27    28	 9 ;      CG321      CG311      CG2O1      OG2D1
   20     1    27    29	 9 ;      CG321      CG311      CG2O1      NG2S1
    2     1    27    28	 9 ;      NG2S1      CG311      CG2O1      OG2D1
    2     1    27    29	 9 ;      NG2S1      CG311      CG2O1      NG2S1
   50     1    27    28	 9 ;       HGA1      CG311      CG2O1      OG2D1
   50     1    27    29	 9 ;       HGA1      CG311      CG2O1      NG2S1
   20     1     2     5	 9 ;      CG321      CG311      NG2S1       HGP1
   20     1     2     3	 9 ;      CG321      CG311      NG2S1      CG2O1
   27     1     2     5	 9 ;      CG2O1      CG311      NG2S1       HGP1
   27     1     2     3	 9 ;      CG2O1      CG311      NG2S1      CG2O1
   50     1     2     5	 9 ;       HGA1      CG311      NG2S1       HGP1
   50     1     2     3	 9 ;       HGA1      CG311      NG2S1      CG2O1
    1     2     3     6	 9 ;      CG311      NG2S1      CG2O1      CG311
    1     2     3     4	 9 ;      CG311      NG2S1      CG2O1      OG2D1
    5     2     3     6	 9 ;       HGP1      NG2S1      CG2O1      CG311
    5     2     3     4	 9 ;       HGP1      NG2S1      CG2O1      OG2D1
    2     3     6     7	 9 ;      NG2S1      CG2O1      CG311      NG2S1
    2     3     6    16	 9 ;      NG2S1      CG2O1      CG311      CG321
    2     3     6    51	 9 ;      NG2S1      CG2O1      CG311       HGA1
    4     3     6     7	 9 ;      OG2D1      CG2O1      CG311      NG2S1
    4     3     6    16	 9 ;      OG2D1      CG2O1      CG311      CG321
    4     3     6    51	 9 ;      OG2D1      CG2O1      CG311       HGA1
    3     6     7     8	 9 ;      CG2O1      CG311      NG2S1      CG2O6
    3     6     7    10	 9 ;      CG2O1      CG311      NG2S1       HGP1
   16     6     7     8	 9 ;      CG321      CG311      NG2S1      CG2O6
   16     6     7    10	 9 ;      CG321      CG311      NG2S1       HGP1
   51     6     7     8	 9 ;       HGA1      CG311      NG2S1      CG2O6
   51     6     7    10	 9 ;       HGA1      CG311      NG2S1       HGP1
    3     6    16    17	 9 ;      CG2O1      CG311      CG321      CG311
    3     6    16    61	 9 ;      CG2O1      CG311      CG321       HGA2
    3     6    16    62	 9 ;      CG2O1      CG311      CG321       HGA2
    7     6    16    17	 9 ;      NG2S1      CG311      CG321      CG311
    7     6    16    61	 9 ;      NG2S1      CG311      CG321       HGA2
    7     6    16    62	 9 ;      NG2S1      CG311      CG321       HGA2
   51     6    16    17	 9 ;       HGA1      CG311      CG321      CG311
   51     6    16    61	 9 ;       HGA1      CG311      CG321       HGA2
   51     6    16    62	 9 ;       HGA1      CG311      CG321       HGA2
    6     7     8     9	 9 ;      CG311      NG2S1      CG2O6      OG2D1
    6     7     8    11	 9 ;      CG311      NG2S1      CG2O6      OG302
   10     7     8     9	 9 ;       HGP1      NG2S1      CG2O6      OG2D1
   10     7     8    11	 9 ;       HGP1      NG2S1      CG2O6      OG302
    9     8    11    12	 9 ;      OG2D1      CG2O6      OG302      CG301
    7     8    11    12	 9 ;      NG2S1      CG2O6      OG302      CG301
    8    11    12    15	 9 ;      CG2O6      OG302      CG301      CG331
    8    11    12    14	 9 ;      CG2O6      OG302      CG301      CG331
    8    11    12    13	 9 ;      CG2O6      OG302      CG301      CG331
   11    12    15    58	 9 ;      OG302      CG301      CG331       HGA3
   11    12    15    59	 9 ;      OG302      CG301      CG331       HGA3
   11    12    15    60	 9 ;      OG302      CG301      CG331       HGA3
   14    12    15    58	 9 ;      CG331      CG301      CG331       HGA3
   14    12    15    59	 9 ;      CG331      CG301      CG331       HGA3
   14    12    15    60	 9 ;      CG331      CG301      CG331       HGA3
   13    12    15    58	 9 ;      CG331      CG301      CG331       HGA3
   13    12    15    59	 9 ;      CG331      CG301      CG331       HGA3
   13    12    15    60	 9 ;      CG331      CG301      CG331       HGA3
   15    12    14    55	 9 ;      CG331      CG301      CG331       HGA3
   15    12    14    56	 9 ;      CG331      CG301      CG331       HGA3
   15    12    14    57	 9 ;      CG331      CG301      CG331       HGA3
   11    12    14    55	 9 ;      OG302      CG301      CG331       HGA3
   11    12    14    56	 9 ;      OG302      CG301      CG331       HGA3
   11    12    14    57	 9 ;      OG302      CG301      CG331       HGA3
   13    12    14    55	 9 ;      CG331      CG301      CG331       HGA3
   13    12    14    56	 9 ;      CG331      CG301      CG331       HGA3
   13    12    14    57	 9 ;      CG331      CG301      CG331       HGA3
   15    12    13    52	 9 ;      CG331      CG301      CG331       HGA3
   15    12    13    53	 9 ;      CG331      CG301      CG331       HGA3
   15    12    13    54	 9 ;      CG331      CG301      CG331       HGA3
   11    12    13    52	 9 ;      OG302      CG301      CG331       HGA3
   11    12    13    53	 9 ;      OG302      CG301      CG331       HGA3
   11    12    13    54	 9 ;      OG302      CG301      CG331       HGA3
   14    12    13    52	 9 ;      CG331      CG301      CG331       HGA3
   14    12    13    53	 9 ;      CG331      CG301      CG331       HGA3
   14    12    13    54	 9 ;      CG331      CG301      CG331       HGA3
    6    16    17    19	 9 ;      CG311      CG321      CG311      CG331
    6    16    17    18	 9 ;      CG311      CG321      CG311      CG331
    6    16    17    63	 9 ;      CG311      CG321      CG311       HGA1
   61    16    17    19	 9 ;       HGA2      CG321      CG311      CG331
   61    16    17    18	 9 ;       HGA2      CG321      CG311      CG331
   61    16    17    63	 9 ;       HGA2      CG321      CG311       HGA1
   62    16    17    19	 9 ;       HGA2      CG321      CG311      CG331
   62    16    17    18	 9 ;       HGA2      CG321      CG311      CG331
   62    16    17    63	 9 ;       HGA2      CG321      CG311       HGA1
   16    17    19    67	 9 ;      CG321      CG311      CG331       HGA3
   16    17    19    68	 9 ;      CG321      CG311      CG331       HGA3
   16    17    19    69	 9 ;      CG321      CG311      CG331       HGA3
   18    17    19    67	 9 ;      CG331      CG311      CG331       HGA3
   18    17    19    68	 9 ;      CG331      CG311      CG331       HGA3
   18    17    19    69	 9 ;      CG331      CG311      CG331       HGA3
   63    17    19    67	 9 ;       HGA1      CG311      CG331       HGA3
   63    17    19    68	 9 ;       HGA1      CG311      CG331       HGA3
   63    17    19    69	 9 ;       HGA1      CG311      CG331       HGA3
   19    17    18    64	 9 ;      CG331      CG311      CG331       HGA3
   19    17    18    65	 9 ;      CG331      CG311      CG331       HGA3
   19    17    18    66	 9 ;      CG331      CG311      CG331       HGA3
   16    17    18    64	 9 ;      CG321      CG311      CG331       HGA3
   16    17    18    65	 9 ;      CG321      CG311      CG331       HGA3
   16    17    18    66	 9 ;      CG321      CG311      CG331       HGA3
   63    17    18    64	 9 ;       HGA1      CG311      CG331       HGA3
   63    17    18    65	 9 ;       HGA1      CG311      CG331       HGA3
   63    17    18    66	 9 ;       HGA1      CG311      CG331       HGA3
    1    20    21    26	 9 ;      CG311      CG321     CG2R61     CG2R61
    1    20    21    22	 9 ;      CG311      CG321     CG2R61     CG2R61
   70    20    21    26	 9 ;       HGA2      CG321     CG2R61     CG2R61
   70    20    21    22	 9 ;       HGA2      CG321     CG2R61     CG2R61
   71    20    21    26	 9 ;       HGA2      CG321     CG2R61     CG2R61
   71    20    21    22	 9 ;       HGA2      CG321     CG2R61     CG2R61
   22    21    26    25	 9 ;     CG2R61     CG2R61     CG2R61     CG2R61
   22    21    26    76	 9 ;     CG2R61     CG2R61     CG2R61      HGR61
   20    21    26    25	 9 ;      CG321     CG2R61     CG2R61     CG2R61
   20    21    26    76	 9 ;      CG321     CG2R61     CG2R61      HGR61
   26    21    22    23	 9 ;     CG2R61     CG2R61     CG2R61     CG2R61
   26    21    22    72	 9 ;     CG2R61     CG2R61     CG2R61      HGR61
   20    21    22    23	 9 ;      CG321     CG2R61     CG2R61     CG2R61
   20    21    22    72	 9 ;      CG321     CG2R61     CG2R61      HGR61
   21    22    23    24	 9 ;     CG2R61     CG2R61     CG2R61     CG2R61
   21    22    23    73	 9 ;     CG2R61     CG2R61     CG2R61      HGR61
   72    22    23    24	 9 ;      HGR61     CG2R61     CG2R61     CG2R61
   72    22    23    73	 9 ;      HGR61     CG2R61     CG2R61      HGR61
   22    23    24    25	 9 ;     CG2R61     CG2R61     CG2R61     CG2R61
   22    23    24    74	 9 ;     CG2R61     CG2R61     CG2R61      HGR61
   73    23    24    25	 9 ;      HGR61     CG2R61     CG2R61     CG2R61
   73    23    24    74	 9 ;      HGR61     CG2R61     CG2R61      HGR61
   23    24    25    26	 9 ;     CG2R61     CG2R61     CG2R61     CG2R61
   23    24    25    75	 9 ;     CG2R61     CG2R61     CG2R61      HGR61
   74    24    25    26	 9 ;      HGR61     CG2R61     CG2R61     CG2R61
   74    24    25    75	 9 ;      HGR61     CG2R61     CG2R61      HGR61
   24    25    26    21	 9 ;     CG2R61     CG2R61     CG2R61     CG2R61
   24    25    26    76	 9 ;     CG2R61     CG2R61     CG2R61      HGR61
   75    25    26    21	 9 ;      HGR61     CG2R61     CG2R61     CG2R61
   75    25    26    76	 9 ;      HGR61     CG2R61     CG2R61      HGR61
    1    27    29    30	 9 ;      CG311      CG2O1      NG2S1       HGP1
    1    27    29    31	 9 ;      CG311      CG2O1      NG2S1      CG311
   28    27    29    30	 9 ;      OG2D1      CG2O1      NG2S1       HGP1
   28    27    29    31	 9 ;      OG2D1      CG2O1      NG2S1      CG311
   27    29    31    32	 9 ;      CG2O1      NG2S1      CG311      CG321
   27    29    31    36	 9 ;      CG2O1      NG2S1      CG311      CG311
   27    29    31    77	 9 ;      CG2O1      NG2S1      CG311       HGA1
   30    29    31    32	 9 ;       HGP1      NG2S1      CG311      CG321
   30    29    31    36	 9 ;       HGP1      NG2S1      CG311      CG311
   30    29    31    77	 9 ;       HGP1      NG2S1      CG311       HGA1
   29    31    32    33	 9 ;      NG2S1      CG311      CG321      CG311
   29    31    32    78	 9 ;      NG2S1      CG311      CG321       HGA2
   29    31    32    79	 9 ;      NG2S1      CG311      CG321       HGA2
   36    31    32    33	 9 ;      CG311      CG311      CG321      CG311
   36    31    32    78	 9 ;      CG311      CG311      CG321       HGA2
   36    31    32    79	 9 ;      CG311      CG311      CG321       HGA2
   77    31    32    33	 9 ;       HGA1      CG311      CG321      CG311
   77    31    32    78	 9 ;       HGA1      CG311      CG321       HGA2
   77    31    32    79	 9 ;       HGA1      CG311      CG321       HGA2
   29    31    36    37	 9 ;      NG2S1      CG311      CG311      OG311
   29    31    36    39	 9 ;      NG2S1      CG311      CG311      CG321
   29    31    36    87	 9 ;      NG2S1      CG311      CG311       HGA1
   32    31    36    37	 9 ;      CG321      CG311      CG311      OG311
   32    31    36    39	 9 ;      CG321      CG311      CG311      CG321
   32    31    36    87	 9 ;      CG321      CG311      CG311       HGA1
   77    31    36    37	 9 ;       HGA1      CG311      CG311      OG311
   77    31    36    39	 9 ;       HGA1      CG311      CG311      CG321
   77    31    36    87	 9 ;       HGA1      CG311      CG311       HGA1
   31    32    33    35	 9 ;      CG311      CG321      CG311      CG331
   31    32    33    34	 9 ;      CG311      CG321      CG311      CG331
   31    32    33    80	 9 ;      CG311      CG321      CG311       HGA1
   78    32    33    35	 9 ;       HGA2      CG321      CG311      CG331
   78    32    33    34	 9 ;       HGA2      CG321      CG311      CG331
   78    32    33    80	 9 ;       HGA2      CG321      CG311       HGA1
   79    32    33    35	 9 ;       HGA2      CG321      CG311      CG331
   79    32    33    34	 9 ;       HGA2      CG321      CG311      CG331
   79    32    33    80	 9 ;       HGA2      CG321      CG311       HGA1
   34    33    35    84	 9 ;      CG331      CG311      CG331       HGA3
   34    33    35    85	 9 ;      CG331      CG311      CG331       HGA3
   34    33    35    86	 9 ;      CG331      CG311      CG331       HGA3
   32    33    35    84	 9 ;      CG321      CG311      CG331       HGA3
   32    33    35    85	 9 ;      CG321      CG311      CG331       HGA3
   32    33    35    86	 9 ;      CG321      CG311      CG331       HGA3
   80    33    35    84	 9 ;       HGA1      CG311      CG331       HGA3
   80    33    35    85	 9 ;       HGA1      CG311      CG331       HGA3
   80    33    35    86	 9 ;       HGA1      CG311      CG331       HGA3
   35    33    34    81	 9 ;      CG331      CG311      CG331       HGA3
   35    33    34    82	 9 ;      CG331      CG311      CG331       HGA3
   35    33    34    83	 9 ;      CG331      CG311      CG331       HGA3
   32    33    34    81	 9 ;      CG321      CG311      CG331       HGA3
   32    33    34    82	 9 ;      CG321      CG311      CG331       HGA3
   32    33    34    83	 9 ;      CG321      CG311      CG331       HGA3
   80    33    34    81	 9 ;       HGA1      CG311      CG331       HGA3
   80    33    34    82	 9 ;       HGA1      CG311      CG331       HGA3
   80    33    34    83	 9 ;       HGA1      CG311      CG331       HGA3
   31    36    37    38	 9 ;      CG311      CG311      OG311       HGP1
   39    36    37    38	 9 ;      CG321      CG311      OG311       HGP1
   87    36    37    38	 9 ;       HGA1      CG311      OG311       HGP1
   31    36    39    40	 9 ;      CG311      CG311      CG321      CG311
   31    36    39    88	 9 ;      CG311      CG311      CG321       HGA2
   31    36    39    89	 9 ;      CG311      CG311      CG321       HGA2
   37    36    39    40	 9 ;      OG311      CG311      CG321      CG311
   37    36    39    88	 9 ;      OG311      CG311      CG321       HGA2
   37    36    39    89	 9 ;      OG311      CG311      CG321       HGA2
   87    36    39    40	 9 ;       HGA1      CG311      CG321      CG311
   87    36    39    88	 9 ;       HGA1      CG311      CG321       HGA2
   87    36    39    89	 9 ;       HGA1      CG311      CG321       HGA2
   36    39    40    41	 9 ;      CG311      CG321      CG311      CG331
   36    39    40    42	 9 ;      CG311      CG321      CG311      CG2O1
   36    39    40   102	 9 ;      CG311      CG321      CG311       HGA1
   88    39    40    41	 9 ;       HGA2      CG321      CG311      CG331
   88    39    40    42	 9 ;       HGA2      CG321      CG311      CG2O1
   88    39    40   102	 9 ;       HGA2      CG321      CG311       HGA1
   89    39    40    41	 9 ;       HGA2      CG321      CG311      CG331
   89    39    40    42	 9 ;       HGA2      CG321      CG311      CG2O1
   89    39    40   102	 9 ;       HGA2      CG321      CG311       HGA1
   39    40    41    90	 9 ;      CG321      CG311      CG331       HGA3
   39    40    41    91	 9 ;      CG321      CG311      CG331       HGA3
   39    40    41    92	 9 ;      CG321      CG311      CG331       HGA3
   42    40    41    90	 9 ;      CG2O1      CG311      CG331       HGA3
   42    40    41    91	 9 ;      CG2O1      CG311      CG331       HGA3
   42    40    41    92	 9 ;      CG2O1      CG311      CG331       HGA3
  102    40    41    90	 9 ;       HGA1      CG311      CG331       HGA3
  102    40    41    91	 9 ;       HGA1      CG311      CG331       HGA3
  102    40    41    92	 9 ;       HGA1      CG311      CG331       HGA3
   41    40    42    44	 9 ;      CG331      CG311      CG2O1      NG2S1
   41    40    42    43	 9 ;      CG331      CG311      CG2O1      OG2D1
   39    40    42    44	 9 ;      CG321      CG311      CG2O1      NG2S1
   39    40    42    43	 9 ;      CG321      CG311      CG2O1      OG2D1
  102    40    42    44	 9 ;       HGA1      CG311      CG2O1      NG2S1
  102    40    42    43	 9 ;       HGA1      CG311      CG2O1      OG2D1
   40    42    44    45	 9 ;      CG311      CG2O1      NG2S1       HGP1
   40    42    44    46	 9 ;      CG311      CG2O1      NG2S1      CG321
   43    42    44    45	 9 ;      OG2D1      CG2O1      NG2S1       HGP1
   43    42    44    46	 9 ;      OG2D1      CG2O1      NG2S1      CG321
   45    44    46    47	 9 ;       HGP1      NG2S1      CG321      CG311
   45    44    46    93	 9 ;       HGP1      NG2S1      CG321       HGA2
   45    44    46    94	 9 ;       HGP1      NG2S1      CG321       HGA2
   42    44    46    47	 9 ;      CG2O1      NG2S1      CG321      CG311
   42    44    46    93	 9 ;      CG2O1      NG2S1      CG321       HGA2
   42    44    46    94	 9 ;      CG2O1      NG2S1      CG321       HGA2
   44    46    47    48	 9 ;      NG2S1      CG321      CG311      CG331
   44    46    47    49	 9 ;      NG2S1      CG321      CG311      CG331
   44    46    47    95	 9 ;      NG2S1      CG321      CG311       HGA1
   93    46    47    48	 9 ;       HGA2      CG321      CG311      CG331
   93    46    47    49	 9 ;       HGA2      CG321      CG311      CG331
   93    46    47    95	 9 ;       HGA2      CG321      CG311       HGA1
   94    46    47    48	 9 ;       HGA2      CG321      CG311      CG331
   94    46    47    49	 9 ;       HGA2      CG321      CG311      CG331
   94    46    47    95	 9 ;       HGA2      CG321      CG311       HGA1
   46    47    48    96	 9 ;      CG321      CG311      CG331       HGA3
   46    47    48    97	 9 ;      CG321      CG311      CG331       HGA3
   46    47    48    98	 9 ;      CG321      CG311      CG331       HGA3
   49    47    48    96	 9 ;      CG331      CG311      CG331       HGA3
   49    47    48    97	 9 ;      CG331      CG311      CG331       HGA3
   49    47    48    98	 9 ;      CG331      CG311      CG331       HGA3
   95    47    48    96	 9 ;       HGA1      CG311      CG331       HGA3
   95    47    48    97	 9 ;       HGA1      CG311      CG331       HGA3
   95    47    48    98	 9 ;       HGA1      CG311      CG331       HGA3
   46    47    49    99	 9 ;      CG321      CG311      CG331       HGA3
   46    47    49   100	 9 ;      CG321      CG311      CG331       HGA3
   46    47    49   101	 9 ;      CG321      CG311      CG331       HGA3
   48    47    49    99	 9 ;      CG331      CG311      CG331       HGA3
   48    47    49   100	 9 ;      CG331      CG311      CG331       HGA3
   48    47    49   101	 9 ;      CG331      CG311      CG331       HGA3
   95    47    49    99	 9 ;       HGA1      CG311      CG331       HGA3
   95    47    49   100	 9 ;       HGA1      CG311      CG331       HGA3
   95    47    49   101	 9 ;       HGA1      CG311      CG331       HGA3

[ dihedrals ]
;	ai	  aj	ak	  al funct			  c0			c1			  c2			c3
    3     6     2     4	 2
    8     7     9    11	 2
   27     1    29    28	 2
   42    40    44    43	 2

