S  C  A  M  O  R  G
  102
    1LIG     C1    1  -1.121   0.591  -1.617
    1LIG     N1    2  -1.208   0.475  -1.651
    1LIG     C2    3  -1.282   0.397  -1.564
    1LIG     O1    4  -1.281   0.418  -1.443
    1LIG     H1    5  -1.209   0.454  -1.750
    1LIG     C3    6  -1.362   0.274  -1.626
    1LIG     N2    7  -1.309   0.147  -1.570
    1LIG     C4    8  -1.177   0.110  -1.576
    1LIG     O2    9  -1.090   0.176  -1.630
    1LIG     H2   10  -1.371   0.090  -1.514
    1LIG     O3   11  -1.157  -0.010  -1.514
    1LIG     C5   12  -1.131  -0.015  -1.371
    1LIG     C6   13  -1.219   0.086  -1.293
    1LIG     C7   14  -1.172  -0.158  -1.325
    1LIG     C8   15  -0.983   0.003  -1.334
    1LIG     C9   16  -1.517   0.276  -1.610
    1LIG    C10   17  -1.601   0.275  -1.739
    1LIG    C11   18  -1.745   0.228  -1.716
    1LIG    C12   19  -1.602   0.410  -1.811
    1LIG    C13   20  -1.012   0.612  -1.726
    1LIG    C14   21  -0.929   0.739  -1.713
    1LIG    C15   22  -0.859   0.766  -1.595
    1LIG    C16   23  -0.795   0.889  -1.578
    1LIG    C17   24  -0.794   0.983  -1.681
    1LIG    C18   25  -0.856   0.953  -1.802
    1LIG    C19   26  -0.924   0.832  -1.818
    1LIG    C20   27  -1.214   0.717  -1.577
    1LIG     O4   28  -1.188   0.783  -1.475
    1LIG     N3   29  -1.317   0.756  -1.661
    1LIG     H3   30  -1.342   0.689  -1.732
    1LIG    C21   31  -1.419   0.865  -1.640
    1LIG    C22   32  -1.454   0.948  -1.772
    1LIG    C23   33  -1.397   0.885  -1.903
    1LIG    C24   34  -1.485   0.770  -1.953
    1LIG    C25   35  -1.370   0.983  -2.017
    1LIG    C26   36  -1.552   0.828  -1.562
    1LIG     O5   37  -1.625   0.948  -1.528
    1LIG     H4   38  -1.576   1.026  -1.560
    1LIG    C27   39  -1.660   0.725  -1.608
    1LIG    C28   40  -1.805   0.755  -1.653
    1LIG    C29   41  -1.804   0.822  -1.791
    1LIG    C30   42  -1.933   0.662  -1.643
    1LIG     O6   43  -2.039   0.709  -1.601
    1LIG     N4   44  -1.921   0.526  -1.662
    1LIG     H5   45  -1.828   0.490  -1.674
    1LIG    C31   46  -2.019   0.428  -1.606
    1LIG    C32   47  -2.007   0.379  -1.459
    1LIG    C33   48  -1.869   0.405  -1.398
    1LIG    C34   49  -2.112   0.448  -1.368
    1LIG     HC   50  -1.067   0.563  -1.526
    1LIG    HC1   51  -1.341   0.273  -1.733
    1LIG    HC2   52  -1.198   0.077  -1.187
    1LIG    HC3   53  -1.196   0.187  -1.327
    1LIG    HC4   54  -1.324   0.064  -1.312
    1LIG    HC5   55  -1.276  -0.176  -1.349
    1LIG    HC6   56  -1.110  -0.232  -1.376
    1LIG    HC7   57  -1.157  -0.167  -1.217
    1LIG    HC8   58  -0.950   0.102  -1.365
    1LIG    HC9   59  -0.971  -0.007  -1.227
    1LIG   HC10   60  -0.923  -0.072  -1.385
    1LIG   HC11   61  -1.543   0.366  -1.554
    1LIG   HC12   62  -1.546   0.190  -1.550
    1LIG   HC13   63  -1.555   0.203  -1.807
    1LIG   HC14   64  -1.745   0.132  -1.664
    1LIG   HC15   65  -1.796   0.218  -1.811
    1LIG   HC16   66  -1.798   0.302  -1.655
    1LIG   HC17   67  -1.500   0.444  -1.828
    1LIG   HC18   68  -1.655   0.484  -1.750
    1LIG   HC19   69  -1.653   0.400  -1.907
    1LIG   HC20   70  -1.061   0.613  -1.823
    1LIG   HC21   71  -0.944   0.527  -1.723
    1LIG   HC22   72  -0.855   0.692  -1.517
    1LIG   HC23   73  -0.746   0.911  -1.485
    1LIG   HC24   74  -0.747   1.079  -1.666
    1LIG   HC25   75  -0.851   1.024  -1.884
    1LIG   HC26   76  -0.973   0.810  -1.912
    1LIG   HC27   77  -1.369   0.937  -1.576
    1LIG   HC28   78  -1.411   1.048  -1.761
    1LIG   HC29   79  -1.562   0.957  -1.781
    1LIG   HC30   80  -1.301   0.840  -1.877
    1LIG   HC31   81  -1.504   0.700  -1.872
    1LIG   HC32   82  -1.580   0.810  -1.990
    1LIG   HC33   83  -1.434   0.718  -2.034
    1LIG   HC34   84  -1.308   1.065  -1.980
    1LIG   HC35   85  -1.319   0.932  -2.098
    1LIG   HC36   86  -1.464   1.024  -2.054
    1LIG   HC37   87  -1.517   0.790  -1.466
    1LIG   HC38   88  -1.670   0.656  -1.524
    1LIG   HC39   89  -1.614   0.668  -1.689
    1LIG   HC40   90  -1.906   0.843  -1.822
    1LIG   HC41   91  -1.756   0.755  -1.863
    1LIG   HC42   92  -1.747   0.915  -1.786
    1LIG   HC43   93  -2.013   0.339  -1.669
    1LIG   HC44   94  -2.119   0.470  -1.619
    1LIG   HC45   95  -2.025   0.272  -1.457
    1LIG   HC46   96  -1.793   0.358  -1.459
    1LIG   HC47   97  -1.866   0.363  -1.297
    1LIG   HC48   98  -1.851   0.512  -1.393
    1LIG   HC49   99  -2.212   0.431  -1.409
    1LIG   HC50  100  -2.092   0.555  -1.364
    1LIG   HC51  101  -2.106   0.406  -1.268
    1LIG    H58  102  -1.832   0.839  -1.588
   0.00000   0.00000   0.00000
