Georgetown Riga Oslo Madrid Amsterdam Chisinau Stockholm
   73
    1LIG     N1    1  -1.503   0.575  -1.809
    1LIG     H1    2  -1.447   0.550  -1.892
    1LIG     H2    3  -1.440   0.634  -1.754
    1LIG     C1    4  -1.613   0.663  -1.865
    1LIG     C2    5  -1.565   0.810  -1.849
    1LIG     O1    6  -1.679   0.884  -1.897
    1LIG     H3    7  -1.751   0.874  -1.830
    1LIG     C3    8  -1.514   0.850  -1.706
    1LIG     C4    9  -1.362   0.885  -1.712
    1LIG     C5   10  -1.270   0.780  -1.654
    1LIG     C6   11  -1.302   0.715  -1.535
    1LIG     C7   12  -1.214   0.621  -1.480
    1LIG     F1   13  -1.247   0.560  -1.365
    1LIG     C8   14  -1.094   0.589  -1.542
    1LIG     C9   15  -1.063   0.653  -1.661
    1LIG    C10   16  -1.149   0.747  -1.718
    1LIG     F2   17  -0.948   0.624  -1.723
    1LIG     N2   18  -1.583   0.969  -1.647
    1LIG    C11   19  -1.706   0.971  -1.586
    1LIG     O2   20  -1.786   0.879  -1.592
    1LIG    C12   21  -1.736   1.099  -1.511
    1LIG     H4   22  -1.521   1.041  -1.611
    1LIG    C13   23  -1.529   0.449  -1.727
    1LIG    C14   24  -1.624   0.356  -1.805
    1LIG    C15   25  -1.665   0.234  -1.720
    1LIG    C16   26  -1.734   0.276  -1.591
    1LIG    C17   27  -1.652   0.376  -1.510
    1LIG    C18   28  -1.601   0.493  -1.595
    1LIG    C19   29  -1.390   0.383  -1.705
    1LIG    C20   30  -1.365   0.309  -1.587
    1LIG    C21   31  -1.243   0.241  -1.567
    1LIG    C22   32  -1.141   0.254  -1.662
    1LIG    C23   33  -1.164   0.326  -1.778
    1LIG    C24   34  -1.288   0.386  -1.801
    1LIG    C25   35  -1.224   0.136  -1.459
    1LIG    C26   36  -1.091   0.165  -1.388
    1LIG    C27   37  -1.030   0.033  -1.345
    1LIG    C28   38  -1.102  -0.079  -1.420
    1LIG    C29   39  -1.207  -0.007  -1.501
    1LIG     O3   40  -1.273  -0.063  -1.588
    1LIG    HC2   41  -1.630   0.640  -1.970
    1LIG    HC3   42  -1.705   0.648  -1.808
    1LIG     HC   43  -1.483   0.826  -1.919
    1LIG    HC1   44  -1.528   0.766  -1.639
    1LIG    HC4   45  -1.346   0.978  -1.658
    1LIG    HC5   46  -1.334   0.901  -1.817
    1LIG    HC6   47  -1.395   0.737  -1.484
    1LIG    HC7   48  -1.027   0.517  -1.498
    1LIG    HC8   49  -1.123   0.795  -1.811
    1LIG    HC9   50  -1.835   1.093  -1.466
    1LIG   HC10   51  -1.732   1.184  -1.580
    1LIG   HC11   52  -1.661   1.113  -1.433
    1LIG   HC12   53  -1.574   0.321  -1.895
    1LIG   HC13   54  -1.714   0.411  -1.833
    1LIG   HC14   55  -1.732   0.172  -1.779
    1LIG   HC15   56  -1.575   0.176  -1.696
    1LIG   HC16   57  -1.751   0.187  -1.530
    1LIG   HC17   58  -1.830   0.321  -1.616
    1LIG   HC18   59  -1.715   0.416  -1.431
    1LIG   HC19   60  -1.567   0.324  -1.466
    1LIG   HC20   61  -1.530   0.550  -1.535
    1LIG   HC21   62  -1.685   0.557  -1.621
    1LIG   HC22   63  -1.441   0.305  -1.510
    1LIG   HC23   64  -1.045   0.208  -1.645
    1LIG   HC24   65  -1.085   0.336  -1.852
    1LIG   HC25   66  -1.306   0.436  -1.895
    1LIG   HC26   67  -1.306   0.144  -1.387
    1LIG   HC27   68  -1.109   0.228  -1.300
    1LIG   HC28   69  -1.023   0.216  -1.457
    1LIG   HC29   70  -0.924   0.031  -1.370
    1LIG   HC30   71  -1.043   0.019  -1.238
    1LIG   HC31   72  -1.148  -0.149  -1.350
    1LIG   HC32   73  -1.033  -0.131  -1.486
   0.00000   0.00000   0.00000
