; Created by cgenff_charmm2gmx.py

[ moleculetype ]
; Name			   nrexcl
LIG				 3

[ atoms ]
;	 nr		  type	resnr residue  atom   cgnr	   charge		mass  typeB    chargeB		massB
; residue	 1 LIG rtp LIG q	qsum
     1     CG2R67      1    LIG     C1      1     -0.000     12.011   ;
     2     CG2R61      1    LIG     C2      2     -0.115     12.011   ;
     3     CG2R61      1    LIG     C3      3     -0.251     12.011   ;
     4     CG2R61      1    LIG     C4      4     -0.108     12.011   ;
     5     CG2R61      1    LIG     C5      5     -0.116     12.011   ;
     6     CG2R61      1    LIG     C6      6     -0.119     12.011   ;
     7     CG3RC1      1    LIG     C7      7      0.458     12.011   ;
     8      NG3P2      1    LIG     N1      8     -1.175     14.007   ;
     9     CG3C53      1    LIG     C8      9      1.683     12.011   ;
    10       HGP2      1    LIG     HN     10      0.467      1.008   ;
    11     OG3C51      1    LIG     O1     11     -0.282     15.999   ;
    12     CG3RC1      1    LIG     C9     12      0.303     12.011   ;
    13      CG321      1    LIG    C10     13      0.022     12.011   ;
    14     OG3C61      1    LIG     O2     14     -0.445     15.999   ;
    15      CG321      1    LIG    C11     15      0.006     12.011   ;
    16      CG321      1    LIG    C12     16     -0.131     12.011   ;
    17      NG3P3      1    LIG     N2     17     -0.781     14.007   ;
    18       HGP2      1    LIG     H1     18      0.307      1.008   ;
    19       HGP2      1    LIG     H2     19      0.307      1.008   ;
    20     CG2R67      1    LIG    C13     20      0.010     12.011   ;
    21     CG2R61      1    LIG    C14     21     -0.095     12.011   ;
    22     CG2R61      1    LIG    C15     22      0.018     12.011   ;
    23      CLGR1      1    LIG     CL     23     -0.200     35.453   ;
    24     CG2R61      1    LIG    C16     24     -0.035     12.011   ;
    25     CG2R66      1    LIG    C17     25      0.097     12.011   ;
    26     CG2R61      1    LIG    C18     26     -0.108     12.011   ;
    27       FGR1      1    LIG      F     27     -0.211     18.998   ;
    28      HGR61      1    LIG     HC     28      0.119      1.008   ;
    29      HGR61      1    LIG    HC1     29      0.119      1.008   ;
    30      HGR61      1    LIG    HC2     30      0.116      1.008   ;
    31      HGR61      1    LIG    HC3     31      0.116      1.008   ;
    32       HGP2      1    LIG    HN2     32      0.467      1.008   ;
    33       HGA1      1    LIG    HC4     33      0.090      1.008   ;
    34       HGA1      1    LIG    HC5     34      0.090      1.008   ;
    35       HGA2      1    LIG    HC6     35      0.090      1.008   ;
    36       HGA2      1    LIG    HC7     36      0.090      1.008   ;
    37       HGA2      1    LIG    HC8     37      0.090      1.008   ;
    38       HGA2      1    LIG    HC9     38      0.090      1.008   ;
    39       HGA2      1    LIG   HC10     39      0.090      1.008   ;
    40       HGA2      1    LIG   HC11     40      0.090      1.008   ;
    41       HGP2      1    LIG    HN1     41      0.307      1.008   ;
    42      HGR62      1    LIG   HC12     42      0.147      1.008   ;
    43      HGR62      1    LIG   HC13     43      0.157      1.008   ;
    44      HGR62      1    LIG   HC14     44      0.176      1.008   ;
    45        LPH      1    LIG    LP1     45      0.050      0.000   ;

[ bonds ]
;	ai	  aj funct			  c0			c1			  c2			c3
    1    20	 1 ;      CG2R67     CG2R67
    1     6	 1 ;      CG2R67     CG2R61
    1     2	 1 ;      CG2R67     CG2R61
    2     3	 1 ;      CG2R61     CG2R61
    2    28	 1 ;      CG2R61      HGR61
    3     4	 1 ;      CG2R61     CG2R61
    3     7	 1 ;      CG2R61     CG3RC1
    4     5	 1 ;      CG2R61     CG2R61
    4    29	 1 ;      CG2R61      HGR61
    5     6	 1 ;      CG2R61     CG2R61
    5    30	 1 ;      CG2R61      HGR61
    6    31	 1 ;      CG2R61      HGR61
    7    16	 1 ;      CG3RC1      CG321
    7    12	 1 ;      CG3RC1     CG3RC1
    7     8	 1 ;      CG3RC1      NG3P2
    8    10	 1 ;       NG3P2       HGP2
    8     9	 1 ;       NG3P2     CG3C53
    8    32	 1 ;       NG3P2       HGP2
    9    11	 1 ;      CG3C53     OG3C51
    9    17	 1 ;      CG3C53      NG3P3
    9    33	 1 ;      CG3C53       HGA1
   11    12	 1 ;      OG3C51     CG3RC1
   12    13	 1 ;      CG3RC1      CG321
   12    34	 1 ;      CG3RC1       HGA1
   13    14	 1 ;       CG321     OG3C61
   13    35	 1 ;       CG321       HGA2
   13    36	 1 ;       CG321       HGA2
   14    15	 1 ;      OG3C61      CG321
   15    16	 1 ;       CG321      CG321
   15    37	 1 ;       CG321       HGA2
   15    38	 1 ;       CG321       HGA2
   16    39	 1 ;       CG321       HGA2
   16    40	 1 ;       CG321       HGA2
   17    19	 1 ;       NG3P3       HGP2
   17    18	 1 ;       NG3P3       HGP2
   17    41	 1 ;       NG3P3       HGP2
   20    21	 1 ;      CG2R67     CG2R61
   20    26	 1 ;      CG2R67     CG2R61
   21    22	 1 ;      CG2R61     CG2R61
   21    42	 1 ;      CG2R61      HGR62
   22    23	 1 ;      CG2R61      CLGR1
   22    24	 1 ;      CG2R61     CG2R61
   24    25	 1 ;      CG2R61     CG2R66
   24    43	 1 ;      CG2R61      HGR62
   25    27	 1 ;      CG2R66       FGR1
   25    26	 1 ;      CG2R66     CG2R61
   26    44	 1 ;      CG2R61      HGR62

[ pairs ]
;	ai	  aj funct			  c0			c1			  c2			c3
    1     4	 1
    1     7	 1
    1    30	 1
    1    22	 1
    1    42	 1
    1    25	 1
    1    44	 1
    2    21	 1
    2    26	 1
    2     5	 1
    2    31	 1
    2    29	 1
    2    16	 1
    2    12	 1
    2     8	 1
    3    20	 1
    3     6	 1
    3    30	 1
    3    15	 1
    3    39	 1
    3    40	 1
    3    13	 1
    3    11	 1
    3    34	 1
    3    10	 1
    3     9	 1
    3    32	 1
    4    28	 1
    4    16	 1
    4    12	 1
    4     8	 1
    4    31	 1
    5    20	 1
    5     7	 1
    6    21	 1
    6    26	 1
    6    28	 1
    6    29	 1
    7    28	 1
    7    29	 1
    7    17	 1
    7    33	 1
    7    14	 1
    7    35	 1
    7    36	 1
    7    37	 1
    7    38	 1
    8    15	 1
    8    39	 1
    8    40	 1
    8    13	 1
    8    34	 1
    8    19	 1
    8    18	 1
    8    41	 1
    9    16	 1
    9    13	 1
    9    34	 1
   10    16	 1
   10    12	 1
   10    11	 1
   10    17	 1
   10    33	 1
   11    16	 1
   11    32	 1
   11    19	 1
   11    18	 1
   11    41	 1
   11    14	 1
   11    35	 1
   11    36	 1
   12    15	 1
   12    39	 1
   12    40	 1
   12    32	 1
   12    17	 1
   12    33	 1
   13    16	 1
   13    37	 1
   13    38	 1
   14    34	 1
   14    39	 1
   14    40	 1
   15    35	 1
   15    36	 1
   16    34	 1
   16    32	 1
   17    32	 1
   18    33	 1
   19    33	 1
   20    31	 1
   20    28	 1
   20    23	 1
   45    20	 1
   20    24	 1
   20    27	 1
   21    25	 1
   21    44	 1
   21    43	 1
   22    26	 1
   22    27	 1
   23    42	 1
   45    42	 1
   23    25	 1
   45    25	 1
   23    43	 1
   45    43	 1
   24    42	 1
   24    44	 1
   26    42	 1
   26    43	 1
   27    43	 1
   27    44	 1
   29    30	 1
   30    31	 1
   32    33	 1
   33    41	 1
   34    35	 1
   34    36	 1
   37    39	 1
   37    40	 1
   38    39	 1
   38    40	 1

[ angles ]
;	ai	  aj	ak funct			c0			  c1			c2			  c3
   20     1     6	5 ;     CG2R67     CG2R67     CG2R61
   20     1     2	5 ;     CG2R67     CG2R67     CG2R61
    6     1     2	5 ;     CG2R61     CG2R67     CG2R61
    1     2     3	5 ;     CG2R67     CG2R61     CG2R61
    1     2    28	5 ;     CG2R67     CG2R61      HGR61
    3     2    28	5 ;     CG2R61     CG2R61      HGR61
    2     3     4	5 ;     CG2R61     CG2R61     CG2R61
    2     3     7	5 ;     CG2R61     CG2R61     CG3RC1
    4     3     7	5 ;     CG2R61     CG2R61     CG3RC1
    5     4     3	5 ;     CG2R61     CG2R61     CG2R61
    5     4    29	5 ;     CG2R61     CG2R61      HGR61
    3     4    29	5 ;     CG2R61     CG2R61      HGR61
    6     5     4	5 ;     CG2R61     CG2R61     CG2R61
    6     5    30	5 ;     CG2R61     CG2R61      HGR61
    4     5    30	5 ;     CG2R61     CG2R61      HGR61
    1     6     5	5 ;     CG2R67     CG2R61     CG2R61
    1     6    31	5 ;     CG2R67     CG2R61      HGR61
    5     6    31	5 ;     CG2R61     CG2R61      HGR61
    3     7    16	5 ;     CG2R61     CG3RC1      CG321
    3     7    12	5 ;     CG2R61     CG3RC1     CG3RC1
    3     7     8	5 ;     CG2R61     CG3RC1      NG3P2
   16     7    12	5 ;      CG321     CG3RC1     CG3RC1
   16     7     8	5 ;      CG321     CG3RC1      NG3P2
   12     7     8	5 ;     CG3RC1     CG3RC1      NG3P2
    7     8    10	5 ;     CG3RC1      NG3P2       HGP2
    7     8     9	5 ;     CG3RC1      NG3P2     CG3C53
    7     8    32	5 ;     CG3RC1      NG3P2       HGP2
   10     8     9	5 ;       HGP2      NG3P2     CG3C53
   10     8    32	5 ;       HGP2      NG3P2       HGP2
    9     8    32	5 ;     CG3C53      NG3P2       HGP2
    8     9    11	5 ;      NG3P2     CG3C53     OG3C51
    8     9    17	5 ;      NG3P2     CG3C53      NG3P3
    8     9    33	5 ;      NG3P2     CG3C53       HGA1
   11     9    17	5 ;     OG3C51     CG3C53      NG3P3
   11     9    33	5 ;     OG3C51     CG3C53       HGA1
   17     9    33	5 ;      NG3P3     CG3C53       HGA1
   12    11     9	5 ;     CG3RC1     OG3C51     CG3C53
   13    12     7	5 ;      CG321     CG3RC1     CG3RC1
   13    12    11	5 ;      CG321     CG3RC1     OG3C51
   13    12    34	5 ;      CG321     CG3RC1       HGA1
    7    12    11	5 ;     CG3RC1     CG3RC1     OG3C51
    7    12    34	5 ;     CG3RC1     CG3RC1       HGA1
   11    12    34	5 ;     OG3C51     CG3RC1       HGA1
   14    13    12	5 ;     OG3C61      CG321     CG3RC1
   14    13    35	5 ;     OG3C61      CG321       HGA2
   14    13    36	5 ;     OG3C61      CG321       HGA2
   12    13    35	5 ;     CG3RC1      CG321       HGA2
   12    13    36	5 ;     CG3RC1      CG321       HGA2
   35    13    36	5 ;       HGA2      CG321       HGA2
   15    14    13	5 ;      CG321     OG3C61      CG321
   14    15    16	5 ;     OG3C61      CG321      CG321
   14    15    37	5 ;     OG3C61      CG321       HGA2
   14    15    38	5 ;     OG3C61      CG321       HGA2
   16    15    37	5 ;      CG321      CG321       HGA2
   16    15    38	5 ;      CG321      CG321       HGA2
   37    15    38	5 ;       HGA2      CG321       HGA2
   15    16     7	5 ;      CG321      CG321     CG3RC1
   15    16    39	5 ;      CG321      CG321       HGA2
   15    16    40	5 ;      CG321      CG321       HGA2
    7    16    39	5 ;     CG3RC1      CG321       HGA2
    7    16    40	5 ;     CG3RC1      CG321       HGA2
   39    16    40	5 ;       HGA2      CG321       HGA2
    9    17    19	5 ;     CG3C53      NG3P3       HGP2
    9    17    18	5 ;     CG3C53      NG3P3       HGP2
    9    17    41	5 ;     CG3C53      NG3P3       HGP2
   19    17    18	5 ;       HGP2      NG3P3       HGP2
   19    17    41	5 ;       HGP2      NG3P3       HGP2
   18    17    41	5 ;       HGP2      NG3P3       HGP2
   21    20    26	5 ;     CG2R61     CG2R67     CG2R61
   21    20     1	5 ;     CG2R61     CG2R67     CG2R67
   26    20     1	5 ;     CG2R61     CG2R67     CG2R67
   22    21    20	5 ;     CG2R61     CG2R61     CG2R67
   22    21    42	5 ;     CG2R61     CG2R61      HGR62
   20    21    42	5 ;     CG2R67     CG2R61      HGR62
   23    22    24	5 ;      CLGR1     CG2R61     CG2R61
   23    22    21	5 ;      CLGR1     CG2R61     CG2R61
   24    22    21	5 ;     CG2R61     CG2R61     CG2R61
   22    24    25	5 ;     CG2R61     CG2R61     CG2R66
   22    24    43	5 ;     CG2R61     CG2R61      HGR62
   25    24    43	5 ;     CG2R66     CG2R61      HGR62
   24    25    27	5 ;     CG2R61     CG2R66       FGR1
   24    25    26	5 ;     CG2R61     CG2R66     CG2R61
   27    25    26	5 ;       FGR1     CG2R66     CG2R61
   25    26    20	5 ;     CG2R66     CG2R61     CG2R67
   25    26    44	5 ;     CG2R66     CG2R61      HGR62
   20    26    44	5 ;     CG2R67     CG2R61      HGR62

[ dihedrals ]
;	ai	  aj	ak	  al funct			  c0			c1			  c2			c3			  c4			c5
    6     1    20    21	 9 ;     CG2R61     CG2R67     CG2R67     CG2R61
    6     1    20    26	 9 ;     CG2R61     CG2R67     CG2R67     CG2R61
    2     1    20    21	 9 ;     CG2R61     CG2R67     CG2R67     CG2R61
    2     1    20    26	 9 ;     CG2R61     CG2R67     CG2R67     CG2R61
   20     1     6     5	 9 ;     CG2R67     CG2R67     CG2R61     CG2R61
   20     1     6    31	 9 ;     CG2R67     CG2R67     CG2R61      HGR61
    2     1     6     5	 9 ;     CG2R61     CG2R67     CG2R61     CG2R61
    2     1     6    31	 9 ;     CG2R61     CG2R67     CG2R61      HGR61
   20     1     2     3	 9 ;     CG2R67     CG2R67     CG2R61     CG2R61
   20     1     2    28	 9 ;     CG2R67     CG2R67     CG2R61      HGR61
    6     1     2     3	 9 ;     CG2R61     CG2R67     CG2R61     CG2R61
    6     1     2    28	 9 ;     CG2R61     CG2R67     CG2R61      HGR61
    1     2     3     4	 9 ;     CG2R67     CG2R61     CG2R61     CG2R61
    1     2     3     7	 9 ;     CG2R67     CG2R61     CG2R61     CG3RC1
   28     2     3     4	 9 ;      HGR61     CG2R61     CG2R61     CG2R61
   28     2     3     7	 9 ;      HGR61     CG2R61     CG2R61     CG3RC1
    2     3     4     5	 9 ;     CG2R61     CG2R61     CG2R61     CG2R61
    2     3     4    29	 9 ;     CG2R61     CG2R61     CG2R61      HGR61
    7     3     4     5	 9 ;     CG3RC1     CG2R61     CG2R61     CG2R61
    7     3     4    29	 9 ;     CG3RC1     CG2R61     CG2R61      HGR61
    2     3     7    16	 9 ;     CG2R61     CG2R61     CG3RC1      CG321
    2     3     7    12	 9 ;     CG2R61     CG2R61     CG3RC1     CG3RC1
    2     3     7     8	 9 ;     CG2R61     CG2R61     CG3RC1      NG3P2
    4     3     7    16	 9 ;     CG2R61     CG2R61     CG3RC1      CG321
    4     3     7    12	 9 ;     CG2R61     CG2R61     CG3RC1     CG3RC1
    4     3     7     8	 9 ;     CG2R61     CG2R61     CG3RC1      NG3P2
    3     4     5     6	 9 ;     CG2R61     CG2R61     CG2R61     CG2R61
    3     4     5    30	 9 ;     CG2R61     CG2R61     CG2R61      HGR61
   29     4     5     6	 9 ;      HGR61     CG2R61     CG2R61     CG2R61
   29     4     5    30	 9 ;      HGR61     CG2R61     CG2R61      HGR61
    4     5     6     1	 9 ;     CG2R61     CG2R61     CG2R61     CG2R67
    4     5     6    31	 9 ;     CG2R61     CG2R61     CG2R61      HGR61
   30     5     6     1	 9 ;      HGR61     CG2R61     CG2R61     CG2R67
   30     5     6    31	 9 ;      HGR61     CG2R61     CG2R61      HGR61
    3     7    16    15	 9 ;     CG2R61     CG3RC1      CG321      CG321
    3     7    16    39	 9 ;     CG2R61     CG3RC1      CG321       HGA2
    3     7    16    40	 9 ;     CG2R61     CG3RC1      CG321       HGA2
   12     7    16    15	 9 ;     CG3RC1     CG3RC1      CG321      CG321
   12     7    16    39	 9 ;     CG3RC1     CG3RC1      CG321       HGA2
   12     7    16    40	 9 ;     CG3RC1     CG3RC1      CG321       HGA2
    8     7    16    15	 9 ;      NG3P2     CG3RC1      CG321      CG321
    8     7    16    39	 9 ;      NG3P2     CG3RC1      CG321       HGA2
    8     7    16    40	 9 ;      NG3P2     CG3RC1      CG321       HGA2
    3     7    12    13	 9 ;     CG2R61     CG3RC1     CG3RC1      CG321
    3     7    12    11	 9 ;     CG2R61     CG3RC1     CG3RC1     OG3C51
    3     7    12    34	 9 ;     CG2R61     CG3RC1     CG3RC1       HGA1
   16     7    12    13	 9 ;      CG321     CG3RC1     CG3RC1      CG321
   16     7    12    11	 9 ;      CG321     CG3RC1     CG3RC1     OG3C51
   16     7    12    34	 9 ;      CG321     CG3RC1     CG3RC1       HGA1
    8     7    12    13	 9 ;      NG3P2     CG3RC1     CG3RC1      CG321
    8     7    12    11	 9 ;      NG3P2     CG3RC1     CG3RC1     OG3C51
    8     7    12    34	 9 ;      NG3P2     CG3RC1     CG3RC1       HGA1
    3     7     8    10	 9 ;     CG2R61     CG3RC1      NG3P2       HGP2
    3     7     8     9	 9 ;     CG2R61     CG3RC1      NG3P2     CG3C53
    3     7     8    32	 9 ;     CG2R61     CG3RC1      NG3P2       HGP2
   16     7     8    10	 9 ;      CG321     CG3RC1      NG3P2       HGP2
   16     7     8     9	 9 ;      CG321     CG3RC1      NG3P2     CG3C53
   16     7     8    32	 9 ;      CG321     CG3RC1      NG3P2       HGP2
   12     7     8    10	 9 ;     CG3RC1     CG3RC1      NG3P2       HGP2
   12     7     8     9	 9 ;     CG3RC1     CG3RC1      NG3P2     CG3C53
   12     7     8    32	 9 ;     CG3RC1     CG3RC1      NG3P2       HGP2
    7     8     9    11	 9 ;     CG3RC1      NG3P2     CG3C53     OG3C51
    7     8     9    17	 9 ;     CG3RC1      NG3P2     CG3C53      NG3P3
    7     8     9    33	 9 ;     CG3RC1      NG3P2     CG3C53       HGA1
   10     8     9    11	 9 ;       HGP2      NG3P2     CG3C53     OG3C51
   10     8     9    17	 9 ;       HGP2      NG3P2     CG3C53      NG3P3
   10     8     9    33	 9 ;       HGP2      NG3P2     CG3C53       HGA1
   32     8     9    11	 9 ;       HGP2      NG3P2     CG3C53     OG3C51
   32     8     9    17	 9 ;       HGP2      NG3P2     CG3C53      NG3P3
   32     8     9    33	 9 ;       HGP2      NG3P2     CG3C53       HGA1
    8     9    11    12	 9 ;      NG3P2     CG3C53     OG3C51     CG3RC1
   17     9    11    12	 9 ;      NG3P3     CG3C53     OG3C51     CG3RC1
   33     9    11    12	 9 ;       HGA1     CG3C53     OG3C51     CG3RC1
    8     9    17    19	 9 ;      NG3P2     CG3C53      NG3P3       HGP2
    8     9    17    18	 9 ;      NG3P2     CG3C53      NG3P3       HGP2
    8     9    17    41	 9 ;      NG3P2     CG3C53      NG3P3       HGP2
   11     9    17    19	 9 ;     OG3C51     CG3C53      NG3P3       HGP2
   11     9    17    18	 9 ;     OG3C51     CG3C53      NG3P3       HGP2
   11     9    17    41	 9 ;     OG3C51     CG3C53      NG3P3       HGP2
   33     9    17    19	 9 ;       HGA1     CG3C53      NG3P3       HGP2
   33     9    17    18	 9 ;       HGA1     CG3C53      NG3P3       HGP2
   33     9    17    41	 9 ;       HGA1     CG3C53      NG3P3       HGP2
    9    11    12    13	 9 ;     CG3C53     OG3C51     CG3RC1      CG321
    9    11    12     7	 9 ;     CG3C53     OG3C51     CG3RC1     CG3RC1
    9    11    12    34	 9 ;     CG3C53     OG3C51     CG3RC1       HGA1
    7    12    13    14	 9 ;     CG3RC1     CG3RC1      CG321     OG3C61
    7    12    13    35	 9 ;     CG3RC1     CG3RC1      CG321       HGA2
    7    12    13    36	 9 ;     CG3RC1     CG3RC1      CG321       HGA2
   11    12    13    14	 9 ;     OG3C51     CG3RC1      CG321     OG3C61
   11    12    13    35	 9 ;     OG3C51     CG3RC1      CG321       HGA2
   11    12    13    36	 9 ;     OG3C51     CG3RC1      CG321       HGA2
   34    12    13    14	 9 ;       HGA1     CG3RC1      CG321     OG3C61
   34    12    13    35	 9 ;       HGA1     CG3RC1      CG321       HGA2
   34    12    13    36	 9 ;       HGA1     CG3RC1      CG321       HGA2
   12    13    14    15	 9 ;     CG3RC1      CG321     OG3C61      CG321
   35    13    14    15	 9 ;       HGA2      CG321     OG3C61      CG321
   36    13    14    15	 9 ;       HGA2      CG321     OG3C61      CG321
   13    14    15    16	 9 ;      CG321     OG3C61      CG321      CG321
   13    14    15    37	 9 ;      CG321     OG3C61      CG321       HGA2
   13    14    15    38	 9 ;      CG321     OG3C61      CG321       HGA2
   14    15    16     7	 9 ;     OG3C61      CG321      CG321     CG3RC1
   14    15    16    39	 9 ;     OG3C61      CG321      CG321       HGA2
   14    15    16    40	 9 ;     OG3C61      CG321      CG321       HGA2
   37    15    16     7	 9 ;       HGA2      CG321      CG321     CG3RC1
   37    15    16    39	 9 ;       HGA2      CG321      CG321       HGA2
   37    15    16    40	 9 ;       HGA2      CG321      CG321       HGA2
   38    15    16     7	 9 ;       HGA2      CG321      CG321     CG3RC1
   38    15    16    39	 9 ;       HGA2      CG321      CG321       HGA2
   38    15    16    40	 9 ;       HGA2      CG321      CG321       HGA2
   26    20    21    22	 9 ;     CG2R61     CG2R67     CG2R61     CG2R61
   26    20    21    42	 9 ;     CG2R61     CG2R67     CG2R61      HGR62
    1    20    21    22	 9 ;     CG2R67     CG2R67     CG2R61     CG2R61
    1    20    21    42	 9 ;     CG2R67     CG2R67     CG2R61      HGR62
   21    20    26    25	 9 ;     CG2R61     CG2R67     CG2R61     CG2R66
   21    20    26    44	 9 ;     CG2R61     CG2R67     CG2R61      HGR62
    1    20    26    25	 9 ;     CG2R67     CG2R67     CG2R61     CG2R66
    1    20    26    44	 9 ;     CG2R67     CG2R67     CG2R61      HGR62
   20    21    22    23	 9 ;     CG2R67     CG2R61     CG2R61      CLGR1
   20    21    22    24	 9 ;     CG2R67     CG2R61     CG2R61     CG2R61
   42    21    22    23	 9 ;      HGR62     CG2R61     CG2R61      CLGR1
   42    21    22    24	 9 ;      HGR62     CG2R61     CG2R61     CG2R61
   23    22    24    25	 9 ;      CLGR1     CG2R61     CG2R61     CG2R66
   23    22    24    43	 9 ;      CLGR1     CG2R61     CG2R61      HGR62
   21    22    24    25	 9 ;     CG2R61     CG2R61     CG2R61     CG2R66
   21    22    24    43	 9 ;     CG2R61     CG2R61     CG2R61      HGR62
   22    24    25    27	 9 ;     CG2R61     CG2R61     CG2R66       FGR1
   22    24    25    26	 9 ;     CG2R61     CG2R61     CG2R66     CG2R61
   43    24    25    27	 9 ;      HGR62     CG2R61     CG2R66       FGR1
   43    24    25    26	 9 ;      HGR62     CG2R61     CG2R66     CG2R61
   24    25    26    20	 9 ;     CG2R61     CG2R66     CG2R61     CG2R67
   24    25    26    44	 9 ;     CG2R61     CG2R66     CG2R61      HGR62
   27    25    26    20	 9 ;       FGR1     CG2R66     CG2R61     CG2R67
   27    25    26    44	 9 ;       FGR1     CG2R66     CG2R61      HGR62

[ virtual_sites2 ]
; Site   from				funct a
   45    23    22     2   -0.164

[ exclusions ]
;	ai	  aj
   23    45
   45    22
   45    24
   45    21
   45    20
   45    42
   45    25
   45    43

