Good ROcking Metal Altar for Chronical Sinners
   45
    1LIG     C1    1  -1.487   0.280  -1.565
    1LIG     C2    2  -1.590   0.360  -1.512
    1LIG     C3    3  -1.714   0.378  -1.578
    1LIG     C4    4  -1.735   0.306  -1.696
    1LIG     C5    5  -1.634   0.226  -1.750
    1LIG     C6    6  -1.511   0.214  -1.686
    1LIG     C7    7  -1.823   0.465  -1.511
    1LIG     N1    8  -1.861   0.397  -1.384
    1LIG     C8    9  -1.966   0.331  -1.422
    1LIG     HN   10  -1.816   0.400  -1.293
    1LIG     O1   11  -2.020   0.354  -1.546
    1LIG     C9   12  -1.961   0.478  -1.574
    1LIG    C10   13  -1.956   0.534  -1.715
    1LIG     O2   14  -1.842   0.620  -1.731
    1LIG    C11   15  -1.812   0.697  -1.614
    1LIG    C12   16  -1.776   0.611  -1.492
    1LIG     N2   17  -2.034   0.239  -1.350
    1LIG     H1   18  -2.030   0.257  -1.251
    1LIG     H2   19  -2.013   0.144  -1.376
    1LIG    C13   20  -1.359   0.266  -1.495
    1LIG    C14   21  -1.272   0.159  -1.523
    1LIG    C15   22  -1.150   0.147  -1.456
    1LIG     CL   23  -1.046   0.014  -1.492
    1LIG    C16   24  -1.112   0.239  -1.360
    1LIG    C17   25  -1.197   0.345  -1.332
    1LIG    C18   26  -1.319   0.359  -1.398
    1LIG      F   27  -1.161   0.435  -1.239
    1LIG     HC   28  -1.574   0.410  -1.418
    1LIG    HC1   29  -1.830   0.312  -1.746
    1LIG    HC2   30  -1.651   0.173  -1.843
    1LIG    HC3   31  -1.433   0.154  -1.730
    1LIG    HN2   32  -1.803   0.318  -1.410
    1LIG    HC4   33  -1.903   0.252  -1.464
    1LIG    HC5   34  -2.015   0.552  -1.515
    1LIG    HC6   35  -1.949   0.451  -1.786
    1LIG    HC7   36  -2.047   0.590  -1.735
    1LIG    HC8   37  -1.727   0.762  -1.637
    1LIG    HC9   38  -1.898   0.760  -1.590
    1LIG   HC10   39  -1.668   0.612  -1.477
    1LIG   HC11   40  -1.824   0.652  -1.403
    1LIG    HN1   41  -2.131   0.252  -1.375
    1LIG   HC12   42  -1.300   0.086  -1.597
    1LIG   HC13   43  -1.018   0.229  -1.308
    1LIG   HC14   44  -1.383   0.443  -1.374
    1LIG    LP1   45  -0.947  -0.112  -1.527
   0.00000   0.00000   0.00000
