GROwing Monsters And Cloning Shrimps
   47
    1LIG     C1    1  -1.472   0.361  -1.574
    1LIG     N1    2  -1.448   0.283  -1.702
    1LIG     HN    3  -1.490   0.194  -1.729
    1LIG     C2    4  -1.363   0.353  -1.771
    1LIG     N2    5  -1.327   0.472  -1.721
    1LIG     C3    6  -1.222   0.559  -1.766
    1LIG     C4    7  -1.402   0.496  -1.610
    1LIG     O1    8  -1.406   0.602  -1.548
    1LIG     C5    9  -1.622   0.372  -1.545
    1LIG     C6   10  -1.668   0.451  -1.437
    1LIG     C7   11  -1.804   0.465  -1.410
    1LIG     C8   12  -1.897   0.396  -1.487
    1LIG     C9   13  -1.855   0.320  -1.595
    1LIG    C10   14  -1.719   0.309  -1.625
    1LIG     O2   15  -1.857   0.540  -1.309
    1LIG    C11   16  -1.998   0.541  -1.301
    1LIG     F1   17  -2.035   0.451  -1.207
    1LIG     F2   18  -2.039   0.663  -1.257
    1LIG    C12   19  -1.394   0.292  -1.459
    1LIG    C13   20  -1.347   0.367  -1.349
    1LIG    C14   21  -1.291   0.305  -1.237
    1LIG    C15   22  -1.283   0.166  -1.232
    1LIG    C16   23  -1.321   0.091  -1.343
    1LIG    C17   24  -1.375   0.153  -1.456
    1LIG     O3   25  -1.237   0.093  -1.126
    1LIG    C18   26  -1.186  -0.035  -1.159
    1LIG     F3   27  -1.050  -0.026  -1.158
    1LIG     F4   28  -1.220  -0.122  -1.061
    1LIG     N3   29  -1.315   0.309  -1.890
    1LIG     H1   30  -1.384   0.254  -1.941
    1LIG     H2   31  -1.269   0.377  -1.948
    1LIG    HN2   32  -1.524   0.333  -1.747
    1LIG     HC   33  -1.280   0.305  -1.719
    1LIG    HC1   34  -1.595   0.501  -1.374
    1LIG    HC2   35  -2.002   0.403  -1.463
    1LIG    HC3   36  -1.928   0.268  -1.657
    1LIG    HC4   37  -1.688   0.252  -1.712
    1LIG    HC5   38  -2.043   0.518  -1.398
    1LIG    HC6   39  -1.355   0.475  -1.352
    1LIG    HC7   40  -1.255   0.364  -1.155
    1LIG    HC8   41  -1.309  -0.017  -1.342
    1LIG    HC9   42  -1.403   0.094  -1.541
    1LIG   HC10   43  -1.222  -0.069  -1.256
    1LIG    HN1   44  -1.243   0.242  -1.866
    1LIG   HC11   45  -1.219   0.648  -1.704
    1LIG   HC12   46  -1.126   0.507  -1.759
    1LIG   HC13   47  -1.240   0.587  -1.870
   0.00000   0.00000   0.00000
