; Created by cgenff_charmm2gmx.py

[ moleculetype ]
; Name			   nrexcl
LIG				 3

[ atoms ]
;	 nr		  type	resnr residue  atom   cgnr	   charge		mass  typeB    chargeB		massB
; residue	 1 LIG rtp LIG q	qsum
     1     CG3C50      1    LIG     C1      1      1.599     12.011   ;
     2      NG3P2      1    LIG     N1      2     -0.701     14.007   ;
     3       HGP2      1    LIG     HN      3      0.353      1.008   ;
     4     CG3C53      1    LIG     C2      4      0.784     12.011   ;
     5     NG2R53      1    LIG     N2      5     -0.171     14.007   ;
     6      CG331      1    LIG     C3      6     -0.169     12.011   ;
     7     CG2R53      1    LIG     C4      7     -0.361     12.011   ;
     8      OG2D1      1    LIG     O1      8     -0.342     15.999   ;
     9     CG2R61      1    LIG     C5      9     -0.151     12.011   ;
    10     CG2R61      1    LIG     C6     10     -0.134     12.011   ;
    11     CG2R61      1    LIG     C7     11      0.228     12.011   ;
    12     CG2R61      1    LIG     C8     12     -0.119     12.011   ;
    13     CG2R61      1    LIG     C9     13     -0.102     12.011   ;
    14     CG2R61      1    LIG    C10     14     -0.131     12.011   ;
    15      OG301      1    LIG     O2     15     -0.272     15.999   ;
    16      CG312      1    LIG    C11     16      0.216     12.011   ;
    17       FGA2      1    LIG     F1     17     -0.160     18.998   ;
    18       FGA2      1    LIG     F2     18     -0.160     18.998   ;
    19     CG2R61      1    LIG    C12     19     -0.154     12.011   ;
    20     CG2R61      1    LIG    C13     20     -0.128     12.011   ;
    21     CG2R61      1    LIG    C14     21     -0.108     12.011   ;
    22     CG2R61      1    LIG    C15     22      0.217     12.011   ;
    23     CG2R61      1    LIG    C16     23     -0.108     12.011   ;
    24     CG2R61      1    LIG    C17     24     -0.128     12.011   ;
    25      OG301      1    LIG     O3     25     -0.272     15.999   ;
    26      CG312      1    LIG    C18     26      0.216     12.011   ;
    27       FGA2      1    LIG     F3     27     -0.160     18.998   ;
    28       FGA2      1    LIG     F4     28     -0.160     18.998   ;
    29      NG3P3      1    LIG     N3     29     -0.267     14.007   ;
    30       HGP2      1    LIG     H1     30      0.301      1.008   ;
    31       HGP2      1    LIG     H2     31      0.301      1.008   ;
    32       HGP2      1    LIG    HN2     32      0.353      1.008   ;
    33       HGA1      1    LIG     HC     33      0.073      1.008   ;
    34      HGR61      1    LIG    HC1     34      0.116      1.008   ;
    35      HGR61      1    LIG    HC2     35      0.116      1.008   ;
    36      HGR61      1    LIG    HC3     36      0.116      1.008   ;
    37      HGR61      1    LIG    HC4     37      0.116      1.008   ;
    38       HGA7      1    LIG    HC5     38      0.159      1.008   ;
    39      HGR61      1    LIG    HC6     39      0.116      1.008   ;
    40      HGR61      1    LIG    HC7     40      0.116      1.008   ;
    41      HGR61      1    LIG    HC8     41      0.116      1.008   ;
    42      HGR61      1    LIG    HC9     42      0.116      1.008   ;
    43       HGA7      1    LIG   HC10     43      0.159      1.008   ;
    44       HGP2      1    LIG    HN1     44      0.301      1.008   ;
    45       HGA3      1    LIG   HC11     45      0.090      1.008   ;
    46       HGA3      1    LIG   HC12     46      0.090      1.008   ;
    47       HGA3      1    LIG   HC13     47      0.090      1.008   ;

[ bonds ]
;	ai	  aj funct			  c0			c1			  c2			c3
    1     2	 1 ;      CG3C50      NG3P2
    1     7	 1 ;      CG3C50     CG2R53
    1    19	 1 ;      CG3C50     CG2R61
    1     9	 1 ;      CG3C50     CG2R61
    2     4	 1 ;       NG3P2     CG3C53
    2     3	 1 ;       NG3P2       HGP2
    2    32	 1 ;       NG3P2       HGP2
    4    29	 1 ;      CG3C53      NG3P3
    4     5	 1 ;      CG3C53     NG2R53
    4    33	 1 ;      CG3C53       HGA1
    5     6	 1 ;      NG2R53      CG331
    5     7	 1 ;      NG2R53     CG2R53
    6    45	 1 ;       CG331       HGA3
    6    46	 1 ;       CG331       HGA3
    6    47	 1 ;       CG331       HGA3
    7     8	 1 ;      CG2R53      OG2D1
    9    14	 1 ;      CG2R61     CG2R61
    9    10	 1 ;      CG2R61     CG2R61
   10    11	 1 ;      CG2R61     CG2R61
   10    34	 1 ;      CG2R61      HGR61
   11    12	 1 ;      CG2R61     CG2R61
   11    15	 1 ;      CG2R61      OG301
   12    13	 1 ;      CG2R61     CG2R61
   12    35	 1 ;      CG2R61      HGR61
   13    14	 1 ;      CG2R61     CG2R61
   13    36	 1 ;      CG2R61      HGR61
   14    37	 1 ;      CG2R61      HGR61
   15    16	 1 ;       OG301      CG312
   16    17	 1 ;       CG312       FGA2
   16    18	 1 ;       CG312       FGA2
   16    38	 1 ;       CG312       HGA7
   19    24	 1 ;      CG2R61     CG2R61
   19    20	 1 ;      CG2R61     CG2R61
   20    21	 1 ;      CG2R61     CG2R61
   20    39	 1 ;      CG2R61      HGR61
   21    22	 1 ;      CG2R61     CG2R61
   21    40	 1 ;      CG2R61      HGR61
   22    23	 1 ;      CG2R61     CG2R61
   22    25	 1 ;      CG2R61      OG301
   23    24	 1 ;      CG2R61     CG2R61
   23    41	 1 ;      CG2R61      HGR61
   24    42	 1 ;      CG2R61      HGR61
   25    26	 1 ;       OG301      CG312
   26    27	 1 ;       CG312       FGA2
   26    28	 1 ;       CG312       FGA2
   26    43	 1 ;       CG312       HGA7
   29    31	 1 ;       NG3P3       HGP2
   29    30	 1 ;       NG3P3       HGP2
   29    44	 1 ;       NG3P3       HGP2

[ pairs ]
;	ai	  aj funct			  c0			c1			  c2			c3
    1    29	 1
    1    33	 1
    1     6	 1
    1    13	 1
    1    37	 1
    1    11	 1
    1    34	 1
    1    23	 1
    1    42	 1
    1    21	 1
    1    39	 1
    2     8	 1
    2    24	 1
    2    20	 1
    2    14	 1
    2    10	 1
    2    31	 1
    2    30	 1
    2    44	 1
    2     6	 1
    3     7	 1
    3    19	 1
    3     9	 1
    3    29	 1
    3     5	 1
    3    33	 1
    4    19	 1
    4     9	 1
    4    45	 1
    4    46	 1
    4    47	 1
    4     8	 1
    5    19	 1
    5     9	 1
    5    32	 1
    5    31	 1
    5    30	 1
    5    44	 1
    6    29	 1
    6    33	 1
    6     8	 1
    7    32	 1
    7    24	 1
    7    20	 1
    7    14	 1
    7    10	 1
    7    29	 1
    7    33	 1
    7    45	 1
    7    46	 1
    7    47	 1
    8    19	 1
    8     9	 1
    9    32	 1
    9    24	 1
    9    20	 1
    9    12	 1
    9    15	 1
    9    36	 1
   10    19	 1
   10    13	 1
   10    37	 1
   10    35	 1
   10    16	 1
   11    14	 1
   11    36	 1
   11    17	 1
   11    18	 1
   11    38	 1
   12    34	 1
   12    16	 1
   12    37	 1
   13    15	 1
   14    19	 1
   14    34	 1
   14    35	 1
   15    34	 1
   15    35	 1
   19    32	 1
   19    22	 1
   19    40	 1
   19    41	 1
   20    23	 1
   20    42	 1
   20    25	 1
   21    24	 1
   21    41	 1
   21    26	 1
   22    39	 1
   22    42	 1
   22    27	 1
   22    28	 1
   22    43	 1
   23    40	 1
   23    26	 1
   24    39	 1
   24    25	 1
   25    40	 1
   25    41	 1
   29    32	 1
   30    33	 1
   31    33	 1
   32    33	 1
   33    44	 1
   35    36	 1
   36    37	 1
   39    40	 1
   41    42	 1

[ angles ]
;	ai	  aj	ak funct			c0			  c1			c2			  c3
    2     1     7	5 ;      NG3P2     CG3C50     CG2R53
    2     1    19	5 ;      NG3P2     CG3C50     CG2R61
    2     1     9	5 ;      NG3P2     CG3C50     CG2R61
    7     1    19	5 ;     CG2R53     CG3C50     CG2R61
    7     1     9	5 ;     CG2R53     CG3C50     CG2R61
   19     1     9	5 ;     CG2R61     CG3C50     CG2R61
    4     2     3	5 ;     CG3C53      NG3P2       HGP2
    4     2     1	5 ;     CG3C53      NG3P2     CG3C50
    4     2    32	5 ;     CG3C53      NG3P2       HGP2
    3     2     1	5 ;       HGP2      NG3P2     CG3C50
    3     2    32	5 ;       HGP2      NG3P2       HGP2
    1     2    32	5 ;     CG3C50      NG3P2       HGP2
   29     4     5	5 ;      NG3P3     CG3C53     NG2R53
   29     4     2	5 ;      NG3P3     CG3C53      NG3P2
   29     4    33	5 ;      NG3P3     CG3C53       HGA1
    5     4     2	5 ;     NG2R53     CG3C53      NG3P2
    5     4    33	5 ;     NG2R53     CG3C53       HGA1
    2     4    33	5 ;      NG3P2     CG3C53       HGA1
    6     5     4	5 ;      CG331     NG2R53     CG3C53
    6     5     7	5 ;      CG331     NG2R53     CG2R53
    4     5     7	5 ;     CG3C53     NG2R53     CG2R53
    5     6    45	5 ;     NG2R53      CG331       HGA3
    5     6    46	5 ;     NG2R53      CG331       HGA3
    5     6    47	5 ;     NG2R53      CG331       HGA3
   45     6    46	5 ;       HGA3      CG331       HGA3
   45     6    47	5 ;       HGA3      CG331       HGA3
   46     6    47	5 ;       HGA3      CG331       HGA3
    5     7     1	5 ;     NG2R53     CG2R53     CG3C50
    5     7     8	5 ;     NG2R53     CG2R53      OG2D1
    1     7     8	5 ;     CG3C50     CG2R53      OG2D1
    1     9    14	5 ;     CG3C50     CG2R61     CG2R61
    1     9    10	5 ;     CG3C50     CG2R61     CG2R61
   14     9    10	5 ;     CG2R61     CG2R61     CG2R61
    9    10    11	5 ;     CG2R61     CG2R61     CG2R61
    9    10    34	5 ;     CG2R61     CG2R61      HGR61
   11    10    34	5 ;     CG2R61     CG2R61      HGR61
   10    11    12	5 ;     CG2R61     CG2R61     CG2R61
   10    11    15	5 ;     CG2R61     CG2R61      OG301
   12    11    15	5 ;     CG2R61     CG2R61      OG301
   13    12    11	5 ;     CG2R61     CG2R61     CG2R61
   13    12    35	5 ;     CG2R61     CG2R61      HGR61
   11    12    35	5 ;     CG2R61     CG2R61      HGR61
   14    13    12	5 ;     CG2R61     CG2R61     CG2R61
   14    13    36	5 ;     CG2R61     CG2R61      HGR61
   12    13    36	5 ;     CG2R61     CG2R61      HGR61
    9    14    13	5 ;     CG2R61     CG2R61     CG2R61
    9    14    37	5 ;     CG2R61     CG2R61      HGR61
   13    14    37	5 ;     CG2R61     CG2R61      HGR61
   11    15    16	5 ;     CG2R61      OG301      CG312
   15    16    17	5 ;      OG301      CG312       FGA2
   15    16    18	5 ;      OG301      CG312       FGA2
   15    16    38	5 ;      OG301      CG312       HGA7
   17    16    18	5 ;       FGA2      CG312       FGA2
   17    16    38	5 ;       FGA2      CG312       HGA7
   18    16    38	5 ;       FGA2      CG312       HGA7
   24    19     1	5 ;     CG2R61     CG2R61     CG3C50
   24    19    20	5 ;     CG2R61     CG2R61     CG2R61
    1    19    20	5 ;     CG3C50     CG2R61     CG2R61
   19    20    21	5 ;     CG2R61     CG2R61     CG2R61
   19    20    39	5 ;     CG2R61     CG2R61      HGR61
   21    20    39	5 ;     CG2R61     CG2R61      HGR61
   22    21    20	5 ;     CG2R61     CG2R61     CG2R61
   22    21    40	5 ;     CG2R61     CG2R61      HGR61
   20    21    40	5 ;     CG2R61     CG2R61      HGR61
   23    22    25	5 ;     CG2R61     CG2R61      OG301
   23    22    21	5 ;     CG2R61     CG2R61     CG2R61
   25    22    21	5 ;      OG301     CG2R61     CG2R61
   24    23    22	5 ;     CG2R61     CG2R61     CG2R61
   24    23    41	5 ;     CG2R61     CG2R61      HGR61
   22    23    41	5 ;     CG2R61     CG2R61      HGR61
   23    24    19	5 ;     CG2R61     CG2R61     CG2R61
   23    24    42	5 ;     CG2R61     CG2R61      HGR61
   19    24    42	5 ;     CG2R61     CG2R61      HGR61
   26    25    22	5 ;      CG312      OG301     CG2R61
   27    26    28	5 ;       FGA2      CG312       FGA2
   27    26    25	5 ;       FGA2      CG312      OG301
   27    26    43	5 ;       FGA2      CG312       HGA7
   28    26    25	5 ;       FGA2      CG312      OG301
   28    26    43	5 ;       FGA2      CG312       HGA7
   25    26    43	5 ;      OG301      CG312       HGA7
   31    29    30	5 ;       HGP2      NG3P3       HGP2
   31    29     4	5 ;       HGP2      NG3P3     CG3C53
   31    29    44	5 ;       HGP2      NG3P3       HGP2
   30    29     4	5 ;       HGP2      NG3P3     CG3C53
   30    29    44	5 ;       HGP2      NG3P3       HGP2
    4    29    44	5 ;     CG3C53      NG3P3       HGP2

[ dihedrals ]
;	ai	  aj	ak	  al funct			  c0			c1			  c2			c3			  c4			c5
    7     1     2     4	 9 ;     CG2R53     CG3C50      NG3P2     CG3C53
    7     1     2     3	 9 ;     CG2R53     CG3C50      NG3P2       HGP2
    7     1     2    32	 9 ;     CG2R53     CG3C50      NG3P2       HGP2
   19     1     2     4	 9 ;     CG2R61     CG3C50      NG3P2     CG3C53
   19     1     2     3	 9 ;     CG2R61     CG3C50      NG3P2       HGP2
   19     1     2    32	 9 ;     CG2R61     CG3C50      NG3P2       HGP2
    9     1     2     4	 9 ;     CG2R61     CG3C50      NG3P2     CG3C53
    9     1     2     3	 9 ;     CG2R61     CG3C50      NG3P2       HGP2
    9     1     2    32	 9 ;     CG2R61     CG3C50      NG3P2       HGP2
    2     1     7     5	 9 ;      NG3P2     CG3C50     CG2R53     NG2R53
    2     1     7     8	 9 ;      NG3P2     CG3C50     CG2R53      OG2D1
   19     1     7     5	 9 ;     CG2R61     CG3C50     CG2R53     NG2R53
   19     1     7     8	 9 ;     CG2R61     CG3C50     CG2R53      OG2D1
    9     1     7     5	 9 ;     CG2R61     CG3C50     CG2R53     NG2R53
    9     1     7     8	 9 ;     CG2R61     CG3C50     CG2R53      OG2D1
    2     1    19    24	 9 ;      NG3P2     CG3C50     CG2R61     CG2R61
    2     1    19    20	 9 ;      NG3P2     CG3C50     CG2R61     CG2R61
    7     1    19    24	 9 ;     CG2R53     CG3C50     CG2R61     CG2R61
    7     1    19    20	 9 ;     CG2R53     CG3C50     CG2R61     CG2R61
    9     1    19    24	 9 ;     CG2R61     CG3C50     CG2R61     CG2R61
    9     1    19    20	 9 ;     CG2R61     CG3C50     CG2R61     CG2R61
    2     1     9    14	 9 ;      NG3P2     CG3C50     CG2R61     CG2R61
    2     1     9    10	 9 ;      NG3P2     CG3C50     CG2R61     CG2R61
    7     1     9    14	 9 ;     CG2R53     CG3C50     CG2R61     CG2R61
    7     1     9    10	 9 ;     CG2R53     CG3C50     CG2R61     CG2R61
   19     1     9    14	 9 ;     CG2R61     CG3C50     CG2R61     CG2R61
   19     1     9    10	 9 ;     CG2R61     CG3C50     CG2R61     CG2R61
    3     2     4    29	 9 ;       HGP2      NG3P2     CG3C53      NG3P3
    3     2     4     5	 9 ;       HGP2      NG3P2     CG3C53     NG2R53
    3     2     4    33	 9 ;       HGP2      NG3P2     CG3C53       HGA1
    1     2     4    29	 9 ;     CG3C50      NG3P2     CG3C53      NG3P3
    1     2     4     5	 9 ;     CG3C50      NG3P2     CG3C53     NG2R53
    1     2     4    33	 9 ;     CG3C50      NG3P2     CG3C53       HGA1
   32     2     4    29	 9 ;       HGP2      NG3P2     CG3C53      NG3P3
   32     2     4     5	 9 ;       HGP2      NG3P2     CG3C53     NG2R53
   32     2     4    33	 9 ;       HGP2      NG3P2     CG3C53       HGA1
    5     4    29    31	 9 ;     NG2R53     CG3C53      NG3P3       HGP2
    5     4    29    30	 9 ;     NG2R53     CG3C53      NG3P3       HGP2
    5     4    29    44	 9 ;     NG2R53     CG3C53      NG3P3       HGP2
    2     4    29    31	 9 ;      NG3P2     CG3C53      NG3P3       HGP2
    2     4    29    30	 9 ;      NG3P2     CG3C53      NG3P3       HGP2
    2     4    29    44	 9 ;      NG3P2     CG3C53      NG3P3       HGP2
   33     4    29    31	 9 ;       HGA1     CG3C53      NG3P3       HGP2
   33     4    29    30	 9 ;       HGA1     CG3C53      NG3P3       HGP2
   33     4    29    44	 9 ;       HGA1     CG3C53      NG3P3       HGP2
   29     4     5     6	 9 ;      NG3P3     CG3C53     NG2R53      CG331
   29     4     5     7	 9 ;      NG3P3     CG3C53     NG2R53     CG2R53
    2     4     5     6	 9 ;      NG3P2     CG3C53     NG2R53      CG331
    2     4     5     7	 9 ;      NG3P2     CG3C53     NG2R53     CG2R53
   33     4     5     6	 9 ;       HGA1     CG3C53     NG2R53      CG331
   33     4     5     7	 9 ;       HGA1     CG3C53     NG2R53     CG2R53
    4     5     6    45	 9 ;     CG3C53     NG2R53      CG331       HGA3
    4     5     6    46	 9 ;     CG3C53     NG2R53      CG331       HGA3
    4     5     6    47	 9 ;     CG3C53     NG2R53      CG331       HGA3
    7     5     6    45	 9 ;     CG2R53     NG2R53      CG331       HGA3
    7     5     6    46	 9 ;     CG2R53     NG2R53      CG331       HGA3
    7     5     6    47	 9 ;     CG2R53     NG2R53      CG331       HGA3
    6     5     7     1	 9 ;      CG331     NG2R53     CG2R53     CG3C50
    6     5     7     8	 9 ;      CG331     NG2R53     CG2R53      OG2D1
    4     5     7     1	 9 ;     CG3C53     NG2R53     CG2R53     CG3C50
    4     5     7     8	 9 ;     CG3C53     NG2R53     CG2R53      OG2D1
    1     9    14    13	 9 ;     CG3C50     CG2R61     CG2R61     CG2R61
    1     9    14    37	 9 ;     CG3C50     CG2R61     CG2R61      HGR61
   10     9    14    13	 9 ;     CG2R61     CG2R61     CG2R61     CG2R61
   10     9    14    37	 9 ;     CG2R61     CG2R61     CG2R61      HGR61
    1     9    10    11	 9 ;     CG3C50     CG2R61     CG2R61     CG2R61
    1     9    10    34	 9 ;     CG3C50     CG2R61     CG2R61      HGR61
   14     9    10    11	 9 ;     CG2R61     CG2R61     CG2R61     CG2R61
   14     9    10    34	 9 ;     CG2R61     CG2R61     CG2R61      HGR61
    9    10    11    12	 9 ;     CG2R61     CG2R61     CG2R61     CG2R61
    9    10    11    15	 9 ;     CG2R61     CG2R61     CG2R61      OG301
   34    10    11    12	 9 ;      HGR61     CG2R61     CG2R61     CG2R61
   34    10    11    15	 9 ;      HGR61     CG2R61     CG2R61      OG301
   10    11    12    13	 9 ;     CG2R61     CG2R61     CG2R61     CG2R61
   10    11    12    35	 9 ;     CG2R61     CG2R61     CG2R61      HGR61
   15    11    12    13	 9 ;      OG301     CG2R61     CG2R61     CG2R61
   15    11    12    35	 9 ;      OG301     CG2R61     CG2R61      HGR61
   10    11    15    16	 9 ;     CG2R61     CG2R61      OG301      CG312
   12    11    15    16	 9 ;     CG2R61     CG2R61      OG301      CG312
   11    12    13    14	 9 ;     CG2R61     CG2R61     CG2R61     CG2R61
   11    12    13    36	 9 ;     CG2R61     CG2R61     CG2R61      HGR61
   35    12    13    14	 9 ;      HGR61     CG2R61     CG2R61     CG2R61
   35    12    13    36	 9 ;      HGR61     CG2R61     CG2R61      HGR61
   12    13    14     9	 9 ;     CG2R61     CG2R61     CG2R61     CG2R61
   12    13    14    37	 9 ;     CG2R61     CG2R61     CG2R61      HGR61
   36    13    14     9	 9 ;      HGR61     CG2R61     CG2R61     CG2R61
   36    13    14    37	 9 ;      HGR61     CG2R61     CG2R61      HGR61
   11    15    16    17	 9 ;     CG2R61      OG301      CG312       FGA2
   11    15    16    18	 9 ;     CG2R61      OG301      CG312       FGA2
   11    15    16    38	 9 ;     CG2R61      OG301      CG312       HGA7
    1    19    24    23	 9 ;     CG3C50     CG2R61     CG2R61     CG2R61
    1    19    24    42	 9 ;     CG3C50     CG2R61     CG2R61      HGR61
   20    19    24    23	 9 ;     CG2R61     CG2R61     CG2R61     CG2R61
   20    19    24    42	 9 ;     CG2R61     CG2R61     CG2R61      HGR61
   24    19    20    21	 9 ;     CG2R61     CG2R61     CG2R61     CG2R61
   24    19    20    39	 9 ;     CG2R61     CG2R61     CG2R61      HGR61
    1    19    20    21	 9 ;     CG3C50     CG2R61     CG2R61     CG2R61
    1    19    20    39	 9 ;     CG3C50     CG2R61     CG2R61      HGR61
   19    20    21    22	 9 ;     CG2R61     CG2R61     CG2R61     CG2R61
   19    20    21    40	 9 ;     CG2R61     CG2R61     CG2R61      HGR61
   39    20    21    22	 9 ;      HGR61     CG2R61     CG2R61     CG2R61
   39    20    21    40	 9 ;      HGR61     CG2R61     CG2R61      HGR61
   20    21    22    23	 9 ;     CG2R61     CG2R61     CG2R61     CG2R61
   20    21    22    25	 9 ;     CG2R61     CG2R61     CG2R61      OG301
   40    21    22    23	 9 ;      HGR61     CG2R61     CG2R61     CG2R61
   40    21    22    25	 9 ;      HGR61     CG2R61     CG2R61      OG301
   25    22    23    24	 9 ;      OG301     CG2R61     CG2R61     CG2R61
   25    22    23    41	 9 ;      OG301     CG2R61     CG2R61      HGR61
   21    22    23    24	 9 ;     CG2R61     CG2R61     CG2R61     CG2R61
   21    22    23    41	 9 ;     CG2R61     CG2R61     CG2R61      HGR61
   23    22    25    26	 9 ;     CG2R61     CG2R61      OG301      CG312
   21    22    25    26	 9 ;     CG2R61     CG2R61      OG301      CG312
   22    23    24    19	 9 ;     CG2R61     CG2R61     CG2R61     CG2R61
   22    23    24    42	 9 ;     CG2R61     CG2R61     CG2R61      HGR61
   41    23    24    19	 9 ;      HGR61     CG2R61     CG2R61     CG2R61
   41    23    24    42	 9 ;      HGR61     CG2R61     CG2R61      HGR61
   22    25    26    27	 9 ;     CG2R61      OG301      CG312       FGA2
   22    25    26    28	 9 ;     CG2R61      OG301      CG312       FGA2
   22    25    26    43	 9 ;     CG2R61      OG301      CG312       HGA7

[ dihedrals ]
;	ai	  aj	ak	  al funct			  c0			c1			  c2			c3
    7     1     5     8	 2

