Georgetown Riga Oslo Madrid Amsterdam Chisinau Stockholm
   53
    1LIG     C1    1  -1.296   0.498  -1.567
    1LIG      S    2  -1.276   0.377  -1.446
    1LIG     C2    3  -1.431   0.316  -1.467
    1LIG     C3    4  -1.510   0.394  -1.549
    1LIG     C4    5  -1.429   0.500  -1.612
    1LIG     C5    6  -1.487   0.601  -1.707
    1LIG     C6    7  -1.545   0.728  -1.645
    1LIG     O1    8  -1.617   0.726  -1.546
    1LIG     N1    9  -1.512   0.855  -1.702
    1LIG     C7   10  -1.548   0.974  -1.655
    1LIG     H1   11  -1.455   0.855  -1.786
    1LIG     N2   12  -1.630   0.987  -1.551
    1LIG     N3   13  -1.502   1.085  -1.714
    1LIG     H2   14  -1.659   1.076  -1.513
    1LIG     H3   15  -1.664   0.903  -1.505
    1LIG     H4   16  -1.434   1.082  -1.789
    1LIG     H5   17  -1.530   1.177  -1.681
    1LIG     C8   18  -1.654   0.360  -1.560
    1LIG     C9   19  -1.745   0.408  -1.464
    1LIG    C10   20  -1.880   0.370  -1.463
    1LIG    C11   21  -1.928   0.285  -1.562
    1LIG    C12   22  -1.840   0.241  -1.661
    1LIG    C13   23  -1.704   0.276  -1.659
    1LIG     O2   24  -2.054   0.233  -1.571
    1LIG    C14   25  -2.138   0.246  -1.456
    1LIG    C15   26  -2.121   0.123  -1.366
    1LIG    C16   27  -2.173  -0.005  -1.431
    1LIG    C17   28  -1.178   0.587  -1.593
    1LIG    C18   29  -1.148   0.689  -1.502
    1LIG    C19   30  -1.031   0.766  -1.512
    1LIG    C20   31  -0.938   0.740  -1.611
    1LIG    C21   32  -0.967   0.642  -1.706
    1LIG    C22   33  -1.087   0.571  -1.701
    1LIG     CL   34  -1.119   0.472  -1.840
    1LIG     HC   35  -1.466   0.225  -1.420
    1LIG    HC2   36  -1.567   0.553  -1.763
    1LIG    HC3   37  -1.409   0.630  -1.778
    1LIG    HC1   38  -1.710   0.477  -1.388
    1LIG    HC4   39  -1.946   0.406  -1.387
    1LIG    HC5   40  -1.877   0.178  -1.741
    1LIG    HC6   41  -1.638   0.237  -1.735
    1LIG    HC7   42  -2.110   0.336  -1.400
    1LIG    HC8   43  -2.242   0.253  -1.487
    1LIG    HC9   44  -2.175   0.140  -1.273
    1LIG   HC10   45  -2.015   0.111  -1.343
    1LIG   HC11   46  -2.158  -0.089  -1.362
    1LIG   HC12   47  -2.279   0.006  -1.452
    1LIG   HC13   48  -2.118  -0.023  -1.523
    1LIG   HC14   49  -1.216   0.709  -1.420
    1LIG   HC15   50  -1.014   0.847  -1.442
    1LIG   HC16   51  -0.845   0.794  -1.615
    1LIG   HC17   52  -0.895   0.622  -1.785
    1LIG    LP1   53  -1.150   0.378  -1.972
   0.00000   0.00000   0.00000
