; Created by cgenff_charmm2gmx.py

[ moleculetype ]
; Name			   nrexcl
LIG				 3

[ atoms ]
;	 nr		  type	resnr residue  atom   cgnr	   charge		mass  typeB    chargeB		massB
; residue	 1 LIG rtp LIG q	qsum
     1     CG2R51      1    LIG     C1      1      0.056     12.011   ;
     2     SG2R50      1    LIG      S      2     -0.158     32.060   ;
     3     CG2R51      1    LIG     C2      3     -0.423     12.011   ;
     4     CG2R51      1    LIG     C3      4      0.028     12.011   ;
     5     CG2R51      1    LIG     C4      5      0.136     12.011   ;
     6      CG321      1    LIG     C5      6      0.082     12.011   ;
     7      CG2O1      1    LIG     C6      7      0.743     12.011   ;
     8      OG2D1      1    LIG     O1      8     -0.536     15.999   ;
     9      NG2P1      1    LIG     N1      9     -0.726     14.007   ;
    10      CG2N1      1    LIG     C7     10      0.696     12.011   ;
    11       HGP2      1    LIG     H1     11      0.476      1.008   ;
    12      NG2P1      1    LIG     N2     12     -0.703     14.007   ;
    13      NG2P1      1    LIG     N3     13     -0.703     14.007   ;
    14       HGP2      1    LIG     H2     14      0.424      1.008   ;
    15       HGP2      1    LIG     H3     15      0.424      1.008   ;
    16       HGP2      1    LIG     H4     16      0.424      1.008   ;
    17       HGP2      1    LIG     H5     17      0.424      1.008   ;
    18     CG2R61      1    LIG     C8     18     -0.074     12.011   ;
    19     CG2R61      1    LIG     C9     19     -0.114     12.011   ;
    20     CG2R61      1    LIG    C10     20     -0.118     12.011   ;
    21     CG2R61      1    LIG    C11     21      0.222     12.011   ;
    22     CG2R61      1    LIG    C12     22     -0.118     12.011   ;
    23     CG2R61      1    LIG    C13     23     -0.114     12.011   ;
    24      OG301      1    LIG     O2     24     -0.394     15.999   ;
    25      CG321      1    LIG    C14     25     -0.010     12.011   ;
    26      CG321      1    LIG    C15     26     -0.178     12.011   ;
    27      CG331      1    LIG    C16     27     -0.270     12.011   ;
    28     CG2R61      1    LIG    C17     28      0.045     12.011   ;
    29     CG2R61      1    LIG    C18     29     -0.114     12.011   ;
    30     CG2R61      1    LIG    C19     30     -0.111     12.011   ;
    31     CG2R61      1    LIG    C20     31     -0.116     12.011   ;
    32     CG2R61      1    LIG    C21     32     -0.104     12.011   ;
    33     CG2R61      1    LIG    C22     33      0.036     12.011   ;
    34      CLGR1      1    LIG     CL     34     -0.190     35.453   ;
    35      HGR52      1    LIG     HC     35      0.236      1.008   ;
    36       HGA2      1    LIG    HC2     36      0.090      1.008   ;
    37       HGA2      1    LIG    HC3     37      0.090      1.008   ;
    38      HGR61      1    LIG    HC1     38      0.116      1.008   ;
    39      HGR61      1    LIG    HC4     39      0.116      1.008   ;
    40      HGR61      1    LIG    HC5     40      0.116      1.008   ;
    41      HGR61      1    LIG    HC6     41      0.116      1.008   ;
    42       HGA2      1    LIG    HC7     42      0.090      1.008   ;
    43       HGA2      1    LIG    HC8     43      0.090      1.008   ;
    44       HGA2      1    LIG    HC9     44      0.090      1.008   ;
    45       HGA2      1    LIG   HC10     45      0.090      1.008   ;
    46       HGA3      1    LIG   HC11     46      0.090      1.008   ;
    47       HGA3      1    LIG   HC12     47      0.090      1.008   ;
    48       HGA3      1    LIG   HC13     48      0.090      1.008   ;
    49      HGR61      1    LIG   HC14     49      0.116      1.008   ;
    50      HGR61      1    LIG   HC15     50      0.116      1.008   ;
    51      HGR61      1    LIG   HC16     51      0.116      1.008   ;
    52      HGR62      1    LIG   HC17     52      0.150      1.008   ;
    53        LPH      1    LIG    LP1     53      0.050      0.000   ;

[ bonds ]
;	ai	  aj funct			  c0			c1			  c2			c3
    1    28	 1 ;      CG2R51     CG2R61
    1     2	 1 ;      CG2R51     SG2R50
    1     5	 1 ;      CG2R51     CG2R51
    2     3	 1 ;      SG2R50     CG2R51
    3     4	 1 ;      CG2R51     CG2R51
    3    35	 1 ;      CG2R51      HGR52
    4     5	 1 ;      CG2R51     CG2R51
    4    18	 1 ;      CG2R51     CG2R61
    5     6	 1 ;      CG2R51      CG321
    6     7	 1 ;       CG321      CG2O1
    6    36	 1 ;       CG321       HGA2
    6    37	 1 ;       CG321       HGA2
    7     9	 1 ;       CG2O1      NG2P1
    7     8	 1 ;       CG2O1      OG2D1
    9    11	 1 ;       NG2P1       HGP2
    9    10	 1 ;       NG2P1      CG2N1
   10    13	 1 ;       CG2N1      NG2P1
   10    12	 1 ;       CG2N1      NG2P1
   12    14	 1 ;       NG2P1       HGP2
   12    15	 1 ;       NG2P1       HGP2
   13    16	 1 ;       NG2P1       HGP2
   13    17	 1 ;       NG2P1       HGP2
   18    23	 1 ;      CG2R61     CG2R61
   18    19	 1 ;      CG2R61     CG2R61
   19    20	 1 ;      CG2R61     CG2R61
   19    38	 1 ;      CG2R61      HGR61
   20    21	 1 ;      CG2R61     CG2R61
   20    39	 1 ;      CG2R61      HGR61
   21    22	 1 ;      CG2R61     CG2R61
   21    24	 1 ;      CG2R61      OG301
   22    23	 1 ;      CG2R61     CG2R61
   22    40	 1 ;      CG2R61      HGR61
   23    41	 1 ;      CG2R61      HGR61
   24    25	 1 ;       OG301      CG321
   25    26	 1 ;       CG321      CG321
   25    42	 1 ;       CG321       HGA2
   25    43	 1 ;       CG321       HGA2
   26    27	 1 ;       CG321      CG331
   26    44	 1 ;       CG321       HGA2
   26    45	 1 ;       CG321       HGA2
   27    46	 1 ;       CG331       HGA3
   27    47	 1 ;       CG331       HGA3
   27    48	 1 ;       CG331       HGA3
   28    33	 1 ;      CG2R61     CG2R61
   28    29	 1 ;      CG2R61     CG2R61
   29    30	 1 ;      CG2R61     CG2R61
   29    49	 1 ;      CG2R61      HGR61
   30    31	 1 ;      CG2R61     CG2R61
   30    50	 1 ;      CG2R61      HGR61
   31    32	 1 ;      CG2R61     CG2R61
   31    51	 1 ;      CG2R61      HGR61
   32    33	 1 ;      CG2R61     CG2R61
   32    52	 1 ;      CG2R61      HGR62
   33    34	 1 ;      CG2R61      CLGR1

[ pairs ]
;	ai	  aj funct			  c0			c1			  c2			c3
    1    35	 1
    1    18	 1
    1     7	 1
    1    36	 1
    1    37	 1
    1    32	 1
    1    34	 1
   53     1	 1
    1    30	 1
    1    49	 1
    2    33	 1
    2    29	 1
    2     6	 1
    2    18	 1
    3    28	 1
    3     6	 1
    3    23	 1
    3    19	 1
    4    28	 1
    4     7	 1
    4    36	 1
    4    37	 1
    4    22	 1
    4    41	 1
    4    20	 1
    4    38	 1
    5    33	 1
    5    29	 1
    5    35	 1
    5    23	 1
    5    19	 1
    5     9	 1
    5     8	 1
    6    28	 1
    6    18	 1
    6    11	 1
    6    10	 1
    7    13	 1
    7    12	 1
    8    36	 1
    8    37	 1
    8    11	 1
    8    10	 1
    9    36	 1
    9    37	 1
    9    16	 1
    9    17	 1
    9    14	 1
    9    15	 1
   11    13	 1
   11    12	 1
   12    16	 1
   12    17	 1
   13    14	 1
   13    15	 1
   18    35	 1
   18    21	 1
   18    39	 1
   18    40	 1
   19    22	 1
   19    41	 1
   19    24	 1
   20    23	 1
   20    40	 1
   20    25	 1
   21    38	 1
   21    41	 1
   21    26	 1
   21    42	 1
   21    43	 1
   22    39	 1
   22    25	 1
   23    38	 1
   23    24	 1
   24    39	 1
   24    40	 1
   24    27	 1
   24    44	 1
   24    45	 1
   25    46	 1
   25    47	 1
   25    48	 1
   27    42	 1
   27    43	 1
   28    31	 1
   28    50	 1
   28    52	 1
   29    32	 1
   29    34	 1
   53    29	 1
   29    51	 1
   30    33	 1
   30    52	 1
   31    49	 1
   31    34	 1
   53    31	 1
   32    50	 1
   33    49	 1
   33    51	 1
   34    52	 1
   53    52	 1
   38    39	 1
   40    41	 1
   42    44	 1
   42    45	 1
   43    44	 1
   43    45	 1
   44    46	 1
   44    47	 1
   44    48	 1
   45    46	 1
   45    47	 1
   45    48	 1
   49    50	 1
   50    51	 1
   51    52	 1

[ angles ]
;	ai	  aj	ak funct			c0			  c1			c2			  c3
   28     1     2	5 ;     CG2R61     CG2R51     SG2R50
   28     1     5	5 ;     CG2R61     CG2R51     CG2R51
    2     1     5	5 ;     SG2R50     CG2R51     CG2R51
    1     2     3	5 ;     CG2R51     SG2R50     CG2R51
    2     3     4	5 ;     SG2R50     CG2R51     CG2R51
    2     3    35	5 ;     SG2R50     CG2R51      HGR52
    4     3    35	5 ;     CG2R51     CG2R51      HGR52
    5     4     3	5 ;     CG2R51     CG2R51     CG2R51
    5     4    18	5 ;     CG2R51     CG2R51     CG2R61
    3     4    18	5 ;     CG2R51     CG2R51     CG2R61
    1     5     6	5 ;     CG2R51     CG2R51      CG321
    1     5     4	5 ;     CG2R51     CG2R51     CG2R51
    6     5     4	5 ;      CG321     CG2R51     CG2R51
    5     6     7	5 ;     CG2R51      CG321      CG2O1
    5     6    36	5 ;     CG2R51      CG321       HGA2
    5     6    37	5 ;     CG2R51      CG321       HGA2
    7     6    36	5 ;      CG2O1      CG321       HGA2
    7     6    37	5 ;      CG2O1      CG321       HGA2
   36     6    37	5 ;       HGA2      CG321       HGA2
    9     7     6	5 ;      NG2P1      CG2O1      CG321
    9     7     8	5 ;      NG2P1      CG2O1      OG2D1
    6     7     8	5 ;      CG321      CG2O1      OG2D1
   11     9    10	5 ;       HGP2      NG2P1      CG2N1
   11     9     7	5 ;       HGP2      NG2P1      CG2O1
   10     9     7	5 ;      CG2N1      NG2P1      CG2O1
   13    10     9	5 ;      NG2P1      CG2N1      NG2P1
   13    10    12	5 ;      NG2P1      CG2N1      NG2P1
    9    10    12	5 ;      NG2P1      CG2N1      NG2P1
   10    12    14	5 ;      CG2N1      NG2P1       HGP2
   10    12    15	5 ;      CG2N1      NG2P1       HGP2
   14    12    15	5 ;       HGP2      NG2P1       HGP2
   16    13    17	5 ;       HGP2      NG2P1       HGP2
   16    13    10	5 ;       HGP2      NG2P1      CG2N1
   17    13    10	5 ;       HGP2      NG2P1      CG2N1
    4    18    23	5 ;     CG2R51     CG2R61     CG2R61
    4    18    19	5 ;     CG2R51     CG2R61     CG2R61
   23    18    19	5 ;     CG2R61     CG2R61     CG2R61
   18    19    20	5 ;     CG2R61     CG2R61     CG2R61
   18    19    38	5 ;     CG2R61     CG2R61      HGR61
   20    19    38	5 ;     CG2R61     CG2R61      HGR61
   19    20    21	5 ;     CG2R61     CG2R61     CG2R61
   19    20    39	5 ;     CG2R61     CG2R61      HGR61
   21    20    39	5 ;     CG2R61     CG2R61      HGR61
   22    21    20	5 ;     CG2R61     CG2R61     CG2R61
   22    21    24	5 ;     CG2R61     CG2R61      OG301
   20    21    24	5 ;     CG2R61     CG2R61      OG301
   23    22    21	5 ;     CG2R61     CG2R61     CG2R61
   23    22    40	5 ;     CG2R61     CG2R61      HGR61
   21    22    40	5 ;     CG2R61     CG2R61      HGR61
   18    23    22	5 ;     CG2R61     CG2R61     CG2R61
   18    23    41	5 ;     CG2R61     CG2R61      HGR61
   22    23    41	5 ;     CG2R61     CG2R61      HGR61
   21    24    25	5 ;     CG2R61      OG301      CG321
   24    25    26	5 ;      OG301      CG321      CG321
   24    25    42	5 ;      OG301      CG321       HGA2
   24    25    43	5 ;      OG301      CG321       HGA2
   26    25    42	5 ;      CG321      CG321       HGA2
   26    25    43	5 ;      CG321      CG321       HGA2
   42    25    43	5 ;       HGA2      CG321       HGA2
   25    26    27	5 ;      CG321      CG321      CG331
   25    26    44	5 ;      CG321      CG321       HGA2
   25    26    45	5 ;      CG321      CG321       HGA2
   27    26    44	5 ;      CG331      CG321       HGA2
   27    26    45	5 ;      CG331      CG321       HGA2
   44    26    45	5 ;       HGA2      CG321       HGA2
   26    27    46	5 ;      CG321      CG331       HGA3
   26    27    47	5 ;      CG321      CG331       HGA3
   26    27    48	5 ;      CG321      CG331       HGA3
   46    27    47	5 ;       HGA3      CG331       HGA3
   46    27    48	5 ;       HGA3      CG331       HGA3
   47    27    48	5 ;       HGA3      CG331       HGA3
   33    28    29	5 ;     CG2R61     CG2R61     CG2R61
   33    28     1	5 ;     CG2R61     CG2R61     CG2R51
   29    28     1	5 ;     CG2R61     CG2R61     CG2R51
   30    29    28	5 ;     CG2R61     CG2R61     CG2R61
   30    29    49	5 ;     CG2R61     CG2R61      HGR61
   28    29    49	5 ;     CG2R61     CG2R61      HGR61
   31    30    29	5 ;     CG2R61     CG2R61     CG2R61
   31    30    50	5 ;     CG2R61     CG2R61      HGR61
   29    30    50	5 ;     CG2R61     CG2R61      HGR61
   32    31    30	5 ;     CG2R61     CG2R61     CG2R61
   32    31    51	5 ;     CG2R61     CG2R61      HGR61
   30    31    51	5 ;     CG2R61     CG2R61      HGR61
   31    32    33	5 ;     CG2R61     CG2R61     CG2R61
   31    32    52	5 ;     CG2R61     CG2R61      HGR62
   33    32    52	5 ;     CG2R61     CG2R61      HGR62
   32    33    34	5 ;     CG2R61     CG2R61      CLGR1
   32    33    28	5 ;     CG2R61     CG2R61     CG2R61
   34    33    28	5 ;      CLGR1     CG2R61     CG2R61

[ dihedrals ]
;	ai	  aj	ak	  al funct			  c0			c1			  c2			c3			  c4			c5
    2     1    28    33	 9 ;     SG2R50     CG2R51     CG2R61     CG2R61
    2     1    28    29	 9 ;     SG2R50     CG2R51     CG2R61     CG2R61
    5     1    28    33	 9 ;     CG2R51     CG2R51     CG2R61     CG2R61
    5     1    28    29	 9 ;     CG2R51     CG2R51     CG2R61     CG2R61
   28     1     2     3	 9 ;     CG2R61     CG2R51     SG2R50     CG2R51
    5     1     2     3	 9 ;     CG2R51     CG2R51     SG2R50     CG2R51
   28     1     5     6	 9 ;     CG2R61     CG2R51     CG2R51      CG321
   28     1     5     4	 9 ;     CG2R61     CG2R51     CG2R51     CG2R51
    2     1     5     6	 9 ;     SG2R50     CG2R51     CG2R51      CG321
    2     1     5     4	 9 ;     SG2R50     CG2R51     CG2R51     CG2R51
    1     2     3     4	 9 ;     CG2R51     SG2R50     CG2R51     CG2R51
    1     2     3    35	 9 ;     CG2R51     SG2R50     CG2R51      HGR52
    2     3     4     5	 9 ;     SG2R50     CG2R51     CG2R51     CG2R51
    2     3     4    18	 9 ;     SG2R50     CG2R51     CG2R51     CG2R61
   35     3     4     5	 9 ;      HGR52     CG2R51     CG2R51     CG2R51
   35     3     4    18	 9 ;      HGR52     CG2R51     CG2R51     CG2R61
    3     4     5     1	 9 ;     CG2R51     CG2R51     CG2R51     CG2R51
    3     4     5     6	 9 ;     CG2R51     CG2R51     CG2R51      CG321
   18     4     5     1	 9 ;     CG2R61     CG2R51     CG2R51     CG2R51
   18     4     5     6	 9 ;     CG2R61     CG2R51     CG2R51      CG321
    5     4    18    23	 9 ;     CG2R51     CG2R51     CG2R61     CG2R61
    5     4    18    19	 9 ;     CG2R51     CG2R51     CG2R61     CG2R61
    3     4    18    23	 9 ;     CG2R51     CG2R51     CG2R61     CG2R61
    3     4    18    19	 9 ;     CG2R51     CG2R51     CG2R61     CG2R61
    1     5     6     7	 9 ;     CG2R51     CG2R51      CG321      CG2O1
    1     5     6    36	 9 ;     CG2R51     CG2R51      CG321       HGA2
    1     5     6    37	 9 ;     CG2R51     CG2R51      CG321       HGA2
    4     5     6     7	 9 ;     CG2R51     CG2R51      CG321      CG2O1
    4     5     6    36	 9 ;     CG2R51     CG2R51      CG321       HGA2
    4     5     6    37	 9 ;     CG2R51     CG2R51      CG321       HGA2
    5     6     7     9	 9 ;     CG2R51      CG321      CG2O1      NG2P1
    5     6     7     8	 9 ;     CG2R51      CG321      CG2O1      OG2D1
   36     6     7     9	 9 ;       HGA2      CG321      CG2O1      NG2P1
   36     6     7     8	 9 ;       HGA2      CG321      CG2O1      OG2D1
   37     6     7     9	 9 ;       HGA2      CG321      CG2O1      NG2P1
   37     6     7     8	 9 ;       HGA2      CG321      CG2O1      OG2D1
    6     7     9    11	 9 ;      CG321      CG2O1      NG2P1       HGP2
    6     7     9    10	 9 ;      CG321      CG2O1      NG2P1      CG2N1
    8     7     9    11	 9 ;      OG2D1      CG2O1      NG2P1       HGP2
    8     7     9    10	 9 ;      OG2D1      CG2O1      NG2P1      CG2N1
   11     9    10    13	 9 ;       HGP2      NG2P1      CG2N1      NG2P1
   11     9    10    12	 9 ;       HGP2      NG2P1      CG2N1      NG2P1
    7     9    10    13	 9 ;      CG2O1      NG2P1      CG2N1      NG2P1
    7     9    10    12	 9 ;      CG2O1      NG2P1      CG2N1      NG2P1
    9    10    13    16	 9 ;      NG2P1      CG2N1      NG2P1       HGP2
    9    10    13    17	 9 ;      NG2P1      CG2N1      NG2P1       HGP2
   12    10    13    16	 9 ;      NG2P1      CG2N1      NG2P1       HGP2
   12    10    13    17	 9 ;      NG2P1      CG2N1      NG2P1       HGP2
   13    10    12    14	 9 ;      NG2P1      CG2N1      NG2P1       HGP2
   13    10    12    15	 9 ;      NG2P1      CG2N1      NG2P1       HGP2
    9    10    12    14	 9 ;      NG2P1      CG2N1      NG2P1       HGP2
    9    10    12    15	 9 ;      NG2P1      CG2N1      NG2P1       HGP2
    4    18    23    22	 9 ;     CG2R51     CG2R61     CG2R61     CG2R61
    4    18    23    41	 9 ;     CG2R51     CG2R61     CG2R61      HGR61
   19    18    23    22	 9 ;     CG2R61     CG2R61     CG2R61     CG2R61
   19    18    23    41	 9 ;     CG2R61     CG2R61     CG2R61      HGR61
    4    18    19    20	 9 ;     CG2R51     CG2R61     CG2R61     CG2R61
    4    18    19    38	 9 ;     CG2R51     CG2R61     CG2R61      HGR61
   23    18    19    20	 9 ;     CG2R61     CG2R61     CG2R61     CG2R61
   23    18    19    38	 9 ;     CG2R61     CG2R61     CG2R61      HGR61
   18    19    20    21	 9 ;     CG2R61     CG2R61     CG2R61     CG2R61
   18    19    20    39	 9 ;     CG2R61     CG2R61     CG2R61      HGR61
   38    19    20    21	 9 ;      HGR61     CG2R61     CG2R61     CG2R61
   38    19    20    39	 9 ;      HGR61     CG2R61     CG2R61      HGR61
   19    20    21    22	 9 ;     CG2R61     CG2R61     CG2R61     CG2R61
   19    20    21    24	 9 ;     CG2R61     CG2R61     CG2R61      OG301
   39    20    21    22	 9 ;      HGR61     CG2R61     CG2R61     CG2R61
   39    20    21    24	 9 ;      HGR61     CG2R61     CG2R61      OG301
   20    21    22    23	 9 ;     CG2R61     CG2R61     CG2R61     CG2R61
   20    21    22    40	 9 ;     CG2R61     CG2R61     CG2R61      HGR61
   24    21    22    23	 9 ;      OG301     CG2R61     CG2R61     CG2R61
   24    21    22    40	 9 ;      OG301     CG2R61     CG2R61      HGR61
   22    21    24    25	 9 ;     CG2R61     CG2R61      OG301      CG321
   20    21    24    25	 9 ;     CG2R61     CG2R61      OG301      CG321
   21    22    23    18	 9 ;     CG2R61     CG2R61     CG2R61     CG2R61
   21    22    23    41	 9 ;     CG2R61     CG2R61     CG2R61      HGR61
   40    22    23    18	 9 ;      HGR61     CG2R61     CG2R61     CG2R61
   40    22    23    41	 9 ;      HGR61     CG2R61     CG2R61      HGR61
   21    24    25    26	 9 ;     CG2R61      OG301      CG321      CG321
   21    24    25    42	 9 ;     CG2R61      OG301      CG321       HGA2
   21    24    25    43	 9 ;     CG2R61      OG301      CG321       HGA2
   24    25    26    27	 9 ;      OG301      CG321      CG321      CG331
   24    25    26    44	 9 ;      OG301      CG321      CG321       HGA2
   24    25    26    45	 9 ;      OG301      CG321      CG321       HGA2
   42    25    26    27	 9 ;       HGA2      CG321      CG321      CG331
   42    25    26    44	 9 ;       HGA2      CG321      CG321       HGA2
   42    25    26    45	 9 ;       HGA2      CG321      CG321       HGA2
   43    25    26    27	 9 ;       HGA2      CG321      CG321      CG331
   43    25    26    44	 9 ;       HGA2      CG321      CG321       HGA2
   43    25    26    45	 9 ;       HGA2      CG321      CG321       HGA2
   25    26    27    46	 9 ;      CG321      CG321      CG331       HGA3
   25    26    27    47	 9 ;      CG321      CG321      CG331       HGA3
   25    26    27    48	 9 ;      CG321      CG321      CG331       HGA3
   44    26    27    46	 9 ;       HGA2      CG321      CG331       HGA3
   44    26    27    47	 9 ;       HGA2      CG321      CG331       HGA3
   44    26    27    48	 9 ;       HGA2      CG321      CG331       HGA3
   45    26    27    46	 9 ;       HGA2      CG321      CG331       HGA3
   45    26    27    47	 9 ;       HGA2      CG321      CG331       HGA3
   45    26    27    48	 9 ;       HGA2      CG321      CG331       HGA3
   29    28    33    32	 9 ;     CG2R61     CG2R61     CG2R61     CG2R61
   29    28    33    34	 9 ;     CG2R61     CG2R61     CG2R61      CLGR1
    1    28    33    32	 9 ;     CG2R51     CG2R61     CG2R61     CG2R61
    1    28    33    34	 9 ;     CG2R51     CG2R61     CG2R61      CLGR1
   33    28    29    30	 9 ;     CG2R61     CG2R61     CG2R61     CG2R61
   33    28    29    49	 9 ;     CG2R61     CG2R61     CG2R61      HGR61
    1    28    29    30	 9 ;     CG2R51     CG2R61     CG2R61     CG2R61
    1    28    29    49	 9 ;     CG2R51     CG2R61     CG2R61      HGR61
   28    29    30    31	 9 ;     CG2R61     CG2R61     CG2R61     CG2R61
   28    29    30    50	 9 ;     CG2R61     CG2R61     CG2R61      HGR61
   49    29    30    31	 9 ;      HGR61     CG2R61     CG2R61     CG2R61
   49    29    30    50	 9 ;      HGR61     CG2R61     CG2R61      HGR61
   29    30    31    32	 9 ;     CG2R61     CG2R61     CG2R61     CG2R61
   29    30    31    51	 9 ;     CG2R61     CG2R61     CG2R61      HGR61
   50    30    31    32	 9 ;      HGR61     CG2R61     CG2R61     CG2R61
   50    30    31    51	 9 ;      HGR61     CG2R61     CG2R61      HGR61
   30    31    32    33	 9 ;     CG2R61     CG2R61     CG2R61     CG2R61
   30    31    32    52	 9 ;     CG2R61     CG2R61     CG2R61      HGR62
   51    31    32    33	 9 ;      HGR61     CG2R61     CG2R61     CG2R61
   51    31    32    52	 9 ;      HGR61     CG2R61     CG2R61      HGR62
   31    32    33    34	 9 ;     CG2R61     CG2R61     CG2R61      CLGR1
   31    32    33    28	 9 ;     CG2R61     CG2R61     CG2R61     CG2R61
   52    32    33    34	 9 ;      HGR62     CG2R61     CG2R61      CLGR1
   52    32    33    28	 9 ;      HGR62     CG2R61     CG2R61     CG2R61

[ dihedrals ]
;	ai	  aj	ak	  al funct			  c0			c1			  c2			c3
    7     6     9     8	 2
   10    13     9    12	 2

[ virtual_sites2 ]
; Site   from				funct a
   53    34    33     2   -0.164

[ exclusions ]
;	ai	  aj
   34    53
   53    33
   53    32
   53    28
   53     1
   53    29
   53    31
   53    52

