Glycine aRginine prOline Methionine Alanine Cystine Serine
   60
    1LIG     C1    1  -1.346   0.467  -1.601
    1LIG     N1    2  -1.301   0.502  -1.740
    1LIG    HN1    3  -1.256   0.442  -1.809
    1LIG     C2    4  -1.332   0.626  -1.752
    1LIG     C3    5  -1.308   0.711  -1.872
    1LIG     C4    6  -1.392   0.682  -1.628
    1LIG     N2    7  -1.393   0.593  -1.534
    1LIG    HN2    8  -1.421   0.605  -1.437
    1LIG     C5    9  -1.221   0.409  -1.526
    1LIG     C6   10  -1.134   0.303  -1.599
    1LIG     C7   11  -1.170   0.155  -1.577
    1LIG     N3   12  -1.211   0.126  -1.440
    1LIG     C8   13  -1.313   0.215  -1.388
    1LIG     C9   14  -1.165   0.025  -1.357
    1LIG    C10   15  -1.256   0.356  -1.385
    1LIG     O1   16  -1.209   0.006  -1.244
    1LIG    C11   17  -1.054  -0.062  -1.410
    1LIG    C12   18  -1.464   0.369  -1.612
    1LIG    C13   19  -1.585   0.401  -1.547
    1LIG    C14   20  -1.708   0.346  -1.585
    1LIG    C15   21  -1.705   0.242  -1.679
    1LIG    C16   22  -1.584   0.198  -1.734
    1LIG    C17   23  -1.465   0.262  -1.702
    1LIG    C18   24  -1.834   0.404  -1.532
    1LIG    C19   25  -1.887   0.523  -1.588
    1LIG    C20   26  -2.004   0.582  -1.540
    1LIG    C21   27  -2.075   0.518  -1.439
    1LIG    C22   28  -2.027   0.400  -1.383
    1LIG    C23   29  -1.907   0.344  -1.429
    1LIG     O2   30  -2.060   0.697  -1.588
    1LIG    C24   31  -2.120   0.688  -1.717
    1LIG     N4   32  -1.435   0.810  -1.613
    1LIG     H1   33  -1.380   0.877  -1.666
    1LIG     H2   34  -1.457   0.842  -1.520
    1LIG    HC1   35  -1.262   0.651  -1.950
    1LIG    HC2   36  -1.242   0.793  -1.845
    1LIG    HC3   37  -1.403   0.751  -1.908
    1LIG     HC   38  -1.155   0.494  -1.510
    1LIG    HC4   39  -1.140   0.323  -1.706
    1LIG    HC5   40  -1.030   0.317  -1.568
    1LIG    HC6   41  -1.083   0.094  -1.601
    1LIG    HC7   42  -1.251   0.128  -1.645
    1LIG    HC8   43  -1.342   0.185  -1.287
    1LIG    HC9   44  -1.401   0.213  -1.453
    1LIG   HC10   45  -1.329   0.423  -1.339
    1LIG   HC11   46  -1.165   0.356  -1.324
    1LIG   HC12   47  -1.026  -0.135  -1.333
    1LIG   HC13   48  -0.968   0.000  -1.434
    1LIG   HC14   49  -1.088  -0.114  -1.499
    1LIG   HC15   50  -1.582   0.471  -1.465
    1LIG   HC16   51  -1.798   0.195  -1.710
    1LIG   HC17   52  -1.584   0.113  -1.802
    1LIG   HC18   53  -1.372   0.229  -1.747
    1LIG   HC19   54  -1.836   0.570  -1.671
    1LIG   HC20   55  -2.168   0.561  -1.403
    1LIG   HC21   56  -2.082   0.351  -1.304
    1LIG   HC22   57  -1.871   0.253  -1.384
    1LIG   HC23   58  -2.161   0.785  -1.744
    1LIG   HC24   59  -2.045   0.659  -1.790
    1LIG   HC25   60  -2.200   0.614  -1.715
   0.00000   0.00000   0.00000
