; Created by cgenff_charmm2gmx.py

[ moleculetype ]
; Name			   nrexcl
LIG				 3

[ atoms ]
;	 nr		  type	resnr residue  atom   cgnr	   charge		mass  typeB    chargeB		massB
; residue	 1 LIG rtp LIG q	qsum
     1     CG3C50      1    LIG     C1      1      0.762     12.011   ;
     2     NG3C51      1    LIG     N1      2     -0.577     14.007   ;
     3       HGP1      1    LIG    HN1      3      0.266      1.008   ;
     4     CG2R51      1    LIG     C2      4     -0.245     12.011   ;
     5      CG331      1    LIG     C3      5     -0.073     12.011   ;
     6     CG2R51      1    LIG     C4      6     -0.019     12.011   ;
     7     NG3C51      1    LIG     N2      7     -0.610     14.007   ;
     8       HGP1      1    LIG    HN2      8      0.266      1.008   ;
     9      CG311      1    LIG     C5      9     -0.004     12.011   ;
    10      CG321      1    LIG     C6     10     -0.136     12.011   ;
    11      CG321      1    LIG     C7     11      0.064     12.011   ;
    12      NG2S0      1    LIG     N3     12     -0.574     14.007   ;
    13      CG321      1    LIG     C8     13      0.064     12.011   ;
    14      CG2O1      1    LIG     C9     14      0.445     12.011   ;
    15      CG321      1    LIG    C10     15     -0.136     12.011   ;
    16      OG2D1      1    LIG     O1     16     -0.522     15.999   ;
    17      CG331      1    LIG    C11     17     -0.195     12.011   ;
    18     CG2R61      1    LIG    C12     18     -0.038     12.011   ;
    19     CG2R61      1    LIG    C13     19     -0.233     12.011   ;
    20     CG2R67      1    LIG    C14     20      0.014     12.011   ;
    21     CG2R61      1    LIG    C15     21     -0.119     12.011   ;
    22     CG2R61      1    LIG    C16     22     -0.108     12.011   ;
    23     CG2R61      1    LIG    C17     23     -0.226     12.011   ;
    24     CG2R67      1    LIG    C18     24      0.006     12.011   ;
    25     CG2R61      1    LIG    C19     25     -0.122     12.011   ;
    26     CG2R61      1    LIG    C20     26      0.209     12.011   ;
    27     CG2R61      1    LIG    C21     27     -0.115     12.011   ;
    28     CG2R61      1    LIG    C22     28     -0.116     12.011   ;
    29     CG2R61      1    LIG    C23     29     -0.119     12.011   ;
    30      OG301      1    LIG     O2     30     -0.383     15.999   ;
    31      CG331      1    LIG    C24     31     -0.094     12.011   ;
    32      NG321      1    LIG     N4     32     -0.622     14.007   ;
    33     HGPAM2      1    LIG     H1     33      0.371      1.008   ;
    34     HGPAM2      1    LIG     H2     34      0.371      1.008   ;
    35       HGA3      1    LIG    HC1     35      0.090      1.008   ;
    36       HGA3      1    LIG    HC2     36      0.090      1.008   ;
    37       HGA3      1    LIG    HC3     37      0.090      1.008   ;
    38       HGA1      1    LIG     HC     38      0.090      1.008   ;
    39       HGA2      1    LIG    HC4     39      0.090      1.008   ;
    40       HGA2      1    LIG    HC5     40      0.090      1.008   ;
    41       HGA2      1    LIG    HC6     41      0.090      1.008   ;
    42       HGA2      1    LIG    HC7     42      0.090      1.008   ;
    43       HGA2      1    LIG    HC8     43      0.090      1.008   ;
    44       HGA2      1    LIG    HC9     44      0.090      1.008   ;
    45       HGA2      1    LIG   HC10     45      0.090      1.008   ;
    46       HGA2      1    LIG   HC11     46      0.090      1.008   ;
    47       HGA3      1    LIG   HC12     47      0.090      1.008   ;
    48       HGA3      1    LIG   HC13     48      0.090      1.008   ;
    49       HGA3      1    LIG   HC14     49      0.090      1.008   ;
    50      HGR61      1    LIG   HC15     50      0.116      1.008   ;
    51      HGR61      1    LIG   HC16     51      0.116      1.008   ;
    52      HGR61      1    LIG   HC17     52      0.116      1.008   ;
    53      HGR61      1    LIG   HC18     53      0.116      1.008   ;
    54      HGR61      1    LIG   HC19     54      0.116      1.008   ;
    55      HGR61      1    LIG   HC20     55      0.116      1.008   ;
    56      HGR61      1    LIG   HC21     56      0.116      1.008   ;
    57      HGR61      1    LIG   HC22     57      0.116      1.008   ;
    58       HGA3      1    LIG   HC23     58      0.090      1.008   ;
    59       HGA3      1    LIG   HC24     59      0.090      1.008   ;
    60       HGA3      1    LIG   HC25     60      0.090      1.008   ;

[ bonds ]
;	ai	  aj funct			  c0			c1			  c2			c3
    1     2	 1 ;      CG3C50     NG3C51
    1     9	 1 ;      CG3C50      CG311
    1     7	 1 ;      CG3C50     NG3C51
    1    18	 1 ;      CG3C50     CG2R61
    2     3	 1 ;      NG3C51       HGP1
    2     4	 1 ;      NG3C51     CG2R51
    4     5	 1 ;      CG2R51      CG331
    4     6	 1 ;      CG2R51     CG2R51
    5    35	 1 ;       CG331       HGA3
    5    36	 1 ;       CG331       HGA3
    5    37	 1 ;       CG331       HGA3
    6    32	 1 ;      CG2R51      NG321
    6     7	 1 ;      CG2R51     NG3C51
    7     8	 1 ;      NG3C51       HGP1
    9    10	 1 ;       CG311      CG321
    9    15	 1 ;       CG311      CG321
    9    38	 1 ;       CG311       HGA1
   10    11	 1 ;       CG321      CG321
   10    39	 1 ;       CG321       HGA2
   10    40	 1 ;       CG321       HGA2
   11    12	 1 ;       CG321      NG2S0
   11    41	 1 ;       CG321       HGA2
   11    42	 1 ;       CG321       HGA2
   12    14	 1 ;       NG2S0      CG2O1
   12    13	 1 ;       NG2S0      CG321
   13    15	 1 ;       CG321      CG321
   13    43	 1 ;       CG321       HGA2
   13    44	 1 ;       CG321       HGA2
   14    17	 1 ;       CG2O1      CG331
   14    16	 1 ;       CG2O1      OG2D1
   15    45	 1 ;       CG321       HGA2
   15    46	 1 ;       CG321       HGA2
   17    47	 1 ;       CG331       HGA3
   17    48	 1 ;       CG331       HGA3
   17    49	 1 ;       CG331       HGA3
   18    23	 1 ;      CG2R61     CG2R61
   18    19	 1 ;      CG2R61     CG2R61
   19    20	 1 ;      CG2R61     CG2R67
   19    50	 1 ;      CG2R61      HGR61
   20    21	 1 ;      CG2R67     CG2R61
   20    24	 1 ;      CG2R67     CG2R67
   21    22	 1 ;      CG2R61     CG2R61
   21    51	 1 ;      CG2R61      HGR61
   22    23	 1 ;      CG2R61     CG2R61
   22    52	 1 ;      CG2R61      HGR61
   23    53	 1 ;      CG2R61      HGR61
   24    25	 1 ;      CG2R67     CG2R61
   24    29	 1 ;      CG2R67     CG2R61
   25    26	 1 ;      CG2R61     CG2R61
   25    54	 1 ;      CG2R61      HGR61
   26    30	 1 ;      CG2R61      OG301
   26    27	 1 ;      CG2R61     CG2R61
   27    28	 1 ;      CG2R61     CG2R61
   27    55	 1 ;      CG2R61      HGR61
   28    29	 1 ;      CG2R61     CG2R61
   28    56	 1 ;      CG2R61      HGR61
   29    57	 1 ;      CG2R61      HGR61
   30    31	 1 ;       OG301      CG331
   31    58	 1 ;       CG331       HGA3
   31    59	 1 ;       CG331       HGA3
   31    60	 1 ;       CG331       HGA3
   32    33	 1 ;       NG321     HGPAM2
   32    34	 1 ;       NG321     HGPAM2

[ pairs ]
;	ai	  aj funct			  c0			c1			  c2			c3
    1     5	 1
    1    32	 1
    1    11	 1
    1    39	 1
    1    40	 1
    1    13	 1
    1    45	 1
    1    46	 1
    1    22	 1
    1    53	 1
    1    20	 1
    1    50	 1
    2    10	 1
    2    15	 1
    2    38	 1
    2     8	 1
    2    23	 1
    2    19	 1
    2    35	 1
    2    36	 1
    2    37	 1
    2    32	 1
    3     9	 1
    3     7	 1
    3    18	 1
    3     5	 1
    3     6	 1
    4     9	 1
    4    18	 1
    4    33	 1
    4    34	 1
    4     8	 1
    5    32	 1
    5     7	 1
    6     9	 1
    6    18	 1
    6    35	 1
    6    36	 1
    6    37	 1
    7    10	 1
    7    15	 1
    7    38	 1
    7    23	 1
    7    19	 1
    7    33	 1
    7    34	 1
    8     9	 1
    8    18	 1
    8    32	 1
    9    23	 1
    9    19	 1
    9    12	 1
    9    41	 1
    9    42	 1
    9    43	 1
    9    44	 1
   10    18	 1
   10    13	 1
   10    45	 1
   10    46	 1
   10    14	 1
   11    15	 1
   11    38	 1
   11    17	 1
   11    16	 1
   11    43	 1
   11    44	 1
   12    39	 1
   12    40	 1
   12    45	 1
   12    46	 1
   12    47	 1
   12    48	 1
   12    49	 1
   13    38	 1
   13    41	 1
   13    42	 1
   13    17	 1
   13    16	 1
   14    41	 1
   14    42	 1
   14    15	 1
   14    43	 1
   14    44	 1
   15    18	 1
   15    39	 1
   15    40	 1
   16    47	 1
   16    48	 1
   16    49	 1
   18    38	 1
   18    21	 1
   18    24	 1
   18    52	 1
   19    22	 1
   19    53	 1
   19    51	 1
   19    25	 1
   19    29	 1
   20    23	 1
   20    52	 1
   20    26	 1
   20    54	 1
   20    28	 1
   20    57	 1
   21    50	 1
   21    25	 1
   21    29	 1
   21    53	 1
   22    24	 1
   23    50	 1
   23    51	 1
   24    50	 1
   24    51	 1
   24    30	 1
   24    27	 1
   24    56	 1
   25    28	 1
   25    57	 1
   25    31	 1
   25    55	 1
   26    29	 1
   26    56	 1
   26    58	 1
   26    59	 1
   26    60	 1
   27    54	 1
   27    31	 1
   27    57	 1
   28    30	 1
   29    54	 1
   29    55	 1
   30    54	 1
   30    55	 1
   38    39	 1
   38    40	 1
   38    45	 1
   38    46	 1
   39    41	 1
   39    42	 1
   40    41	 1
   40    42	 1
   43    45	 1
   43    46	 1
   44    45	 1
   44    46	 1
   51    52	 1
   52    53	 1
   55    56	 1
   56    57	 1

[ angles ]
;	ai	  aj	ak funct			c0			  c1			c2			  c3
    2     1     9	5 ;     NG3C51     CG3C50      CG311
    2     1     7	5 ;     NG3C51     CG3C50     NG3C51
    2     1    18	5 ;     NG3C51     CG3C50     CG2R61
    9     1     7	5 ;      CG311     CG3C50     NG3C51
    9     1    18	5 ;      CG311     CG3C50     CG2R61
    7     1    18	5 ;     NG3C51     CG3C50     CG2R61
    3     2     4	5 ;       HGP1     NG3C51     CG2R51
    3     2     1	5 ;       HGP1     NG3C51     CG3C50
    4     2     1	5 ;     CG2R51     NG3C51     CG3C50
    5     4     2	5 ;      CG331     CG2R51     NG3C51
    5     4     6	5 ;      CG331     CG2R51     CG2R51
    2     4     6	5 ;     NG3C51     CG2R51     CG2R51
    4     5    35	5 ;     CG2R51      CG331       HGA3
    4     5    36	5 ;     CG2R51      CG331       HGA3
    4     5    37	5 ;     CG2R51      CG331       HGA3
   35     5    36	5 ;       HGA3      CG331       HGA3
   35     5    37	5 ;       HGA3      CG331       HGA3
   36     5    37	5 ;       HGA3      CG331       HGA3
    4     6    32	5 ;     CG2R51     CG2R51      NG321
    4     6     7	5 ;     CG2R51     CG2R51     NG3C51
   32     6     7	5 ;      NG321     CG2R51     NG3C51
    6     7     1	5 ;     CG2R51     NG3C51     CG3C50
    6     7     8	5 ;     CG2R51     NG3C51       HGP1
    1     7     8	5 ;     CG3C50     NG3C51       HGP1
   10     9     1	5 ;      CG321      CG311     CG3C50
   10     9    15	5 ;      CG321      CG311      CG321
   10     9    38	5 ;      CG321      CG311       HGA1
    1     9    15	5 ;     CG3C50      CG311      CG321
    1     9    38	5 ;     CG3C50      CG311       HGA1
   15     9    38	5 ;      CG321      CG311       HGA1
   11    10     9	5 ;      CG321      CG321      CG311
   11    10    39	5 ;      CG321      CG321       HGA2
   11    10    40	5 ;      CG321      CG321       HGA2
    9    10    39	5 ;      CG311      CG321       HGA2
    9    10    40	5 ;      CG311      CG321       HGA2
   39    10    40	5 ;       HGA2      CG321       HGA2
   10    11    12	5 ;      CG321      CG321      NG2S0
   10    11    41	5 ;      CG321      CG321       HGA2
   10    11    42	5 ;      CG321      CG321       HGA2
   12    11    41	5 ;      NG2S0      CG321       HGA2
   12    11    42	5 ;      NG2S0      CG321       HGA2
   41    11    42	5 ;       HGA2      CG321       HGA2
   11    12    14	5 ;      CG321      NG2S0      CG2O1
   11    12    13	5 ;      CG321      NG2S0      CG321
   14    12    13	5 ;      CG2O1      NG2S0      CG321
   12    13    15	5 ;      NG2S0      CG321      CG321
   12    13    43	5 ;      NG2S0      CG321       HGA2
   12    13    44	5 ;      NG2S0      CG321       HGA2
   15    13    43	5 ;      CG321      CG321       HGA2
   15    13    44	5 ;      CG321      CG321       HGA2
   43    13    44	5 ;       HGA2      CG321       HGA2
   17    14    12	5 ;      CG331      CG2O1      NG2S0
   17    14    16	5 ;      CG331      CG2O1      OG2D1
   12    14    16	5 ;      NG2S0      CG2O1      OG2D1
    9    15    13	5 ;      CG311      CG321      CG321
    9    15    45	5 ;      CG311      CG321       HGA2
    9    15    46	5 ;      CG311      CG321       HGA2
   13    15    45	5 ;      CG321      CG321       HGA2
   13    15    46	5 ;      CG321      CG321       HGA2
   45    15    46	5 ;       HGA2      CG321       HGA2
   14    17    47	5 ;      CG2O1      CG331       HGA3
   14    17    48	5 ;      CG2O1      CG331       HGA3
   14    17    49	5 ;      CG2O1      CG331       HGA3
   47    17    48	5 ;       HGA3      CG331       HGA3
   47    17    49	5 ;       HGA3      CG331       HGA3
   48    17    49	5 ;       HGA3      CG331       HGA3
    1    18    23	5 ;     CG3C50     CG2R61     CG2R61
    1    18    19	5 ;     CG3C50     CG2R61     CG2R61
   23    18    19	5 ;     CG2R61     CG2R61     CG2R61
   18    19    20	5 ;     CG2R61     CG2R61     CG2R67
   18    19    50	5 ;     CG2R61     CG2R61      HGR61
   20    19    50	5 ;     CG2R67     CG2R61      HGR61
   19    20    21	5 ;     CG2R61     CG2R67     CG2R61
   19    20    24	5 ;     CG2R61     CG2R67     CG2R67
   21    20    24	5 ;     CG2R61     CG2R67     CG2R67
   22    21    20	5 ;     CG2R61     CG2R61     CG2R67
   22    21    51	5 ;     CG2R61     CG2R61      HGR61
   20    21    51	5 ;     CG2R67     CG2R61      HGR61
   23    22    21	5 ;     CG2R61     CG2R61     CG2R61
   23    22    52	5 ;     CG2R61     CG2R61      HGR61
   21    22    52	5 ;     CG2R61     CG2R61      HGR61
   18    23    22	5 ;     CG2R61     CG2R61     CG2R61
   18    23    53	5 ;     CG2R61     CG2R61      HGR61
   22    23    53	5 ;     CG2R61     CG2R61      HGR61
   20    24    25	5 ;     CG2R67     CG2R67     CG2R61
   20    24    29	5 ;     CG2R67     CG2R67     CG2R61
   25    24    29	5 ;     CG2R61     CG2R67     CG2R61
   24    25    26	5 ;     CG2R67     CG2R61     CG2R61
   24    25    54	5 ;     CG2R67     CG2R61      HGR61
   26    25    54	5 ;     CG2R61     CG2R61      HGR61
   25    26    30	5 ;     CG2R61     CG2R61      OG301
   25    26    27	5 ;     CG2R61     CG2R61     CG2R61
   30    26    27	5 ;      OG301     CG2R61     CG2R61
   26    27    28	5 ;     CG2R61     CG2R61     CG2R61
   26    27    55	5 ;     CG2R61     CG2R61      HGR61
   28    27    55	5 ;     CG2R61     CG2R61      HGR61
   29    28    27	5 ;     CG2R61     CG2R61     CG2R61
   29    28    56	5 ;     CG2R61     CG2R61      HGR61
   27    28    56	5 ;     CG2R61     CG2R61      HGR61
   24    29    28	5 ;     CG2R67     CG2R61     CG2R61
   24    29    57	5 ;     CG2R67     CG2R61      HGR61
   28    29    57	5 ;     CG2R61     CG2R61      HGR61
   31    30    26	5 ;      CG331      OG301     CG2R61
   30    31    58	5 ;      OG301      CG331       HGA3
   30    31    59	5 ;      OG301      CG331       HGA3
   30    31    60	5 ;      OG301      CG331       HGA3
   58    31    59	5 ;       HGA3      CG331       HGA3
   58    31    60	5 ;       HGA3      CG331       HGA3
   59    31    60	5 ;       HGA3      CG331       HGA3
   33    32     6	5 ;     HGPAM2      NG321     CG2R51
   33    32    34	5 ;     HGPAM2      NG321     HGPAM2
    6    32    34	5 ;     CG2R51      NG321     HGPAM2

[ dihedrals ]
;	ai	  aj	ak	  al funct			  c0			c1			  c2			c3			  c4			c5
    9     1     2     3	 9 ;      CG311     CG3C50     NG3C51       HGP1
    9     1     2     4	 9 ;      CG311     CG3C50     NG3C51     CG2R51
    7     1     2     3	 9 ;     NG3C51     CG3C50     NG3C51       HGP1
    7     1     2     4	 9 ;     NG3C51     CG3C50     NG3C51     CG2R51
   18     1     2     3	 9 ;     CG2R61     CG3C50     NG3C51       HGP1
   18     1     2     4	 9 ;     CG2R61     CG3C50     NG3C51     CG2R51
    2     1     9    10	 9 ;     NG3C51     CG3C50      CG311      CG321
    2     1     9    15	 9 ;     NG3C51     CG3C50      CG311      CG321
    2     1     9    38	 9 ;     NG3C51     CG3C50      CG311       HGA1
    7     1     9    10	 9 ;     NG3C51     CG3C50      CG311      CG321
    7     1     9    15	 9 ;     NG3C51     CG3C50      CG311      CG321
    7     1     9    38	 9 ;     NG3C51     CG3C50      CG311       HGA1
   18     1     9    10	 9 ;     CG2R61     CG3C50      CG311      CG321
   18     1     9    15	 9 ;     CG2R61     CG3C50      CG311      CG321
   18     1     9    38	 9 ;     CG2R61     CG3C50      CG311       HGA1
    2     1     7     6	 9 ;     NG3C51     CG3C50     NG3C51     CG2R51
    2     1     7     8	 9 ;     NG3C51     CG3C50     NG3C51       HGP1
    9     1     7     6	 9 ;      CG311     CG3C50     NG3C51     CG2R51
    9     1     7     8	 9 ;      CG311     CG3C50     NG3C51       HGP1
   18     1     7     6	 9 ;     CG2R61     CG3C50     NG3C51     CG2R51
   18     1     7     8	 9 ;     CG2R61     CG3C50     NG3C51       HGP1
    2     1    18    23	 9 ;     NG3C51     CG3C50     CG2R61     CG2R61
    2     1    18    19	 9 ;     NG3C51     CG3C50     CG2R61     CG2R61
    9     1    18    23	 9 ;      CG311     CG3C50     CG2R61     CG2R61
    9     1    18    19	 9 ;      CG311     CG3C50     CG2R61     CG2R61
    7     1    18    23	 9 ;     NG3C51     CG3C50     CG2R61     CG2R61
    7     1    18    19	 9 ;     NG3C51     CG3C50     CG2R61     CG2R61
    3     2     4     5	 9 ;       HGP1     NG3C51     CG2R51      CG331
    3     2     4     6	 9 ;       HGP1     NG3C51     CG2R51     CG2R51
    1     2     4     5	 9 ;     CG3C50     NG3C51     CG2R51      CG331
    1     2     4     6	 9 ;     CG3C50     NG3C51     CG2R51     CG2R51
    2     4     5    35	 9 ;     NG3C51     CG2R51      CG331       HGA3
    2     4     5    36	 9 ;     NG3C51     CG2R51      CG331       HGA3
    2     4     5    37	 9 ;     NG3C51     CG2R51      CG331       HGA3
    6     4     5    35	 9 ;     CG2R51     CG2R51      CG331       HGA3
    6     4     5    36	 9 ;     CG2R51     CG2R51      CG331       HGA3
    6     4     5    37	 9 ;     CG2R51     CG2R51      CG331       HGA3
    5     4     6    32	 9 ;      CG331     CG2R51     CG2R51      NG321
    5     4     6     7	 9 ;      CG331     CG2R51     CG2R51     NG3C51
    2     4     6    32	 9 ;     NG3C51     CG2R51     CG2R51      NG321
    2     4     6     7	 9 ;     NG3C51     CG2R51     CG2R51     NG3C51
    4     6    32    33	 9 ;     CG2R51     CG2R51      NG321     HGPAM2
    4     6    32    34	 9 ;     CG2R51     CG2R51      NG321     HGPAM2
    7     6    32    33	 9 ;     NG3C51     CG2R51      NG321     HGPAM2
    7     6    32    34	 9 ;     NG3C51     CG2R51      NG321     HGPAM2
    4     6     7     1	 9 ;     CG2R51     CG2R51     NG3C51     CG3C50
    4     6     7     8	 9 ;     CG2R51     CG2R51     NG3C51       HGP1
   32     6     7     1	 9 ;      NG321     CG2R51     NG3C51     CG3C50
   32     6     7     8	 9 ;      NG321     CG2R51     NG3C51       HGP1
    1     9    10    11	 9 ;     CG3C50      CG311      CG321      CG321
    1     9    10    39	 9 ;     CG3C50      CG311      CG321       HGA2
    1     9    10    40	 9 ;     CG3C50      CG311      CG321       HGA2
   15     9    10    11	 9 ;      CG321      CG311      CG321      CG321
   15     9    10    39	 9 ;      CG321      CG311      CG321       HGA2
   15     9    10    40	 9 ;      CG321      CG311      CG321       HGA2
   38     9    10    11	 9 ;       HGA1      CG311      CG321      CG321
   38     9    10    39	 9 ;       HGA1      CG311      CG321       HGA2
   38     9    10    40	 9 ;       HGA1      CG311      CG321       HGA2
   10     9    15    13	 9 ;      CG321      CG311      CG321      CG321
   10     9    15    45	 9 ;      CG321      CG311      CG321       HGA2
   10     9    15    46	 9 ;      CG321      CG311      CG321       HGA2
    1     9    15    13	 9 ;     CG3C50      CG311      CG321      CG321
    1     9    15    45	 9 ;     CG3C50      CG311      CG321       HGA2
    1     9    15    46	 9 ;     CG3C50      CG311      CG321       HGA2
   38     9    15    13	 9 ;       HGA1      CG311      CG321      CG321
   38     9    15    45	 9 ;       HGA1      CG311      CG321       HGA2
   38     9    15    46	 9 ;       HGA1      CG311      CG321       HGA2
    9    10    11    12	 9 ;      CG311      CG321      CG321      NG2S0
    9    10    11    41	 9 ;      CG311      CG321      CG321       HGA2
    9    10    11    42	 9 ;      CG311      CG321      CG321       HGA2
   39    10    11    12	 9 ;       HGA2      CG321      CG321      NG2S0
   39    10    11    41	 9 ;       HGA2      CG321      CG321       HGA2
   39    10    11    42	 9 ;       HGA2      CG321      CG321       HGA2
   40    10    11    12	 9 ;       HGA2      CG321      CG321      NG2S0
   40    10    11    41	 9 ;       HGA2      CG321      CG321       HGA2
   40    10    11    42	 9 ;       HGA2      CG321      CG321       HGA2
   10    11    12    14	 9 ;      CG321      CG321      NG2S0      CG2O1
   10    11    12    13	 9 ;      CG321      CG321      NG2S0      CG321
   41    11    12    14	 9 ;       HGA2      CG321      NG2S0      CG2O1
   41    11    12    13	 9 ;       HGA2      CG321      NG2S0      CG321
   42    11    12    14	 9 ;       HGA2      CG321      NG2S0      CG2O1
   42    11    12    13	 9 ;       HGA2      CG321      NG2S0      CG321
   11    12    14    17	 9 ;      CG321      NG2S0      CG2O1      CG331
   11    12    14    16	 9 ;      CG321      NG2S0      CG2O1      OG2D1
   13    12    14    17	 9 ;      CG321      NG2S0      CG2O1      CG331
   13    12    14    16	 9 ;      CG321      NG2S0      CG2O1      OG2D1
   11    12    13    15	 9 ;      CG321      NG2S0      CG321      CG321
   11    12    13    43	 9 ;      CG321      NG2S0      CG321       HGA2
   11    12    13    44	 9 ;      CG321      NG2S0      CG321       HGA2
   14    12    13    15	 9 ;      CG2O1      NG2S0      CG321      CG321
   14    12    13    43	 9 ;      CG2O1      NG2S0      CG321       HGA2
   14    12    13    44	 9 ;      CG2O1      NG2S0      CG321       HGA2
   12    13    15     9	 9 ;      NG2S0      CG321      CG321      CG311
   12    13    15    45	 9 ;      NG2S0      CG321      CG321       HGA2
   12    13    15    46	 9 ;      NG2S0      CG321      CG321       HGA2
   43    13    15     9	 9 ;       HGA2      CG321      CG321      CG311
   43    13    15    45	 9 ;       HGA2      CG321      CG321       HGA2
   43    13    15    46	 9 ;       HGA2      CG321      CG321       HGA2
   44    13    15     9	 9 ;       HGA2      CG321      CG321      CG311
   44    13    15    45	 9 ;       HGA2      CG321      CG321       HGA2
   44    13    15    46	 9 ;       HGA2      CG321      CG321       HGA2
   12    14    17    47	 9 ;      NG2S0      CG2O1      CG331       HGA3
   12    14    17    48	 9 ;      NG2S0      CG2O1      CG331       HGA3
   12    14    17    49	 9 ;      NG2S0      CG2O1      CG331       HGA3
   16    14    17    47	 9 ;      OG2D1      CG2O1      CG331       HGA3
   16    14    17    48	 9 ;      OG2D1      CG2O1      CG331       HGA3
   16    14    17    49	 9 ;      OG2D1      CG2O1      CG331       HGA3
    1    18    23    22	 9 ;     CG3C50     CG2R61     CG2R61     CG2R61
    1    18    23    53	 9 ;     CG3C50     CG2R61     CG2R61      HGR61
   19    18    23    22	 9 ;     CG2R61     CG2R61     CG2R61     CG2R61
   19    18    23    53	 9 ;     CG2R61     CG2R61     CG2R61      HGR61
    1    18    19    20	 9 ;     CG3C50     CG2R61     CG2R61     CG2R67
    1    18    19    50	 9 ;     CG3C50     CG2R61     CG2R61      HGR61
   23    18    19    20	 9 ;     CG2R61     CG2R61     CG2R61     CG2R67
   23    18    19    50	 9 ;     CG2R61     CG2R61     CG2R61      HGR61
   18    19    20    21	 9 ;     CG2R61     CG2R61     CG2R67     CG2R61
   18    19    20    24	 9 ;     CG2R61     CG2R61     CG2R67     CG2R67
   50    19    20    21	 9 ;      HGR61     CG2R61     CG2R67     CG2R61
   50    19    20    24	 9 ;      HGR61     CG2R61     CG2R67     CG2R67
   19    20    21    22	 9 ;     CG2R61     CG2R67     CG2R61     CG2R61
   19    20    21    51	 9 ;     CG2R61     CG2R67     CG2R61      HGR61
   24    20    21    22	 9 ;     CG2R67     CG2R67     CG2R61     CG2R61
   24    20    21    51	 9 ;     CG2R67     CG2R67     CG2R61      HGR61
   19    20    24    25	 9 ;     CG2R61     CG2R67     CG2R67     CG2R61
   19    20    24    29	 9 ;     CG2R61     CG2R67     CG2R67     CG2R61
   21    20    24    25	 9 ;     CG2R61     CG2R67     CG2R67     CG2R61
   21    20    24    29	 9 ;     CG2R61     CG2R67     CG2R67     CG2R61
   20    21    22    23	 9 ;     CG2R67     CG2R61     CG2R61     CG2R61
   20    21    22    52	 9 ;     CG2R67     CG2R61     CG2R61      HGR61
   51    21    22    23	 9 ;      HGR61     CG2R61     CG2R61     CG2R61
   51    21    22    52	 9 ;      HGR61     CG2R61     CG2R61      HGR61
   21    22    23    18	 9 ;     CG2R61     CG2R61     CG2R61     CG2R61
   21    22    23    53	 9 ;     CG2R61     CG2R61     CG2R61      HGR61
   52    22    23    18	 9 ;      HGR61     CG2R61     CG2R61     CG2R61
   52    22    23    53	 9 ;      HGR61     CG2R61     CG2R61      HGR61
   20    24    25    26	 9 ;     CG2R67     CG2R67     CG2R61     CG2R61
   20    24    25    54	 9 ;     CG2R67     CG2R67     CG2R61      HGR61
   29    24    25    26	 9 ;     CG2R61     CG2R67     CG2R61     CG2R61
   29    24    25    54	 9 ;     CG2R61     CG2R67     CG2R61      HGR61
   20    24    29    28	 9 ;     CG2R67     CG2R67     CG2R61     CG2R61
   20    24    29    57	 9 ;     CG2R67     CG2R67     CG2R61      HGR61
   25    24    29    28	 9 ;     CG2R61     CG2R67     CG2R61     CG2R61
   25    24    29    57	 9 ;     CG2R61     CG2R67     CG2R61      HGR61
   24    25    26    30	 9 ;     CG2R67     CG2R61     CG2R61      OG301
   24    25    26    27	 9 ;     CG2R67     CG2R61     CG2R61     CG2R61
   54    25    26    30	 9 ;      HGR61     CG2R61     CG2R61      OG301
   54    25    26    27	 9 ;      HGR61     CG2R61     CG2R61     CG2R61
   25    26    30    31	 9 ;     CG2R61     CG2R61      OG301      CG331
   27    26    30    31	 9 ;     CG2R61     CG2R61      OG301      CG331
   25    26    27    28	 9 ;     CG2R61     CG2R61     CG2R61     CG2R61
   25    26    27    55	 9 ;     CG2R61     CG2R61     CG2R61      HGR61
   30    26    27    28	 9 ;      OG301     CG2R61     CG2R61     CG2R61
   30    26    27    55	 9 ;      OG301     CG2R61     CG2R61      HGR61
   26    27    28    29	 9 ;     CG2R61     CG2R61     CG2R61     CG2R61
   26    27    28    56	 9 ;     CG2R61     CG2R61     CG2R61      HGR61
   55    27    28    29	 9 ;      HGR61     CG2R61     CG2R61     CG2R61
   55    27    28    56	 9 ;      HGR61     CG2R61     CG2R61      HGR61
   27    28    29    24	 9 ;     CG2R61     CG2R61     CG2R61     CG2R67
   27    28    29    57	 9 ;     CG2R61     CG2R61     CG2R61      HGR61
   56    28    29    24	 9 ;      HGR61     CG2R61     CG2R61     CG2R67
   56    28    29    57	 9 ;      HGR61     CG2R61     CG2R61      HGR61
   26    30    31    58	 9 ;     CG2R61      OG301      CG331       HGA3
   26    30    31    59	 9 ;     CG2R61      OG301      CG331       HGA3
   26    30    31    60	 9 ;     CG2R61      OG301      CG331       HGA3

[ dihedrals ]
;	ai	  aj	ak	  al funct			  c0			c1			  c2			c3
   14    17    12    16	 2

