Great Red Oystrich Makes All Chemists Sane
   59
    1LIG     C1    1  -1.730   0.401  -1.597
    1LIG     C2    2  -1.750   0.531  -1.677
    1LIG      S    3  -1.601   0.595  -1.748
    1LIG     O1    4  -1.510   0.623  -1.638
    1LIG     O2    5  -1.633   0.695  -1.847
    1LIG     C3    6  -1.533   0.454  -1.831
    1LIG     C4    7  -1.511   0.341  -1.730
    1LIG     C5    8  -1.647   0.294  -1.672
    1LIG      N    9  -1.410   0.383  -1.625
    1LIG     H1   10  -1.374   0.477  -1.648
    1LIG     H2   11  -1.457   0.402  -1.533
    1LIG     C6   12  -1.290   0.300  -1.597
    1LIG     C7   13  -1.291   0.258  -1.453
    1LIG     C8   14  -1.279   0.123  -1.417
    1LIG     C9   15  -1.264   0.085  -1.283
    1LIG    C10   16  -1.265   0.185  -1.184
    1LIG    C11   17  -1.279   0.319  -1.219
    1LIG    C12   18  -1.292   0.355  -1.352
    1LIG    C13   19  -1.247  -0.062  -1.246
    1LIG    C14   20  -1.102  -0.107  -1.266
    1LIG    C15   21  -1.295  -0.090  -1.104
    1LIG     O3   22  -1.619   0.180  -1.590
    1LIG     H3   23  -1.634   0.199  -1.496
    1LIG    C16   24  -1.867   0.347  -1.547
    1LIG    C17   25  -1.948   0.440  -1.460
    1LIG    C18   26  -2.085   0.459  -1.482
    1LIG    C19   27  -2.159   0.546  -1.400
    1LIG     BR   28  -2.344   0.567  -1.436
    1LIG    C20   29  -2.097   0.614  -1.296
    1LIG    C21   30  -1.961   0.594  -1.271
    1LIG    C22   31  -1.888   0.508  -1.352
    1LIG     O4   32  -2.169   0.699  -1.217
    1LIG     H4   33  -2.196   0.777  -1.268
    1LIG     HC   34  -1.673   0.428  -1.508
    1LIG    HC2   35  -1.791   0.607  -1.610
    1LIG    HC3   36  -1.822   0.512  -1.757
    1LIG    HC4   37  -1.438   0.481  -1.877
    1LIG    HC5   38  -1.602   0.420  -1.908
    1LIG    HC1   39  -1.468   0.257  -1.785
    1LIG    HC6   40  -1.708   0.259  -1.756
    1LIG    HC7   41  -1.291   0.211  -1.661
    1LIG    HC8   42  -1.200   0.358  -1.617
    1LIG    HC9   43  -1.280   0.047  -1.494
    1LIG   HC10   44  -1.254   0.157  -1.081
    1LIG   HC11   45  -1.281   0.395  -1.142
    1LIG   HC12   46  -1.302   0.460  -1.379
    1LIG   HC13   47  -1.309  -0.120  -1.314
    1LIG   HC14   48  -1.927   0.323  -1.635
    1LIG   HC15   49  -1.849   0.255  -1.491
    1LIG   HC16   50  -2.134   0.407  -1.563
    1LIG   HC17   51  -1.913   0.646  -1.190
    1LIG   HC18   52  -1.783   0.492  -1.332
    1LIG   HC19   53  -1.071  -0.086  -1.369
    1LIG   HC20   54  -1.095  -0.214  -1.248
    1LIG   HC21   55  -1.037  -0.053  -1.197
    1LIG   HC22   56  -1.301  -0.197  -1.088
    1LIG   HC23   57  -1.224  -0.047  -1.033
    1LIG   HC24   58  -1.393  -0.045  -1.089
    1LIG    LP1   59  -2.529   0.587  -1.471
   0.00000   0.00000   0.00000
