Great Red Oystrich Makes All Chemists Sane
   78
    1LIG      S    1  -1.630   0.690  -1.396
    1LIG     O1    2  -1.656   0.836  -1.417
    1LIG     C1    3  -1.788   0.604  -1.417
    1LIG     C2    4  -1.765   0.452  -1.416
    1LIG     C3    5  -1.686   0.412  -1.544
    1LIG     C4    6  -1.546   0.480  -1.556
    1LIG     C5    7  -1.558   0.631  -1.551
    1LIG     C6    8  -1.900   0.377  -1.407
    1LIG     C7    9  -1.993   0.420  -1.294
    1LIG     C8   10  -1.974   0.374  -1.163
    1LIG     C9   11  -2.068   0.401  -1.061
    1LIG    C10   12  -2.180   0.482  -1.090
    1LIG    C11   13  -2.193   0.535  -1.219
    1LIG     F1   14  -2.296   0.615  -1.248
    1LIG    C12   15  -2.104   0.501  -1.321
    1LIG     O2   16  -2.060   0.351  -0.933
    1LIG    C13   17  -2.089   0.210  -0.918
    1LIG    C14   18  -1.982   0.140  -0.834
    1LIG     F2   19  -1.860   0.140  -0.892
    1LIG     F3   20  -1.968   0.192  -0.711
    1LIG     F4   21  -2.015   0.009  -0.818
    1LIG    C15   22  -2.225   0.188  -0.852
    1LIG     O3   23  -2.334   0.221  -0.939
    1LIG    C16   24  -2.339   0.132  -1.051
    1LIG     N1   25  -2.265   0.526  -0.987
    1LIG     H1   26  -2.278   0.457  -0.913
    1LIG     H2   27  -2.242   0.619  -0.953
    1LIG     O4   28  -1.660   0.271  -1.554
    1LIG     H3   29  -1.744   0.221  -1.550
    1LIG     N2   30  -1.486   0.428  -1.688
    1LIG     H4   31  -1.540   0.342  -1.710
    1LIG     H5   32  -1.512   0.492  -1.764
    1LIG    C17   33  -1.337   0.397  -1.702
    1LIG    C18   34  -1.315   0.331  -1.839
    1LIG    C19   35  -1.282   0.328  -1.578
    1LIG    C20   36  -1.314   0.192  -1.557
    1LIG    C21   37  -1.237   0.110  -1.471
    1LIG    C22   38  -1.138   0.172  -1.395
    1LIG    C23   39  -1.115   0.310  -1.404
    1LIG    C24   40  -1.187   0.387  -1.494
    1LIG    C25   41  -1.258  -0.043  -1.470
    1LIG    C26   42  -1.291  -0.091  -1.327
    1LIG    C27   43  -1.374  -0.091  -1.561
    1LIG    C28   44  -1.130  -0.115  -1.517
    1LIG    HC2   45  -1.855   0.631  -1.336
    1LIG    HC3   46  -1.833   0.632  -1.512
    1LIG     HC   47  -1.705   0.426  -1.329
    1LIG    HC1   48  -1.745   0.441  -1.630
    1LIG    HC4   49  -1.483   0.447  -1.473
    1LIG    HC5   50  -1.621   0.663  -1.634
    1LIG    HC6   51  -1.459   0.674  -1.563
    1LIG    HC7   52  -1.879   0.271  -1.393
    1LIG    HC8   53  -1.953   0.390  -1.501
    1LIG    HC9   54  -1.886   0.316  -1.139
    1LIG   HC10   55  -2.121   0.538  -1.422
    1LIG   HC11   56  -2.091   0.164  -1.017
    1LIG   HC12   57  -2.234   0.083  -0.823
    1LIG   HC13   58  -2.232   0.250  -0.762
    1LIG   HC14   59  -1.287   0.494  -1.708
    1LIG   HC15   60  -1.398   0.149  -1.608
    1LIG   HC16   61  -1.078   0.113  -1.327
    1LIG   HC17   62  -1.041   0.356  -1.340
    1LIG   HC18   63  -1.169   0.494  -1.500
    1LIG   HC19   64  -1.355  -0.060  -1.663
    1LIG   HC20   65  -1.381  -0.199  -1.556
    1LIG   HC21   66  -1.467  -0.047  -1.526
    1LIG   HC22   67  -1.209   0.308  -1.851
    1LIG   HC23   68  -1.373   0.239  -1.844
    1LIG   HC24   69  -1.347   0.399  -1.918
    1LIG   HC25   70  -1.212  -0.060  -1.259
    1LIG   HC26   71  -1.300  -0.199  -1.326
    1LIG   HC27   72  -1.386  -0.047  -1.295
    1LIG   HC28   73  -2.422   0.160  -1.115
    1LIG   HC29   74  -2.246   0.139  -1.107
    1LIG   HC30   75  -2.352   0.030  -1.016
    1LIG   HC31   76  -1.046  -0.083  -1.455
    1LIG   HC32   77  -1.110  -0.089  -1.621
    1LIG   HC33   78  -1.143  -0.223  -1.508
   0.00000   0.00000   0.00000
