; Created by cgenff_charmm2gmx.py

[ moleculetype ]
; Name			   nrexcl
LIG				 3

[ atoms ]
;	 nr		  type	resnr residue  atom   cgnr	   charge		mass  typeB    chargeB		massB
; residue	 1 LIG rtp LIG q	qsum
     1     CG2R67      1    LIG     C1      1      0.006     12.011   ;
     2     CG2R61      1    LIG     C2      2     -0.126     12.011   ;
     3     CG2R61      1    LIG     C3      3      0.057     12.011   ;
     4     CG2R61      1    LIG     C4      4     -0.119     12.011   ;
     5     CG2R61      1    LIG     C5      5     -0.116     12.011   ;
     6     CG2R61      1    LIG     C6      6     -0.119     12.011   ;
     7      CG301      1    LIG     C7      7      0.457     12.011   ;
     8      NG3P2      1    LIG     N1      8     -0.588     14.007   ;
     9      CG314      1    LIG     C8      9      0.982     12.011   ;
    10       HGP2      1    LIG     HN     10      0.345      1.008   ;
    11      NG2S0      1    LIG     N2     11     -0.207     14.007   ;
    12      CG331      1    LIG     C9     12     -0.218     12.011   ;
    13      CG2O1      1    LIG    C10     13      0.531     12.011   ;
    14      OG2D1      1    LIG     O1     14     -0.542     15.999   ;
    15      CG321      1    LIG    C11     15     -0.238     12.011   ;
    16      CG331      1    LIG    C12     16     -0.303     12.011   ;
    17      NG3P3      1    LIG     N3     17     -0.360     14.007   ;
    18       HGP2      1    LIG     H1     18      0.313      1.008   ;
    19       HGP2      1    LIG     H2     19      0.313      1.008   ;
    20     CG2R67      1    LIG    C13     20      0.006     12.011   ;
    21     CG2R61      1    LIG    C14     21     -0.122     12.011   ;
    22     CG2R61      1    LIG    C15     22      0.209     12.011   ;
    23     CG2R61      1    LIG    C16     23     -0.115     12.011   ;
    24     CG2R61      1    LIG    C17     24     -0.116     12.011   ;
    25     CG2R61      1    LIG    C18     25     -0.119     12.011   ;
    26      OG301      1    LIG     O2     26     -0.383     15.999   ;
    27      CG331      1    LIG    C19     27     -0.094     12.011   ;
    28      HGR61      1    LIG     HC     28      0.116      1.008   ;
    29      HGR61      1    LIG    HC1     29      0.116      1.008   ;
    30      HGR61      1    LIG    HC2     30      0.116      1.008   ;
    31      HGR61      1    LIG    HC3     31      0.116      1.008   ;
    32       HGP2      1    LIG    HN2     32      0.345      1.008   ;
    33       HGA1      1    LIG    HC4     33      0.090      1.008   ;
    34       HGA3      1    LIG    HC5     34      0.090      1.008   ;
    35       HGA3      1    LIG    HC6     35      0.090      1.008   ;
    36       HGA3      1    LIG    HC7     36      0.090      1.008   ;
    37       HGA2      1    LIG    HC8     37      0.090      1.008   ;
    38       HGA2      1    LIG    HC9     38      0.090      1.008   ;
    39       HGA3      1    LIG   HC10     39      0.090      1.008   ;
    40       HGA3      1    LIG   HC11     40      0.090      1.008   ;
    41       HGA3      1    LIG   HC12     41      0.090      1.008   ;
    42       HGP2      1    LIG    HN1     42      0.313      1.008   ;
    43      HGR61      1    LIG   HC13     43      0.116      1.008   ;
    44      HGR61      1    LIG   HC14     44      0.116      1.008   ;
    45      HGR61      1    LIG   HC15     45      0.116      1.008   ;
    46      HGR61      1    LIG   HC16     46      0.116      1.008   ;
    47       HGA3      1    LIG   HC17     47      0.090      1.008   ;
    48       HGA3      1    LIG   HC18     48      0.090      1.008   ;
    49       HGA3      1    LIG   HC19     49      0.090      1.008   ;

[ bonds ]
;	ai	  aj funct			  c0			c1			  c2			c3
    1     2	 1 ;      CG2R67     CG2R61
    1     6	 1 ;      CG2R67     CG2R61
    1    20	 1 ;      CG2R67     CG2R67
    2     3	 1 ;      CG2R61     CG2R61
    2    28	 1 ;      CG2R61      HGR61
    3     7	 1 ;      CG2R61      CG301
    3     4	 1 ;      CG2R61     CG2R61
    4     5	 1 ;      CG2R61     CG2R61
    4    29	 1 ;      CG2R61      HGR61
    5     6	 1 ;      CG2R61     CG2R61
    5    30	 1 ;      CG2R61      HGR61
    6    31	 1 ;      CG2R61      HGR61
    7    15	 1 ;       CG301      CG321
    7    16	 1 ;       CG301      CG331
    7     8	 1 ;       CG301      NG3P2
    8     9	 1 ;       NG3P2      CG314
    8    10	 1 ;       NG3P2       HGP2
    8    32	 1 ;       NG3P2       HGP2
    9    11	 1 ;       CG314      NG2S0
    9    17	 1 ;       CG314      NG3P3
    9    33	 1 ;       CG314       HGA1
   11    13	 1 ;       NG2S0      CG2O1
   11    12	 1 ;       NG2S0      CG331
   12    34	 1 ;       CG331       HGA3
   12    35	 1 ;       CG331       HGA3
   12    36	 1 ;       CG331       HGA3
   13    14	 1 ;       CG2O1      OG2D1
   13    15	 1 ;       CG2O1      CG321
   15    37	 1 ;       CG321       HGA2
   15    38	 1 ;       CG321       HGA2
   16    39	 1 ;       CG331       HGA3
   16    40	 1 ;       CG331       HGA3
   16    41	 1 ;       CG331       HGA3
   17    18	 1 ;       NG3P3       HGP2
   17    19	 1 ;       NG3P3       HGP2
   17    42	 1 ;       NG3P3       HGP2
   20    21	 1 ;      CG2R67     CG2R61
   20    25	 1 ;      CG2R67     CG2R61
   21    22	 1 ;      CG2R61     CG2R61
   21    43	 1 ;      CG2R61      HGR61
   22    23	 1 ;      CG2R61     CG2R61
   22    26	 1 ;      CG2R61      OG301
   23    24	 1 ;      CG2R61     CG2R61
   23    44	 1 ;      CG2R61      HGR61
   24    25	 1 ;      CG2R61     CG2R61
   24    45	 1 ;      CG2R61      HGR61
   25    46	 1 ;      CG2R61      HGR61
   26    27	 1 ;       OG301      CG331
   27    47	 1 ;       CG331       HGA3
   27    48	 1 ;       CG331       HGA3
   27    49	 1 ;       CG331       HGA3

[ pairs ]
;	ai	  aj funct			  c0			c1			  c2			c3
    1     7	 1
    1     4	 1
    1    30	 1
    1    22	 1
    1    43	 1
    1    24	 1
    1    46	 1
    2     5	 1
    2    31	 1
    2    21	 1
    2    25	 1
    2    15	 1
    2    16	 1
    2     8	 1
    2    29	 1
    3     6	 1
    3    20	 1
    3    30	 1
    3    13	 1
    3    37	 1
    3    38	 1
    3    39	 1
    3    40	 1
    3    41	 1
    3     9	 1
    3    10	 1
    3    32	 1
    4    28	 1
    4    15	 1
    4    16	 1
    4     8	 1
    4    31	 1
    5    20	 1
    5     7	 1
    6    28	 1
    6    21	 1
    6    25	 1
    6    29	 1
    7    28	 1
    7    29	 1
    7    11	 1
    7    17	 1
    7    33	 1
    7    14	 1
    8    13	 1
    8    37	 1
    8    38	 1
    8    39	 1
    8    40	 1
    8    41	 1
    8    12	 1
    8    18	 1
    8    19	 1
    8    42	 1
    9    15	 1
    9    16	 1
    9    14	 1
    9    34	 1
    9    35	 1
    9    36	 1
   10    15	 1
   10    16	 1
   10    11	 1
   10    17	 1
   10    33	 1
   11    32	 1
   11    18	 1
   11    19	 1
   11    42	 1
   11    37	 1
   11    38	 1
   12    17	 1
   12    33	 1
   12    14	 1
   12    15	 1
   13    16	 1
   13    17	 1
   13    33	 1
   13    34	 1
   13    35	 1
   13    36	 1
   14    37	 1
   14    38	 1
   15    39	 1
   15    40	 1
   15    41	 1
   15    32	 1
   16    37	 1
   16    38	 1
   16    32	 1
   17    32	 1
   18    33	 1
   19    33	 1
   20    28	 1
   20    31	 1
   20    23	 1
   20    26	 1
   20    45	 1
   21    24	 1
   21    46	 1
   21    44	 1
   21    27	 1
   22    25	 1
   22    45	 1
   22    47	 1
   22    48	 1
   22    49	 1
   23    43	 1
   23    27	 1
   23    46	 1
   24    26	 1
   25    43	 1
   25    44	 1
   26    43	 1
   26    44	 1
   29    30	 1
   30    31	 1
   32    33	 1
   33    42	 1
   44    45	 1
   45    46	 1

[ angles ]
;	ai	  aj	ak funct			c0			  c1			c2			  c3
    2     1     6	5 ;     CG2R61     CG2R67     CG2R61
    2     1    20	5 ;     CG2R61     CG2R67     CG2R67
    6     1    20	5 ;     CG2R61     CG2R67     CG2R67
    1     2     3	5 ;     CG2R67     CG2R61     CG2R61
    1     2    28	5 ;     CG2R67     CG2R61      HGR61
    3     2    28	5 ;     CG2R61     CG2R61      HGR61
    2     3     7	5 ;     CG2R61     CG2R61      CG301
    2     3     4	5 ;     CG2R61     CG2R61     CG2R61
    7     3     4	5 ;      CG301     CG2R61     CG2R61
    3     4     5	5 ;     CG2R61     CG2R61     CG2R61
    3     4    29	5 ;     CG2R61     CG2R61      HGR61
    5     4    29	5 ;     CG2R61     CG2R61      HGR61
    4     5     6	5 ;     CG2R61     CG2R61     CG2R61
    4     5    30	5 ;     CG2R61     CG2R61      HGR61
    6     5    30	5 ;     CG2R61     CG2R61      HGR61
    1     6     5	5 ;     CG2R67     CG2R61     CG2R61
    1     6    31	5 ;     CG2R67     CG2R61      HGR61
    5     6    31	5 ;     CG2R61     CG2R61      HGR61
    3     7    15	5 ;     CG2R61      CG301      CG321
    3     7    16	5 ;     CG2R61      CG301      CG331
    3     7     8	5 ;     CG2R61      CG301      NG3P2
   15     7    16	5 ;      CG321      CG301      CG331
   15     7     8	5 ;      CG321      CG301      NG3P2
   16     7     8	5 ;      CG331      CG301      NG3P2
    7     8     9	5 ;      CG301      NG3P2      CG314
    7     8    10	5 ;      CG301      NG3P2       HGP2
    7     8    32	5 ;      CG301      NG3P2       HGP2
    9     8    10	5 ;      CG314      NG3P2       HGP2
    9     8    32	5 ;      CG314      NG3P2       HGP2
   10     8    32	5 ;       HGP2      NG3P2       HGP2
    8     9    11	5 ;      NG3P2      CG314      NG2S0
    8     9    17	5 ;      NG3P2      CG314      NG3P3
    8     9    33	5 ;      NG3P2      CG314       HGA1
   11     9    17	5 ;      NG2S0      CG314      NG3P3
   11     9    33	5 ;      NG2S0      CG314       HGA1
   17     9    33	5 ;      NG3P3      CG314       HGA1
    9    11    13	5 ;      CG314      NG2S0      CG2O1
    9    11    12	5 ;      CG314      NG2S0      CG331
   13    11    12	5 ;      CG2O1      NG2S0      CG331
   11    12    34	5 ;      NG2S0      CG331       HGA3
   11    12    35	5 ;      NG2S0      CG331       HGA3
   11    12    36	5 ;      NG2S0      CG331       HGA3
   34    12    35	5 ;       HGA3      CG331       HGA3
   34    12    36	5 ;       HGA3      CG331       HGA3
   35    12    36	5 ;       HGA3      CG331       HGA3
   11    13    14	5 ;      NG2S0      CG2O1      OG2D1
   11    13    15	5 ;      NG2S0      CG2O1      CG321
   14    13    15	5 ;      OG2D1      CG2O1      CG321
    7    15    13	5 ;      CG301      CG321      CG2O1
    7    15    37	5 ;      CG301      CG321       HGA2
    7    15    38	5 ;      CG301      CG321       HGA2
   13    15    37	5 ;      CG2O1      CG321       HGA2
   13    15    38	5 ;      CG2O1      CG321       HGA2
   37    15    38	5 ;       HGA2      CG321       HGA2
    7    16    39	5 ;      CG301      CG331       HGA3
    7    16    40	5 ;      CG301      CG331       HGA3
    7    16    41	5 ;      CG301      CG331       HGA3
   39    16    40	5 ;       HGA3      CG331       HGA3
   39    16    41	5 ;       HGA3      CG331       HGA3
   40    16    41	5 ;       HGA3      CG331       HGA3
    9    17    18	5 ;      CG314      NG3P3       HGP2
    9    17    19	5 ;      CG314      NG3P3       HGP2
    9    17    42	5 ;      CG314      NG3P3       HGP2
   18    17    19	5 ;       HGP2      NG3P3       HGP2
   18    17    42	5 ;       HGP2      NG3P3       HGP2
   19    17    42	5 ;       HGP2      NG3P3       HGP2
    1    20    21	5 ;     CG2R67     CG2R67     CG2R61
    1    20    25	5 ;     CG2R67     CG2R67     CG2R61
   21    20    25	5 ;     CG2R61     CG2R67     CG2R61
   20    21    22	5 ;     CG2R67     CG2R61     CG2R61
   20    21    43	5 ;     CG2R67     CG2R61      HGR61
   22    21    43	5 ;     CG2R61     CG2R61      HGR61
   21    22    23	5 ;     CG2R61     CG2R61     CG2R61
   21    22    26	5 ;     CG2R61     CG2R61      OG301
   23    22    26	5 ;     CG2R61     CG2R61      OG301
   22    23    24	5 ;     CG2R61     CG2R61     CG2R61
   22    23    44	5 ;     CG2R61     CG2R61      HGR61
   24    23    44	5 ;     CG2R61     CG2R61      HGR61
   23    24    25	5 ;     CG2R61     CG2R61     CG2R61
   23    24    45	5 ;     CG2R61     CG2R61      HGR61
   25    24    45	5 ;     CG2R61     CG2R61      HGR61
   24    25    20	5 ;     CG2R61     CG2R61     CG2R67
   24    25    46	5 ;     CG2R61     CG2R61      HGR61
   20    25    46	5 ;     CG2R67     CG2R61      HGR61
   22    26    27	5 ;     CG2R61      OG301      CG331
   26    27    47	5 ;      OG301      CG331       HGA3
   26    27    48	5 ;      OG301      CG331       HGA3
   26    27    49	5 ;      OG301      CG331       HGA3
   47    27    48	5 ;       HGA3      CG331       HGA3
   47    27    49	5 ;       HGA3      CG331       HGA3
   48    27    49	5 ;       HGA3      CG331       HGA3

[ dihedrals ]
;	ai	  aj	ak	  al funct			  c0			c1			  c2			c3			  c4			c5
    6     1     2     3	 9 ;     CG2R61     CG2R67     CG2R61     CG2R61
    6     1     2    28	 9 ;     CG2R61     CG2R67     CG2R61      HGR61
   20     1     2     3	 9 ;     CG2R67     CG2R67     CG2R61     CG2R61
   20     1     2    28	 9 ;     CG2R67     CG2R67     CG2R61      HGR61
    2     1     6     5	 9 ;     CG2R61     CG2R67     CG2R61     CG2R61
    2     1     6    31	 9 ;     CG2R61     CG2R67     CG2R61      HGR61
   20     1     6     5	 9 ;     CG2R67     CG2R67     CG2R61     CG2R61
   20     1     6    31	 9 ;     CG2R67     CG2R67     CG2R61      HGR61
    2     1    20    21	 9 ;     CG2R61     CG2R67     CG2R67     CG2R61
    2     1    20    25	 9 ;     CG2R61     CG2R67     CG2R67     CG2R61
    6     1    20    21	 9 ;     CG2R61     CG2R67     CG2R67     CG2R61
    6     1    20    25	 9 ;     CG2R61     CG2R67     CG2R67     CG2R61
    1     2     3     7	 9 ;     CG2R67     CG2R61     CG2R61      CG301
    1     2     3     4	 9 ;     CG2R67     CG2R61     CG2R61     CG2R61
   28     2     3     7	 9 ;      HGR61     CG2R61     CG2R61      CG301
   28     2     3     4	 9 ;      HGR61     CG2R61     CG2R61     CG2R61
    2     3     7    15	 9 ;     CG2R61     CG2R61      CG301      CG321
    2     3     7    16	 9 ;     CG2R61     CG2R61      CG301      CG331
    2     3     7     8	 9 ;     CG2R61     CG2R61      CG301      NG3P2
    4     3     7    15	 9 ;     CG2R61     CG2R61      CG301      CG321
    4     3     7    16	 9 ;     CG2R61     CG2R61      CG301      CG331
    4     3     7     8	 9 ;     CG2R61     CG2R61      CG301      NG3P2
    2     3     4     5	 9 ;     CG2R61     CG2R61     CG2R61     CG2R61
    2     3     4    29	 9 ;     CG2R61     CG2R61     CG2R61      HGR61
    7     3     4     5	 9 ;      CG301     CG2R61     CG2R61     CG2R61
    7     3     4    29	 9 ;      CG301     CG2R61     CG2R61      HGR61
    3     4     5     6	 9 ;     CG2R61     CG2R61     CG2R61     CG2R61
    3     4     5    30	 9 ;     CG2R61     CG2R61     CG2R61      HGR61
   29     4     5     6	 9 ;      HGR61     CG2R61     CG2R61     CG2R61
   29     4     5    30	 9 ;      HGR61     CG2R61     CG2R61      HGR61
    4     5     6     1	 9 ;     CG2R61     CG2R61     CG2R61     CG2R67
    4     5     6    31	 9 ;     CG2R61     CG2R61     CG2R61      HGR61
   30     5     6     1	 9 ;      HGR61     CG2R61     CG2R61     CG2R67
   30     5     6    31	 9 ;      HGR61     CG2R61     CG2R61      HGR61
    3     7    15    13	 9 ;     CG2R61      CG301      CG321      CG2O1
    3     7    15    37	 9 ;     CG2R61      CG301      CG321       HGA2
    3     7    15    38	 9 ;     CG2R61      CG301      CG321       HGA2
   16     7    15    13	 9 ;      CG331      CG301      CG321      CG2O1
   16     7    15    37	 9 ;      CG331      CG301      CG321       HGA2
   16     7    15    38	 9 ;      CG331      CG301      CG321       HGA2
    8     7    15    13	 9 ;      NG3P2      CG301      CG321      CG2O1
    8     7    15    37	 9 ;      NG3P2      CG301      CG321       HGA2
    8     7    15    38	 9 ;      NG3P2      CG301      CG321       HGA2
    3     7    16    39	 9 ;     CG2R61      CG301      CG331       HGA3
    3     7    16    40	 9 ;     CG2R61      CG301      CG331       HGA3
    3     7    16    41	 9 ;     CG2R61      CG301      CG331       HGA3
   15     7    16    39	 9 ;      CG321      CG301      CG331       HGA3
   15     7    16    40	 9 ;      CG321      CG301      CG331       HGA3
   15     7    16    41	 9 ;      CG321      CG301      CG331       HGA3
    8     7    16    39	 9 ;      NG3P2      CG301      CG331       HGA3
    8     7    16    40	 9 ;      NG3P2      CG301      CG331       HGA3
    8     7    16    41	 9 ;      NG3P2      CG301      CG331       HGA3
    3     7     8     9	 9 ;     CG2R61      CG301      NG3P2      CG314
    3     7     8    10	 9 ;     CG2R61      CG301      NG3P2       HGP2
    3     7     8    32	 9 ;     CG2R61      CG301      NG3P2       HGP2
   15     7     8     9	 9 ;      CG321      CG301      NG3P2      CG314
   15     7     8    10	 9 ;      CG321      CG301      NG3P2       HGP2
   15     7     8    32	 9 ;      CG321      CG301      NG3P2       HGP2
   16     7     8     9	 9 ;      CG331      CG301      NG3P2      CG314
   16     7     8    10	 9 ;      CG331      CG301      NG3P2       HGP2
   16     7     8    32	 9 ;      CG331      CG301      NG3P2       HGP2
    7     8     9    11	 9 ;      CG301      NG3P2      CG314      NG2S0
    7     8     9    17	 9 ;      CG301      NG3P2      CG314      NG3P3
    7     8     9    33	 9 ;      CG301      NG3P2      CG314       HGA1
   10     8     9    11	 9 ;       HGP2      NG3P2      CG314      NG2S0
   10     8     9    17	 9 ;       HGP2      NG3P2      CG314      NG3P3
   10     8     9    33	 9 ;       HGP2      NG3P2      CG314       HGA1
   32     8     9    11	 9 ;       HGP2      NG3P2      CG314      NG2S0
   32     8     9    17	 9 ;       HGP2      NG3P2      CG314      NG3P3
   32     8     9    33	 9 ;       HGP2      NG3P2      CG314       HGA1
    8     9    11    13	 9 ;      NG3P2      CG314      NG2S0      CG2O1
    8     9    11    12	 9 ;      NG3P2      CG314      NG2S0      CG331
   17     9    11    13	 9 ;      NG3P3      CG314      NG2S0      CG2O1
   17     9    11    12	 9 ;      NG3P3      CG314      NG2S0      CG331
   33     9    11    13	 9 ;       HGA1      CG314      NG2S0      CG2O1
   33     9    11    12	 9 ;       HGA1      CG314      NG2S0      CG331
    8     9    17    18	 9 ;      NG3P2      CG314      NG3P3       HGP2
    8     9    17    19	 9 ;      NG3P2      CG314      NG3P3       HGP2
    8     9    17    42	 9 ;      NG3P2      CG314      NG3P3       HGP2
   11     9    17    18	 9 ;      NG2S0      CG314      NG3P3       HGP2
   11     9    17    19	 9 ;      NG2S0      CG314      NG3P3       HGP2
   11     9    17    42	 9 ;      NG2S0      CG314      NG3P3       HGP2
   33     9    17    18	 9 ;       HGA1      CG314      NG3P3       HGP2
   33     9    17    19	 9 ;       HGA1      CG314      NG3P3       HGP2
   33     9    17    42	 9 ;       HGA1      CG314      NG3P3       HGP2
    9    11    13    14	 9 ;      CG314      NG2S0      CG2O1      OG2D1
    9    11    13    15	 9 ;      CG314      NG2S0      CG2O1      CG321
   12    11    13    14	 9 ;      CG331      NG2S0      CG2O1      OG2D1
   12    11    13    15	 9 ;      CG331      NG2S0      CG2O1      CG321
    9    11    12    34	 9 ;      CG314      NG2S0      CG331       HGA3
    9    11    12    35	 9 ;      CG314      NG2S0      CG331       HGA3
    9    11    12    36	 9 ;      CG314      NG2S0      CG331       HGA3
   13    11    12    34	 9 ;      CG2O1      NG2S0      CG331       HGA3
   13    11    12    35	 9 ;      CG2O1      NG2S0      CG331       HGA3
   13    11    12    36	 9 ;      CG2O1      NG2S0      CG331       HGA3
   11    13    15     7	 9 ;      NG2S0      CG2O1      CG321      CG301
   11    13    15    37	 9 ;      NG2S0      CG2O1      CG321       HGA2
   11    13    15    38	 9 ;      NG2S0      CG2O1      CG321       HGA2
   14    13    15     7	 9 ;      OG2D1      CG2O1      CG321      CG301
   14    13    15    37	 9 ;      OG2D1      CG2O1      CG321       HGA2
   14    13    15    38	 9 ;      OG2D1      CG2O1      CG321       HGA2
    1    20    21    22	 9 ;     CG2R67     CG2R67     CG2R61     CG2R61
    1    20    21    43	 9 ;     CG2R67     CG2R67     CG2R61      HGR61
   25    20    21    22	 9 ;     CG2R61     CG2R67     CG2R61     CG2R61
   25    20    21    43	 9 ;     CG2R61     CG2R67     CG2R61      HGR61
    1    20    25    24	 9 ;     CG2R67     CG2R67     CG2R61     CG2R61
    1    20    25    46	 9 ;     CG2R67     CG2R67     CG2R61      HGR61
   21    20    25    24	 9 ;     CG2R61     CG2R67     CG2R61     CG2R61
   21    20    25    46	 9 ;     CG2R61     CG2R67     CG2R61      HGR61
   20    21    22    23	 9 ;     CG2R67     CG2R61     CG2R61     CG2R61
   20    21    22    26	 9 ;     CG2R67     CG2R61     CG2R61      OG301
   43    21    22    23	 9 ;      HGR61     CG2R61     CG2R61     CG2R61
   43    21    22    26	 9 ;      HGR61     CG2R61     CG2R61      OG301
   21    22    23    24	 9 ;     CG2R61     CG2R61     CG2R61     CG2R61
   21    22    23    44	 9 ;     CG2R61     CG2R61     CG2R61      HGR61
   26    22    23    24	 9 ;      OG301     CG2R61     CG2R61     CG2R61
   26    22    23    44	 9 ;      OG301     CG2R61     CG2R61      HGR61
   21    22    26    27	 9 ;     CG2R61     CG2R61      OG301      CG331
   23    22    26    27	 9 ;     CG2R61     CG2R61      OG301      CG331
   22    23    24    25	 9 ;     CG2R61     CG2R61     CG2R61     CG2R61
   22    23    24    45	 9 ;     CG2R61     CG2R61     CG2R61      HGR61
   44    23    24    25	 9 ;      HGR61     CG2R61     CG2R61     CG2R61
   44    23    24    45	 9 ;      HGR61     CG2R61     CG2R61      HGR61
   23    24    25    20	 9 ;     CG2R61     CG2R61     CG2R61     CG2R67
   23    24    25    46	 9 ;     CG2R61     CG2R61     CG2R61      HGR61
   45    24    25    20	 9 ;      HGR61     CG2R61     CG2R61     CG2R67
   45    24    25    46	 9 ;      HGR61     CG2R61     CG2R61      HGR61
   22    26    27    47	 9 ;     CG2R61      OG301      CG331       HGA3
   22    26    27    48	 9 ;     CG2R61      OG301      CG331       HGA3
   22    26    27    49	 9 ;     CG2R61      OG301      CG331       HGA3

[ dihedrals ]
;	ai	  aj	ak	  al funct			  c0			c1			  c2			c3
   13    15    11    14	 2

