Getting the Right Output Means no Artefacts in Calculating Stuff
   49
    1LIG     C1    1  -1.471   0.275  -1.557
    1LIG     C2    2  -1.572   0.364  -1.516
    1LIG     C3    3  -1.694   0.378  -1.586
    1LIG     C4    4  -1.713   0.300  -1.701
    1LIG     C5    5  -1.615   0.210  -1.743
    1LIG     C6    6  -1.496   0.197  -1.671
    1LIG     C7    7  -1.796   0.484  -1.542
    1LIG     N1    8  -1.728   0.607  -1.499
    1LIG     C8    9  -1.746   0.720  -1.554
    1LIG     HN   10  -1.662   0.600  -1.422
    1LIG     N2   11  -1.829   0.742  -1.662
    1LIG     C9   12  -1.842   0.874  -1.721
    1LIG    C10   13  -1.902   0.640  -1.718
    1LIG     O1   14  -1.975   0.656  -1.817
    1LIG    C11   15  -1.896   0.504  -1.656
    1LIG    C12   16  -1.873   0.440  -1.415
    1LIG     N3   17  -1.676   0.824  -1.501
    1LIG     H1   18  -1.642   0.816  -1.406
    1LIG     H2   19  -1.719   0.914  -1.521
    1LIG    C13   20  -1.342   0.266  -1.484
    1LIG    C14   21  -1.263   0.150  -1.492
    1LIG    C15   22  -1.142   0.139  -1.423
    1LIG    C16   23  -1.095   0.247  -1.348
    1LIG    C17   24  -1.171   0.364  -1.340
    1LIG    C18   25  -1.293   0.373  -1.406
    1LIG     O2   26  -1.061   0.029  -1.422
    1LIG    C19   27  -1.096  -0.075  -1.332
    1LIG     HC   28  -1.556   0.424  -1.428
    1LIG    HC1   29  -1.804   0.309  -1.758
    1LIG    HC2   30  -1.631   0.150  -1.831
    1LIG    HC3   31  -1.422   0.126  -1.703
    1LIG    HN2   32  -1.653   0.587  -1.564
    1LIG    HC4   33  -1.829   0.741  -1.486
    1LIG    HC5   34  -1.898   0.867  -1.814
    1LIG    HC6   35  -1.743   0.915  -1.740
    1LIG    HC7   36  -1.895   0.939  -1.651
    1LIG    HC8   37  -1.870   0.433  -1.735
    1LIG    HC9   38  -1.995   0.479  -1.619
    1LIG   HC10   39  -1.803   0.427  -1.333
    1LIG   HC11   40  -1.925   0.347  -1.434
    1LIG   HC12   41  -1.945   0.517  -1.388
    1LIG    HN1   42  -1.591   0.826  -1.556
    1LIG   HC13   43  -1.297   0.068  -1.552
    1LIG   HC14   44  -1.001   0.240  -1.296
    1LIG   HC15   45  -1.134   0.448  -1.283
    1LIG   HC16   46  -1.352   0.464  -1.398
    1LIG   HC17   47  -1.024  -0.157  -1.341
    1LIG   HC18   48  -1.196  -0.112  -1.356
    1LIG   HC19   49  -1.095  -0.037  -1.230
   0.00000   0.00000   0.00000
