Guyana Rwanda Oman Macau Angola Cameroon Senegal
   55
    1LIG     C1    1  -1.344   0.470  -1.463
    1LIG     N1    2  -1.376   0.326  -1.432
    1LIG    HN3    3  -1.467   0.285  -1.413
    1LIG     C2    4  -1.262   0.264  -1.434
    1LIG     N2    5  -1.154   0.337  -1.470
    1LIG     C3    6  -1.015   0.298  -1.462
    1LIG     C4    7  -1.195   0.463  -1.502
    1LIG      O    8  -1.124   0.553  -1.546
    1LIG     C5    9  -1.441   0.531  -1.564
    1LIG     C6   10  -1.574   0.560  -1.526
    1LIG     C7   11  -1.670   0.613  -1.615
    1LIG     C8   12  -1.627   0.639  -1.746
    1LIG     C9   13  -1.495   0.615  -1.785
    1LIG    C10   14  -1.403   0.562  -1.695
    1LIG    C11   15  -1.809   0.639  -1.571
    1LIG    C12   16  -1.904   0.535  -1.564
    1LIG    C13   17  -2.035   0.561  -1.522
    1LIG    C14   18  -2.069   0.690  -1.489
    1LIG     N3   19  -1.984   0.794  -1.495
    1LIG    C15   20  -1.857   0.766  -1.535
    1LIG    HN4   21  -2.012   0.888  -1.471
    1LIG     F1   22  -1.773   0.871  -1.537
    1LIG    C16   23  -1.358   0.551  -1.336
    1LIG    C17   24  -1.408   0.512  -1.213
    1LIG     N4   25  -1.382   0.614  -1.126
    1LIG     N5   26  -1.329   0.722  -1.186
    1LIG    C18   27  -1.313   0.683  -1.312
    1LIG    HN5   28  -1.306   0.812  -1.144
    1LIG    C19   29  -1.404   0.614  -0.984
    1LIG    C20   30  -1.308   0.525  -0.910
    1LIG     F2   31  -1.344   0.395  -0.905
    1LIG     F3   32  -1.184   0.531  -0.964
    1LIG     F4   33  -1.296   0.567  -0.781
    1LIG     N6   34  -1.252   0.133  -1.404
    1LIG     H1   35  -1.299   0.073  -1.471
    1LIG     H2   36  -1.161   0.098  -1.376
    1LIG    HN2   37  -1.388   0.307  -1.530
    1LIG     HC   38  -1.245   0.290  -1.329
    1LIG    HC1   39  -0.953   0.379  -1.499
    1LIG    HC2   40  -0.999   0.209  -1.523
    1LIG    HC3   41  -0.989   0.275  -1.359
    1LIG    HC4   42  -1.603   0.541  -1.424
    1LIG    HC5   43  -1.697   0.677  -1.818
    1LIG    HC6   44  -1.464   0.638  -1.886
    1LIG    HC7   45  -1.301   0.545  -1.727
    1LIG    HC8   46  -1.875   0.435  -1.590
    1LIG    HC9   47  -2.107   0.481  -1.515
    1LIG   HC10   48  -2.171   0.710  -1.457
    1LIG   HC11   49  -1.457   0.418  -1.190
    1LIG   HC12   50  -1.271   0.747  -1.389
    1LIG   HC13   51  -1.392   0.716  -0.947
    1LIG   HC14   52  -1.506   0.581  -0.964
    1LIG    HN1   53  -1.308   0.123  -1.321
    1LIG    H23   54  -2.098   0.709  -1.593
    1LIG    H24   55  -1.504   0.557  -1.237
   0.00000   0.00000   0.00000
