GROtesk MACabre and Sinister
   72
    1LIG     N1    1  -1.621   0.389  -1.638
    1LIG     H1    2  -1.599   0.473  -1.695
    1LIG     H2    3  -1.617   0.312  -1.706
    1LIG     C1    4  -1.504   0.377  -1.542
    1LIG     C2    5  -1.387   0.462  -1.600
    1LIG     O1    6  -1.428   0.598  -1.580
    1LIG     H3    7  -1.525   0.605  -1.576
    1LIG     C3    8  -1.245   0.428  -1.542
    1LIG     N2    9  -1.173   0.552  -1.511
    1LIG     C4   10  -1.081   0.607  -1.597
    1LIG     O2   11  -1.059   0.560  -1.708
    1LIG     C5   12  -1.023   0.738  -1.549
    1LIG     H4   13  -1.182   0.593  -1.418
    1LIG     C6   14  -1.258   0.342  -1.413
    1LIG     C7   15  -1.203   0.200  -1.414
    1LIG     C8   16  -1.267   0.103  -1.494
    1LIG     C9   17  -1.215  -0.027  -1.503
    1LIG     F1   18  -1.279  -0.117  -1.580
    1LIG    C10   19  -1.100  -0.063  -1.437
    1LIG    C11   20  -1.036   0.033  -1.360
    1LIG    C12   21  -1.085   0.164  -1.349
    1LIG     F2   22  -0.922   0.001  -1.296
    1LIG    C13   23  -1.766   0.398  -1.591
    1LIG    C14   24  -1.768   0.404  -1.436
    1LIG    C15   25  -1.911   0.399  -1.380
    1LIG    C16   26  -1.983   0.272  -1.423
    1LIG    C17   27  -1.980   0.252  -1.575
    1LIG    C18   28  -1.839   0.267  -1.634
    1LIG    C19   29  -1.825   0.527  -1.655
    1LIG    C20   30  -1.750   0.647  -1.649
    1LIG    C21   31  -1.790   0.766  -1.714
    1LIG    C22   32  -1.914   0.766  -1.778
    1LIG    C23   33  -1.991   0.649  -1.785
    1LIG    C24   34  -1.945   0.531  -1.727
    1LIG     N3   35  -1.706   0.880  -1.718
    1LIG    C25   36  -1.598   0.896  -1.814
    1LIG    C26   37  -1.513   1.008  -1.756
    1LIG    C27   38  -1.613   1.094  -1.681
    1LIG    C28   39  -1.712   0.991  -1.632
    1LIG     O3   40  -1.784   1.008  -1.534
    1LIG    HC2   41  -1.532   0.414  -1.444
    1LIG    HC3   42  -1.473   0.272  -1.535
    1LIG     HC   43  -1.384   0.444  -1.708
    1LIG    HC1   44  -1.189   0.372  -1.617
    1LIG    HC4   45  -0.951   0.775  -1.623
    1LIG    HC5   46  -0.973   0.723  -1.454
    1LIG    HC6   47  -1.104   0.810  -1.537
    1LIG    HC7   48  -1.207   0.395  -1.333
    1LIG    HC8   49  -1.364   0.336  -1.387
    1LIG    HC9   50  -1.357   0.128  -1.548
    1LIG   HC10   51  -1.060  -0.163  -1.444
    1LIG   HC11   52  -1.032   0.236  -1.289
    1LIG   HC12   53  -1.721   0.497  -1.404
    1LIG   HC13   54  -1.711   0.320  -1.396
    1LIG   HC14   55  -1.906   0.402  -1.271
    1LIG   HC15   56  -1.966   0.486  -1.416
    1LIG   HC16   57  -2.086   0.278  -1.391
    1LIG   HC17   58  -1.935   0.186  -1.376
    1LIG   HC18   59  -2.017   0.152  -1.597
    1LIG   HC19   60  -2.046   0.325  -1.621
    1LIG   HC20   61  -1.848   0.267  -1.742
    1LIG   HC21   62  -1.779   0.182  -1.603
    1LIG   HC22   63  -1.659   0.648  -1.592
    1LIG   HC23   64  -1.951   0.857  -1.823
    1LIG   HC24   65  -2.086   0.651  -1.835
    1LIG   HC25   66  -2.003   0.440  -1.738
    1LIG   HC26   67  -1.541   0.804  -1.823
    1LIG   HC27   68  -1.638   0.926  -1.911
    1LIG   HC28   69  -1.465   1.065  -1.835
    1LIG   HC29   70  -1.439   0.967  -1.687
    1LIG   HC30   71  -1.566   1.146  -1.599
    1LIG   HC31   72  -1.662   1.164  -1.749
   0.00000   0.00000   0.00000
