Green Red Orange Magenta Azure Cyan Skyblue
   47
    1LIG     O1    1  -1.679   0.308  -1.612
    1LIG     C1    2  -1.624   0.411  -1.530
    1LIG     C2    3  -1.508   0.472  -1.612
    1LIG     N1    4  -1.513   0.397  -1.740
    1LIG     HN    5  -1.454   0.411  -1.823
    1LIG     C3    6  -1.607   0.311  -1.726
    1LIG     N2    7  -1.645   0.218  -1.816
    1LIG     C4    8  -1.375   0.447  -1.543
    1LIG     C5    9  -1.330   0.315  -1.517
    1LIG     C6   10  -1.205   0.288  -1.457
    1LIG     C7   11  -1.127   0.399  -1.421
    1LIG     C8   12  -1.170   0.529  -1.445
    1LIG     C9   13  -1.293   0.553  -1.507
    1LIG     O2   14  -1.324   0.684  -1.527
    1LIG    C10   15  -1.439   0.715  -1.595
    1LIG    C11   16  -1.531   0.620  -1.638
    1LIG    C12   17  -1.646   0.664  -1.708
    1LIG    C13   18  -1.668   0.800  -1.732
    1LIG    C14   19  -1.574   0.893  -1.687
    1LIG    C15   20  -1.460   0.851  -1.619
    1LIG     H1   21  -1.739   0.184  -1.806
    1LIG     H2   22  -1.614   0.237  -1.911
    1LIG    C16   23  -1.158   0.149  -1.435
    1LIG    C17   24  -1.046   0.122  -1.354
    1LIG    C18   25  -1.004  -0.009  -1.330
    1LIG    C19   26  -1.074  -0.116  -1.385
    1LIG    C20   27  -1.184  -0.092  -1.465
    1LIG    C21   28  -1.225   0.039  -1.490
    1LIG     O3   29  -1.776   0.853  -1.796
    1LIG    C22   30  -1.809   0.988  -1.764
    1LIG    HC2   31  -1.587   0.369  -1.436
    1LIG    HC3   32  -1.699   0.487  -1.510
    1LIG     HC   33  -1.393   0.232  -1.544
    1LIG    HC1   34  -1.030   0.383  -1.375
    1LIG    HC4   35  -1.108   0.613  -1.416
    1LIG    HC5   36  -1.718   0.592  -1.743
    1LIG    HC6   37  -1.590   0.998  -1.706
    1LIG    HC7   38  -1.388   0.923  -1.586
    1LIG    HC8   39  -0.991   0.204  -1.311
    1LIG    HC9   40  -0.917  -0.027  -1.269
    1LIG   HC10   41  -1.043  -0.217  -1.364
    1LIG   HC11   42  -1.239  -0.175  -1.508
    1LIG   HC12   43  -1.311   0.056  -1.554
    1LIG   HC13   44  -1.909   1.011  -1.803
    1LIG   HC14   45  -1.736   1.055  -1.810
    1LIG   HC15   46  -1.808   1.001  -1.656
    1LIG    H20   47  -1.536   0.240  -1.682
   0.00000   0.00000   0.00000
