; Created by cgenff_charmm2gmx.py

[ moleculetype ]
; Name			   nrexcl
LIG				 3

[ atoms ]
;	 nr		  type	resnr residue  atom   cgnr	   charge		mass  typeB    chargeB		massB
; residue	 1 LIG rtp LIG q	qsum
     1     OG3C51      1    LIG     O1      1     -0.328     15.999   ;
     2     CG3C52      1    LIG     C1      2     -0.151     12.011   ;
     3     CG3C50      1    LIG     C2      3      1.097     12.011   ;
     4     NG3C51      1    LIG     N1      4     -0.874     14.007   ;
     5       HGP1      1    LIG     HN      5      0.233      1.008   ;
     6     CG3C51      1    LIG     C3      6      0.318     12.011   ;
     7      NG321      1    LIG     N2      7     -1.079     14.007   ;
     8     CG2R61      1    LIG     C4      8     -0.123     12.011   ;
     9     CG2R61      1    LIG     C5      9     -0.178     12.011   ;
    10     CG2R67      1    LIG     C6     10      0.014     12.011   ;
    11     CG2R61      1    LIG     C7     11     -0.115     12.011   ;
    12     CG2R61      1    LIG     C8     12     -0.112     12.011   ;
    13     CG2R61      1    LIG     C9     13      0.102     12.011   ;
    14     OG3R60      1    LIG     O2     14     -0.292     15.999   ;
    15     CG2R61      1    LIG    C10     15      0.096     12.011   ;
    16     CG2R61      1    LIG    C11     16     -0.118     12.011   ;
    17     CG2R61      1    LIG    C12     17     -0.182     12.011   ;
    18     CG2R61      1    LIG    C13     18      0.222     12.011   ;
    19     CG2R61      1    LIG    C14     19     -0.117     12.011   ;
    20     CG2R61      1    LIG    C15     20     -0.106     12.011   ;
    21     HGPAM2      1    LIG     H1     21      0.454      1.008   ;
    22     HGPAM2      1    LIG     H2     22      0.454      1.008   ;
    23     CG2R67      1    LIG    C16     23      0.006     12.011   ;
    24     CG2R61      1    LIG    C17     24     -0.119     12.011   ;
    25     CG2R61      1    LIG    C18     25     -0.119     12.011   ;
    26     CG2R61      1    LIG    C19     26     -0.110     12.011   ;
    27     CG2R61      1    LIG    C20     27     -0.119     12.011   ;
    28     CG2R61      1    LIG    C21     28     -0.119     12.011   ;
    29      OG301      1    LIG     O3     29     -0.383     15.999   ;
    30      CG331      1    LIG    C22     30     -0.094     12.011   ;
    31       HGA2      1    LIG    HC2     31      0.090      1.008   ;
    32       HGA2      1    LIG    HC3     32      0.090      1.008   ;
    33      HGR61      1    LIG     HC     33      0.116      1.008   ;
    34      HGR61      1    LIG    HC1     34      0.116      1.008   ;
    35      HGR61      1    LIG    HC4     35      0.116      1.008   ;
    36      HGR61      1    LIG    HC5     36      0.116      1.008   ;
    37      HGR61      1    LIG    HC6     37      0.116      1.008   ;
    38      HGR61      1    LIG    HC7     38      0.116      1.008   ;
    39      HGR61      1    LIG    HC8     39      0.116      1.008   ;
    40      HGR61      1    LIG    HC9     40      0.116      1.008   ;
    41      HGR61      1    LIG   HC10     41      0.116      1.008   ;
    42      HGR61      1    LIG   HC11     42      0.116      1.008   ;
    43      HGR61      1    LIG   HC12     43      0.116      1.008   ;
    44       HGA3      1    LIG   HC13     44      0.090      1.008   ;
    45       HGA3      1    LIG   HC14     45      0.090      1.008   ;
    46       HGA3      1    LIG   HC15     46      0.090      1.008   ;
    47       HGA1      1    LIG    H20     47      0.116      1.008   ;

[ bonds ]
;	ai	  aj funct			  c0			c1			  c2			c3
    1     6	 1 ;      OG3C51     CG3C51
    1     2	 1 ;      OG3C51     CG3C52
    2     3	 1 ;      CG3C52     CG3C50
    2    31	 1 ;      CG3C52       HGA2
    2    32	 1 ;      CG3C52       HGA2
    3     8	 1 ;      CG3C50     CG2R61
    3     4	 1 ;      CG3C50     NG3C51
    3    16	 1 ;      CG3C50     CG2R61
    4     5	 1 ;      NG3C51       HGP1
    4     6	 1 ;      NG3C51     CG3C51
    6     7	 1 ;      CG3C51      NG321
    6    47	 1 ;      CG3C51       HGA1
    7    22	 1 ;       NG321     HGPAM2
    7    21	 1 ;       NG321     HGPAM2
    8    13	 1 ;      CG2R61     CG2R61
    8     9	 1 ;      CG2R61     CG2R61
    9    10	 1 ;      CG2R61     CG2R67
    9    33	 1 ;      CG2R61      HGR61
   10    11	 1 ;      CG2R67     CG2R61
   10    23	 1 ;      CG2R67     CG2R67
   11    12	 1 ;      CG2R61     CG2R61
   11    34	 1 ;      CG2R61      HGR61
   12    13	 1 ;      CG2R61     CG2R61
   12    35	 1 ;      CG2R61      HGR61
   13    14	 1 ;      CG2R61     OG3R60
   14    15	 1 ;      OG3R60     CG2R61
   15    20	 1 ;      CG2R61     CG2R61
   15    16	 1 ;      CG2R61     CG2R61
   16    17	 1 ;      CG2R61     CG2R61
   17    18	 1 ;      CG2R61     CG2R61
   17    36	 1 ;      CG2R61      HGR61
   18    19	 1 ;      CG2R61     CG2R61
   18    29	 1 ;      CG2R61      OG301
   19    20	 1 ;      CG2R61     CG2R61
   19    37	 1 ;      CG2R61      HGR61
   20    38	 1 ;      CG2R61      HGR61
   23    24	 1 ;      CG2R67     CG2R61
   23    28	 1 ;      CG2R67     CG2R61
   24    25	 1 ;      CG2R61     CG2R61
   24    39	 1 ;      CG2R61      HGR61
   25    26	 1 ;      CG2R61     CG2R61
   25    40	 1 ;      CG2R61      HGR61
   26    27	 1 ;      CG2R61     CG2R61
   26    41	 1 ;      CG2R61      HGR61
   27    28	 1 ;      CG2R61     CG2R61
   27    42	 1 ;      CG2R61      HGR61
   28    43	 1 ;      CG2R61      HGR61
   29    30	 1 ;       OG301      CG331
   30    44	 1 ;       CG331       HGA3
   30    45	 1 ;       CG331       HGA3
   30    46	 1 ;       CG331       HGA3

[ pairs ]
;	ai	  aj funct			  c0			c1			  c2			c3
    1     8	 1
    1    16	 1
    1     5	 1
    1    22	 1
    1    21	 1
    2     7	 1
    2    47	 1
    2    13	 1
    2     9	 1
    2     5	 1
    2    15	 1
    2    17	 1
    3     7	 1
    3    47	 1
    3    12	 1
    3    14	 1
    3    10	 1
    3    33	 1
    3    20	 1
    3    18	 1
    3    36	 1
    4    31	 1
    4    32	 1
    4    13	 1
    4     9	 1
    4    15	 1
    4    17	 1
    4    22	 1
    4    21	 1
    5     8	 1
    5    16	 1
    5     7	 1
    5    47	 1
    6    31	 1
    6    32	 1
    6     8	 1
    6    16	 1
    8    31	 1
    8    32	 1
    8    15	 1
    8    17	 1
    8    11	 1
    8    23	 1
    8    35	 1
    9    16	 1
    9    12	 1
    9    14	 1
    9    34	 1
    9    24	 1
    9    28	 1
   10    13	 1
   10    35	 1
   10    25	 1
   10    39	 1
   10    27	 1
   10    43	 1
   11    33	 1
   11    24	 1
   11    28	 1
   11    14	 1
   12    23	 1
   12    15	 1
   13    16	 1
   13    33	 1
   13    34	 1
   13    20	 1
   14    35	 1
   14    19	 1
   14    38	 1
   14    17	 1
   15    18	 1
   15    36	 1
   15    37	 1
   16    31	 1
   16    32	 1
   16    19	 1
   16    38	 1
   16    29	 1
   17    20	 1
   17    37	 1
   17    30	 1
   18    38	 1
   18    44	 1
   18    45	 1
   18    46	 1
   19    36	 1
   19    30	 1
   20    29	 1
   21    47	 1
   22    47	 1
   23    33	 1
   23    34	 1
   23    26	 1
   23    40	 1
   23    42	 1
   24    27	 1
   24    43	 1
   24    41	 1
   25    28	 1
   25    42	 1
   26    39	 1
   26    43	 1
   27    40	 1
   28    39	 1
   28    41	 1
   29    36	 1
   29    37	 1
   34    35	 1
   37    38	 1
   39    40	 1
   40    41	 1
   41    42	 1
   42    43	 1

[ angles ]
;	ai	  aj	ak funct			c0			  c1			c2			  c3
    6     1     2	5 ;     CG3C51     OG3C51     CG3C52
    3     2     1	5 ;     CG3C50     CG3C52     OG3C51
    3     2    31	5 ;     CG3C50     CG3C52       HGA2
    3     2    32	5 ;     CG3C50     CG3C52       HGA2
    1     2    31	5 ;     OG3C51     CG3C52       HGA2
    1     2    32	5 ;     OG3C51     CG3C52       HGA2
   31     2    32	5 ;       HGA2     CG3C52       HGA2
    8     3     4	5 ;     CG2R61     CG3C50     NG3C51
    8     3    16	5 ;     CG2R61     CG3C50     CG2R61
    8     3     2	5 ;     CG2R61     CG3C50     CG3C52
    4     3    16	5 ;     NG3C51     CG3C50     CG2R61
    4     3     2	5 ;     NG3C51     CG3C50     CG3C52
   16     3     2	5 ;     CG2R61     CG3C50     CG3C52
    5     4     3	5 ;       HGP1     NG3C51     CG3C50
    5     4     6	5 ;       HGP1     NG3C51     CG3C51
    3     4     6	5 ;     CG3C50     NG3C51     CG3C51
    4     6     7	5 ;     NG3C51     CG3C51      NG321
    4     6     1	5 ;     NG3C51     CG3C51     OG3C51
    4     6    47	5 ;     NG3C51     CG3C51       HGA1
    7     6     1	5 ;      NG321     CG3C51     OG3C51
    7     6    47	5 ;      NG321     CG3C51       HGA1
    1     6    47	5 ;     OG3C51     CG3C51       HGA1
   22     7     6	5 ;     HGPAM2      NG321     CG3C51
   22     7    21	5 ;     HGPAM2      NG321     HGPAM2
    6     7    21	5 ;     CG3C51      NG321     HGPAM2
   13     8     9	5 ;     CG2R61     CG2R61     CG2R61
   13     8     3	5 ;     CG2R61     CG2R61     CG3C50
    9     8     3	5 ;     CG2R61     CG2R61     CG3C50
   10     9     8	5 ;     CG2R67     CG2R61     CG2R61
   10     9    33	5 ;     CG2R67     CG2R61      HGR61
    8     9    33	5 ;     CG2R61     CG2R61      HGR61
   11    10    23	5 ;     CG2R61     CG2R67     CG2R67
   11    10     9	5 ;     CG2R61     CG2R67     CG2R61
   23    10     9	5 ;     CG2R67     CG2R67     CG2R61
   12    11    10	5 ;     CG2R61     CG2R61     CG2R67
   12    11    34	5 ;     CG2R61     CG2R61      HGR61
   10    11    34	5 ;     CG2R67     CG2R61      HGR61
   11    12    13	5 ;     CG2R61     CG2R61     CG2R61
   11    12    35	5 ;     CG2R61     CG2R61      HGR61
   13    12    35	5 ;     CG2R61     CG2R61      HGR61
   12    13    14	5 ;     CG2R61     CG2R61     OG3R60
   12    13     8	5 ;     CG2R61     CG2R61     CG2R61
   14    13     8	5 ;     OG3R60     CG2R61     CG2R61
   13    14    15	5 ;     CG2R61     OG3R60     CG2R61
   14    15    20	5 ;     OG3R60     CG2R61     CG2R61
   14    15    16	5 ;     OG3R60     CG2R61     CG2R61
   20    15    16	5 ;     CG2R61     CG2R61     CG2R61
   15    16     3	5 ;     CG2R61     CG2R61     CG3C50
   15    16    17	5 ;     CG2R61     CG2R61     CG2R61
    3    16    17	5 ;     CG3C50     CG2R61     CG2R61
   16    17    18	5 ;     CG2R61     CG2R61     CG2R61
   16    17    36	5 ;     CG2R61     CG2R61      HGR61
   18    17    36	5 ;     CG2R61     CG2R61      HGR61
   19    18    17	5 ;     CG2R61     CG2R61     CG2R61
   19    18    29	5 ;     CG2R61     CG2R61      OG301
   17    18    29	5 ;     CG2R61     CG2R61      OG301
   20    19    18	5 ;     CG2R61     CG2R61     CG2R61
   20    19    37	5 ;     CG2R61     CG2R61      HGR61
   18    19    37	5 ;     CG2R61     CG2R61      HGR61
   15    20    19	5 ;     CG2R61     CG2R61     CG2R61
   15    20    38	5 ;     CG2R61     CG2R61      HGR61
   19    20    38	5 ;     CG2R61     CG2R61      HGR61
   24    23    10	5 ;     CG2R61     CG2R67     CG2R67
   24    23    28	5 ;     CG2R61     CG2R67     CG2R61
   10    23    28	5 ;     CG2R67     CG2R67     CG2R61
   25    24    23	5 ;     CG2R61     CG2R61     CG2R67
   25    24    39	5 ;     CG2R61     CG2R61      HGR61
   23    24    39	5 ;     CG2R67     CG2R61      HGR61
   24    25    26	5 ;     CG2R61     CG2R61     CG2R61
   24    25    40	5 ;     CG2R61     CG2R61      HGR61
   26    25    40	5 ;     CG2R61     CG2R61      HGR61
   25    26    27	5 ;     CG2R61     CG2R61     CG2R61
   25    26    41	5 ;     CG2R61     CG2R61      HGR61
   27    26    41	5 ;     CG2R61     CG2R61      HGR61
   26    27    28	5 ;     CG2R61     CG2R61     CG2R61
   26    27    42	5 ;     CG2R61     CG2R61      HGR61
   28    27    42	5 ;     CG2R61     CG2R61      HGR61
   23    28    27	5 ;     CG2R67     CG2R61     CG2R61
   23    28    43	5 ;     CG2R67     CG2R61      HGR61
   27    28    43	5 ;     CG2R61     CG2R61      HGR61
   18    29    30	5 ;     CG2R61      OG301      CG331
   29    30    44	5 ;      OG301      CG331       HGA3
   29    30    45	5 ;      OG301      CG331       HGA3
   29    30    46	5 ;      OG301      CG331       HGA3
   44    30    45	5 ;       HGA3      CG331       HGA3
   44    30    46	5 ;       HGA3      CG331       HGA3
   45    30    46	5 ;       HGA3      CG331       HGA3

[ dihedrals ]
;	ai	  aj	ak	  al funct			  c0			c1			  c2			c3			  c4			c5
    2     1     6     4	 9 ;     CG3C52     OG3C51     CG3C51     NG3C51
    2     1     6     7	 9 ;     CG3C52     OG3C51     CG3C51      NG321
    2     1     6    47	 9 ;     CG3C52     OG3C51     CG3C51       HGA1
    6     1     2     3	 9 ;     CG3C51     OG3C51     CG3C52     CG3C50
    6     1     2    31	 9 ;     CG3C51     OG3C51     CG3C52       HGA2
    6     1     2    32	 9 ;     CG3C51     OG3C51     CG3C52       HGA2
    1     2     3     8	 9 ;     OG3C51     CG3C52     CG3C50     CG2R61
    1     2     3     4	 9 ;     OG3C51     CG3C52     CG3C50     NG3C51
    1     2     3    16	 9 ;     OG3C51     CG3C52     CG3C50     CG2R61
   31     2     3     8	 9 ;       HGA2     CG3C52     CG3C50     CG2R61
   31     2     3     4	 9 ;       HGA2     CG3C52     CG3C50     NG3C51
   31     2     3    16	 9 ;       HGA2     CG3C52     CG3C50     CG2R61
   32     2     3     8	 9 ;       HGA2     CG3C52     CG3C50     CG2R61
   32     2     3     4	 9 ;       HGA2     CG3C52     CG3C50     NG3C51
   32     2     3    16	 9 ;       HGA2     CG3C52     CG3C50     CG2R61
    4     3     8    13	 9 ;     NG3C51     CG3C50     CG2R61     CG2R61
    4     3     8     9	 9 ;     NG3C51     CG3C50     CG2R61     CG2R61
   16     3     8    13	 9 ;     CG2R61     CG3C50     CG2R61     CG2R61
   16     3     8     9	 9 ;     CG2R61     CG3C50     CG2R61     CG2R61
    2     3     8    13	 9 ;     CG3C52     CG3C50     CG2R61     CG2R61
    2     3     8     9	 9 ;     CG3C52     CG3C50     CG2R61     CG2R61
    8     3     4     5	 9 ;     CG2R61     CG3C50     NG3C51       HGP1
    8     3     4     6	 9 ;     CG2R61     CG3C50     NG3C51     CG3C51
   16     3     4     5	 9 ;     CG2R61     CG3C50     NG3C51       HGP1
   16     3     4     6	 9 ;     CG2R61     CG3C50     NG3C51     CG3C51
    2     3     4     5	 9 ;     CG3C52     CG3C50     NG3C51       HGP1
    2     3     4     6	 9 ;     CG3C52     CG3C50     NG3C51     CG3C51
    8     3    16    15	 9 ;     CG2R61     CG3C50     CG2R61     CG2R61
    8     3    16    17	 9 ;     CG2R61     CG3C50     CG2R61     CG2R61
    4     3    16    15	 9 ;     NG3C51     CG3C50     CG2R61     CG2R61
    4     3    16    17	 9 ;     NG3C51     CG3C50     CG2R61     CG2R61
    2     3    16    15	 9 ;     CG3C52     CG3C50     CG2R61     CG2R61
    2     3    16    17	 9 ;     CG3C52     CG3C50     CG2R61     CG2R61
    5     4     6     7	 9 ;       HGP1     NG3C51     CG3C51      NG321
    5     4     6     1	 9 ;       HGP1     NG3C51     CG3C51     OG3C51
    5     4     6    47	 9 ;       HGP1     NG3C51     CG3C51       HGA1
    3     4     6     7	 9 ;     CG3C50     NG3C51     CG3C51      NG321
    3     4     6     1	 9 ;     CG3C50     NG3C51     CG3C51     OG3C51
    3     4     6    47	 9 ;     CG3C50     NG3C51     CG3C51       HGA1
    4     6     7    22	 9 ;     NG3C51     CG3C51      NG321     HGPAM2
    4     6     7    21	 9 ;     NG3C51     CG3C51      NG321     HGPAM2
    1     6     7    22	 9 ;     OG3C51     CG3C51      NG321     HGPAM2
    1     6     7    21	 9 ;     OG3C51     CG3C51      NG321     HGPAM2
   47     6     7    22	 9 ;       HGA1     CG3C51      NG321     HGPAM2
   47     6     7    21	 9 ;       HGA1     CG3C51      NG321     HGPAM2
    9     8    13    12	 9 ;     CG2R61     CG2R61     CG2R61     CG2R61
    9     8    13    14	 9 ;     CG2R61     CG2R61     CG2R61     OG3R60
    3     8    13    12	 9 ;     CG3C50     CG2R61     CG2R61     CG2R61
    3     8    13    14	 9 ;     CG3C50     CG2R61     CG2R61     OG3R60
   13     8     9    10	 9 ;     CG2R61     CG2R61     CG2R61     CG2R67
   13     8     9    33	 9 ;     CG2R61     CG2R61     CG2R61      HGR61
    3     8     9    10	 9 ;     CG3C50     CG2R61     CG2R61     CG2R67
    3     8     9    33	 9 ;     CG3C50     CG2R61     CG2R61      HGR61
    8     9    10    11	 9 ;     CG2R61     CG2R61     CG2R67     CG2R61
    8     9    10    23	 9 ;     CG2R61     CG2R61     CG2R67     CG2R67
   33     9    10    11	 9 ;      HGR61     CG2R61     CG2R67     CG2R61
   33     9    10    23	 9 ;      HGR61     CG2R61     CG2R67     CG2R67
   23    10    11    12	 9 ;     CG2R67     CG2R67     CG2R61     CG2R61
   23    10    11    34	 9 ;     CG2R67     CG2R67     CG2R61      HGR61
    9    10    11    12	 9 ;     CG2R61     CG2R67     CG2R61     CG2R61
    9    10    11    34	 9 ;     CG2R61     CG2R67     CG2R61      HGR61
   11    10    23    24	 9 ;     CG2R61     CG2R67     CG2R67     CG2R61
   11    10    23    28	 9 ;     CG2R61     CG2R67     CG2R67     CG2R61
    9    10    23    24	 9 ;     CG2R61     CG2R67     CG2R67     CG2R61
    9    10    23    28	 9 ;     CG2R61     CG2R67     CG2R67     CG2R61
   10    11    12    13	 9 ;     CG2R67     CG2R61     CG2R61     CG2R61
   10    11    12    35	 9 ;     CG2R67     CG2R61     CG2R61      HGR61
   34    11    12    13	 9 ;      HGR61     CG2R61     CG2R61     CG2R61
   34    11    12    35	 9 ;      HGR61     CG2R61     CG2R61      HGR61
   11    12    13    14	 9 ;     CG2R61     CG2R61     CG2R61     OG3R60
   11    12    13     8	 9 ;     CG2R61     CG2R61     CG2R61     CG2R61
   35    12    13    14	 9 ;      HGR61     CG2R61     CG2R61     OG3R60
   35    12    13     8	 9 ;      HGR61     CG2R61     CG2R61     CG2R61
   12    13    14    15	 9 ;     CG2R61     CG2R61     OG3R60     CG2R61
    8    13    14    15	 9 ;     CG2R61     CG2R61     OG3R60     CG2R61
   13    14    15    20	 9 ;     CG2R61     OG3R60     CG2R61     CG2R61
   13    14    15    16	 9 ;     CG2R61     OG3R60     CG2R61     CG2R61
   14    15    20    19	 9 ;     OG3R60     CG2R61     CG2R61     CG2R61
   14    15    20    38	 9 ;     OG3R60     CG2R61     CG2R61      HGR61
   16    15    20    19	 9 ;     CG2R61     CG2R61     CG2R61     CG2R61
   16    15    20    38	 9 ;     CG2R61     CG2R61     CG2R61      HGR61
   14    15    16     3	 9 ;     OG3R60     CG2R61     CG2R61     CG3C50
   14    15    16    17	 9 ;     OG3R60     CG2R61     CG2R61     CG2R61
   20    15    16     3	 9 ;     CG2R61     CG2R61     CG2R61     CG3C50
   20    15    16    17	 9 ;     CG2R61     CG2R61     CG2R61     CG2R61
   15    16    17    18	 9 ;     CG2R61     CG2R61     CG2R61     CG2R61
   15    16    17    36	 9 ;     CG2R61     CG2R61     CG2R61      HGR61
    3    16    17    18	 9 ;     CG3C50     CG2R61     CG2R61     CG2R61
    3    16    17    36	 9 ;     CG3C50     CG2R61     CG2R61      HGR61
   16    17    18    19	 9 ;     CG2R61     CG2R61     CG2R61     CG2R61
   16    17    18    29	 9 ;     CG2R61     CG2R61     CG2R61      OG301
   36    17    18    19	 9 ;      HGR61     CG2R61     CG2R61     CG2R61
   36    17    18    29	 9 ;      HGR61     CG2R61     CG2R61      OG301
   17    18    19    20	 9 ;     CG2R61     CG2R61     CG2R61     CG2R61
   17    18    19    37	 9 ;     CG2R61     CG2R61     CG2R61      HGR61
   29    18    19    20	 9 ;      OG301     CG2R61     CG2R61     CG2R61
   29    18    19    37	 9 ;      OG301     CG2R61     CG2R61      HGR61
   19    18    29    30	 9 ;     CG2R61     CG2R61      OG301      CG331
   17    18    29    30	 9 ;     CG2R61     CG2R61      OG301      CG331
   18    19    20    15	 9 ;     CG2R61     CG2R61     CG2R61     CG2R61
   18    19    20    38	 9 ;     CG2R61     CG2R61     CG2R61      HGR61
   37    19    20    15	 9 ;      HGR61     CG2R61     CG2R61     CG2R61
   37    19    20    38	 9 ;      HGR61     CG2R61     CG2R61      HGR61
   10    23    24    25	 9 ;     CG2R67     CG2R67     CG2R61     CG2R61
   10    23    24    39	 9 ;     CG2R67     CG2R67     CG2R61      HGR61
   28    23    24    25	 9 ;     CG2R61     CG2R67     CG2R61     CG2R61
   28    23    24    39	 9 ;     CG2R61     CG2R67     CG2R61      HGR61
   24    23    28    27	 9 ;     CG2R61     CG2R67     CG2R61     CG2R61
   24    23    28    43	 9 ;     CG2R61     CG2R67     CG2R61      HGR61
   10    23    28    27	 9 ;     CG2R67     CG2R67     CG2R61     CG2R61
   10    23    28    43	 9 ;     CG2R67     CG2R67     CG2R61      HGR61
   23    24    25    26	 9 ;     CG2R67     CG2R61     CG2R61     CG2R61
   23    24    25    40	 9 ;     CG2R67     CG2R61     CG2R61      HGR61
   39    24    25    26	 9 ;      HGR61     CG2R61     CG2R61     CG2R61
   39    24    25    40	 9 ;      HGR61     CG2R61     CG2R61      HGR61
   24    25    26    27	 9 ;     CG2R61     CG2R61     CG2R61     CG2R61
   24    25    26    41	 9 ;     CG2R61     CG2R61     CG2R61      HGR61
   40    25    26    27	 9 ;      HGR61     CG2R61     CG2R61     CG2R61
   40    25    26    41	 9 ;      HGR61     CG2R61     CG2R61      HGR61
   25    26    27    28	 9 ;     CG2R61     CG2R61     CG2R61     CG2R61
   25    26    27    42	 9 ;     CG2R61     CG2R61     CG2R61      HGR61
   41    26    27    28	 9 ;      HGR61     CG2R61     CG2R61     CG2R61
   41    26    27    42	 9 ;      HGR61     CG2R61     CG2R61      HGR61
   26    27    28    23	 9 ;     CG2R61     CG2R61     CG2R61     CG2R67
   26    27    28    43	 9 ;     CG2R61     CG2R61     CG2R61      HGR61
   42    27    28    23	 9 ;      HGR61     CG2R61     CG2R61     CG2R67
   42    27    28    43	 9 ;      HGR61     CG2R61     CG2R61      HGR61
   18    29    30    44	 9 ;     CG2R61      OG301      CG331       HGA3
   18    29    30    45	 9 ;     CG2R61      OG301      CG331       HGA3
   18    29    30    46	 9 ;     CG2R61      OG301      CG331       HGA3

