; Created by cgenff_charmm2gmx.py

[ moleculetype ]
; Name			   nrexcl
LIG				 3

[ atoms ]
;	 nr		  type	resnr residue  atom   cgnr	   charge		mass  typeB    chargeB		massB
; residue	 1 LIG rtp LIG q	qsum
     1      CG311      1    LIG     C1      1     -0.003     12.011   ;
     2      NG2S1      1    LIG     N1      2     -0.371     14.007   ;
     3      CG2O1      1    LIG     C2      3      0.510     12.011   ;
     4      OG2D1      1    LIG     O1      4     -0.511     15.999   ;
     5       HGP1      1    LIG     H1      5      0.269      1.008   ;
     6      CG311      1    LIG     C3      6     -0.013     12.011   ;
     7      CG331      1    LIG     C4      7     -0.232     12.011   ;
     8     NG2R53      1    LIG     N2      8     -0.088     14.007   ;
     9     CG3C52      1    LIG     C5      9     -0.127     12.011   ;
    10     CG3C52      1    LIG     C6     10     -0.211     12.011   ;
    11     CG3C51      1    LIG     C7     11     -0.095     12.011   ;
    12     CG2R53      1    LIG     C8     12      0.412     12.011   ;
    13      OG2D1      1    LIG     O2     13     -0.496     15.999   ;
    14      CG311      1    LIG     C9     14     -0.073     12.011   ;
    15      CG331      1    LIG    C10     15     -0.271     12.011   ;
    16      CG331      1    LIG    C11     16     -0.271     12.011   ;
    17      CG321      1    LIG    C12     17     -0.153     12.011   ;
    18     CG2R61      1    LIG    C13     18      0.057     12.011   ;
    19     CG2R61      1    LIG    C14     19     -0.218     12.011   ;
    20     CG2R66      1    LIG    C15     20      0.261     12.011   ;
    21       FGR1      1    LIG     F1     21     -0.210     18.998   ;
    22     CG2R61      1    LIG    C16     22     -0.240     12.011   ;
    23     CG2R66      1    LIG    C17     23      0.261     12.011   ;
    24     CG2R61      1    LIG    C18     24     -0.218     12.011   ;
    25       FGR1      1    LIG     F2     25     -0.210     18.998   ;
    26      CG311      1    LIG    C19     26      0.094     12.011   ;
    27      CG324      1    LIG    C20     27      0.178     12.011   ;
    28      NG3P2      1    LIG     N3     28     -0.444     14.007   ;
    29       HGP2      1    LIG     H2     29      0.348      1.008   ;
    30       HGP2      1    LIG     H3     30      0.348      1.008   ;
    31      CG324      1    LIG    C21     31      0.171     12.011   ;
    32     CG2R61      1    LIG    C22     32      0.036     12.011   ;
    33     CG2R61      1    LIG    C23     33     -0.124     12.011   ;
    34     CG2R61      1    LIG    C24     34      0.216     12.011   ;
    35     CG2R61      1    LIG    C25     35     -0.121     12.011   ;
    36     CG2R61      1    LIG    C26     36     -0.108     12.011   ;
    37     CG2R61      1    LIG    C27     37     -0.119     12.011   ;
    38      OG301      1    LIG     O3     38     -0.383     15.999   ;
    39      CG331      1    LIG    C28     39     -0.094     12.011   ;
    40      OG311      1    LIG     O4     40     -0.625     15.999   ;
    41       HGP1      1    LIG     H4     41      0.415      1.008   ;
    42       HGA1      1    LIG     HC     42      0.090      1.008   ;
    43       HGA1      1    LIG    HC1     43      0.090      1.008   ;
    44       HGA2      1    LIG    HC2     44      0.090      1.008   ;
    45       HGA2      1    LIG    HC3     45      0.090      1.008   ;
    46       HGA2      1    LIG    HC4     46      0.090      1.008   ;
    47       HGA2      1    LIG    HC5     47      0.090      1.008   ;
    48       HGA1      1    LIG    HC6     48      0.115      1.008   ;
    49       HGA1      1    LIG    HC7     49      0.090      1.008   ;
    50       HGA2      1    LIG    HC8     50      0.090      1.008   ;
    51       HGA2      1    LIG    HC9     51      0.090      1.008   ;
    52      HGR62      1    LIG   HC10     52      0.174      1.008   ;
    53      HGR62      1    LIG   HC11     53      0.186      1.008   ;
    54      HGR62      1    LIG   HC12     54      0.174      1.008   ;
    55       HGA1      1    LIG   HC13     55      0.090      1.008   ;
    56       HGA2      1    LIG   HC14     56      0.090      1.008   ;
    57       HGA2      1    LIG   HC15     57      0.090      1.008   ;
    58       HGA2      1    LIG   HC16     58      0.090      1.008   ;
    59       HGA2      1    LIG   HC17     59      0.090      1.008   ;
    60      HGR61      1    LIG   HC18     60      0.116      1.008   ;
    61      HGR61      1    LIG   HC19     61      0.116      1.008   ;
    62      HGR61      1    LIG   HC20     62      0.116      1.008   ;
    63      HGR61      1    LIG   HC21     63      0.116      1.008   ;
    64       HGA3      1    LIG   HC22     64      0.090      1.008   ;
    65       HGA3      1    LIG   HC23     65      0.090      1.008   ;
    66       HGA3      1    LIG   HC24     66      0.090      1.008   ;
    67       HGA3      1    LIG   HC25     67      0.090      1.008   ;
    68       HGA3      1    LIG   HC26     68      0.090      1.008   ;
    69       HGA3      1    LIG   HC27     69      0.090      1.008   ;
    70       HGA3      1    LIG   HC28     70      0.090      1.008   ;
    71       HGA3      1    LIG   HC29     71      0.090      1.008   ;
    72       HGA3      1    LIG   HC30     72      0.090      1.008   ;
    73       HGA3      1    LIG   HC31     73      0.090      1.008   ;
    74       HGA3      1    LIG   HC32     74      0.090      1.008   ;
    75       HGA3      1    LIG   HC33     75      0.090      1.008   ;

[ bonds ]
;	ai	  aj funct			  c0			c1			  c2			c3
    1     2	 1 ;       CG311      NG2S1
    1    17	 1 ;       CG311      CG321
    1    26	 1 ;       CG311      CG311
    1    42	 1 ;       CG311       HGA1
    2     3	 1 ;       NG2S1      CG2O1
    2     5	 1 ;       NG2S1       HGP1
    3     6	 1 ;       CG2O1      CG311
    3     4	 1 ;       CG2O1      OG2D1
    6     7	 1 ;       CG311      CG331
    6     8	 1 ;       CG311     NG2R53
    6    43	 1 ;       CG311       HGA1
    7    70	 1 ;       CG331       HGA3
    7    71	 1 ;       CG331       HGA3
    7    72	 1 ;       CG331       HGA3
    8     9	 1 ;      NG2R53     CG3C52
    8    12	 1 ;      NG2R53     CG2R53
    9    10	 1 ;      CG3C52     CG3C52
    9    44	 1 ;      CG3C52       HGA2
    9    45	 1 ;      CG3C52       HGA2
   10    11	 1 ;      CG3C52     CG3C51
   10    46	 1 ;      CG3C52       HGA2
   10    47	 1 ;      CG3C52       HGA2
   11    14	 1 ;      CG3C51      CG311
   11    12	 1 ;      CG3C51     CG2R53
   11    48	 1 ;      CG3C51       HGA1
   12    13	 1 ;      CG2R53      OG2D1
   14    16	 1 ;       CG311      CG331
   14    15	 1 ;       CG311      CG331
   14    49	 1 ;       CG311       HGA1
   15    64	 1 ;       CG331       HGA3
   15    65	 1 ;       CG331       HGA3
   15    66	 1 ;       CG331       HGA3
   16    73	 1 ;       CG331       HGA3
   16    74	 1 ;       CG331       HGA3
   16    75	 1 ;       CG331       HGA3
   17    18	 1 ;       CG321     CG2R61
   17    50	 1 ;       CG321       HGA2
   17    51	 1 ;       CG321       HGA2
   18    24	 1 ;      CG2R61     CG2R61
   18    19	 1 ;      CG2R61     CG2R61
   19    20	 1 ;      CG2R61     CG2R66
   19    52	 1 ;      CG2R61      HGR62
   20    22	 1 ;      CG2R66     CG2R61
   20    21	 1 ;      CG2R66       FGR1
   22    23	 1 ;      CG2R61     CG2R66
   22    53	 1 ;      CG2R61      HGR62
   23    24	 1 ;      CG2R66     CG2R61
   23    25	 1 ;      CG2R66       FGR1
   24    54	 1 ;      CG2R61      HGR62
   26    40	 1 ;       CG311      OG311
   26    27	 1 ;       CG311      CG324
   26    55	 1 ;       CG311       HGA1
   27    28	 1 ;       CG324      NG3P2
   27    56	 1 ;       CG324       HGA2
   27    57	 1 ;       CG324       HGA2
   28    30	 1 ;       NG3P2       HGP2
   28    29	 1 ;       NG3P2       HGP2
   28    31	 1 ;       NG3P2      CG324
   31    32	 1 ;       CG324     CG2R61
   31    58	 1 ;       CG324       HGA2
   31    59	 1 ;       CG324       HGA2
   32    37	 1 ;      CG2R61     CG2R61
   32    33	 1 ;      CG2R61     CG2R61
   33    34	 1 ;      CG2R61     CG2R61
   33    60	 1 ;      CG2R61      HGR61
   34    35	 1 ;      CG2R61     CG2R61
   34    38	 1 ;      CG2R61      OG301
   35    36	 1 ;      CG2R61     CG2R61
   35    61	 1 ;      CG2R61      HGR61
   36    37	 1 ;      CG2R61     CG2R61
   36    62	 1 ;      CG2R61      HGR61
   37    63	 1 ;      CG2R61      HGR61
   38    39	 1 ;       OG301      CG331
   39    67	 1 ;       CG331       HGA3
   39    68	 1 ;       CG331       HGA3
   39    69	 1 ;       CG331       HGA3
   40    41	 1 ;       OG311       HGP1

[ pairs ]
;	ai	  aj funct			  c0			c1			  c2			c3
    1     6	 1
    1     4	 1
    1    24	 1
    1    19	 1
    1    41	 1
    1    28	 1
    1    56	 1
    1    57	 1
    2    18	 1
    2    50	 1
    2    51	 1
    2    40	 1
    2    27	 1
    2    55	 1
    2     7	 1
    2     8	 1
    2    43	 1
    3    17	 1
    3    26	 1
    3    42	 1
    3    70	 1
    3    71	 1
    3    72	 1
    3     9	 1
    3    12	 1
    4     5	 1
    4     7	 1
    4     8	 1
    4    43	 1
    5    17	 1
    5    26	 1
    5    42	 1
    5     6	 1
    6    10	 1
    6    44	 1
    6    45	 1
    6    11	 1
    6    13	 1
    7     9	 1
    7    12	 1
    8    70	 1
    8    71	 1
    8    72	 1
    8    46	 1
    8    47	 1
    8    14	 1
    8    48	 1
    9    43	 1
    9    13	 1
    9    14	 1
    9    48	 1
   10    16	 1
   10    15	 1
   10    49	 1
   10    13	 1
   11    44	 1
   11    45	 1
   11    73	 1
   11    74	 1
   11    75	 1
   11    64	 1
   11    65	 1
   11    66	 1
   12    43	 1
   12    44	 1
   12    45	 1
   12    46	 1
   12    47	 1
   12    16	 1
   12    15	 1
   12    49	 1
   13    14	 1
   13    48	 1
   14    46	 1
   14    47	 1
   15    48	 1
   15    73	 1
   15    74	 1
   15    75	 1
   16    48	 1
   16    64	 1
   16    65	 1
   16    66	 1
   17    40	 1
   17    27	 1
   17    55	 1
   17    23	 1
   17    54	 1
   17    20	 1
   17    52	 1
   18    26	 1
   18    42	 1
   18    22	 1
   18    21	 1
   18    25	 1
   19    50	 1
   19    51	 1
   19    23	 1
   19    54	 1
   19    53	 1
   20    24	 1
   20    25	 1
   21    52	 1
   21    23	 1
   21    53	 1
   22    52	 1
   22    54	 1
   24    50	 1
   24    51	 1
   24    52	 1
   24    53	 1
   25    53	 1
   25    54	 1
   26    50	 1
   26    51	 1
   26    30	 1
   26    29	 1
   26    31	 1
   27    42	 1
   27    41	 1
   27    32	 1
   27    58	 1
   27    59	 1
   28    40	 1
   28    55	 1
   28    37	 1
   28    33	 1
   29    56	 1
   29    57	 1
   29    32	 1
   29    58	 1
   29    59	 1
   30    56	 1
   30    57	 1
   30    32	 1
   30    58	 1
   30    59	 1
   31    56	 1
   31    57	 1
   31    36	 1
   31    63	 1
   31    34	 1
   31    60	 1
   32    35	 1
   32    38	 1
   32    62	 1
   33    58	 1
   33    59	 1
   33    36	 1
   33    63	 1
   33    61	 1
   33    39	 1
   34    37	 1
   34    62	 1
   34    67	 1
   34    68	 1
   34    69	 1
   35    60	 1
   35    39	 1
   35    63	 1
   36    38	 1
   37    58	 1
   37    59	 1
   37    60	 1
   37    61	 1
   38    60	 1
   38    61	 1
   40    42	 1
   40    56	 1
   40    57	 1
   41    55	 1
   42    50	 1
   42    51	 1
   42    55	 1
   43    70	 1
   43    71	 1
   43    72	 1
   44    46	 1
   44    47	 1
   45    46	 1
   45    47	 1
   46    48	 1
   47    48	 1
   48    49	 1
   49    73	 1
   49    74	 1
   49    75	 1
   49    64	 1
   49    65	 1
   49    66	 1
   55    56	 1
   55    57	 1
   61    62	 1
   62    63	 1

[ angles ]
;	ai	  aj	ak funct			c0			  c1			c2			  c3
    2     1    17	5 ;      NG2S1      CG311      CG321
    2     1    26	5 ;      NG2S1      CG311      CG311
    2     1    42	5 ;      NG2S1      CG311       HGA1
   17     1    26	5 ;      CG321      CG311      CG311
   17     1    42	5 ;      CG321      CG311       HGA1
   26     1    42	5 ;      CG311      CG311       HGA1
    3     2     5	5 ;      CG2O1      NG2S1       HGP1
    3     2     1	5 ;      CG2O1      NG2S1      CG311
    5     2     1	5 ;       HGP1      NG2S1      CG311
    6     3     4	5 ;      CG311      CG2O1      OG2D1
    6     3     2	5 ;      CG311      CG2O1      NG2S1
    4     3     2	5 ;      OG2D1      CG2O1      NG2S1
    7     6     8	5 ;      CG331      CG311     NG2R53
    7     6     3	5 ;      CG331      CG311      CG2O1
    7     6    43	5 ;      CG331      CG311       HGA1
    8     6     3	5 ;     NG2R53      CG311      CG2O1
    8     6    43	5 ;     NG2R53      CG311       HGA1
    3     6    43	5 ;      CG2O1      CG311       HGA1
    6     7    70	5 ;      CG311      CG331       HGA3
    6     7    71	5 ;      CG311      CG331       HGA3
    6     7    72	5 ;      CG311      CG331       HGA3
   70     7    71	5 ;       HGA3      CG331       HGA3
   70     7    72	5 ;       HGA3      CG331       HGA3
   71     7    72	5 ;       HGA3      CG331       HGA3
    9     8     6	5 ;     CG3C52     NG2R53      CG311
    9     8    12	5 ;     CG3C52     NG2R53     CG2R53
    6     8    12	5 ;      CG311     NG2R53     CG2R53
   10     9     8	5 ;     CG3C52     CG3C52     NG2R53
   10     9    44	5 ;     CG3C52     CG3C52       HGA2
   10     9    45	5 ;     CG3C52     CG3C52       HGA2
    8     9    44	5 ;     NG2R53     CG3C52       HGA2
    8     9    45	5 ;     NG2R53     CG3C52       HGA2
   44     9    45	5 ;       HGA2     CG3C52       HGA2
    9    10    11	5 ;     CG3C52     CG3C52     CG3C51
    9    10    46	5 ;     CG3C52     CG3C52       HGA2
    9    10    47	5 ;     CG3C52     CG3C52       HGA2
   11    10    46	5 ;     CG3C51     CG3C52       HGA2
   11    10    47	5 ;     CG3C51     CG3C52       HGA2
   46    10    47	5 ;       HGA2     CG3C52       HGA2
   10    11    14	5 ;     CG3C52     CG3C51      CG311
   10    11    12	5 ;     CG3C52     CG3C51     CG2R53
   10    11    48	5 ;     CG3C52     CG3C51       HGA1
   14    11    12	5 ;      CG311     CG3C51     CG2R53
   14    11    48	5 ;      CG311     CG3C51       HGA1
   12    11    48	5 ;     CG2R53     CG3C51       HGA1
   11    12     8	5 ;     CG3C51     CG2R53     NG2R53
   11    12    13	5 ;     CG3C51     CG2R53      OG2D1
    8    12    13	5 ;     NG2R53     CG2R53      OG2D1
   16    14    11	5 ;      CG331      CG311     CG3C51
   16    14    15	5 ;      CG331      CG311      CG331
   16    14    49	5 ;      CG331      CG311       HGA1
   11    14    15	5 ;     CG3C51      CG311      CG331
   11    14    49	5 ;     CG3C51      CG311       HGA1
   15    14    49	5 ;      CG331      CG311       HGA1
   14    15    64	5 ;      CG311      CG331       HGA3
   14    15    65	5 ;      CG311      CG331       HGA3
   14    15    66	5 ;      CG311      CG331       HGA3
   64    15    65	5 ;       HGA3      CG331       HGA3
   64    15    66	5 ;       HGA3      CG331       HGA3
   65    15    66	5 ;       HGA3      CG331       HGA3
   14    16    73	5 ;      CG311      CG331       HGA3
   14    16    74	5 ;      CG311      CG331       HGA3
   14    16    75	5 ;      CG311      CG331       HGA3
   73    16    74	5 ;       HGA3      CG331       HGA3
   73    16    75	5 ;       HGA3      CG331       HGA3
   74    16    75	5 ;       HGA3      CG331       HGA3
    1    17    18	5 ;      CG311      CG321     CG2R61
    1    17    50	5 ;      CG311      CG321       HGA2
    1    17    51	5 ;      CG311      CG321       HGA2
   18    17    50	5 ;     CG2R61      CG321       HGA2
   18    17    51	5 ;     CG2R61      CG321       HGA2
   50    17    51	5 ;       HGA2      CG321       HGA2
   17    18    24	5 ;      CG321     CG2R61     CG2R61
   17    18    19	5 ;      CG321     CG2R61     CG2R61
   24    18    19	5 ;     CG2R61     CG2R61     CG2R61
   18    19    20	5 ;     CG2R61     CG2R61     CG2R66
   18    19    52	5 ;     CG2R61     CG2R61      HGR62
   20    19    52	5 ;     CG2R66     CG2R61      HGR62
   19    20    22	5 ;     CG2R61     CG2R66     CG2R61
   19    20    21	5 ;     CG2R61     CG2R66       FGR1
   22    20    21	5 ;     CG2R61     CG2R66       FGR1
   23    22    20	5 ;     CG2R66     CG2R61     CG2R66
   23    22    53	5 ;     CG2R66     CG2R61      HGR62
   20    22    53	5 ;     CG2R66     CG2R61      HGR62
   24    23    25	5 ;     CG2R61     CG2R66       FGR1
   24    23    22	5 ;     CG2R61     CG2R66     CG2R61
   25    23    22	5 ;       FGR1     CG2R66     CG2R61
   18    24    23	5 ;     CG2R61     CG2R61     CG2R66
   18    24    54	5 ;     CG2R61     CG2R61      HGR62
   23    24    54	5 ;     CG2R66     CG2R61      HGR62
    1    26    40	5 ;      CG311      CG311      OG311
    1    26    27	5 ;      CG311      CG311      CG324
    1    26    55	5 ;      CG311      CG311       HGA1
   40    26    27	5 ;      OG311      CG311      CG324
   40    26    55	5 ;      OG311      CG311       HGA1
   27    26    55	5 ;      CG324      CG311       HGA1
   26    27    28	5 ;      CG311      CG324      NG3P2
   26    27    56	5 ;      CG311      CG324       HGA2
   26    27    57	5 ;      CG311      CG324       HGA2
   28    27    56	5 ;      NG3P2      CG324       HGA2
   28    27    57	5 ;      NG3P2      CG324       HGA2
   56    27    57	5 ;       HGA2      CG324       HGA2
   27    28    30	5 ;      CG324      NG3P2       HGP2
   27    28    29	5 ;      CG324      NG3P2       HGP2
   27    28    31	5 ;      CG324      NG3P2      CG324
   30    28    29	5 ;       HGP2      NG3P2       HGP2
   30    28    31	5 ;       HGP2      NG3P2      CG324
   29    28    31	5 ;       HGP2      NG3P2      CG324
   28    31    32	5 ;      NG3P2      CG324     CG2R61
   28    31    58	5 ;      NG3P2      CG324       HGA2
   28    31    59	5 ;      NG3P2      CG324       HGA2
   32    31    58	5 ;     CG2R61      CG324       HGA2
   32    31    59	5 ;     CG2R61      CG324       HGA2
   58    31    59	5 ;       HGA2      CG324       HGA2
   31    32    37	5 ;      CG324     CG2R61     CG2R61
   31    32    33	5 ;      CG324     CG2R61     CG2R61
   37    32    33	5 ;     CG2R61     CG2R61     CG2R61
   32    33    34	5 ;     CG2R61     CG2R61     CG2R61
   32    33    60	5 ;     CG2R61     CG2R61      HGR61
   34    33    60	5 ;     CG2R61     CG2R61      HGR61
   33    34    35	5 ;     CG2R61     CG2R61     CG2R61
   33    34    38	5 ;     CG2R61     CG2R61      OG301
   35    34    38	5 ;     CG2R61     CG2R61      OG301
   36    35    34	5 ;     CG2R61     CG2R61     CG2R61
   36    35    61	5 ;     CG2R61     CG2R61      HGR61
   34    35    61	5 ;     CG2R61     CG2R61      HGR61
   37    36    35	5 ;     CG2R61     CG2R61     CG2R61
   37    36    62	5 ;     CG2R61     CG2R61      HGR61
   35    36    62	5 ;     CG2R61     CG2R61      HGR61
   32    37    36	5 ;     CG2R61     CG2R61     CG2R61
   32    37    63	5 ;     CG2R61     CG2R61      HGR61
   36    37    63	5 ;     CG2R61     CG2R61      HGR61
   34    38    39	5 ;     CG2R61      OG301      CG331
   38    39    67	5 ;      OG301      CG331       HGA3
   38    39    68	5 ;      OG301      CG331       HGA3
   38    39    69	5 ;      OG301      CG331       HGA3
   67    39    68	5 ;       HGA3      CG331       HGA3
   67    39    69	5 ;       HGA3      CG331       HGA3
   68    39    69	5 ;       HGA3      CG331       HGA3
   41    40    26	5 ;       HGP1      OG311      CG311

[ dihedrals ]
;	ai	  aj	ak	  al funct			  c0			c1			  c2			c3			  c4			c5
   17     1     2     3	 9 ;      CG321      CG311      NG2S1      CG2O1
   17     1     2     5	 9 ;      CG321      CG311      NG2S1       HGP1
   26     1     2     3	 9 ;      CG311      CG311      NG2S1      CG2O1
   26     1     2     5	 9 ;      CG311      CG311      NG2S1       HGP1
   42     1     2     3	 9 ;       HGA1      CG311      NG2S1      CG2O1
   42     1     2     5	 9 ;       HGA1      CG311      NG2S1       HGP1
    2     1    17    18	 9 ;      NG2S1      CG311      CG321     CG2R61
    2     1    17    50	 9 ;      NG2S1      CG311      CG321       HGA2
    2     1    17    51	 9 ;      NG2S1      CG311      CG321       HGA2
   26     1    17    18	 9 ;      CG311      CG311      CG321     CG2R61
   26     1    17    50	 9 ;      CG311      CG311      CG321       HGA2
   26     1    17    51	 9 ;      CG311      CG311      CG321       HGA2
   42     1    17    18	 9 ;       HGA1      CG311      CG321     CG2R61
   42     1    17    50	 9 ;       HGA1      CG311      CG321       HGA2
   42     1    17    51	 9 ;       HGA1      CG311      CG321       HGA2
    2     1    26    40	 9 ;      NG2S1      CG311      CG311      OG311
    2     1    26    27	 9 ;      NG2S1      CG311      CG311      CG324
    2     1    26    55	 9 ;      NG2S1      CG311      CG311       HGA1
   17     1    26    40	 9 ;      CG321      CG311      CG311      OG311
   17     1    26    27	 9 ;      CG321      CG311      CG311      CG324
   17     1    26    55	 9 ;      CG321      CG311      CG311       HGA1
   42     1    26    40	 9 ;       HGA1      CG311      CG311      OG311
   42     1    26    27	 9 ;       HGA1      CG311      CG311      CG324
   42     1    26    55	 9 ;       HGA1      CG311      CG311       HGA1
    5     2     3     6	 9 ;       HGP1      NG2S1      CG2O1      CG311
    5     2     3     4	 9 ;       HGP1      NG2S1      CG2O1      OG2D1
    1     2     3     6	 9 ;      CG311      NG2S1      CG2O1      CG311
    1     2     3     4	 9 ;      CG311      NG2S1      CG2O1      OG2D1
    4     3     6     7	 9 ;      OG2D1      CG2O1      CG311      CG331
    4     3     6     8	 9 ;      OG2D1      CG2O1      CG311     NG2R53
    4     3     6    43	 9 ;      OG2D1      CG2O1      CG311       HGA1
    2     3     6     7	 9 ;      NG2S1      CG2O1      CG311      CG331
    2     3     6     8	 9 ;      NG2S1      CG2O1      CG311     NG2R53
    2     3     6    43	 9 ;      NG2S1      CG2O1      CG311       HGA1
    8     6     7    70	 9 ;     NG2R53      CG311      CG331       HGA3
    8     6     7    71	 9 ;     NG2R53      CG311      CG331       HGA3
    8     6     7    72	 9 ;     NG2R53      CG311      CG331       HGA3
    3     6     7    70	 9 ;      CG2O1      CG311      CG331       HGA3
    3     6     7    71	 9 ;      CG2O1      CG311      CG331       HGA3
    3     6     7    72	 9 ;      CG2O1      CG311      CG331       HGA3
   43     6     7    70	 9 ;       HGA1      CG311      CG331       HGA3
   43     6     7    71	 9 ;       HGA1      CG311      CG331       HGA3
   43     6     7    72	 9 ;       HGA1      CG311      CG331       HGA3
    7     6     8     9	 9 ;      CG331      CG311     NG2R53     CG3C52
    7     6     8    12	 9 ;      CG331      CG311     NG2R53     CG2R53
    3     6     8     9	 9 ;      CG2O1      CG311     NG2R53     CG3C52
    3     6     8    12	 9 ;      CG2O1      CG311     NG2R53     CG2R53
   43     6     8     9	 9 ;       HGA1      CG311     NG2R53     CG3C52
   43     6     8    12	 9 ;       HGA1      CG311     NG2R53     CG2R53
    6     8     9    10	 9 ;      CG311     NG2R53     CG3C52     CG3C52
    6     8     9    44	 9 ;      CG311     NG2R53     CG3C52       HGA2
    6     8     9    45	 9 ;      CG311     NG2R53     CG3C52       HGA2
   12     8     9    10	 9 ;     CG2R53     NG2R53     CG3C52     CG3C52
   12     8     9    44	 9 ;     CG2R53     NG2R53     CG3C52       HGA2
   12     8     9    45	 9 ;     CG2R53     NG2R53     CG3C52       HGA2
    9     8    12    11	 9 ;     CG3C52     NG2R53     CG2R53     CG3C51
    9     8    12    13	 9 ;     CG3C52     NG2R53     CG2R53      OG2D1
    6     8    12    11	 9 ;      CG311     NG2R53     CG2R53     CG3C51
    6     8    12    13	 9 ;      CG311     NG2R53     CG2R53      OG2D1
    8     9    10    11	 9 ;     NG2R53     CG3C52     CG3C52     CG3C51
    8     9    10    46	 9 ;     NG2R53     CG3C52     CG3C52       HGA2
    8     9    10    47	 9 ;     NG2R53     CG3C52     CG3C52       HGA2
   44     9    10    11	 9 ;       HGA2     CG3C52     CG3C52     CG3C51
   44     9    10    46	 9 ;       HGA2     CG3C52     CG3C52       HGA2
   44     9    10    47	 9 ;       HGA2     CG3C52     CG3C52       HGA2
   45     9    10    11	 9 ;       HGA2     CG3C52     CG3C52     CG3C51
   45     9    10    46	 9 ;       HGA2     CG3C52     CG3C52       HGA2
   45     9    10    47	 9 ;       HGA2     CG3C52     CG3C52       HGA2
    9    10    11    14	 9 ;     CG3C52     CG3C52     CG3C51      CG311
    9    10    11    12	 9 ;     CG3C52     CG3C52     CG3C51     CG2R53
    9    10    11    48	 9 ;     CG3C52     CG3C52     CG3C51       HGA1
   46    10    11    14	 9 ;       HGA2     CG3C52     CG3C51      CG311
   46    10    11    12	 9 ;       HGA2     CG3C52     CG3C51     CG2R53
   46    10    11    48	 9 ;       HGA2     CG3C52     CG3C51       HGA1
   47    10    11    14	 9 ;       HGA2     CG3C52     CG3C51      CG311
   47    10    11    12	 9 ;       HGA2     CG3C52     CG3C51     CG2R53
   47    10    11    48	 9 ;       HGA2     CG3C52     CG3C51       HGA1
   10    11    14    16	 9 ;     CG3C52     CG3C51      CG311      CG331
   10    11    14    15	 9 ;     CG3C52     CG3C51      CG311      CG331
   10    11    14    49	 9 ;     CG3C52     CG3C51      CG311       HGA1
   12    11    14    16	 9 ;     CG2R53     CG3C51      CG311      CG331
   12    11    14    15	 9 ;     CG2R53     CG3C51      CG311      CG331
   12    11    14    49	 9 ;     CG2R53     CG3C51      CG311       HGA1
   48    11    14    16	 9 ;       HGA1     CG3C51      CG311      CG331
   48    11    14    15	 9 ;       HGA1     CG3C51      CG311      CG331
   48    11    14    49	 9 ;       HGA1     CG3C51      CG311       HGA1
   10    11    12     8	 9 ;     CG3C52     CG3C51     CG2R53     NG2R53
   10    11    12    13	 9 ;     CG3C52     CG3C51     CG2R53      OG2D1
   14    11    12     8	 9 ;      CG311     CG3C51     CG2R53     NG2R53
   14    11    12    13	 9 ;      CG311     CG3C51     CG2R53      OG2D1
   48    11    12     8	 9 ;       HGA1     CG3C51     CG2R53     NG2R53
   48    11    12    13	 9 ;       HGA1     CG3C51     CG2R53      OG2D1
   11    14    16    73	 9 ;     CG3C51      CG311      CG331       HGA3
   11    14    16    74	 9 ;     CG3C51      CG311      CG331       HGA3
   11    14    16    75	 9 ;     CG3C51      CG311      CG331       HGA3
   15    14    16    73	 9 ;      CG331      CG311      CG331       HGA3
   15    14    16    74	 9 ;      CG331      CG311      CG331       HGA3
   15    14    16    75	 9 ;      CG331      CG311      CG331       HGA3
   49    14    16    73	 9 ;       HGA1      CG311      CG331       HGA3
   49    14    16    74	 9 ;       HGA1      CG311      CG331       HGA3
   49    14    16    75	 9 ;       HGA1      CG311      CG331       HGA3
   16    14    15    64	 9 ;      CG331      CG311      CG331       HGA3
   16    14    15    65	 9 ;      CG331      CG311      CG331       HGA3
   16    14    15    66	 9 ;      CG331      CG311      CG331       HGA3
   11    14    15    64	 9 ;     CG3C51      CG311      CG331       HGA3
   11    14    15    65	 9 ;     CG3C51      CG311      CG331       HGA3
   11    14    15    66	 9 ;     CG3C51      CG311      CG331       HGA3
   49    14    15    64	 9 ;       HGA1      CG311      CG331       HGA3
   49    14    15    65	 9 ;       HGA1      CG311      CG331       HGA3
   49    14    15    66	 9 ;       HGA1      CG311      CG331       HGA3
    1    17    18    24	 9 ;      CG311      CG321     CG2R61     CG2R61
    1    17    18    19	 9 ;      CG311      CG321     CG2R61     CG2R61
   50    17    18    24	 9 ;       HGA2      CG321     CG2R61     CG2R61
   50    17    18    19	 9 ;       HGA2      CG321     CG2R61     CG2R61
   51    17    18    24	 9 ;       HGA2      CG321     CG2R61     CG2R61
   51    17    18    19	 9 ;       HGA2      CG321     CG2R61     CG2R61
   17    18    24    23	 9 ;      CG321     CG2R61     CG2R61     CG2R66
   17    18    24    54	 9 ;      CG321     CG2R61     CG2R61      HGR62
   19    18    24    23	 9 ;     CG2R61     CG2R61     CG2R61     CG2R66
   19    18    24    54	 9 ;     CG2R61     CG2R61     CG2R61      HGR62
   17    18    19    20	 9 ;      CG321     CG2R61     CG2R61     CG2R66
   17    18    19    52	 9 ;      CG321     CG2R61     CG2R61      HGR62
   24    18    19    20	 9 ;     CG2R61     CG2R61     CG2R61     CG2R66
   24    18    19    52	 9 ;     CG2R61     CG2R61     CG2R61      HGR62
   18    19    20    22	 9 ;     CG2R61     CG2R61     CG2R66     CG2R61
   18    19    20    21	 9 ;     CG2R61     CG2R61     CG2R66       FGR1
   52    19    20    22	 9 ;      HGR62     CG2R61     CG2R66     CG2R61
   52    19    20    21	 9 ;      HGR62     CG2R61     CG2R66       FGR1
   19    20    22    23	 9 ;     CG2R61     CG2R66     CG2R61     CG2R66
   19    20    22    53	 9 ;     CG2R61     CG2R66     CG2R61      HGR62
   21    20    22    23	 9 ;       FGR1     CG2R66     CG2R61     CG2R66
   21    20    22    53	 9 ;       FGR1     CG2R66     CG2R61      HGR62
   20    22    23    24	 9 ;     CG2R66     CG2R61     CG2R66     CG2R61
   20    22    23    25	 9 ;     CG2R66     CG2R61     CG2R66       FGR1
   53    22    23    24	 9 ;      HGR62     CG2R61     CG2R66     CG2R61
   53    22    23    25	 9 ;      HGR62     CG2R61     CG2R66       FGR1
   25    23    24    18	 9 ;       FGR1     CG2R66     CG2R61     CG2R61
   25    23    24    54	 9 ;       FGR1     CG2R66     CG2R61      HGR62
   22    23    24    18	 9 ;     CG2R61     CG2R66     CG2R61     CG2R61
   22    23    24    54	 9 ;     CG2R61     CG2R66     CG2R61      HGR62
    1    26    40    41	 9 ;      CG311      CG311      OG311       HGP1
   27    26    40    41	 9 ;      CG324      CG311      OG311       HGP1
   55    26    40    41	 9 ;       HGA1      CG311      OG311       HGP1
    1    26    27    28	 9 ;      CG311      CG311      CG324      NG3P2
    1    26    27    56	 9 ;      CG311      CG311      CG324       HGA2
    1    26    27    57	 9 ;      CG311      CG311      CG324       HGA2
   40    26    27    28	 9 ;      OG311      CG311      CG324      NG3P2
   40    26    27    56	 9 ;      OG311      CG311      CG324       HGA2
   40    26    27    57	 9 ;      OG311      CG311      CG324       HGA2
   55    26    27    28	 9 ;       HGA1      CG311      CG324      NG3P2
   55    26    27    56	 9 ;       HGA1      CG311      CG324       HGA2
   55    26    27    57	 9 ;       HGA1      CG311      CG324       HGA2
   26    27    28    30	 9 ;      CG311      CG324      NG3P2       HGP2
   26    27    28    29	 9 ;      CG311      CG324      NG3P2       HGP2
   26    27    28    31	 9 ;      CG311      CG324      NG3P2      CG324
   56    27    28    30	 9 ;       HGA2      CG324      NG3P2       HGP2
   56    27    28    29	 9 ;       HGA2      CG324      NG3P2       HGP2
   56    27    28    31	 9 ;       HGA2      CG324      NG3P2      CG324
   57    27    28    30	 9 ;       HGA2      CG324      NG3P2       HGP2
   57    27    28    29	 9 ;       HGA2      CG324      NG3P2       HGP2
   57    27    28    31	 9 ;       HGA2      CG324      NG3P2      CG324
   27    28    31    32	 9 ;      CG324      NG3P2      CG324     CG2R61
   27    28    31    58	 9 ;      CG324      NG3P2      CG324       HGA2
   27    28    31    59	 9 ;      CG324      NG3P2      CG324       HGA2
   30    28    31    32	 9 ;       HGP2      NG3P2      CG324     CG2R61
   30    28    31    58	 9 ;       HGP2      NG3P2      CG324       HGA2
   30    28    31    59	 9 ;       HGP2      NG3P2      CG324       HGA2
   29    28    31    32	 9 ;       HGP2      NG3P2      CG324     CG2R61
   29    28    31    58	 9 ;       HGP2      NG3P2      CG324       HGA2
   29    28    31    59	 9 ;       HGP2      NG3P2      CG324       HGA2
   28    31    32    37	 9 ;      NG3P2      CG324     CG2R61     CG2R61
   28    31    32    33	 9 ;      NG3P2      CG324     CG2R61     CG2R61
   58    31    32    37	 9 ;       HGA2      CG324     CG2R61     CG2R61
   58    31    32    33	 9 ;       HGA2      CG324     CG2R61     CG2R61
   59    31    32    37	 9 ;       HGA2      CG324     CG2R61     CG2R61
   59    31    32    33	 9 ;       HGA2      CG324     CG2R61     CG2R61
   31    32    37    36	 9 ;      CG324     CG2R61     CG2R61     CG2R61
   31    32    37    63	 9 ;      CG324     CG2R61     CG2R61      HGR61
   33    32    37    36	 9 ;     CG2R61     CG2R61     CG2R61     CG2R61
   33    32    37    63	 9 ;     CG2R61     CG2R61     CG2R61      HGR61
   31    32    33    34	 9 ;      CG324     CG2R61     CG2R61     CG2R61
   31    32    33    60	 9 ;      CG324     CG2R61     CG2R61      HGR61
   37    32    33    34	 9 ;     CG2R61     CG2R61     CG2R61     CG2R61
   37    32    33    60	 9 ;     CG2R61     CG2R61     CG2R61      HGR61
   32    33    34    35	 9 ;     CG2R61     CG2R61     CG2R61     CG2R61
   32    33    34    38	 9 ;     CG2R61     CG2R61     CG2R61      OG301
   60    33    34    35	 9 ;      HGR61     CG2R61     CG2R61     CG2R61
   60    33    34    38	 9 ;      HGR61     CG2R61     CG2R61      OG301
   33    34    35    36	 9 ;     CG2R61     CG2R61     CG2R61     CG2R61
   33    34    35    61	 9 ;     CG2R61     CG2R61     CG2R61      HGR61
   38    34    35    36	 9 ;      OG301     CG2R61     CG2R61     CG2R61
   38    34    35    61	 9 ;      OG301     CG2R61     CG2R61      HGR61
   33    34    38    39	 9 ;     CG2R61     CG2R61      OG301      CG331
   35    34    38    39	 9 ;     CG2R61     CG2R61      OG301      CG331
   34    35    36    37	 9 ;     CG2R61     CG2R61     CG2R61     CG2R61
   34    35    36    62	 9 ;     CG2R61     CG2R61     CG2R61      HGR61
   61    35    36    37	 9 ;      HGR61     CG2R61     CG2R61     CG2R61
   61    35    36    62	 9 ;      HGR61     CG2R61     CG2R61      HGR61
   35    36    37    32	 9 ;     CG2R61     CG2R61     CG2R61     CG2R61
   35    36    37    63	 9 ;     CG2R61     CG2R61     CG2R61      HGR61
   62    36    37    32	 9 ;      HGR61     CG2R61     CG2R61     CG2R61
   62    36    37    63	 9 ;      HGR61     CG2R61     CG2R61      HGR61
   34    38    39    67	 9 ;     CG2R61      OG301      CG331       HGA3
   34    38    39    68	 9 ;     CG2R61      OG301      CG331       HGA3
   34    38    39    69	 9 ;     CG2R61      OG301      CG331       HGA3

[ dihedrals ]
;	ai	  aj	ak	  al funct			  c0			c1			  c2			c3
    3     6     2     4	 2
   12    11     8    13	 2

