Getting the Right Output Means no Artefacts in Calculating Stuff
   75
    1LIG     C1    1  -1.280   0.243  -1.641
    1LIG     N1    2  -1.181   0.288  -1.740
    1LIG     C2    3  -1.079   0.206  -1.786
    1LIG     O1    4  -1.066   0.090  -1.747
    1LIG     H1    5  -1.173   0.388  -1.760
    1LIG     C3    6  -0.996   0.266  -1.902
    1LIG     C4    7  -0.936   0.150  -1.982
    1LIG     N2    8  -0.896   0.363  -1.857
    1LIG     C5    9  -0.758   0.332  -1.832
    1LIG     C6   10  -0.697   0.463  -1.786
    1LIG     C7   11  -0.790   0.573  -1.839
    1LIG     C8   12  -0.923   0.499  -1.852
    1LIG     O2   13  -1.034   0.547  -1.870
    1LIG     C9   14  -0.785   0.700  -1.752
    1LIG    C10   15  -0.866   0.677  -1.623
    1LIG    C11   16  -0.644   0.743  -1.712
    1LIG    C12   17  -1.234   0.265  -1.495
    1LIG    C13   18  -1.235   0.147  -1.400
    1LIG    C14   19  -1.336   0.051  -1.401
    1LIG    C15   20  -1.329  -0.061  -1.316
    1LIG     F1   21  -1.426  -0.152  -1.319
    1LIG    C16   22  -1.221  -0.078  -1.231
    1LIG    C17   23  -1.120   0.015  -1.230
    1LIG    C18   24  -1.125   0.127  -1.314
    1LIG     F2   25  -1.014  -0.001  -1.150
    1LIG    C19   26  -1.415   0.321  -1.663
    1LIG    C20   27  -1.401   0.472  -1.635
    1LIG     N3   28  -1.523   0.521  -1.561
    1LIG     H2   29  -1.504   0.611  -1.515
    1LIG     H3   30  -1.601   0.539  -1.626
    1LIG    C21   31  -1.572   0.427  -1.456
    1LIG    C22   32  -1.721   0.431  -1.445
    1LIG    C23   33  -1.781   0.520  -1.354
    1LIG    C24   34  -1.921   0.526  -1.342
    1LIG    C25   35  -2.000   0.443  -1.421
    1LIG    C26   36  -1.941   0.355  -1.512
    1LIG    C27   37  -1.802   0.349  -1.525
    1LIG     O3   38  -1.989   0.609  -1.258
    1LIG    C28   39  -2.097   0.683  -1.313
    1LIG     O4   40  -1.459   0.303  -1.798
    1LIG     H4   41  -1.402   0.348  -1.862
    1LIG     HC   42  -1.299   0.137  -1.657
    1LIG    HC1   43  -1.065   0.318  -1.968
    1LIG    HC2   44  -0.709   0.296  -1.923
    1LIG    HC3   45  -0.750   0.257  -1.753
    1LIG    HC4   46  -0.692   0.467  -1.677
    1LIG    HC5   47  -0.597   0.474  -1.828
    1LIG    HC6   48  -0.757   0.600  -1.940
    1LIG    HC7   49  -0.831   0.781  -1.807
    1LIG    HC8   50  -1.131   0.301  -1.499
    1LIG    HC9   51  -1.295   0.344  -1.451
    1LIG   HC10   52  -1.420   0.062  -1.468
    1LIG   HC11   53  -1.216  -0.164  -1.166
    1LIG   HC12   54  -1.045   0.199  -1.312
    1LIG   HC13   55  -1.490   0.280  -1.596
    1LIG   HC14   56  -1.312   0.489  -1.574
    1LIG   HC15   57  -1.391   0.525  -1.729
    1LIG   HC16   58  -1.528   0.454  -1.360
    1LIG   HC17   59  -1.540   0.326  -1.482
    1LIG   HC18   60  -1.719   0.584  -1.292
    1LIG   HC19   61  -2.107   0.447  -1.412
    1LIG   HC20   62  -2.003   0.291  -1.573
    1LIG   HC21   63  -1.757   0.282  -1.596
    1LIG   HC22   64  -0.967   0.646  -1.648
    1LIG   HC23   65  -0.818   0.600  -1.563
    1LIG   HC24   66  -0.870   0.770  -1.566
    1LIG   HC25   67  -2.115   0.772  -1.252
    1LIG   HC26   68  -2.072   0.713  -1.415
    1LIG   HC27   69  -2.187   0.622  -1.314
    1LIG   HC28   70  -1.016   0.094  -2.030
    1LIG   HC29   71  -0.868   0.189  -2.058
    1LIG   HC30   72  -0.881   0.084  -1.915
    1LIG   HC31   73  -0.644   0.849  -1.689
    1LIG   HC32   74  -0.576   0.724  -1.795
    1LIG   HC33   75  -0.611   0.686  -1.625
   0.00000   0.00000   0.00000
