Georgetown Riga Oslo Madrid Amsterdam Chisinau Stockholm
   69
    1LIG      S    1  -1.840   0.400  -1.700
    1LIG     O1    2  -1.798   0.315  -1.590
    1LIG     O2    3  -1.908   0.345  -1.815
    1LIG     C1    4  -1.938   0.534  -1.633
    1LIG     C2    5  -1.862   0.615  -1.525
    1LIG     C3    6  -1.727   0.665  -1.585
    1LIG     C4    7  -1.630   0.559  -1.643
    1LIG     C5    8  -1.693   0.480  -1.755
    1LIG     C6    9  -1.865   0.540  -1.388
    1LIG     C7   10  -1.998   0.535  -1.318
    1LIG     C8   11  -2.040   0.418  -1.254
    1LIG     C9   12  -2.168   0.406  -1.196
    1LIG    C10   13  -2.258   0.515  -1.205
    1LIG    C11   14  -2.210   0.635  -1.258
    1LIG      F   15  -2.290   0.743  -1.263
    1LIG    C12   16  -2.082   0.647  -1.314
    1LIG    C13   17  -2.203   0.280  -1.130
    1LIG    C14   18  -2.263   0.162  -1.181
    1LIG    C15   19  -2.275   0.075  -1.075
    1LIG     O3   20  -2.229   0.132  -0.961
    1LIG    C16   21  -2.186   0.257  -0.995
    1LIG     N1   22  -2.386   0.513  -1.148
    1LIG     H1   23  -2.418   0.604  -1.113
    1LIG     H2   24  -2.457   0.467  -1.204
    1LIG     O4   25  -1.646   0.745  -1.498
    1LIG     H3   26  -1.692   0.773  -1.418
    1LIG     N2   27  -1.578   0.474  -1.526
    1LIG     H4   28  -1.544   0.541  -1.456
    1LIG     H5   29  -1.654   0.418  -1.486
    1LIG    C17   30  -1.469   0.375  -1.552
    1LIG    C18   31  -1.400   0.333  -1.427
    1LIG    C19   32  -1.377   0.196  -1.405
    1LIG    C20   33  -1.298   0.151  -1.298
    1LIG    C21   34  -1.242   0.249  -1.214
    1LIG    C22   35  -1.269   0.384  -1.231
    1LIG    C23   36  -1.350   0.427  -1.336
    1LIG    C24   37  -1.272   0.001  -1.273
    1LIG    C25   38  -1.269  -0.036  -1.123
    1LIG    C26   39  -1.384  -0.081  -1.340
    1LIG    C27   40  -1.136  -0.038  -1.333
    1LIG    HC2   41  -1.966   0.601  -1.714
    1LIG    HC3   42  -2.028   0.493  -1.588
    1LIG     HC   43  -1.921   0.705  -1.510
    1LIG    HC1   44  -1.753   0.730  -1.668
    1LIG    HC4   45  -1.544   0.612  -1.684
    1LIG    HC5   46  -1.718   0.547  -1.837
    1LIG    HC6   47  -1.622   0.405  -1.791
    1LIG    HC7   48  -1.794   0.589  -1.322
    1LIG    HC8   49  -1.832   0.438  -1.405
    1LIG    HC9   50  -1.972   0.335  -1.249
    1LIG   HC10   51  -2.049   0.742  -1.354
    1LIG   HC11   52  -2.292   0.143  -1.283
    1LIG   HC12   53  -2.316  -0.025  -1.081
    1LIG   HC13   54  -2.144   0.327  -0.925
    1LIG   HC14   55  -1.512   0.287  -1.599
    1LIG   HC15   56  -1.396   0.420  -1.619
    1LIG   HC16   57  -1.421   0.123  -1.472
    1LIG   HC17   58  -1.176   0.218  -1.134
    1LIG   HC18   59  -1.228   0.457  -1.162
    1LIG   HC19   60  -1.373   0.531  -1.348
    1LIG   HC20   61  -1.134  -0.013  -1.439
    1LIG   HC21   62  -1.056   0.016  -1.281
    1LIG   HC22   63  -1.120  -0.146  -1.321
    1LIG   HC23   64  -1.364  -0.010  -1.077
    1LIG   HC24   65  -1.188   0.018  -1.074
    1LIG   HC25   66  -1.252  -0.144  -1.113
    1LIG   HC26   67  -1.376  -0.185  -1.308
    1LIG   HC27   68  -1.373  -0.076  -1.448
    1LIG   HC28   69  -1.481  -0.041  -1.311
   0.00000   0.00000   0.00000
