; Created by cgenff_charmm2gmx.py

[ moleculetype ]
; Name			   nrexcl
LIG				 3

[ atoms ]
;	 nr		  type	resnr residue  atom   cgnr	   charge		mass  typeB    chargeB		massB
; residue	 1 LIG rtp LIG q	qsum
     1      SG3O2      1    LIG      S      1      0.113     32.060   ;
     2      OG2P1      1    LIG     O1      2     -0.300     15.999   ;
     3      OG2P1      1    LIG     O2      3     -0.300     15.999   ;
     4      CG321      1    LIG     C1      4      0.180     12.011   ;
     5      CG311      1    LIG     C2      5     -0.145     12.011   ;
     6      CG311      1    LIG     C3      6      0.100     12.011   ;
     7      CG314      1    LIG     C4      7     -0.043     12.011   ;
     8      CG321      1    LIG     C5      8      0.224     12.011   ;
     9      CG321      1    LIG     C6      9     -0.108     12.011   ;
    10     CG2R61      1    LIG     C7     10      0.004     12.011   ;
    11     CG2R61      1    LIG     C8     11     -0.109     12.011   ;
    12     CG2R61      1    LIG     C9     12     -0.202     12.011   ;
    13     CG2R61      1    LIG    C10     13      0.211     12.011   ;
    14     CG2R66      1    LIG    C11     14      0.019     12.011   ;
    15       FGR1      1    LIG      F     15     -0.230     18.998   ;
    16     CG2R61      1    LIG    C12     16     -0.121     12.011   ;
    17     CG2R51      1    LIG    C13     17     -0.208     12.011   ;
    18     CG2R51      1    LIG    C14     18     -0.250     12.011   ;
    19     CG2R51      1    LIG    C15     19      0.083     12.011   ;
    20     OG2R50      1    LIG     O3     20     -0.295     15.999   ;
    21     CG2R51      1    LIG    C16     21      0.247     12.011   ;
    22      NG2S3      1    LIG     N1     22     -0.721     14.007   ;
    23       HGP4      1    LIG     H1     23      0.357      1.008   ;
    24       HGP4      1    LIG     H2     24      0.357      1.008   ;
    25      OG311      1    LIG     O4     25     -0.595     15.999   ;
    26       HGP1      1    LIG     H3     26      0.422      1.008   ;
    27      NG3P2      1    LIG     N2     27     -0.444     14.007   ;
    28       HGP2      1    LIG     H4     28      0.346      1.008   ;
    29       HGP2      1    LIG     H5     29      0.346      1.008   ;
    30      CG324      1    LIG    C17     30      0.178     12.011   ;
    31     CG2R61      1    LIG    C18     31      0.036     12.011   ;
    32     CG2R61      1    LIG    C19     32     -0.124     12.011   ;
    33     CG2R61      1    LIG    C20     33      0.084     12.011   ;
    34     CG2R61      1    LIG    C21     34     -0.121     12.011   ;
    35     CG2R61      1    LIG    C22     35     -0.108     12.011   ;
    36     CG2R61      1    LIG    C23     36     -0.119     12.011   ;
    37      CG301      1    LIG    C24     37     -0.018     12.011   ;
    38      CG331      1    LIG    C25     38     -0.289     12.011   ;
    39      CG331      1    LIG    C26     39     -0.289     12.011   ;
    40      CG331      1    LIG    C27     40     -0.289     12.011   ;
    41       HGA2      1    LIG    HC2     41      0.090      1.008   ;
    42       HGA2      1    LIG    HC3     42      0.090      1.008   ;
    43       HGA1      1    LIG     HC     43      0.090      1.008   ;
    44       HGA1      1    LIG    HC1     44      0.090      1.008   ;
    45       HGA1      1    LIG    HC4     45      0.109      1.008   ;
    46       HGA2      1    LIG    HC5     46      0.090      1.008   ;
    47       HGA2      1    LIG    HC6     47      0.090      1.008   ;
    48       HGA2      1    LIG    HC7     48      0.090      1.008   ;
    49       HGA2      1    LIG    HC8     49      0.090      1.008   ;
    50      HGR61      1    LIG    HC9     50      0.116      1.008   ;
    51      HGR62      1    LIG   HC10     51      0.174      1.008   ;
    52      HGR51      1    LIG   HC11     52      0.225      1.008   ;
    53      HGR52      1    LIG   HC12     53      0.138      1.008   ;
    54      HGR52      1    LIG   HC13     54      0.185      1.008   ;
    55       HGA2      1    LIG   HC14     55      0.090      1.008   ;
    56       HGA2      1    LIG   HC15     56      0.090      1.008   ;
    57      HGR61      1    LIG   HC16     57      0.116      1.008   ;
    58      HGR61      1    LIG   HC17     58      0.116      1.008   ;
    59      HGR61      1    LIG   HC18     59      0.116      1.008   ;
    60      HGR61      1    LIG   HC19     60      0.116      1.008   ;
    61       HGA3      1    LIG   HC20     61      0.090      1.008   ;
    62       HGA3      1    LIG   HC21     62      0.090      1.008   ;
    63       HGA3      1    LIG   HC22     63      0.090      1.008   ;
    64       HGA3      1    LIG   HC23     64      0.090      1.008   ;
    65       HGA3      1    LIG   HC24     65      0.090      1.008   ;
    66       HGA3      1    LIG   HC25     66      0.090      1.008   ;
    67       HGA3      1    LIG   HC26     67      0.090      1.008   ;
    68       HGA3      1    LIG   HC27     68      0.090      1.008   ;
    69       HGA3      1    LIG   HC28     69      0.090      1.008   ;

[ bonds ]
;	ai	  aj funct			  c0			c1			  c2			c3
    1     8	 1 ;       SG3O2      CG321
    1     3	 1 ;       SG3O2      OG2P1
    1     2	 1 ;       SG3O2      OG2P1
    1     4	 1 ;       SG3O2      CG321
    4     5	 1 ;       CG321      CG311
    4    41	 1 ;       CG321       HGA2
    4    42	 1 ;       CG321       HGA2
    5     6	 1 ;       CG311      CG311
    5     9	 1 ;       CG311      CG321
    5    43	 1 ;       CG311       HGA1
    6     7	 1 ;       CG311      CG314
    6    25	 1 ;       CG311      OG311
    6    44	 1 ;       CG311       HGA1
    7     8	 1 ;       CG314      CG321
    7    27	 1 ;       CG314      NG3P2
    7    45	 1 ;       CG314       HGA1
    8    46	 1 ;       CG321       HGA2
    8    47	 1 ;       CG321       HGA2
    9    10	 1 ;       CG321     CG2R61
    9    48	 1 ;       CG321       HGA2
    9    49	 1 ;       CG321       HGA2
   10    11	 1 ;      CG2R61     CG2R61
   10    16	 1 ;      CG2R61     CG2R61
   11    12	 1 ;      CG2R61     CG2R61
   11    50	 1 ;      CG2R61      HGR61
   12    17	 1 ;      CG2R61     CG2R51
   12    13	 1 ;      CG2R61     CG2R61
   13    14	 1 ;      CG2R61     CG2R66
   13    22	 1 ;      CG2R61      NG2S3
   14    16	 1 ;      CG2R66     CG2R61
   14    15	 1 ;      CG2R66       FGR1
   16    51	 1 ;      CG2R61      HGR62
   17    18	 1 ;      CG2R51     CG2R51
   17    21	 1 ;      CG2R51     CG2R51
   18    19	 1 ;      CG2R51     CG2R51
   18    52	 1 ;      CG2R51      HGR51
   19    20	 1 ;      CG2R51     OG2R50
   19    53	 1 ;      CG2R51      HGR52
   20    21	 1 ;      OG2R50     CG2R51
   21    54	 1 ;      CG2R51      HGR52
   22    24	 1 ;       NG2S3       HGP4
   22    23	 1 ;       NG2S3       HGP4
   25    26	 1 ;       OG311       HGP1
   27    30	 1 ;       NG3P2      CG324
   27    28	 1 ;       NG3P2       HGP2
   27    29	 1 ;       NG3P2       HGP2
   30    31	 1 ;       CG324     CG2R61
   30    55	 1 ;       CG324       HGA2
   30    56	 1 ;       CG324       HGA2
   31    32	 1 ;      CG2R61     CG2R61
   31    36	 1 ;      CG2R61     CG2R61
   32    33	 1 ;      CG2R61     CG2R61
   32    57	 1 ;      CG2R61      HGR61
   33    37	 1 ;      CG2R61      CG301
   33    34	 1 ;      CG2R61     CG2R61
   34    35	 1 ;      CG2R61     CG2R61
   34    58	 1 ;      CG2R61      HGR61
   35    36	 1 ;      CG2R61     CG2R61
   35    59	 1 ;      CG2R61      HGR61
   36    60	 1 ;      CG2R61      HGR61
   37    40	 1 ;       CG301      CG331
   37    39	 1 ;       CG301      CG331
   37    38	 1 ;       CG301      CG331
   38    64	 1 ;       CG331       HGA3
   38    65	 1 ;       CG331       HGA3
   38    66	 1 ;       CG331       HGA3
   39    67	 1 ;       CG331       HGA3
   39    68	 1 ;       CG331       HGA3
   39    69	 1 ;       CG331       HGA3
   40    61	 1 ;       CG331       HGA3
   40    62	 1 ;       CG331       HGA3
   40    63	 1 ;       CG331       HGA3

[ pairs ]
;	ai	  aj funct			  c0			c1			  c2			c3
    1     6	 1
    1     9	 1
    1    43	 1
    1    27	 1
    1    45	 1
    2     7	 1
    2    46	 1
    2    47	 1
    2     5	 1
    2    41	 1
    2    42	 1
    3     7	 1
    3    46	 1
    3    47	 1
    3     5	 1
    3    41	 1
    3    42	 1
    4     7	 1
    4    46	 1
    4    47	 1
    4    25	 1
    4    44	 1
    4    10	 1
    4    48	 1
    4    49	 1
    5     8	 1
    5    27	 1
    5    45	 1
    5    26	 1
    5    11	 1
    5    16	 1
    6    41	 1
    6    42	 1
    6    10	 1
    6    48	 1
    6    49	 1
    6    46	 1
    6    47	 1
    6    30	 1
    6    28	 1
    6    29	 1
    7     9	 1
    7    43	 1
    7    26	 1
    7    31	 1
    7    55	 1
    7    56	 1
    8    41	 1
    8    42	 1
    8    25	 1
    8    44	 1
    8    30	 1
    8    28	 1
    8    29	 1
    9    41	 1
    9    42	 1
    9    25	 1
    9    44	 1
    9    12	 1
    9    50	 1
    9    14	 1
    9    51	 1
   10    43	 1
   10    17	 1
   10    13	 1
   10    15	 1
   11    48	 1
   11    49	 1
   11    14	 1
   11    51	 1
   11    18	 1
   11    21	 1
   11    22	 1
   12    16	 1
   12    15	 1
   12    24	 1
   12    23	 1
   12    19	 1
   12    52	 1
   12    20	 1
   12    54	 1
   13    50	 1
   13    18	 1
   13    21	 1
   13    51	 1
   14    17	 1
   14    24	 1
   14    23	 1
   15    22	 1
   15    51	 1
   16    48	 1
   16    49	 1
   16    50	 1
   16    22	 1
   17    50	 1
   17    22	 1
   17    53	 1
   18    54	 1
   19    54	 1
   20    52	 1
   21    52	 1
   21    53	 1
   25    43	 1
   25    27	 1
   25    45	 1
   26    44	 1
   27    44	 1
   27    46	 1
   27    47	 1
   27    32	 1
   27    36	 1
   28    45	 1
   28    31	 1
   28    55	 1
   28    56	 1
   29    45	 1
   29    31	 1
   29    55	 1
   29    56	 1
   30    45	 1
   30    33	 1
   30    57	 1
   30    35	 1
   30    60	 1
   31    37	 1
   31    34	 1
   31    59	 1
   32    55	 1
   32    56	 1
   32    35	 1
   32    60	 1
   32    40	 1
   32    39	 1
   32    38	 1
   32    58	 1
   33    36	 1
   33    59	 1
   33    61	 1
   33    62	 1
   33    63	 1
   33    67	 1
   33    68	 1
   33    69	 1
   33    64	 1
   33    65	 1
   33    66	 1
   34    57	 1
   34    40	 1
   34    39	 1
   34    38	 1
   34    60	 1
   35    37	 1
   36    55	 1
   36    56	 1
   36    57	 1
   36    58	 1
   37    57	 1
   37    58	 1
   38    61	 1
   38    62	 1
   38    63	 1
   38    67	 1
   38    68	 1
   38    69	 1
   39    61	 1
   39    62	 1
   39    63	 1
   39    64	 1
   39    65	 1
   39    66	 1
   40    67	 1
   40    68	 1
   40    69	 1
   40    64	 1
   40    65	 1
   40    66	 1
   41    43	 1
   42    43	 1
   43    44	 1
   43    48	 1
   43    49	 1
   44    45	 1
   45    46	 1
   45    47	 1
   52    53	 1
   58    59	 1
   59    60	 1

[ angles ]
;	ai	  aj	ak funct			c0			  c1			c2			  c3
    8     1     3	5 ;      CG321      SG3O2      OG2P1
    8     1     2	5 ;      CG321      SG3O2      OG2P1
    8     1     4	5 ;      CG321      SG3O2      CG321
    3     1     2	5 ;      OG2P1      SG3O2      OG2P1
    3     1     4	5 ;      OG2P1      SG3O2      CG321
    2     1     4	5 ;      OG2P1      SG3O2      CG321
    1     4     5	5 ;      SG3O2      CG321      CG311
    1     4    41	5 ;      SG3O2      CG321       HGA2
    1     4    42	5 ;      SG3O2      CG321       HGA2
    5     4    41	5 ;      CG311      CG321       HGA2
    5     4    42	5 ;      CG311      CG321       HGA2
   41     4    42	5 ;       HGA2      CG321       HGA2
    6     5     4	5 ;      CG311      CG311      CG321
    6     5     9	5 ;      CG311      CG311      CG321
    6     5    43	5 ;      CG311      CG311       HGA1
    4     5     9	5 ;      CG321      CG311      CG321
    4     5    43	5 ;      CG321      CG311       HGA1
    9     5    43	5 ;      CG321      CG311       HGA1
    7     6    25	5 ;      CG314      CG311      OG311
    7     6     5	5 ;      CG314      CG311      CG311
    7     6    44	5 ;      CG314      CG311       HGA1
   25     6     5	5 ;      OG311      CG311      CG311
   25     6    44	5 ;      OG311      CG311       HGA1
    5     6    44	5 ;      CG311      CG311       HGA1
    8     7    27	5 ;      CG321      CG314      NG3P2
    8     7     6	5 ;      CG321      CG314      CG311
    8     7    45	5 ;      CG321      CG314       HGA1
   27     7     6	5 ;      NG3P2      CG314      CG311
   27     7    45	5 ;      NG3P2      CG314       HGA1
    6     7    45	5 ;      CG311      CG314       HGA1
    7     8     1	5 ;      CG314      CG321      SG3O2
    7     8    46	5 ;      CG314      CG321       HGA2
    7     8    47	5 ;      CG314      CG321       HGA2
    1     8    46	5 ;      SG3O2      CG321       HGA2
    1     8    47	5 ;      SG3O2      CG321       HGA2
   46     8    47	5 ;       HGA2      CG321       HGA2
    5     9    10	5 ;      CG311      CG321     CG2R61
    5     9    48	5 ;      CG311      CG321       HGA2
    5     9    49	5 ;      CG311      CG321       HGA2
   10     9    48	5 ;     CG2R61      CG321       HGA2
   10     9    49	5 ;     CG2R61      CG321       HGA2
   48     9    49	5 ;       HGA2      CG321       HGA2
    9    10    11	5 ;      CG321     CG2R61     CG2R61
    9    10    16	5 ;      CG321     CG2R61     CG2R61
   11    10    16	5 ;     CG2R61     CG2R61     CG2R61
   10    11    12	5 ;     CG2R61     CG2R61     CG2R61
   10    11    50	5 ;     CG2R61     CG2R61      HGR61
   12    11    50	5 ;     CG2R61     CG2R61      HGR61
   11    12    17	5 ;     CG2R61     CG2R61     CG2R51
   11    12    13	5 ;     CG2R61     CG2R61     CG2R61
   17    12    13	5 ;     CG2R51     CG2R61     CG2R61
   12    13    14	5 ;     CG2R61     CG2R61     CG2R66
   12    13    22	5 ;     CG2R61     CG2R61      NG2S3
   14    13    22	5 ;     CG2R66     CG2R61      NG2S3
   16    14    13	5 ;     CG2R61     CG2R66     CG2R61
   16    14    15	5 ;     CG2R61     CG2R66       FGR1
   13    14    15	5 ;     CG2R61     CG2R66       FGR1
   10    16    14	5 ;     CG2R61     CG2R61     CG2R66
   10    16    51	5 ;     CG2R61     CG2R61      HGR62
   14    16    51	5 ;     CG2R66     CG2R61      HGR62
   12    17    18	5 ;     CG2R61     CG2R51     CG2R51
   12    17    21	5 ;     CG2R61     CG2R51     CG2R51
   18    17    21	5 ;     CG2R51     CG2R51     CG2R51
   17    18    19	5 ;     CG2R51     CG2R51     CG2R51
   17    18    52	5 ;     CG2R51     CG2R51      HGR51
   19    18    52	5 ;     CG2R51     CG2R51      HGR51
   18    19    20	5 ;     CG2R51     CG2R51     OG2R50
   18    19    53	5 ;     CG2R51     CG2R51      HGR52
   20    19    53	5 ;     OG2R50     CG2R51      HGR52
   19    20    21	5 ;     CG2R51     OG2R50     CG2R51
   17    21    20	5 ;     CG2R51     CG2R51     OG2R50
   17    21    54	5 ;     CG2R51     CG2R51      HGR52
   20    21    54	5 ;     OG2R50     CG2R51      HGR52
   13    22    24	5 ;     CG2R61      NG2S3       HGP4
   13    22    23	5 ;     CG2R61      NG2S3       HGP4
   24    22    23	5 ;       HGP4      NG2S3       HGP4
    6    25    26	5 ;      CG311      OG311       HGP1
   30    27     7	5 ;      CG324      NG3P2      CG314
   30    27    28	5 ;      CG324      NG3P2       HGP2
   30    27    29	5 ;      CG324      NG3P2       HGP2
    7    27    28	5 ;      CG314      NG3P2       HGP2
    7    27    29	5 ;      CG314      NG3P2       HGP2
   28    27    29	5 ;       HGP2      NG3P2       HGP2
   31    30    27	5 ;     CG2R61      CG324      NG3P2
   31    30    55	5 ;     CG2R61      CG324       HGA2
   31    30    56	5 ;     CG2R61      CG324       HGA2
   27    30    55	5 ;      NG3P2      CG324       HGA2
   27    30    56	5 ;      NG3P2      CG324       HGA2
   55    30    56	5 ;       HGA2      CG324       HGA2
   32    31    30	5 ;     CG2R61     CG2R61      CG324
   32    31    36	5 ;     CG2R61     CG2R61     CG2R61
   30    31    36	5 ;      CG324     CG2R61     CG2R61
   33    32    31	5 ;     CG2R61     CG2R61     CG2R61
   33    32    57	5 ;     CG2R61     CG2R61      HGR61
   31    32    57	5 ;     CG2R61     CG2R61      HGR61
   37    33    32	5 ;      CG301     CG2R61     CG2R61
   37    33    34	5 ;      CG301     CG2R61     CG2R61
   32    33    34	5 ;     CG2R61     CG2R61     CG2R61
   33    34    35	5 ;     CG2R61     CG2R61     CG2R61
   33    34    58	5 ;     CG2R61     CG2R61      HGR61
   35    34    58	5 ;     CG2R61     CG2R61      HGR61
   34    35    36	5 ;     CG2R61     CG2R61     CG2R61
   34    35    59	5 ;     CG2R61     CG2R61      HGR61
   36    35    59	5 ;     CG2R61     CG2R61      HGR61
   31    36    35	5 ;     CG2R61     CG2R61     CG2R61
   31    36    60	5 ;     CG2R61     CG2R61      HGR61
   35    36    60	5 ;     CG2R61     CG2R61      HGR61
   40    37    33	5 ;      CG331      CG301     CG2R61
   40    37    39	5 ;      CG331      CG301      CG331
   40    37    38	5 ;      CG331      CG301      CG331
   33    37    39	5 ;     CG2R61      CG301      CG331
   33    37    38	5 ;     CG2R61      CG301      CG331
   39    37    38	5 ;      CG331      CG301      CG331
   37    38    64	5 ;      CG301      CG331       HGA3
   37    38    65	5 ;      CG301      CG331       HGA3
   37    38    66	5 ;      CG301      CG331       HGA3
   64    38    65	5 ;       HGA3      CG331       HGA3
   64    38    66	5 ;       HGA3      CG331       HGA3
   65    38    66	5 ;       HGA3      CG331       HGA3
   37    39    67	5 ;      CG301      CG331       HGA3
   37    39    68	5 ;      CG301      CG331       HGA3
   37    39    69	5 ;      CG301      CG331       HGA3
   67    39    68	5 ;       HGA3      CG331       HGA3
   67    39    69	5 ;       HGA3      CG331       HGA3
   68    39    69	5 ;       HGA3      CG331       HGA3
   37    40    61	5 ;      CG301      CG331       HGA3
   37    40    62	5 ;      CG301      CG331       HGA3
   37    40    63	5 ;      CG301      CG331       HGA3
   61    40    62	5 ;       HGA3      CG331       HGA3
   61    40    63	5 ;       HGA3      CG331       HGA3
   62    40    63	5 ;       HGA3      CG331       HGA3

[ dihedrals ]
;	ai	  aj	ak	  al funct			  c0			c1			  c2			c3			  c4			c5
    3     1     8     7	 9 ;      OG2P1      SG3O2      CG321      CG314
    3     1     8    46	 9 ;      OG2P1      SG3O2      CG321       HGA2
    3     1     8    47	 9 ;      OG2P1      SG3O2      CG321       HGA2
    2     1     8     7	 9 ;      OG2P1      SG3O2      CG321      CG314
    2     1     8    46	 9 ;      OG2P1      SG3O2      CG321       HGA2
    2     1     8    47	 9 ;      OG2P1      SG3O2      CG321       HGA2
    4     1     8     7	 9 ;      CG321      SG3O2      CG321      CG314
    4     1     8    46	 9 ;      CG321      SG3O2      CG321       HGA2
    4     1     8    47	 9 ;      CG321      SG3O2      CG321       HGA2
    8     1     4     5	 9 ;      CG321      SG3O2      CG321      CG311
    8     1     4    41	 9 ;      CG321      SG3O2      CG321       HGA2
    8     1     4    42	 9 ;      CG321      SG3O2      CG321       HGA2
    3     1     4     5	 9 ;      OG2P1      SG3O2      CG321      CG311
    3     1     4    41	 9 ;      OG2P1      SG3O2      CG321       HGA2
    3     1     4    42	 9 ;      OG2P1      SG3O2      CG321       HGA2
    2     1     4     5	 9 ;      OG2P1      SG3O2      CG321      CG311
    2     1     4    41	 9 ;      OG2P1      SG3O2      CG321       HGA2
    2     1     4    42	 9 ;      OG2P1      SG3O2      CG321       HGA2
    1     4     5     6	 9 ;      SG3O2      CG321      CG311      CG311
    1     4     5     9	 9 ;      SG3O2      CG321      CG311      CG321
    1     4     5    43	 9 ;      SG3O2      CG321      CG311       HGA1
   41     4     5     6	 9 ;       HGA2      CG321      CG311      CG311
   41     4     5     9	 9 ;       HGA2      CG321      CG311      CG321
   41     4     5    43	 9 ;       HGA2      CG321      CG311       HGA1
   42     4     5     6	 9 ;       HGA2      CG321      CG311      CG311
   42     4     5     9	 9 ;       HGA2      CG321      CG311      CG321
   42     4     5    43	 9 ;       HGA2      CG321      CG311       HGA1
    4     5     6     7	 9 ;      CG321      CG311      CG311      CG314
    4     5     6    25	 9 ;      CG321      CG311      CG311      OG311
    4     5     6    44	 9 ;      CG321      CG311      CG311       HGA1
    9     5     6     7	 9 ;      CG321      CG311      CG311      CG314
    9     5     6    25	 9 ;      CG321      CG311      CG311      OG311
    9     5     6    44	 9 ;      CG321      CG311      CG311       HGA1
   43     5     6     7	 9 ;       HGA1      CG311      CG311      CG314
   43     5     6    25	 9 ;       HGA1      CG311      CG311      OG311
   43     5     6    44	 9 ;       HGA1      CG311      CG311       HGA1
    6     5     9    10	 9 ;      CG311      CG311      CG321     CG2R61
    6     5     9    48	 9 ;      CG311      CG311      CG321       HGA2
    6     5     9    49	 9 ;      CG311      CG311      CG321       HGA2
    4     5     9    10	 9 ;      CG321      CG311      CG321     CG2R61
    4     5     9    48	 9 ;      CG321      CG311      CG321       HGA2
    4     5     9    49	 9 ;      CG321      CG311      CG321       HGA2
   43     5     9    10	 9 ;       HGA1      CG311      CG321     CG2R61
   43     5     9    48	 9 ;       HGA1      CG311      CG321       HGA2
   43     5     9    49	 9 ;       HGA1      CG311      CG321       HGA2
   25     6     7     8	 9 ;      OG311      CG311      CG314      CG321
   25     6     7    27	 9 ;      OG311      CG311      CG314      NG3P2
   25     6     7    45	 9 ;      OG311      CG311      CG314       HGA1
    5     6     7     8	 9 ;      CG311      CG311      CG314      CG321
    5     6     7    27	 9 ;      CG311      CG311      CG314      NG3P2
    5     6     7    45	 9 ;      CG311      CG311      CG314       HGA1
   44     6     7     8	 9 ;       HGA1      CG311      CG314      CG321
   44     6     7    27	 9 ;       HGA1      CG311      CG314      NG3P2
   44     6     7    45	 9 ;       HGA1      CG311      CG314       HGA1
    7     6    25    26	 9 ;      CG314      CG311      OG311       HGP1
    5     6    25    26	 9 ;      CG311      CG311      OG311       HGP1
   44     6    25    26	 9 ;       HGA1      CG311      OG311       HGP1
   27     7     8     1	 9 ;      NG3P2      CG314      CG321      SG3O2
   27     7     8    46	 9 ;      NG3P2      CG314      CG321       HGA2
   27     7     8    47	 9 ;      NG3P2      CG314      CG321       HGA2
    6     7     8     1	 9 ;      CG311      CG314      CG321      SG3O2
    6     7     8    46	 9 ;      CG311      CG314      CG321       HGA2
    6     7     8    47	 9 ;      CG311      CG314      CG321       HGA2
   45     7     8     1	 9 ;       HGA1      CG314      CG321      SG3O2
   45     7     8    46	 9 ;       HGA1      CG314      CG321       HGA2
   45     7     8    47	 9 ;       HGA1      CG314      CG321       HGA2
    8     7    27    30	 9 ;      CG321      CG314      NG3P2      CG324
    8     7    27    28	 9 ;      CG321      CG314      NG3P2       HGP2
    8     7    27    29	 9 ;      CG321      CG314      NG3P2       HGP2
    6     7    27    30	 9 ;      CG311      CG314      NG3P2      CG324
    6     7    27    28	 9 ;      CG311      CG314      NG3P2       HGP2
    6     7    27    29	 9 ;      CG311      CG314      NG3P2       HGP2
   45     7    27    30	 9 ;       HGA1      CG314      NG3P2      CG324
   45     7    27    28	 9 ;       HGA1      CG314      NG3P2       HGP2
   45     7    27    29	 9 ;       HGA1      CG314      NG3P2       HGP2
    5     9    10    11	 9 ;      CG311      CG321     CG2R61     CG2R61
    5     9    10    16	 9 ;      CG311      CG321     CG2R61     CG2R61
   48     9    10    11	 9 ;       HGA2      CG321     CG2R61     CG2R61
   48     9    10    16	 9 ;       HGA2      CG321     CG2R61     CG2R61
   49     9    10    11	 9 ;       HGA2      CG321     CG2R61     CG2R61
   49     9    10    16	 9 ;       HGA2      CG321     CG2R61     CG2R61
    9    10    11    12	 9 ;      CG321     CG2R61     CG2R61     CG2R61
    9    10    11    50	 9 ;      CG321     CG2R61     CG2R61      HGR61
   16    10    11    12	 9 ;     CG2R61     CG2R61     CG2R61     CG2R61
   16    10    11    50	 9 ;     CG2R61     CG2R61     CG2R61      HGR61
    9    10    16    14	 9 ;      CG321     CG2R61     CG2R61     CG2R66
    9    10    16    51	 9 ;      CG321     CG2R61     CG2R61      HGR62
   11    10    16    14	 9 ;     CG2R61     CG2R61     CG2R61     CG2R66
   11    10    16    51	 9 ;     CG2R61     CG2R61     CG2R61      HGR62
   10    11    12    17	 9 ;     CG2R61     CG2R61     CG2R61     CG2R51
   10    11    12    13	 9 ;     CG2R61     CG2R61     CG2R61     CG2R61
   50    11    12    17	 9 ;      HGR61     CG2R61     CG2R61     CG2R51
   50    11    12    13	 9 ;      HGR61     CG2R61     CG2R61     CG2R61
   11    12    17    18	 9 ;     CG2R61     CG2R61     CG2R51     CG2R51
   11    12    17    21	 9 ;     CG2R61     CG2R61     CG2R51     CG2R51
   13    12    17    18	 9 ;     CG2R61     CG2R61     CG2R51     CG2R51
   13    12    17    21	 9 ;     CG2R61     CG2R61     CG2R51     CG2R51
   11    12    13    14	 9 ;     CG2R61     CG2R61     CG2R61     CG2R66
   11    12    13    22	 9 ;     CG2R61     CG2R61     CG2R61      NG2S3
   17    12    13    14	 9 ;     CG2R51     CG2R61     CG2R61     CG2R66
   17    12    13    22	 9 ;     CG2R51     CG2R61     CG2R61      NG2S3
   12    13    14    16	 9 ;     CG2R61     CG2R61     CG2R66     CG2R61
   12    13    14    15	 9 ;     CG2R61     CG2R61     CG2R66       FGR1
   22    13    14    16	 9 ;      NG2S3     CG2R61     CG2R66     CG2R61
   22    13    14    15	 9 ;      NG2S3     CG2R61     CG2R66       FGR1
   12    13    22    24	 9 ;     CG2R61     CG2R61      NG2S3       HGP4
   12    13    22    23	 9 ;     CG2R61     CG2R61      NG2S3       HGP4
   14    13    22    24	 9 ;     CG2R66     CG2R61      NG2S3       HGP4
   14    13    22    23	 9 ;     CG2R66     CG2R61      NG2S3       HGP4
   13    14    16    10	 9 ;     CG2R61     CG2R66     CG2R61     CG2R61
   13    14    16    51	 9 ;     CG2R61     CG2R66     CG2R61      HGR62
   15    14    16    10	 9 ;       FGR1     CG2R66     CG2R61     CG2R61
   15    14    16    51	 9 ;       FGR1     CG2R66     CG2R61      HGR62
   12    17    18    19	 9 ;     CG2R61     CG2R51     CG2R51     CG2R51
   12    17    18    52	 9 ;     CG2R61     CG2R51     CG2R51      HGR51
   21    17    18    19	 9 ;     CG2R51     CG2R51     CG2R51     CG2R51
   21    17    18    52	 9 ;     CG2R51     CG2R51     CG2R51      HGR51
   12    17    21    20	 9 ;     CG2R61     CG2R51     CG2R51     OG2R50
   12    17    21    54	 9 ;     CG2R61     CG2R51     CG2R51      HGR52
   18    17    21    20	 9 ;     CG2R51     CG2R51     CG2R51     OG2R50
   18    17    21    54	 9 ;     CG2R51     CG2R51     CG2R51      HGR52
   17    18    19    20	 9 ;     CG2R51     CG2R51     CG2R51     OG2R50
   17    18    19    53	 9 ;     CG2R51     CG2R51     CG2R51      HGR52
   52    18    19    20	 9 ;      HGR51     CG2R51     CG2R51     OG2R50
   52    18    19    53	 9 ;      HGR51     CG2R51     CG2R51      HGR52
   18    19    20    21	 9 ;     CG2R51     CG2R51     OG2R50     CG2R51
   53    19    20    21	 9 ;      HGR52     CG2R51     OG2R50     CG2R51
   19    20    21    17	 9 ;     CG2R51     OG2R50     CG2R51     CG2R51
   19    20    21    54	 9 ;     CG2R51     OG2R50     CG2R51      HGR52
    7    27    30    31	 9 ;      CG314      NG3P2      CG324     CG2R61
    7    27    30    55	 9 ;      CG314      NG3P2      CG324       HGA2
    7    27    30    56	 9 ;      CG314      NG3P2      CG324       HGA2
   28    27    30    31	 9 ;       HGP2      NG3P2      CG324     CG2R61
   28    27    30    55	 9 ;       HGP2      NG3P2      CG324       HGA2
   28    27    30    56	 9 ;       HGP2      NG3P2      CG324       HGA2
   29    27    30    31	 9 ;       HGP2      NG3P2      CG324     CG2R61
   29    27    30    55	 9 ;       HGP2      NG3P2      CG324       HGA2
   29    27    30    56	 9 ;       HGP2      NG3P2      CG324       HGA2
   27    30    31    32	 9 ;      NG3P2      CG324     CG2R61     CG2R61
   27    30    31    36	 9 ;      NG3P2      CG324     CG2R61     CG2R61
   55    30    31    32	 9 ;       HGA2      CG324     CG2R61     CG2R61
   55    30    31    36	 9 ;       HGA2      CG324     CG2R61     CG2R61
   56    30    31    32	 9 ;       HGA2      CG324     CG2R61     CG2R61
   56    30    31    36	 9 ;       HGA2      CG324     CG2R61     CG2R61
   30    31    32    33	 9 ;      CG324     CG2R61     CG2R61     CG2R61
   30    31    32    57	 9 ;      CG324     CG2R61     CG2R61      HGR61
   36    31    32    33	 9 ;     CG2R61     CG2R61     CG2R61     CG2R61
   36    31    32    57	 9 ;     CG2R61     CG2R61     CG2R61      HGR61
   32    31    36    35	 9 ;     CG2R61     CG2R61     CG2R61     CG2R61
   32    31    36    60	 9 ;     CG2R61     CG2R61     CG2R61      HGR61
   30    31    36    35	 9 ;      CG324     CG2R61     CG2R61     CG2R61
   30    31    36    60	 9 ;      CG324     CG2R61     CG2R61      HGR61
   31    32    33    37	 9 ;     CG2R61     CG2R61     CG2R61      CG301
   31    32    33    34	 9 ;     CG2R61     CG2R61     CG2R61     CG2R61
   57    32    33    37	 9 ;      HGR61     CG2R61     CG2R61      CG301
   57    32    33    34	 9 ;      HGR61     CG2R61     CG2R61     CG2R61
   32    33    37    40	 9 ;     CG2R61     CG2R61      CG301      CG331
   32    33    37    39	 9 ;     CG2R61     CG2R61      CG301      CG331
   32    33    37    38	 9 ;     CG2R61     CG2R61      CG301      CG331
   34    33    37    40	 9 ;     CG2R61     CG2R61      CG301      CG331
   34    33    37    39	 9 ;     CG2R61     CG2R61      CG301      CG331
   34    33    37    38	 9 ;     CG2R61     CG2R61      CG301      CG331
   37    33    34    35	 9 ;      CG301     CG2R61     CG2R61     CG2R61
   37    33    34    58	 9 ;      CG301     CG2R61     CG2R61      HGR61
   32    33    34    35	 9 ;     CG2R61     CG2R61     CG2R61     CG2R61
   32    33    34    58	 9 ;     CG2R61     CG2R61     CG2R61      HGR61
   33    34    35    36	 9 ;     CG2R61     CG2R61     CG2R61     CG2R61
   33    34    35    59	 9 ;     CG2R61     CG2R61     CG2R61      HGR61
   58    34    35    36	 9 ;      HGR61     CG2R61     CG2R61     CG2R61
   58    34    35    59	 9 ;      HGR61     CG2R61     CG2R61      HGR61
   34    35    36    31	 9 ;     CG2R61     CG2R61     CG2R61     CG2R61
   34    35    36    60	 9 ;     CG2R61     CG2R61     CG2R61      HGR61
   59    35    36    31	 9 ;      HGR61     CG2R61     CG2R61     CG2R61
   59    35    36    60	 9 ;      HGR61     CG2R61     CG2R61      HGR61
   33    37    40    61	 9 ;     CG2R61      CG301      CG331       HGA3
   33    37    40    62	 9 ;     CG2R61      CG301      CG331       HGA3
   33    37    40    63	 9 ;     CG2R61      CG301      CG331       HGA3
   39    37    40    61	 9 ;      CG331      CG301      CG331       HGA3
   39    37    40    62	 9 ;      CG331      CG301      CG331       HGA3
   39    37    40    63	 9 ;      CG331      CG301      CG331       HGA3
   38    37    40    61	 9 ;      CG331      CG301      CG331       HGA3
   38    37    40    62	 9 ;      CG331      CG301      CG331       HGA3
   38    37    40    63	 9 ;      CG331      CG301      CG331       HGA3
   40    37    39    67	 9 ;      CG331      CG301      CG331       HGA3
   40    37    39    68	 9 ;      CG331      CG301      CG331       HGA3
   40    37    39    69	 9 ;      CG331      CG301      CG331       HGA3
   33    37    39    67	 9 ;     CG2R61      CG301      CG331       HGA3
   33    37    39    68	 9 ;     CG2R61      CG301      CG331       HGA3
   33    37    39    69	 9 ;     CG2R61      CG301      CG331       HGA3
   38    37    39    67	 9 ;      CG331      CG301      CG331       HGA3
   38    37    39    68	 9 ;      CG331      CG301      CG331       HGA3
   38    37    39    69	 9 ;      CG331      CG301      CG331       HGA3
   40    37    38    64	 9 ;      CG331      CG301      CG331       HGA3
   40    37    38    65	 9 ;      CG331      CG301      CG331       HGA3
   40    37    38    66	 9 ;      CG331      CG301      CG331       HGA3
   33    37    38    64	 9 ;     CG2R61      CG301      CG331       HGA3
   33    37    38    65	 9 ;     CG2R61      CG301      CG331       HGA3
   33    37    38    66	 9 ;     CG2R61      CG301      CG331       HGA3
   39    37    38    64	 9 ;      CG331      CG301      CG331       HGA3
   39    37    38    65	 9 ;      CG331      CG301      CG331       HGA3
   39    37    38    66	 9 ;      CG331      CG301      CG331       HGA3

[ dihedrals ]
;	ai	  aj	ak	  al funct			  c0			c1			  c2			c3
   22    23    24    13	 2

