Good ROcking Metal Altar for Chronical Sinners
  112
    1LIG     C1    1  -1.865   0.686  -1.383
    1LIG     N1    2  -1.758   0.804  -1.417
    1LIG     C2    3  -1.623   0.792  -1.468
    1LIG     O1    4  -1.551   0.697  -1.439
    1LIG     C3    5  -1.549   0.899  -1.562
    1LIG     C4    6  -1.463   0.840  -1.658
    1LIG     C5    7  -1.510   0.814  -1.788
    1LIG     C6    8  -1.628   0.873  -1.825
    1LIG     C7    9  -1.673   0.974  -1.744
    1LIG     C8   10  -1.621   1.002  -1.616
    1LIG     C9   11  -1.812   1.019  -1.754
    1LIG     O2   12  -1.847   1.112  -1.826
    1LIG     N2   13  -1.884   0.951  -1.664
    1LIG    C10   14  -2.019   0.987  -1.623
    1LIG    C11   15  -2.102   0.864  -1.660
    1LIG    C12   16  -2.182   0.799  -1.568
    1LIG    C13   17  -2.189   0.661  -1.576
    1LIG    C14   18  -2.178   0.578  -1.450
    1LIG     O3   19  -2.123   0.642  -1.332
    1LIG    C15   20  -2.011   0.735  -1.339
    1LIG    C16   21  -2.181   0.599  -1.702
    1LIG    C17   22  -2.131   0.672  -1.809
    1LIG    C18   23  -2.081   0.800  -1.784
    1LIG    C19   24  -1.999   1.037  -1.478
    1LIG     H1   25  -1.763   0.880  -1.350
    1LIG     H2   26  -1.845   0.870  -1.616
    1LIG    C20   27  -1.839   0.570  -1.281
    1LIG     O4   28  -1.895   0.584  -1.153
    1LIG     H3   29  -1.988   0.610  -1.166
    1LIG    C21   30  -1.832   0.422  -1.324
    1LIG    C22   31  -1.715   0.327  -1.298
    1LIG    C23   32  -1.652   0.292  -1.445
    1LIG     N3   33  -1.661   0.388  -1.548
    1LIG     H4   34  -1.646   0.484  -1.524
    1LIG     O5   35  -1.608   0.179  -1.466
    1LIG    C24   36  -1.649   0.359  -1.696
    1LIG    C25   37  -1.507   0.315  -1.768
    1LIG     O6   38  -1.489   0.342  -1.887
    1LIG     N4   39  -1.401   0.258  -1.692
    1LIG     H5   40  -1.419   0.231  -1.596
    1LIG    C26   41  -1.260   0.263  -1.738
    1LIG    C27   42  -1.167   0.141  -1.726
    1LIG    C28   43  -1.028   0.145  -1.751
    1LIG    C29   44  -0.944   0.035  -1.720
    1LIG    C30   45  -0.995  -0.078  -1.664
    1LIG    C31   46  -1.131  -0.088  -1.635
    1LIG    C32   47  -1.215   0.021  -1.666
    1LIG     S1   48  -1.721   0.499  -1.790
    1LIG    C33   49  -1.831   0.403  -1.902
    1LIG    C34   50  -1.942   0.335  -1.823
    1LIG    C35   51  -1.884   0.493  -2.012
    1LIG    C36   52  -1.612   0.351  -1.181
    1LIG    C37   53  -1.520   0.472  -1.194
    1LIG    C38   54  -1.665   0.355  -1.035
    1LIG     N5   55  -1.444   0.723  -1.876
    1LIG    C39   56  -1.496   0.691  -2.010
    1LIG     S2   57  -1.293   0.662  -1.829
    1LIG     O7   58  -1.196   0.770  -1.827
    1LIG     O8   59  -1.312   0.578  -1.713
    1LIG    C40   60  -1.255   0.555  -1.967
    1LIG     H6   61  -1.854   0.647  -1.482
    1LIG     H7   62  -1.491   0.949  -1.488
    1LIG     H8   63  -1.379   0.905  -1.668
    1LIG     H9   64  -1.446   0.742  -1.618
    1LIG    H10   65  -1.680   0.843  -1.909
    1LIG    H11   66  -1.610   1.033  -1.807
    1LIG    H12   67  -1.702   1.024  -1.550
    1LIG    H13   68  -1.553   1.084  -1.627
    1LIG    H14   69  -2.074   1.066  -1.669
    1LIG    H15   70  -2.236   0.851  -1.497
    1LIG    H16   71  -2.115   0.494  -1.472
    1LIG    H17   72  -2.279   0.555  -1.424
    1LIG    H18   73  -2.040   0.812  -1.409
    1LIG    H19   74  -1.997   0.763  -1.237
    1LIG    H20   75  -2.211   0.501  -1.715
    1LIG    H21   76  -2.130   0.632  -1.904
    1LIG    H22   77  -2.029   0.849  -1.858
    1LIG    H23   78  -1.944   0.964  -1.422
    1LIG    H24   79  -2.095   1.052  -1.433
    1LIG    H25   80  -1.946   1.129  -1.479
    1LIG    H26   81  -1.735   0.594  -1.276
    1LIG    H27   82  -1.917   0.375  -1.279
    1LIG    H28   83  -1.821   0.435  -1.430
    1LIG    H29   84  -1.757   0.242  -1.248
    1LIG    H30   85  -1.702   0.266  -1.699
    1LIG    H31   86  -1.263   0.288  -1.842
    1LIG    H32   87  -1.215   0.332  -1.670
    1LIG    H33   88  -0.987   0.230  -1.792
    1LIG    H34   89  -0.843   0.041  -1.740
    1LIG    H35   90  -0.933  -0.158  -1.643
    1LIG    H36   91  -1.170  -0.174  -1.592
    1LIG    H37   92  -1.316   0.013  -1.645
    1LIG    H38   93  -1.774   0.324  -1.948
    1LIG    H39   94  -2.002   0.410  -1.774
    1LIG    H40   95  -1.900   0.270  -1.750
    1LIG    H41   96  -2.004   0.278  -1.890
    1LIG    H42   97  -1.941   0.573  -1.968
    1LIG    H43   98  -1.947   0.437  -2.078
    1LIG    H44   99  -1.802   0.534  -2.068
    1LIG    H45  100  -1.558   0.259  -1.195
    1LIG    H46  101  -1.576   0.561  -1.180
    1LIG    H47  102  -1.476   0.473  -1.292
    1LIG    H48  103  -1.442   0.466  -1.121
    1LIG    H49  104  -1.719   0.446  -1.020
    1LIG    H50  105  -1.583   0.350  -0.967
    1LIG    H51  106  -1.730   0.272  -1.019
    1LIG    H52  107  -1.431   0.621  -2.058
    1LIG    H53  108  -1.501   0.781  -2.068
    1LIG    H54  109  -1.594   0.649  -2.000
    1LIG    H55  110  -1.240   0.614  -2.055
    1LIG    H56  111  -1.337   0.488  -1.983
    1LIG    H57  112  -1.167   0.499  -1.946
   0.00000   0.00000   0.00000
