; Created by cgenff_charmm2gmx.py

[ moleculetype ]
; Name			   nrexcl
LIG				 3

[ atoms ]
;	 nr		  type	resnr residue  atom   cgnr	   charge		mass  typeB    chargeB		massB
; residue	 1 LIG rtp LIG q	qsum
     1      CG311      1    LIG     C1      1     -0.014     12.011   ;
     2      NG2S1      1    LIG     N1      2     -0.400     14.007   ;
     3      CG2O1      1    LIG     C2      3      0.468     12.011   ;
     4      OG2D1      1    LIG     O1      4     -0.508     15.999   ;
     5      CG311      1    LIG     C3      5      0.006     12.011   ;
     6      CG321      1    LIG     C4      6     -0.122     12.011   ;
     7     CG2D1O      1    LIG     C5      7      0.153     12.011   ;
     8      CG2D1      1    LIG     C6      8     -0.302     12.011   ;
     9      CG311      1    LIG     C7      9      0.280     12.011   ;
    10      CG321      1    LIG     C8     10     -0.293     12.011   ;
    11      CG2O1      1    LIG     C9     11      0.379     12.011   ;
    12      OG2D1      1    LIG     O2     12     -0.492     15.999   ;
    13      NG2S1      1    LIG     N2     13     -0.522     14.007   ;
    14      CG311      1    LIG    C10     14      0.125     12.011   ;
    15     CG2R61      1    LIG    C11     15     -0.107     12.011   ;
    16     CG2R61      1    LIG    C12     16     -0.093     12.011   ;
    17     CG2R61      1    LIG    C13     17     -0.006     12.011   ;
    18      CG321      1    LIG    C14     18      0.063     12.011   ;
    19      OG301      1    LIG     O3     19     -0.393     15.999   ;
    20      CG321      1    LIG    C15     20      0.012     12.011   ;
    21     CG2R61      1    LIG    C16     21     -0.123     12.011   ;
    22     CG2R61      1    LIG    C17     22     -0.110     12.011   ;
    23     CG2R61      1    LIG    C18     23     -0.086     12.011   ;
    24      CG331      1    LIG    C19     24     -0.265     12.011   ;
    25       HGP1      1    LIG     H1     25      0.269      1.008   ;
    26       HGP1      1    LIG     H2     26      0.321      1.008   ;
    27      CG311      1    LIG    C20     27      0.110     12.011   ;
    28      OG311      1    LIG     O4     28     -0.648     15.999   ;
    29       HGP1      1    LIG     H3     29      0.421      1.008   ;
    30      CG321      1    LIG    C21     30     -0.155     12.011   ;
    31      CG311      1    LIG    C22     31     -0.021     12.011   ;
    32      CG2O1      1    LIG    C23     32      0.512     12.011   ;
    33      NG2S1      1    LIG     N3     33     -0.500     14.007   ;
    34       HGP1      1    LIG     H4     34      0.282      1.008   ;
    35      OG2D1      1    LIG     O5     35     -0.509     15.999   ;
    36      CG311      1    LIG    C24     36      0.168     12.011   ;
    37      CG2O1      1    LIG    C25     37      0.529     12.011   ;
    38      OG2D1      1    LIG     O6     38     -0.504     15.999   ;
    39      NG2S1      1    LIG     N4     39     -0.486     14.007   ;
    40       HGP1      1    LIG     H5     40      0.315      1.008   ;
    41      CG321      1    LIG    C26     41     -0.032     12.011   ;
    42     CG2R61      1    LIG    C27     42      0.004     12.011   ;
    43     CG2R61      1    LIG    C28     43     -0.123     12.011   ;
    44     CG2R61      1    LIG    C29     44     -0.112     12.011   ;
    45     CG2R61      1    LIG    C30     45     -0.116     12.011   ;
    46     CG2R61      1    LIG    C31     46     -0.112     12.011   ;
    47     CG2R61      1    LIG    C32     47     -0.123     12.011   ;
    48      SG311      1    LIG     S1     48     -0.242     32.060   ;
    49      CG311      1    LIG    C33     49      0.059     12.011   ;
    50      CG331      1    LIG    C34     50     -0.264     12.011   ;
    51      CG331      1    LIG    C35     51     -0.264     12.011   ;
    52      CG311      1    LIG    C36     52     -0.108     12.011   ;
    53      CG331      1    LIG    C37     53     -0.270     12.011   ;
    54      CG331      1    LIG    C38     54     -0.270     12.011   ;
    55      NG301      1    LIG     N5     55     -0.349     14.007   ;
    56      CG331      1    LIG    C39     56     -0.096     12.011   ;
    57      SG3O2      1    LIG     S2     57      0.407     32.060   ;
    58      OG2P1      1    LIG     O7     58     -0.387     15.999   ;
    59      OG2P1      1    LIG     O8     59     -0.387     15.999   ;
    60      CG331      1    LIG    C40     60      0.036     12.011   ;
    61       HGA1      1    LIG     H6     61      0.090      1.008   ;
    62       HGA1      1    LIG     H7     62      0.090      1.008   ;
    63       HGA2      1    LIG     H8     63      0.090      1.008   ;
    64       HGA2      1    LIG     H9     64      0.090      1.008   ;
    65       HGA4      1    LIG    H10     65      0.171      1.008   ;
    66       HGA1      1    LIG    H11     66      0.090      1.008   ;
    67       HGA2      1    LIG    H12     67      0.090      1.008   ;
    68       HGA2      1    LIG    H13     68      0.090      1.008   ;
    69       HGA1      1    LIG    H14     69      0.090      1.008   ;
    70      HGR61      1    LIG    H15     70      0.116      1.008   ;
    71       HGA2      1    LIG    H16     71      0.090      1.008   ;
    72       HGA2      1    LIG    H17     72      0.090      1.008   ;
    73       HGA2      1    LIG    H18     73      0.090      1.008   ;
    74       HGA2      1    LIG    H19     74      0.090      1.008   ;
    75      HGR61      1    LIG    H20     75      0.116      1.008   ;
    76      HGR61      1    LIG    H21     76      0.116      1.008   ;
    77      HGR61      1    LIG    H22     77      0.116      1.008   ;
    78       HGA3      1    LIG    H23     78      0.090      1.008   ;
    79       HGA3      1    LIG    H24     79      0.090      1.008   ;
    80       HGA3      1    LIG    H25     80      0.090      1.008   ;
    81       HGA1      1    LIG    H26     81      0.090      1.008   ;
    82       HGA2      1    LIG    H27     82      0.090      1.008   ;
    83       HGA2      1    LIG    H28     83      0.090      1.008   ;
    84       HGA1      1    LIG    H29     84      0.090      1.008   ;
    85       HGA1      1    LIG    H30     85      0.090      1.008   ;
    86       HGA2      1    LIG    H31     86      0.090      1.008   ;
    87       HGA2      1    LIG    H32     87      0.090      1.008   ;
    88      HGR61      1    LIG    H33     88      0.116      1.008   ;
    89      HGR61      1    LIG    H34     89      0.116      1.008   ;
    90      HGR61      1    LIG    H35     90      0.116      1.008   ;
    91      HGR61      1    LIG    H36     91      0.116      1.008   ;
    92      HGR61      1    LIG    H37     92      0.116      1.008   ;
    93       HGA1      1    LIG    H38     93      0.090      1.008   ;
    94       HGA3      1    LIG    H39     94      0.090      1.008   ;
    95       HGA3      1    LIG    H40     95      0.090      1.008   ;
    96       HGA3      1    LIG    H41     96      0.090      1.008   ;
    97       HGA3      1    LIG    H42     97      0.090      1.008   ;
    98       HGA3      1    LIG    H43     98      0.090      1.008   ;
    99       HGA3      1    LIG    H44     99      0.090      1.008   ;
   100       HGA1      1    LIG    H45    100      0.090      1.008   ;
   101       HGA3      1    LIG    H46    101      0.090      1.008   ;
   102       HGA3      1    LIG    H47    102      0.090      1.008   ;
   103       HGA3      1    LIG    H48    103      0.090      1.008   ;
   104       HGA3      1    LIG    H49    104      0.090      1.008   ;
   105       HGA3      1    LIG    H50    105      0.090      1.008   ;
   106       HGA3      1    LIG    H51    106      0.090      1.008   ;
   107       HGA3      1    LIG    H52    107      0.090      1.008   ;
   108       HGA3      1    LIG    H53    108      0.090      1.008   ;
   109       HGA3      1    LIG    H54    109      0.090      1.008   ;
   110       HGA3      1    LIG    H55    110      0.090      1.008   ;
   111       HGA3      1    LIG    H56    111      0.090      1.008   ;
   112       HGA3      1    LIG    H57    112      0.090      1.008   ;

[ bonds ]
;	ai	  aj funct			  c0			c1			  c2			c3
    1     2	 1 ;       CG311      NG2S1
    1    20	 1 ;       CG311      CG321
    1    27	 1 ;       CG311      CG311
    1    61	 1 ;       CG311       HGA1
    2     3	 1 ;       NG2S1      CG2O1
    2    25	 1 ;       NG2S1       HGP1
    3     5	 1 ;       CG2O1      CG311
    3     4	 1 ;       CG2O1      OG2D1
    5     6	 1 ;       CG311      CG321
    5    10	 1 ;       CG311      CG321
    5    62	 1 ;       CG311       HGA1
    6     7	 1 ;       CG321     CG2D1O
    6    63	 1 ;       CG321       HGA2
    6    64	 1 ;       CG321       HGA2
    7    55	 1 ;      CG2D1O      NG301
    7     8	 1 ;      CG2D1O      CG2D1
    8     9	 1 ;       CG2D1      CG311
    8    65	 1 ;       CG2D1       HGA4
    9    11	 1 ;       CG311      CG2O1
    9    10	 1 ;       CG311      CG321
    9    66	 1 ;       CG311       HGA1
   10    67	 1 ;       CG321       HGA2
   10    68	 1 ;       CG321       HGA2
   11    12	 1 ;       CG2O1      OG2D1
   11    13	 1 ;       CG2O1      NG2S1
   13    14	 1 ;       NG2S1      CG311
   13    26	 1 ;       NG2S1       HGP1
   14    15	 1 ;       CG311     CG2R61
   14    24	 1 ;       CG311      CG331
   14    69	 1 ;       CG311       HGA1
   15    23	 1 ;      CG2R61     CG2R61
   15    16	 1 ;      CG2R61     CG2R61
   16    17	 1 ;      CG2R61     CG2R61
   16    70	 1 ;      CG2R61      HGR61
   17    21	 1 ;      CG2R61     CG2R61
   17    18	 1 ;      CG2R61      CG321
   18    19	 1 ;       CG321      OG301
   18    71	 1 ;       CG321       HGA2
   18    72	 1 ;       CG321       HGA2
   19    20	 1 ;       OG301      CG321
   20    73	 1 ;       CG321       HGA2
   20    74	 1 ;       CG321       HGA2
   21    22	 1 ;      CG2R61     CG2R61
   21    75	 1 ;      CG2R61      HGR61
   22    23	 1 ;      CG2R61     CG2R61
   22    76	 1 ;      CG2R61      HGR61
   23    77	 1 ;      CG2R61      HGR61
   24    78	 1 ;       CG331       HGA3
   24    79	 1 ;       CG331       HGA3
   24    80	 1 ;       CG331       HGA3
   27    30	 1 ;       CG311      CG321
   27    28	 1 ;       CG311      OG311
   27    81	 1 ;       CG311       HGA1
   28    29	 1 ;       OG311       HGP1
   30    31	 1 ;       CG321      CG311
   30    82	 1 ;       CG321       HGA2
   30    83	 1 ;       CG321       HGA2
   31    32	 1 ;       CG311      CG2O1
   31    52	 1 ;       CG311      CG311
   31    84	 1 ;       CG311       HGA1
   32    33	 1 ;       CG2O1      NG2S1
   32    35	 1 ;       CG2O1      OG2D1
   33    36	 1 ;       NG2S1      CG311
   33    34	 1 ;       NG2S1       HGP1
   36    48	 1 ;       CG311      SG311
   36    37	 1 ;       CG311      CG2O1
   36    85	 1 ;       CG311       HGA1
   37    38	 1 ;       CG2O1      OG2D1
   37    39	 1 ;       CG2O1      NG2S1
   39    41	 1 ;       NG2S1      CG321
   39    40	 1 ;       NG2S1       HGP1
   41    42	 1 ;       CG321     CG2R61
   41    86	 1 ;       CG321       HGA2
   41    87	 1 ;       CG321       HGA2
   42    43	 1 ;      CG2R61     CG2R61
   42    47	 1 ;      CG2R61     CG2R61
   43    44	 1 ;      CG2R61     CG2R61
   43    88	 1 ;      CG2R61      HGR61
   44    45	 1 ;      CG2R61     CG2R61
   44    89	 1 ;      CG2R61      HGR61
   45    46	 1 ;      CG2R61     CG2R61
   45    90	 1 ;      CG2R61      HGR61
   46    47	 1 ;      CG2R61     CG2R61
   46    91	 1 ;      CG2R61      HGR61
   47    92	 1 ;      CG2R61      HGR61
   48    49	 1 ;       SG311      CG311
   49    51	 1 ;       CG311      CG331
   49    50	 1 ;       CG311      CG331
   49    93	 1 ;       CG311       HGA1
   50    94	 1 ;       CG331       HGA3
   50    95	 1 ;       CG331       HGA3
   50    96	 1 ;       CG331       HGA3
   51    97	 1 ;       CG331       HGA3
   51    98	 1 ;       CG331       HGA3
   51    99	 1 ;       CG331       HGA3
   52    53	 1 ;       CG311      CG331
   52    54	 1 ;       CG311      CG331
   52   100	 1 ;       CG311       HGA1
   53   101	 1 ;       CG331       HGA3
   53   102	 1 ;       CG331       HGA3
   53   103	 1 ;       CG331       HGA3
   54   104	 1 ;       CG331       HGA3
   54   105	 1 ;       CG331       HGA3
   54   106	 1 ;       CG331       HGA3
   55    56	 1 ;       NG301      CG331
   55    57	 1 ;       NG301      SG3O2
   56   107	 1 ;       CG331       HGA3
   56   108	 1 ;       CG331       HGA3
   56   109	 1 ;       CG331       HGA3
   57    60	 1 ;       SG3O2      CG331
   57    58	 1 ;       SG3O2      OG2P1
   57    59	 1 ;       SG3O2      OG2P1
   60   110	 1 ;       CG331       HGA3
   60   111	 1 ;       CG331       HGA3
   60   112	 1 ;       CG331       HGA3

[ pairs ]
;	ai	  aj funct			  c0			c1			  c2			c3
    1     5	 1
    1     4	 1
    1    18	 1
    1    31	 1
    1    82	 1
    1    83	 1
    1    29	 1
    2    19	 1
    2    73	 1
    2    74	 1
    2    30	 1
    2    28	 1
    2    81	 1
    2     6	 1
    2    10	 1
    2    62	 1
    3    20	 1
    3    27	 1
    3    61	 1
    3     7	 1
    3    63	 1
    3    64	 1
    3     9	 1
    3    67	 1
    3    68	 1
    4    25	 1
    4     6	 1
    4    10	 1
    4    62	 1
    5    25	 1
    5    55	 1
    5     8	 1
    5    11	 1
    5    66	 1
    6     9	 1
    6    67	 1
    6    68	 1
    6    56	 1
    6    57	 1
    6    65	 1
    7    10	 1
    7    62	 1
    7    11	 1
    7    66	 1
    7   107	 1
    7   108	 1
    7   109	 1
    7    60	 1
    7    58	 1
    7    59	 1
    8    63	 1
    8    64	 1
    8    56	 1
    8    57	 1
    8    12	 1
    8    13	 1
    8    67	 1
    8    68	 1
    9    62	 1
    9    55	 1
    9    14	 1
    9    26	 1
   10    63	 1
   10    64	 1
   10    65	 1
   10    12	 1
   10    13	 1
   11    65	 1
   11    67	 1
   11    68	 1
   11    15	 1
   11    24	 1
   11    69	 1
   12    66	 1
   12    14	 1
   12    26	 1
   13    66	 1
   13    23	 1
   13    16	 1
   13    78	 1
   13    79	 1
   13    80	 1
   14    22	 1
   14    77	 1
   14    17	 1
   14    70	 1
   15    26	 1
   15    78	 1
   15    79	 1
   15    80	 1
   15    21	 1
   15    18	 1
   15    76	 1
   16    24	 1
   16    69	 1
   16    22	 1
   16    77	 1
   16    75	 1
   16    19	 1
   16    71	 1
   16    72	 1
   17    23	 1
   17    20	 1
   17    76	 1
   18    70	 1
   18    22	 1
   18    75	 1
   18    73	 1
   18    74	 1
   19    27	 1
   19    61	 1
   19    21	 1
   20    25	 1
   20    30	 1
   20    28	 1
   20    81	 1
   20    71	 1
   20    72	 1
   21    70	 1
   21    71	 1
   21    72	 1
   21    77	 1
   23    24	 1
   23    69	 1
   23    70	 1
   23    75	 1
   24    26	 1
   25    27	 1
   25    61	 1
   26    69	 1
   27    73	 1
   27    74	 1
   27    32	 1
   27    52	 1
   27    84	 1
   28    61	 1
   28    31	 1
   28    82	 1
   28    83	 1
   29    30	 1
   29    81	 1
   30    61	 1
   30    33	 1
   30    35	 1
   30    53	 1
   30    54	 1
   30   100	 1
   31    81	 1
   31    36	 1
   31    34	 1
   31   101	 1
   31   102	 1
   31   103	 1
   31   104	 1
   31   105	 1
   31   106	 1
   32    82	 1
   32    83	 1
   32    53	 1
   32    54	 1
   32   100	 1
   32    48	 1
   32    37	 1
   32    85	 1
   33    52	 1
   33    84	 1
   33    49	 1
   33    38	 1
   33    39	 1
   34    35	 1
   34    48	 1
   34    37	 1
   34    85	 1
   35    52	 1
   35    84	 1
   35    36	 1
   36    41	 1
   36    40	 1
   36    51	 1
   36    50	 1
   36    93	 1
   37    49	 1
   37    42	 1
   37    86	 1
   37    87	 1
   38    48	 1
   38    85	 1
   38    41	 1
   38    40	 1
   39    48	 1
   39    85	 1
   39    43	 1
   39    47	 1
   40    42	 1
   40    86	 1
   40    87	 1
   41    44	 1
   41    88	 1
   41    46	 1
   41    92	 1
   42    45	 1
   42    89	 1
   42    91	 1
   43    86	 1
   43    87	 1
   43    46	 1
   43    92	 1
   43    90	 1
   44    47	 1
   44    91	 1
   45    88	 1
   45    92	 1
   46    89	 1
   47    86	 1
   47    87	 1
   47    88	 1
   47    90	 1
   48    97	 1
   48    98	 1
   48    99	 1
   48    94	 1
   48    95	 1
   48    96	 1
   49    85	 1
   50    97	 1
   50    98	 1
   50    99	 1
   51    94	 1
   51    95	 1
   51    96	 1
   52    82	 1
   52    83	 1
   53    84	 1
   53   104	 1
   53   105	 1
   53   106	 1
   54    84	 1
   54   101	 1
   54   102	 1
   54   103	 1
   55    63	 1
   55    64	 1
   55    65	 1
   55   110	 1
   55   111	 1
   55   112	 1
   56    60	 1
   56    58	 1
   56    59	 1
   57   107	 1
   57   108	 1
   57   109	 1
   58   110	 1
   58   111	 1
   58   112	 1
   59   110	 1
   59   111	 1
   59   112	 1
   61    73	 1
   61    74	 1
   61    81	 1
   62    63	 1
   62    64	 1
   62    67	 1
   62    68	 1
   65    66	 1
   66    67	 1
   66    68	 1
   69    78	 1
   69    79	 1
   69    80	 1
   75    76	 1
   76    77	 1
   81    82	 1
   81    83	 1
   82    84	 1
   83    84	 1
   84   100	 1
   88    89	 1
   89    90	 1
   90    91	 1
   91    92	 1
   93    97	 1
   93    98	 1
   93    99	 1
   93    94	 1
   93    95	 1
   93    96	 1
  100   101	 1
  100   102	 1
  100   103	 1
  100   104	 1
  100   105	 1
  100   106	 1

[ angles ]
;	ai	  aj	ak funct			c0			  c1			c2			  c3
    2     1    20	5 ;      NG2S1      CG311      CG321
    2     1    27	5 ;      NG2S1      CG311      CG311
    2     1    61	5 ;      NG2S1      CG311       HGA1
   20     1    27	5 ;      CG321      CG311      CG311
   20     1    61	5 ;      CG321      CG311       HGA1
   27     1    61	5 ;      CG311      CG311       HGA1
    3     2     1	5 ;      CG2O1      NG2S1      CG311
    3     2    25	5 ;      CG2O1      NG2S1       HGP1
    1     2    25	5 ;      CG311      NG2S1       HGP1
    5     3     4	5 ;      CG311      CG2O1      OG2D1
    5     3     2	5 ;      CG311      CG2O1      NG2S1
    4     3     2	5 ;      OG2D1      CG2O1      NG2S1
    6     5    10	5 ;      CG321      CG311      CG321
    6     5     3	5 ;      CG321      CG311      CG2O1
    6     5    62	5 ;      CG321      CG311       HGA1
   10     5     3	5 ;      CG321      CG311      CG2O1
   10     5    62	5 ;      CG321      CG311       HGA1
    3     5    62	5 ;      CG2O1      CG311       HGA1
    7     6     5	5 ;     CG2D1O      CG321      CG311
    7     6    63	5 ;     CG2D1O      CG321       HGA2
    7     6    64	5 ;     CG2D1O      CG321       HGA2
    5     6    63	5 ;      CG311      CG321       HGA2
    5     6    64	5 ;      CG311      CG321       HGA2
   63     6    64	5 ;       HGA2      CG321       HGA2
   55     7     8	5 ;      NG301     CG2D1O      CG2D1
   55     7     6	5 ;      NG301     CG2D1O      CG321
    8     7     6	5 ;      CG2D1     CG2D1O      CG321
    7     8     9	5 ;     CG2D1O      CG2D1      CG311
    7     8    65	5 ;     CG2D1O      CG2D1       HGA4
    9     8    65	5 ;      CG311      CG2D1       HGA4
    8     9    11	5 ;      CG2D1      CG311      CG2O1
    8     9    10	5 ;      CG2D1      CG311      CG321
    8     9    66	5 ;      CG2D1      CG311       HGA1
   11     9    10	5 ;      CG2O1      CG311      CG321
   11     9    66	5 ;      CG2O1      CG311       HGA1
   10     9    66	5 ;      CG321      CG311       HGA1
    9    10     5	5 ;      CG311      CG321      CG311
    9    10    67	5 ;      CG311      CG321       HGA2
    9    10    68	5 ;      CG311      CG321       HGA2
    5    10    67	5 ;      CG311      CG321       HGA2
    5    10    68	5 ;      CG311      CG321       HGA2
   67    10    68	5 ;       HGA2      CG321       HGA2
   12    11     9	5 ;      OG2D1      CG2O1      CG311
   12    11    13	5 ;      OG2D1      CG2O1      NG2S1
    9    11    13	5 ;      CG311      CG2O1      NG2S1
   11    13    14	5 ;      CG2O1      NG2S1      CG311
   11    13    26	5 ;      CG2O1      NG2S1       HGP1
   14    13    26	5 ;      CG311      NG2S1       HGP1
   13    14    15	5 ;      NG2S1      CG311     CG2R61
   13    14    24	5 ;      NG2S1      CG311      CG331
   13    14    69	5 ;      NG2S1      CG311       HGA1
   15    14    24	5 ;     CG2R61      CG311      CG331
   15    14    69	5 ;     CG2R61      CG311       HGA1
   24    14    69	5 ;      CG331      CG311       HGA1
   23    15    14	5 ;     CG2R61     CG2R61      CG311
   23    15    16	5 ;     CG2R61     CG2R61     CG2R61
   14    15    16	5 ;      CG311     CG2R61     CG2R61
   15    16    17	5 ;     CG2R61     CG2R61     CG2R61
   15    16    70	5 ;     CG2R61     CG2R61      HGR61
   17    16    70	5 ;     CG2R61     CG2R61      HGR61
   21    17    16	5 ;     CG2R61     CG2R61     CG2R61
   21    17    18	5 ;     CG2R61     CG2R61      CG321
   16    17    18	5 ;     CG2R61     CG2R61      CG321
   17    18    19	5 ;     CG2R61      CG321      OG301
   17    18    71	5 ;     CG2R61      CG321       HGA2
   17    18    72	5 ;     CG2R61      CG321       HGA2
   19    18    71	5 ;      OG301      CG321       HGA2
   19    18    72	5 ;      OG301      CG321       HGA2
   71    18    72	5 ;       HGA2      CG321       HGA2
   18    19    20	5 ;      CG321      OG301      CG321
    1    20    19	5 ;      CG311      CG321      OG301
    1    20    73	5 ;      CG311      CG321       HGA2
    1    20    74	5 ;      CG311      CG321       HGA2
   19    20    73	5 ;      OG301      CG321       HGA2
   19    20    74	5 ;      OG301      CG321       HGA2
   73    20    74	5 ;       HGA2      CG321       HGA2
   22    21    17	5 ;     CG2R61     CG2R61     CG2R61
   22    21    75	5 ;     CG2R61     CG2R61      HGR61
   17    21    75	5 ;     CG2R61     CG2R61      HGR61
   23    22    21	5 ;     CG2R61     CG2R61     CG2R61
   23    22    76	5 ;     CG2R61     CG2R61      HGR61
   21    22    76	5 ;     CG2R61     CG2R61      HGR61
   22    23    15	5 ;     CG2R61     CG2R61     CG2R61
   22    23    77	5 ;     CG2R61     CG2R61      HGR61
   15    23    77	5 ;     CG2R61     CG2R61      HGR61
   14    24    78	5 ;      CG311      CG331       HGA3
   14    24    79	5 ;      CG311      CG331       HGA3
   14    24    80	5 ;      CG311      CG331       HGA3
   78    24    79	5 ;       HGA3      CG331       HGA3
   78    24    80	5 ;       HGA3      CG331       HGA3
   79    24    80	5 ;       HGA3      CG331       HGA3
    1    27    30	5 ;      CG311      CG311      CG321
    1    27    28	5 ;      CG311      CG311      OG311
    1    27    81	5 ;      CG311      CG311       HGA1
   30    27    28	5 ;      CG321      CG311      OG311
   30    27    81	5 ;      CG321      CG311       HGA1
   28    27    81	5 ;      OG311      CG311       HGA1
   27    28    29	5 ;      CG311      OG311       HGP1
   31    30    27	5 ;      CG311      CG321      CG311
   31    30    82	5 ;      CG311      CG321       HGA2
   31    30    83	5 ;      CG311      CG321       HGA2
   27    30    82	5 ;      CG311      CG321       HGA2
   27    30    83	5 ;      CG311      CG321       HGA2
   82    30    83	5 ;       HGA2      CG321       HGA2
   32    31    30	5 ;      CG2O1      CG311      CG321
   32    31    52	5 ;      CG2O1      CG311      CG311
   32    31    84	5 ;      CG2O1      CG311       HGA1
   30    31    52	5 ;      CG321      CG311      CG311
   30    31    84	5 ;      CG321      CG311       HGA1
   52    31    84	5 ;      CG311      CG311       HGA1
   33    32    35	5 ;      NG2S1      CG2O1      OG2D1
   33    32    31	5 ;      NG2S1      CG2O1      CG311
   35    32    31	5 ;      OG2D1      CG2O1      CG311
   36    33    34	5 ;      CG311      NG2S1       HGP1
   36    33    32	5 ;      CG311      NG2S1      CG2O1
   34    33    32	5 ;       HGP1      NG2S1      CG2O1
   48    36    37	5 ;      SG311      CG311      CG2O1
   48    36    33	5 ;      SG311      CG311      NG2S1
   48    36    85	5 ;      SG311      CG311       HGA1
   37    36    33	5 ;      CG2O1      CG311      NG2S1
   37    36    85	5 ;      CG2O1      CG311       HGA1
   33    36    85	5 ;      NG2S1      CG311       HGA1
   38    37    36	5 ;      OG2D1      CG2O1      CG311
   38    37    39	5 ;      OG2D1      CG2O1      NG2S1
   36    37    39	5 ;      CG311      CG2O1      NG2S1
   37    39    41	5 ;      CG2O1      NG2S1      CG321
   37    39    40	5 ;      CG2O1      NG2S1       HGP1
   41    39    40	5 ;      CG321      NG2S1       HGP1
   42    41    39	5 ;     CG2R61      CG321      NG2S1
   42    41    86	5 ;     CG2R61      CG321       HGA2
   42    41    87	5 ;     CG2R61      CG321       HGA2
   39    41    86	5 ;      NG2S1      CG321       HGA2
   39    41    87	5 ;      NG2S1      CG321       HGA2
   86    41    87	5 ;       HGA2      CG321       HGA2
   43    42    41	5 ;     CG2R61     CG2R61      CG321
   43    42    47	5 ;     CG2R61     CG2R61     CG2R61
   41    42    47	5 ;      CG321     CG2R61     CG2R61
   42    43    44	5 ;     CG2R61     CG2R61     CG2R61
   42    43    88	5 ;     CG2R61     CG2R61      HGR61
   44    43    88	5 ;     CG2R61     CG2R61      HGR61
   43    44    45	5 ;     CG2R61     CG2R61     CG2R61
   43    44    89	5 ;     CG2R61     CG2R61      HGR61
   45    44    89	5 ;     CG2R61     CG2R61      HGR61
   44    45    46	5 ;     CG2R61     CG2R61     CG2R61
   44    45    90	5 ;     CG2R61     CG2R61      HGR61
   46    45    90	5 ;     CG2R61     CG2R61      HGR61
   47    46    45	5 ;     CG2R61     CG2R61     CG2R61
   47    46    91	5 ;     CG2R61     CG2R61      HGR61
   45    46    91	5 ;     CG2R61     CG2R61      HGR61
   42    47    46	5 ;     CG2R61     CG2R61     CG2R61
   42    47    92	5 ;     CG2R61     CG2R61      HGR61
   46    47    92	5 ;     CG2R61     CG2R61      HGR61
   49    48    36	5 ;      CG311      SG311      CG311
   51    49    50	5 ;      CG331      CG311      CG331
   51    49    48	5 ;      CG331      CG311      SG311
   51    49    93	5 ;      CG331      CG311       HGA1
   50    49    48	5 ;      CG331      CG311      SG311
   50    49    93	5 ;      CG331      CG311       HGA1
   48    49    93	5 ;      SG311      CG311       HGA1
   49    50    94	5 ;      CG311      CG331       HGA3
   49    50    95	5 ;      CG311      CG331       HGA3
   49    50    96	5 ;      CG311      CG331       HGA3
   94    50    95	5 ;       HGA3      CG331       HGA3
   94    50    96	5 ;       HGA3      CG331       HGA3
   95    50    96	5 ;       HGA3      CG331       HGA3
   49    51    97	5 ;      CG311      CG331       HGA3
   49    51    98	5 ;      CG311      CG331       HGA3
   49    51    99	5 ;      CG311      CG331       HGA3
   97    51    98	5 ;       HGA3      CG331       HGA3
   97    51    99	5 ;       HGA3      CG331       HGA3
   98    51    99	5 ;       HGA3      CG331       HGA3
   31    52    53	5 ;      CG311      CG311      CG331
   31    52    54	5 ;      CG311      CG311      CG331
   31    52   100	5 ;      CG311      CG311       HGA1
   53    52    54	5 ;      CG331      CG311      CG331
   53    52   100	5 ;      CG331      CG311       HGA1
   54    52   100	5 ;      CG331      CG311       HGA1
   52    53   101	5 ;      CG311      CG331       HGA3
   52    53   102	5 ;      CG311      CG331       HGA3
   52    53   103	5 ;      CG311      CG331       HGA3
  101    53   102	5 ;       HGA3      CG331       HGA3
  101    53   103	5 ;       HGA3      CG331       HGA3
  102    53   103	5 ;       HGA3      CG331       HGA3
   52    54   104	5 ;      CG311      CG331       HGA3
   52    54   105	5 ;      CG311      CG331       HGA3
   52    54   106	5 ;      CG311      CG331       HGA3
  104    54   105	5 ;       HGA3      CG331       HGA3
  104    54   106	5 ;       HGA3      CG331       HGA3
  105    54   106	5 ;       HGA3      CG331       HGA3
   56    55    57	5 ;      CG331      NG301      SG3O2
   56    55     7	5 ;      CG331      NG301     CG2D1O
   57    55     7	5 ;      SG3O2      NG301     CG2D1O
   55    56   107	5 ;      NG301      CG331       HGA3
   55    56   108	5 ;      NG301      CG331       HGA3
   55    56   109	5 ;      NG301      CG331       HGA3
  107    56   108	5 ;       HGA3      CG331       HGA3
  107    56   109	5 ;       HGA3      CG331       HGA3
  108    56   109	5 ;       HGA3      CG331       HGA3
   60    57    55	5 ;      CG331      SG3O2      NG301
   60    57    58	5 ;      CG331      SG3O2      OG2P1
   60    57    59	5 ;      CG331      SG3O2      OG2P1
   55    57    58	5 ;      NG301      SG3O2      OG2P1
   55    57    59	5 ;      NG301      SG3O2      OG2P1
   58    57    59	5 ;      OG2P1      SG3O2      OG2P1
   57    60   110	5 ;      SG3O2      CG331       HGA3
   57    60   111	5 ;      SG3O2      CG331       HGA3
   57    60   112	5 ;      SG3O2      CG331       HGA3
  110    60   111	5 ;       HGA3      CG331       HGA3
  110    60   112	5 ;       HGA3      CG331       HGA3
  111    60   112	5 ;       HGA3      CG331       HGA3

[ dihedrals ]
;	ai	  aj	ak	  al funct			  c0			c1			  c2			c3			  c4			c5
   20     1     2     3	 9 ;      CG321      CG311      NG2S1      CG2O1
   20     1     2    25	 9 ;      CG321      CG311      NG2S1       HGP1
   27     1     2     3	 9 ;      CG311      CG311      NG2S1      CG2O1
   27     1     2    25	 9 ;      CG311      CG311      NG2S1       HGP1
   61     1     2     3	 9 ;       HGA1      CG311      NG2S1      CG2O1
   61     1     2    25	 9 ;       HGA1      CG311      NG2S1       HGP1
    2     1    20    19	 9 ;      NG2S1      CG311      CG321      OG301
    2     1    20    73	 9 ;      NG2S1      CG311      CG321       HGA2
    2     1    20    74	 9 ;      NG2S1      CG311      CG321       HGA2
   27     1    20    19	 9 ;      CG311      CG311      CG321      OG301
   27     1    20    73	 9 ;      CG311      CG311      CG321       HGA2
   27     1    20    74	 9 ;      CG311      CG311      CG321       HGA2
   61     1    20    19	 9 ;       HGA1      CG311      CG321      OG301
   61     1    20    73	 9 ;       HGA1      CG311      CG321       HGA2
   61     1    20    74	 9 ;       HGA1      CG311      CG321       HGA2
    2     1    27    30	 9 ;      NG2S1      CG311      CG311      CG321
    2     1    27    28	 9 ;      NG2S1      CG311      CG311      OG311
    2     1    27    81	 9 ;      NG2S1      CG311      CG311       HGA1
   20     1    27    30	 9 ;      CG321      CG311      CG311      CG321
   20     1    27    28	 9 ;      CG321      CG311      CG311      OG311
   20     1    27    81	 9 ;      CG321      CG311      CG311       HGA1
   61     1    27    30	 9 ;       HGA1      CG311      CG311      CG321
   61     1    27    28	 9 ;       HGA1      CG311      CG311      OG311
   61     1    27    81	 9 ;       HGA1      CG311      CG311       HGA1
    1     2     3     5	 9 ;      CG311      NG2S1      CG2O1      CG311
    1     2     3     4	 9 ;      CG311      NG2S1      CG2O1      OG2D1
   25     2     3     5	 9 ;       HGP1      NG2S1      CG2O1      CG311
   25     2     3     4	 9 ;       HGP1      NG2S1      CG2O1      OG2D1
    4     3     5     6	 9 ;      OG2D1      CG2O1      CG311      CG321
    4     3     5    10	 9 ;      OG2D1      CG2O1      CG311      CG321
    4     3     5    62	 9 ;      OG2D1      CG2O1      CG311       HGA1
    2     3     5     6	 9 ;      NG2S1      CG2O1      CG311      CG321
    2     3     5    10	 9 ;      NG2S1      CG2O1      CG311      CG321
    2     3     5    62	 9 ;      NG2S1      CG2O1      CG311       HGA1
   10     5     6     7	 9 ;      CG321      CG311      CG321     CG2D1O
   10     5     6    63	 9 ;      CG321      CG311      CG321       HGA2
   10     5     6    64	 9 ;      CG321      CG311      CG321       HGA2
    3     5     6     7	 9 ;      CG2O1      CG311      CG321     CG2D1O
    3     5     6    63	 9 ;      CG2O1      CG311      CG321       HGA2
    3     5     6    64	 9 ;      CG2O1      CG311      CG321       HGA2
   62     5     6     7	 9 ;       HGA1      CG311      CG321     CG2D1O
   62     5     6    63	 9 ;       HGA1      CG311      CG321       HGA2
   62     5     6    64	 9 ;       HGA1      CG311      CG321       HGA2
    6     5    10     9	 9 ;      CG321      CG311      CG321      CG311
    6     5    10    67	 9 ;      CG321      CG311      CG321       HGA2
    6     5    10    68	 9 ;      CG321      CG311      CG321       HGA2
    3     5    10     9	 9 ;      CG2O1      CG311      CG321      CG311
    3     5    10    67	 9 ;      CG2O1      CG311      CG321       HGA2
    3     5    10    68	 9 ;      CG2O1      CG311      CG321       HGA2
   62     5    10     9	 9 ;       HGA1      CG311      CG321      CG311
   62     5    10    67	 9 ;       HGA1      CG311      CG321       HGA2
   62     5    10    68	 9 ;       HGA1      CG311      CG321       HGA2
    5     6     7    55	 9 ;      CG311      CG321     CG2D1O      NG301
    5     6     7     8	 9 ;      CG311      CG321     CG2D1O      CG2D1
   63     6     7    55	 9 ;       HGA2      CG321     CG2D1O      NG301
   63     6     7     8	 9 ;       HGA2      CG321     CG2D1O      CG2D1
   64     6     7    55	 9 ;       HGA2      CG321     CG2D1O      NG301
   64     6     7     8	 9 ;       HGA2      CG321     CG2D1O      CG2D1
    8     7    55    56	 9 ;      CG2D1     CG2D1O      NG301      CG331
    8     7    55    57	 9 ;      CG2D1     CG2D1O      NG301      SG3O2
    6     7    55    56	 9 ;      CG321     CG2D1O      NG301      CG331
    6     7    55    57	 9 ;      CG321     CG2D1O      NG301      SG3O2
   55     7     8     9	 9 ;      NG301     CG2D1O      CG2D1      CG311
   55     7     8    65	 9 ;      NG301     CG2D1O      CG2D1       HGA4
    6     7     8     9	 9 ;      CG321     CG2D1O      CG2D1      CG311
    6     7     8    65	 9 ;      CG321     CG2D1O      CG2D1       HGA4
    7     8     9    11	 9 ;     CG2D1O      CG2D1      CG311      CG2O1
    7     8     9    10	 9 ;     CG2D1O      CG2D1      CG311      CG321
    7     8     9    66	 9 ;     CG2D1O      CG2D1      CG311       HGA1
   65     8     9    11	 9 ;       HGA4      CG2D1      CG311      CG2O1
   65     8     9    10	 9 ;       HGA4      CG2D1      CG311      CG321
   65     8     9    66	 9 ;       HGA4      CG2D1      CG311       HGA1
    8     9    11    12	 9 ;      CG2D1      CG311      CG2O1      OG2D1
    8     9    11    13	 9 ;      CG2D1      CG311      CG2O1      NG2S1
   10     9    11    12	 9 ;      CG321      CG311      CG2O1      OG2D1
   10     9    11    13	 9 ;      CG321      CG311      CG2O1      NG2S1
   66     9    11    12	 9 ;       HGA1      CG311      CG2O1      OG2D1
   66     9    11    13	 9 ;       HGA1      CG311      CG2O1      NG2S1
    8     9    10     5	 9 ;      CG2D1      CG311      CG321      CG311
    8     9    10    67	 9 ;      CG2D1      CG311      CG321       HGA2
    8     9    10    68	 9 ;      CG2D1      CG311      CG321       HGA2
   11     9    10     5	 9 ;      CG2O1      CG311      CG321      CG311
   11     9    10    67	 9 ;      CG2O1      CG311      CG321       HGA2
   11     9    10    68	 9 ;      CG2O1      CG311      CG321       HGA2
   66     9    10     5	 9 ;       HGA1      CG311      CG321      CG311
   66     9    10    67	 9 ;       HGA1      CG311      CG321       HGA2
   66     9    10    68	 9 ;       HGA1      CG311      CG321       HGA2
   12    11    13    14	 9 ;      OG2D1      CG2O1      NG2S1      CG311
   12    11    13    26	 9 ;      OG2D1      CG2O1      NG2S1       HGP1
    9    11    13    14	 9 ;      CG311      CG2O1      NG2S1      CG311
    9    11    13    26	 9 ;      CG311      CG2O1      NG2S1       HGP1
   11    13    14    15	 9 ;      CG2O1      NG2S1      CG311     CG2R61
   11    13    14    24	 9 ;      CG2O1      NG2S1      CG311      CG331
   11    13    14    69	 9 ;      CG2O1      NG2S1      CG311       HGA1
   26    13    14    15	 9 ;       HGP1      NG2S1      CG311     CG2R61
   26    13    14    24	 9 ;       HGP1      NG2S1      CG311      CG331
   26    13    14    69	 9 ;       HGP1      NG2S1      CG311       HGA1
   13    14    15    23	 9 ;      NG2S1      CG311     CG2R61     CG2R61
   13    14    15    16	 9 ;      NG2S1      CG311     CG2R61     CG2R61
   24    14    15    23	 9 ;      CG331      CG311     CG2R61     CG2R61
   24    14    15    16	 9 ;      CG331      CG311     CG2R61     CG2R61
   69    14    15    23	 9 ;       HGA1      CG311     CG2R61     CG2R61
   69    14    15    16	 9 ;       HGA1      CG311     CG2R61     CG2R61
   13    14    24    78	 9 ;      NG2S1      CG311      CG331       HGA3
   13    14    24    79	 9 ;      NG2S1      CG311      CG331       HGA3
   13    14    24    80	 9 ;      NG2S1      CG311      CG331       HGA3
   15    14    24    78	 9 ;     CG2R61      CG311      CG331       HGA3
   15    14    24    79	 9 ;     CG2R61      CG311      CG331       HGA3
   15    14    24    80	 9 ;     CG2R61      CG311      CG331       HGA3
   69    14    24    78	 9 ;       HGA1      CG311      CG331       HGA3
   69    14    24    79	 9 ;       HGA1      CG311      CG331       HGA3
   69    14    24    80	 9 ;       HGA1      CG311      CG331       HGA3
   14    15    23    22	 9 ;      CG311     CG2R61     CG2R61     CG2R61
   14    15    23    77	 9 ;      CG311     CG2R61     CG2R61      HGR61
   16    15    23    22	 9 ;     CG2R61     CG2R61     CG2R61     CG2R61
   16    15    23    77	 9 ;     CG2R61     CG2R61     CG2R61      HGR61
   23    15    16    17	 9 ;     CG2R61     CG2R61     CG2R61     CG2R61
   23    15    16    70	 9 ;     CG2R61     CG2R61     CG2R61      HGR61
   14    15    16    17	 9 ;      CG311     CG2R61     CG2R61     CG2R61
   14    15    16    70	 9 ;      CG311     CG2R61     CG2R61      HGR61
   15    16    17    21	 9 ;     CG2R61     CG2R61     CG2R61     CG2R61
   15    16    17    18	 9 ;     CG2R61     CG2R61     CG2R61      CG321
   70    16    17    21	 9 ;      HGR61     CG2R61     CG2R61     CG2R61
   70    16    17    18	 9 ;      HGR61     CG2R61     CG2R61      CG321
   16    17    21    22	 9 ;     CG2R61     CG2R61     CG2R61     CG2R61
   16    17    21    75	 9 ;     CG2R61     CG2R61     CG2R61      HGR61
   18    17    21    22	 9 ;      CG321     CG2R61     CG2R61     CG2R61
   18    17    21    75	 9 ;      CG321     CG2R61     CG2R61      HGR61
   21    17    18    19	 9 ;     CG2R61     CG2R61      CG321      OG301
   21    17    18    71	 9 ;     CG2R61     CG2R61      CG321       HGA2
   21    17    18    72	 9 ;     CG2R61     CG2R61      CG321       HGA2
   16    17    18    19	 9 ;     CG2R61     CG2R61      CG321      OG301
   16    17    18    71	 9 ;     CG2R61     CG2R61      CG321       HGA2
   16    17    18    72	 9 ;     CG2R61     CG2R61      CG321       HGA2
   17    18    19    20	 9 ;     CG2R61      CG321      OG301      CG321
   71    18    19    20	 9 ;       HGA2      CG321      OG301      CG321
   72    18    19    20	 9 ;       HGA2      CG321      OG301      CG321
   18    19    20     1	 9 ;      CG321      OG301      CG321      CG311
   18    19    20    73	 9 ;      CG321      OG301      CG321       HGA2
   18    19    20    74	 9 ;      CG321      OG301      CG321       HGA2
   17    21    22    23	 9 ;     CG2R61     CG2R61     CG2R61     CG2R61
   17    21    22    76	 9 ;     CG2R61     CG2R61     CG2R61      HGR61
   75    21    22    23	 9 ;      HGR61     CG2R61     CG2R61     CG2R61
   75    21    22    76	 9 ;      HGR61     CG2R61     CG2R61      HGR61
   21    22    23    15	 9 ;     CG2R61     CG2R61     CG2R61     CG2R61
   21    22    23    77	 9 ;     CG2R61     CG2R61     CG2R61      HGR61
   76    22    23    15	 9 ;      HGR61     CG2R61     CG2R61     CG2R61
   76    22    23    77	 9 ;      HGR61     CG2R61     CG2R61      HGR61
    1    27    30    31	 9 ;      CG311      CG311      CG321      CG311
    1    27    30    82	 9 ;      CG311      CG311      CG321       HGA2
    1    27    30    83	 9 ;      CG311      CG311      CG321       HGA2
   28    27    30    31	 9 ;      OG311      CG311      CG321      CG311
   28    27    30    82	 9 ;      OG311      CG311      CG321       HGA2
   28    27    30    83	 9 ;      OG311      CG311      CG321       HGA2
   81    27    30    31	 9 ;       HGA1      CG311      CG321      CG311
   81    27    30    82	 9 ;       HGA1      CG311      CG321       HGA2
   81    27    30    83	 9 ;       HGA1      CG311      CG321       HGA2
    1    27    28    29	 9 ;      CG311      CG311      OG311       HGP1
   30    27    28    29	 9 ;      CG321      CG311      OG311       HGP1
   81    27    28    29	 9 ;       HGA1      CG311      OG311       HGP1
   27    30    31    32	 9 ;      CG311      CG321      CG311      CG2O1
   27    30    31    52	 9 ;      CG311      CG321      CG311      CG311
   27    30    31    84	 9 ;      CG311      CG321      CG311       HGA1
   82    30    31    32	 9 ;       HGA2      CG321      CG311      CG2O1
   82    30    31    52	 9 ;       HGA2      CG321      CG311      CG311
   82    30    31    84	 9 ;       HGA2      CG321      CG311       HGA1
   83    30    31    32	 9 ;       HGA2      CG321      CG311      CG2O1
   83    30    31    52	 9 ;       HGA2      CG321      CG311      CG311
   83    30    31    84	 9 ;       HGA2      CG321      CG311       HGA1
   30    31    32    33	 9 ;      CG321      CG311      CG2O1      NG2S1
   30    31    32    35	 9 ;      CG321      CG311      CG2O1      OG2D1
   52    31    32    33	 9 ;      CG311      CG311      CG2O1      NG2S1
   52    31    32    35	 9 ;      CG311      CG311      CG2O1      OG2D1
   84    31    32    33	 9 ;       HGA1      CG311      CG2O1      NG2S1
   84    31    32    35	 9 ;       HGA1      CG311      CG2O1      OG2D1
   32    31    52    53	 9 ;      CG2O1      CG311      CG311      CG331
   32    31    52    54	 9 ;      CG2O1      CG311      CG311      CG331
   32    31    52   100	 9 ;      CG2O1      CG311      CG311       HGA1
   30    31    52    53	 9 ;      CG321      CG311      CG311      CG331
   30    31    52    54	 9 ;      CG321      CG311      CG311      CG331
   30    31    52   100	 9 ;      CG321      CG311      CG311       HGA1
   84    31    52    53	 9 ;       HGA1      CG311      CG311      CG331
   84    31    52    54	 9 ;       HGA1      CG311      CG311      CG331
   84    31    52   100	 9 ;       HGA1      CG311      CG311       HGA1
   35    32    33    36	 9 ;      OG2D1      CG2O1      NG2S1      CG311
   35    32    33    34	 9 ;      OG2D1      CG2O1      NG2S1       HGP1
   31    32    33    36	 9 ;      CG311      CG2O1      NG2S1      CG311
   31    32    33    34	 9 ;      CG311      CG2O1      NG2S1       HGP1
   34    33    36    48	 9 ;       HGP1      NG2S1      CG311      SG311
   34    33    36    37	 9 ;       HGP1      NG2S1      CG311      CG2O1
   34    33    36    85	 9 ;       HGP1      NG2S1      CG311       HGA1
   32    33    36    48	 9 ;      CG2O1      NG2S1      CG311      SG311
   32    33    36    37	 9 ;      CG2O1      NG2S1      CG311      CG2O1
   32    33    36    85	 9 ;      CG2O1      NG2S1      CG311       HGA1
   37    36    48    49	 9 ;      CG2O1      CG311      SG311      CG311
   33    36    48    49	 9 ;      NG2S1      CG311      SG311      CG311
   85    36    48    49	 9 ;       HGA1      CG311      SG311      CG311
   48    36    37    38	 9 ;      SG311      CG311      CG2O1      OG2D1
   48    36    37    39	 9 ;      SG311      CG311      CG2O1      NG2S1
   33    36    37    38	 9 ;      NG2S1      CG311      CG2O1      OG2D1
   33    36    37    39	 9 ;      NG2S1      CG311      CG2O1      NG2S1
   85    36    37    38	 9 ;       HGA1      CG311      CG2O1      OG2D1
   85    36    37    39	 9 ;       HGA1      CG311      CG2O1      NG2S1
   38    37    39    41	 9 ;      OG2D1      CG2O1      NG2S1      CG321
   38    37    39    40	 9 ;      OG2D1      CG2O1      NG2S1       HGP1
   36    37    39    41	 9 ;      CG311      CG2O1      NG2S1      CG321
   36    37    39    40	 9 ;      CG311      CG2O1      NG2S1       HGP1
   37    39    41    42	 9 ;      CG2O1      NG2S1      CG321     CG2R61
   37    39    41    86	 9 ;      CG2O1      NG2S1      CG321       HGA2
   37    39    41    87	 9 ;      CG2O1      NG2S1      CG321       HGA2
   40    39    41    42	 9 ;       HGP1      NG2S1      CG321     CG2R61
   40    39    41    86	 9 ;       HGP1      NG2S1      CG321       HGA2
   40    39    41    87	 9 ;       HGP1      NG2S1      CG321       HGA2
   39    41    42    43	 9 ;      NG2S1      CG321     CG2R61     CG2R61
   39    41    42    47	 9 ;      NG2S1      CG321     CG2R61     CG2R61
   86    41    42    43	 9 ;       HGA2      CG321     CG2R61     CG2R61
   86    41    42    47	 9 ;       HGA2      CG321     CG2R61     CG2R61
   87    41    42    43	 9 ;       HGA2      CG321     CG2R61     CG2R61
   87    41    42    47	 9 ;       HGA2      CG321     CG2R61     CG2R61
   41    42    43    44	 9 ;      CG321     CG2R61     CG2R61     CG2R61
   41    42    43    88	 9 ;      CG321     CG2R61     CG2R61      HGR61
   47    42    43    44	 9 ;     CG2R61     CG2R61     CG2R61     CG2R61
   47    42    43    88	 9 ;     CG2R61     CG2R61     CG2R61      HGR61
   43    42    47    46	 9 ;     CG2R61     CG2R61     CG2R61     CG2R61
   43    42    47    92	 9 ;     CG2R61     CG2R61     CG2R61      HGR61
   41    42    47    46	 9 ;      CG321     CG2R61     CG2R61     CG2R61
   41    42    47    92	 9 ;      CG321     CG2R61     CG2R61      HGR61
   42    43    44    45	 9 ;     CG2R61     CG2R61     CG2R61     CG2R61
   42    43    44    89	 9 ;     CG2R61     CG2R61     CG2R61      HGR61
   88    43    44    45	 9 ;      HGR61     CG2R61     CG2R61     CG2R61
   88    43    44    89	 9 ;      HGR61     CG2R61     CG2R61      HGR61
   43    44    45    46	 9 ;     CG2R61     CG2R61     CG2R61     CG2R61
   43    44    45    90	 9 ;     CG2R61     CG2R61     CG2R61      HGR61
   89    44    45    46	 9 ;      HGR61     CG2R61     CG2R61     CG2R61
   89    44    45    90	 9 ;      HGR61     CG2R61     CG2R61      HGR61
   44    45    46    47	 9 ;     CG2R61     CG2R61     CG2R61     CG2R61
   44    45    46    91	 9 ;     CG2R61     CG2R61     CG2R61      HGR61
   90    45    46    47	 9 ;      HGR61     CG2R61     CG2R61     CG2R61
   90    45    46    91	 9 ;      HGR61     CG2R61     CG2R61      HGR61
   45    46    47    42	 9 ;     CG2R61     CG2R61     CG2R61     CG2R61
   45    46    47    92	 9 ;     CG2R61     CG2R61     CG2R61      HGR61
   91    46    47    42	 9 ;      HGR61     CG2R61     CG2R61     CG2R61
   91    46    47    92	 9 ;      HGR61     CG2R61     CG2R61      HGR61
   36    48    49    51	 9 ;      CG311      SG311      CG311      CG331
   36    48    49    50	 9 ;      CG311      SG311      CG311      CG331
   36    48    49    93	 9 ;      CG311      SG311      CG311       HGA1
   50    49    51    97	 9 ;      CG331      CG311      CG331       HGA3
   50    49    51    98	 9 ;      CG331      CG311      CG331       HGA3
   50    49    51    99	 9 ;      CG331      CG311      CG331       HGA3
   48    49    51    97	 9 ;      SG311      CG311      CG331       HGA3
   48    49    51    98	 9 ;      SG311      CG311      CG331       HGA3
   48    49    51    99	 9 ;      SG311      CG311      CG331       HGA3
   93    49    51    97	 9 ;       HGA1      CG311      CG331       HGA3
   93    49    51    98	 9 ;       HGA1      CG311      CG331       HGA3
   93    49    51    99	 9 ;       HGA1      CG311      CG331       HGA3
   51    49    50    94	 9 ;      CG331      CG311      CG331       HGA3
   51    49    50    95	 9 ;      CG331      CG311      CG331       HGA3
   51    49    50    96	 9 ;      CG331      CG311      CG331       HGA3
   48    49    50    94	 9 ;      SG311      CG311      CG331       HGA3
   48    49    50    95	 9 ;      SG311      CG311      CG331       HGA3
   48    49    50    96	 9 ;      SG311      CG311      CG331       HGA3
   93    49    50    94	 9 ;       HGA1      CG311      CG331       HGA3
   93    49    50    95	 9 ;       HGA1      CG311      CG331       HGA3
   93    49    50    96	 9 ;       HGA1      CG311      CG331       HGA3
   31    52    53   101	 9 ;      CG311      CG311      CG331       HGA3
   31    52    53   102	 9 ;      CG311      CG311      CG331       HGA3
   31    52    53   103	 9 ;      CG311      CG311      CG331       HGA3
   54    52    53   101	 9 ;      CG331      CG311      CG331       HGA3
   54    52    53   102	 9 ;      CG331      CG311      CG331       HGA3
   54    52    53   103	 9 ;      CG331      CG311      CG331       HGA3
  100    52    53   101	 9 ;       HGA1      CG311      CG331       HGA3
  100    52    53   102	 9 ;       HGA1      CG311      CG331       HGA3
  100    52    53   103	 9 ;       HGA1      CG311      CG331       HGA3
   31    52    54   104	 9 ;      CG311      CG311      CG331       HGA3
   31    52    54   105	 9 ;      CG311      CG311      CG331       HGA3
   31    52    54   106	 9 ;      CG311      CG311      CG331       HGA3
   53    52    54   104	 9 ;      CG331      CG311      CG331       HGA3
   53    52    54   105	 9 ;      CG331      CG311      CG331       HGA3
   53    52    54   106	 9 ;      CG331      CG311      CG331       HGA3
  100    52    54   104	 9 ;       HGA1      CG311      CG331       HGA3
  100    52    54   105	 9 ;       HGA1      CG311      CG331       HGA3
  100    52    54   106	 9 ;       HGA1      CG311      CG331       HGA3
   57    55    56   107	 9 ;      SG3O2      NG301      CG331       HGA3
   57    55    56   108	 9 ;      SG3O2      NG301      CG331       HGA3
   57    55    56   109	 9 ;      SG3O2      NG301      CG331       HGA3
    7    55    56   107	 9 ;     CG2D1O      NG301      CG331       HGA3
    7    55    56   108	 9 ;     CG2D1O      NG301      CG331       HGA3
    7    55    56   109	 9 ;     CG2D1O      NG301      CG331       HGA3
   56    55    57    60	 9 ;      CG331      NG301      SG3O2      CG331
   56    55    57    58	 9 ;      CG331      NG301      SG3O2      OG2P1
   56    55    57    59	 9 ;      CG331      NG301      SG3O2      OG2P1
    7    55    57    60	 9 ;     CG2D1O      NG301      SG3O2      CG331
    7    55    57    58	 9 ;     CG2D1O      NG301      SG3O2      OG2P1
    7    55    57    59	 9 ;     CG2D1O      NG301      SG3O2      OG2P1
   55    57    60   110	 9 ;      NG301      SG3O2      CG331       HGA3
   55    57    60   111	 9 ;      NG301      SG3O2      CG331       HGA3
   55    57    60   112	 9 ;      NG301      SG3O2      CG331       HGA3
   58    57    60   110	 9 ;      OG2P1      SG3O2      CG331       HGA3
   58    57    60   111	 9 ;      OG2P1      SG3O2      CG331       HGA3
   58    57    60   112	 9 ;      OG2P1      SG3O2      CG331       HGA3
   59    57    60   110	 9 ;      OG2P1      SG3O2      CG331       HGA3
   59    57    60   111	 9 ;      OG2P1      SG3O2      CG331       HGA3
   59    57    60   112	 9 ;      OG2P1      SG3O2      CG331       HGA3

[ dihedrals ]
;	ai	  aj	ak	  al funct			  c0			c1			  c2			c3
    3     5     2     4	 2
    7     8     6    55	 2
   11     9    13    12	 2
   32    31    33    35	 2
   37    36    39    38	 2

