Gravel Rubs Often Many Awfully Cauterized Sores
  156
    1LIG     C1    1  -1.216   0.554  -1.546
    1LIG     C2    2  -1.128   0.643  -1.637
    1LIG     N1    3  -1.024   0.574  -1.701
    1LIG     H1    4  -1.016   0.477  -1.675
    1LIG     O1    5  -1.149   0.764  -1.656
    1LIG     C3    6  -0.903   0.640  -1.759
    1LIG     C4    7  -0.797   0.555  -1.840
    1LIG     N2    8  -0.823   0.446  -1.920
    1LIG     H2    9  -0.737   0.394  -1.929
    1LIG     O2   10  -0.676   0.582  -1.829
    1LIG     C5   11  -0.947   0.380  -1.966
    1LIG     C6   12  -0.994   0.282  -1.858
    1LIG     C7   13  -1.084   0.444  -2.015
    1LIG     N3   14  -1.110   0.488  -2.143
    1LIG     C8   15  -1.040   0.442  -2.262
    1LIG     O3   16  -1.168   0.467  -1.927
    1LIG     C9   17  -1.227   0.580  -2.168
    1LIG    C10   18  -1.342   0.510  -2.248
    1LIG    C11   19  -1.486   0.520  -2.189
    1LIG    C12   20  -1.493   0.438  -2.058
    1LIG    C13   21  -1.634   0.419  -2.004
    1LIG    C14   22  -1.723   0.356  -2.110
    1LIG    C15   23  -1.732   0.448  -2.230
    1LIG    C16   24  -1.594   0.476  -2.290
    1LIG    C17   25  -1.220   0.733  -2.211
    1LIG     N4   26  -1.163   0.832  -2.136
    1LIG    C18   27  -1.182   0.973  -2.171
    1LIG    C19   28  -1.116   0.821  -1.999
    1LIG    C20   29  -1.086   1.046  -2.077
    1LIG    C21   30  -1.089   0.962  -1.951
    1LIG     O4   31  -1.274   0.765  -2.319
    1LIG    C22   32  -1.153   1.022  -2.315
    1LIG     O5   33  -1.237   1.056  -2.397
    1LIG     O6   34  -1.019   1.012  -2.339
    1LIG    C23   35  -0.981   0.917  -2.439
    1LIG    C24   36  -0.826   0.726  -1.655
    1LIG    C25   37  -0.828   0.878  -1.675
    1LIG    C26   38  -0.755   0.945  -1.559
    1LIG    C27   39  -0.767   0.914  -1.809
    1LIG    C28   40  -1.276   0.430  -1.617
    1LIG    C29   41  -1.347   0.324  -1.523
    1LIG     N5   42  -1.488   0.358  -1.492
    1LIG    C30   43  -1.599   0.348  -1.573
    1LIG     O7   44  -1.596   0.289  -1.681
    1LIG     H3   45  -1.503   0.414  -1.408
    1LIG    C31   46  -1.722   0.439  -1.534
    1LIG     N6   47  -1.749   0.564  -1.613
    1LIG    C32   48  -1.649   0.659  -1.634
    1LIG     O8   49  -1.547   0.655  -1.564
    1LIG    C33   50  -1.872   0.562  -1.691
    1LIG    C34   51  -1.667   0.771  -1.745
    1LIG     N7   52  -1.641   0.910  -1.702
    1LIG    C35   53  -1.710   0.970  -1.598
    1LIG     O9   54  -1.779   0.908  -1.518
    1LIG     H4   55  -1.597   0.974  -1.768
    1LIG    C36   56  -1.701   1.124  -1.593
    1LIG    C37   57  -1.589   1.171  -1.686
    1LIG    O10   58  -1.675   1.173  -1.462
    1LIG     H5   59  -1.623   1.255  -1.473
    1LIG    C38   60  -1.584   0.741  -1.874
    1LIG    C39   61  -1.648   0.785  -2.007
    1LIG    C40   62  -1.441   0.798  -1.864
    1LIG    C41   63  -1.847   0.349  -1.518
    1LIG    C42   64  -1.926   0.375  -1.389
    1LIG    C43   65  -2.067   0.322  -1.397
    1LIG    O11   66  -2.164   0.384  -1.355
    1LIG     N8   67  -2.079   0.197  -1.449
    1LIG     H6   68  -1.999   0.139  -1.472
    1LIG     H7   69  -2.171   0.155  -1.452
    1LIG    C44   70  -1.327   0.175  -1.571
    1LIG    C45   71  -1.229   0.096  -1.481
    1LIG    C46   72  -1.084   0.145  -1.474
    1LIG    C47   73  -1.013   0.071  -1.358
    1LIG    C48   74  -1.021  -0.081  -1.370
    1LIG    C49   75  -1.163  -0.130  -1.396
    1LIG    C50   76  -1.228  -0.055  -1.512
    1LIG    O12   77  -1.368   0.472  -1.719
    1LIG     H8   78  -1.322   0.538  -1.774
    1LIG    HC2   79  -1.298   0.614  -1.507
    1LIG    HC3   80  -1.155   0.520  -1.462
    1LIG     HC   81  -0.942   0.712  -1.831
    1LIG    HC1   82  -0.916   0.316  -2.048
    1LIG    HC4   83  -0.915   0.211  -1.837
    1LIG    HC5   84  -1.018   0.337  -1.767
    1LIG    HC6   85  -1.083   0.229  -1.893
    1LIG    HC7   86  -0.935   0.426  -2.238
    1LIG    HC8   87  -1.048   0.517  -2.341
    1LIG    HC9   88  -1.084   0.348  -2.296
    1LIG   HC10   89  -1.345   0.553  -2.348
    1LIG   HC11   90  -1.318   0.404  -2.257
    1LIG   HC12   91  -1.505   0.625  -2.163
    1LIG   HC13   92  -1.434   0.489  -1.982
    1LIG   HC14   93  -1.449   0.340  -2.076
    1LIG   HC15   94  -1.631   0.354  -1.917
    1LIG   HC16   95  -1.675   0.516  -1.976
    1LIG   HC17   96  -1.823   0.341  -2.069
    1LIG   HC18   97  -1.681   0.260  -2.140
    1LIG   HC19   98  -1.794   0.401  -2.307
    1LIG   HC20   99  -1.777   0.543  -2.200
    1LIG   HC21  100  -1.605   0.555  -2.364
    1LIG   HC22  101  -1.559   0.386  -2.340
    1LIG   HC23  102  -1.284   1.002  -2.145
    1LIG   HC24  103  -1.025   0.761  -1.996
    1LIG   HC25  104  -1.193   0.774  -1.938
    1LIG   HC26  105  -1.119   1.147  -2.058
    1LIG   HC27  106  -0.985   1.046  -2.120
    1LIG   HC28  107  -0.993   0.967  -1.898
    1LIG   HC29  108  -1.169   0.996  -1.885
    1LIG   HC30  109  -0.873   0.916  -2.451
    1LIG   HC31  110  -1.015   0.817  -2.410
    1LIG   HC32  111  -1.028   0.944  -2.534
    1LIG   HC33  112  -0.722   0.694  -1.656
    1LIG   HC34  113  -0.867   0.704  -1.556
    1LIG   HC35  114  -0.932   0.911  -1.674
    1LIG   HC36  115  -0.756   1.053  -1.572
    1LIG   HC37  116  -0.651   0.910  -1.556
    1LIG   HC38  117  -0.804   0.920  -1.465
    1LIG   HC39  118  -0.659   0.901  -1.804
    1LIG   HC40  119  -0.790   1.018  -1.832
    1LIG   HC41  120  -0.808   0.850  -1.887
    1LIG   HC42  121  -1.195   0.379  -1.668
    1LIG   HC43  122  -1.295   0.330  -1.428
    1LIG   HC44  123  -1.700   0.474  -1.433
    1LIG   HC45  124  -1.876   0.648  -1.757
    1LIG   HC46  125  -1.958   0.564  -1.623
    1LIG   HC47  126  -1.876   0.470  -1.750
    1LIG   HC48  127  -1.771   0.767  -1.774
    1LIG   HC49  128  -1.795   1.166  -1.628
    1LIG   HC50  129  -1.564   1.275  -1.664
    1LIG   HC51  130  -1.622   1.163  -1.790
    1LIG   HC52  131  -1.501   1.108  -1.671
    1LIG   HC53  132  -1.573   0.633  -1.880
    1LIG   HC54  133  -1.749   0.744  -2.014
    1LIG   HC55  134  -1.588   0.748  -2.090
    1LIG   HC56  135  -1.653   0.894  -2.011
    1LIG   HC57  136  -1.397   0.767  -1.770
    1LIG   HC58  137  -1.381   0.761  -1.947
    1LIG   HC59  138  -1.446   0.907  -1.867
    1LIG   HC60  139  -1.816   0.245  -1.519
    1LIG   HC61  140  -1.913   0.367  -1.603
    1LIG   HC62  141  -1.874   0.326  -1.306
    1LIG   HC63  142  -1.929   0.482  -1.370
    1LIG   HC64  143  -1.288   0.176  -1.673
    1LIG   HC65  144  -1.424   0.124  -1.571
    1LIG   HC66  145  -1.268   0.104  -1.379
    1LIG   HC67  146  -1.082   0.252  -1.455
    1LIG   HC68  147  -1.033   0.123  -1.567
    1LIG   HC69  148  -0.908   0.100  -1.357
    1LIG   HC70  149  -1.058   0.101  -1.263
    1LIG   HC71  150  -0.985  -0.126  -1.278
    1LIG   HC72  151  -0.957  -0.114  -1.453
    1LIG   HC73  152  -1.161  -0.237  -1.420
    1LIG   HC74  153  -1.223  -0.115  -1.306
    1LIG   HC75  154  -1.330  -0.090  -1.526
    1LIG   HC76  155  -1.170  -0.073  -1.603
    1LIG    H86  156  -1.270   0.587  -2.069
   0.00000   0.00000   0.00000
