; Created by cgenff_charmm2gmx.py

[ moleculetype ]
; Name			   nrexcl
LIG				 3

[ atoms ]
;	 nr		  type	resnr residue  atom   cgnr	   charge		mass  typeB    chargeB		massB
; residue	 1 LIG rtp LIG q	qsum
     1      CG321      1    LIG     C1      1     -0.097     12.011   ;
     2      CG2O1      1    LIG     C2      2      0.476     12.011   ;
     3      NG2S1      1    LIG     N1      3     -0.471     14.007   ;
     4       HGP1      1    LIG     H1      4      0.328      1.008   ;
     5      OG2D1      1    LIG     O1      5     -0.525     15.999   ;
     6      CG311      1    LIG     C3      6      0.062     12.011   ;
     7      CG2O1      1    LIG     C4      7      0.514     12.011   ;
     8      NG2S1      1    LIG     N2      8     -0.514     14.007   ;
     9       HGP1      1    LIG     H2      9      0.316      1.008   ;
    10      OG2D1      1    LIG     O2     10     -0.509     15.999   ;
    11      CG311      1    LIG     C5     11      0.091     12.011   ;
    12      CG331      1    LIG     C6     12     -0.289     12.011   ;
    13      CG2O1      1    LIG     C7     13      0.539     12.011   ;
    14      NG2S0      1    LIG     N3     14     -0.280     14.007   ;
    15      CG331      1    LIG     C8     15     -0.170     12.011   ;
    16      OG2D1      1    LIG     O3     16     -0.518     15.999   ;
    17      CG311      1    LIG     C9     17      0.151     12.011   ;
    18      CG321      1    LIG    C10     18     -0.236     12.011   ;
    19      CG311      1    LIG    C11     19     -0.065     12.011   ;
    20      CG321      1    LIG    C12     20     -0.184     12.011   ;
    21      CG321      1    LIG    C13     21     -0.192     12.011   ;
    22      CG321      1    LIG    C14     22     -0.154     12.011   ;
    23      CG321      1    LIG    C15     23     -0.192     12.011   ;
    24      CG321      1    LIG    C16     24     -0.184     12.011   ;
    25      CG2O1      1    LIG    C17     25      0.488     12.011   ;
    26      NG2S0      1    LIG     N4     26     -0.283     14.007   ;
    27     CG3C51      1    LIG    C18     27      0.074     12.011   ;
    28     CG3C52      1    LIG    C19     28     -0.006     12.011   ;
    29     CG3C52      1    LIG    C20     29     -0.240     12.011   ;
    30     CG3C52      1    LIG    C21     30     -0.141     12.011   ;
    31      OG2D1      1    LIG     O4     31     -0.532     15.999   ;
    32      CG2O2      1    LIG    C22     32      0.830     12.011   ;
    33      OG2D1      1    LIG     O5     33     -0.640     15.999   ;
    34      OG302      1    LIG     O6     34     -0.481     15.999   ;
    35      CG331      1    LIG    C23     35     -0.011     12.011   ;
    36      CG321      1    LIG    C24     36     -0.178     12.011   ;
    37      CG311      1    LIG    C25     37     -0.099     12.011   ;
    38      CG331      1    LIG    C26     38     -0.268     12.011   ;
    39      CG331      1    LIG    C27     39     -0.268     12.011   ;
    40      CG311      1    LIG    C28     40      0.123     12.011   ;
    41      CG311      1    LIG    C29     41     -0.051     12.011   ;
    42      NG2S1      1    LIG     N5     42     -0.401     14.007   ;
    43      CG2O1      1    LIG    C30     43      0.500     12.011   ;
    44      OG2D1      1    LIG     O7     44     -0.526     15.999   ;
    45       HGP1      1    LIG     H3     45      0.269      1.008   ;
    46      CG311      1    LIG    C31     46      0.177     12.011   ;
    47      NG2S0      1    LIG     N6     47     -0.292     14.007   ;
    48      CG2O1      1    LIG    C32     48      0.539     12.011   ;
    49      OG2D1      1    LIG     O8     49     -0.517     15.999   ;
    50      CG331      1    LIG    C33     50     -0.170     12.011   ;
    51      CG311      1    LIG    C34     51      0.064     12.011   ;
    52      NG2S1      1    LIG     N7     52     -0.513     14.007   ;
    53      CG2O1      1    LIG    C35     53      0.551     12.011   ;
    54      OG2D1      1    LIG     O9     54     -0.467     15.999   ;
    55       HGP1      1    LIG     H4     55      0.269      1.008   ;
    56      CG311      1    LIG    C36     56      0.183     12.011   ;
    57      CG331      1    LIG    C37     57     -0.271     12.011   ;
    58      OG311      1    LIG    O10     58     -0.606     15.999   ;
    59       HGP1      1    LIG     H5     59      0.331      1.008   ;
    60      CG311      1    LIG    C38     60     -0.078     12.011   ;
    61      CG331      1    LIG    C39     61     -0.269     12.011   ;
    62      CG331      1    LIG    C40     62     -0.269     12.011   ;
    63      CG321      1    LIG    C41     63     -0.264     12.011   ;
    64      CG321      1    LIG    C42     64     -0.162     12.011   ;
    65      CG2O1      1    LIG    C43     65      0.547     12.011   ;
    66      OG2D1      1    LIG    O11     66     -0.545     15.999   ;
    67      NG2S2      1    LIG     N8     67     -0.619     14.007   ;
    68       HGP1      1    LIG     H6     68      0.310      1.008   ;
    69       HGP1      1    LIG     H7     69      0.310      1.008   ;
    70      CG321      1    LIG    C44     70     -0.103     12.011   ;
    71      CG311      1    LIG    C45     71     -0.085     12.011   ;
    72      CG321      1    LIG    C46     72     -0.184     12.011   ;
    73      CG321      1    LIG    C47     73     -0.192     12.011   ;
    74      CG321      1    LIG    C48     74     -0.154     12.011   ;
    75      CG321      1    LIG    C49     75     -0.192     12.011   ;
    76      CG321      1    LIG    C50     76     -0.184     12.011   ;
    77      OG311      1    LIG    O12     77     -0.642     15.999   ;
    78       HGP1      1    LIG     H8     78      0.421      1.008   ;
    79       HGA2      1    LIG    HC2     79      0.090      1.008   ;
    80       HGA2      1    LIG    HC3     80      0.090      1.008   ;
    81       HGA1      1    LIG     HC     81      0.090      1.008   ;
    82       HGA1      1    LIG    HC1     82      0.090      1.008   ;
    83       HGA3      1    LIG    HC4     83      0.090      1.008   ;
    84       HGA3      1    LIG    HC5     84      0.090      1.008   ;
    85       HGA3      1    LIG    HC6     85      0.090      1.008   ;
    86       HGA3      1    LIG    HC7     86      0.090      1.008   ;
    87       HGA3      1    LIG    HC8     87      0.090      1.008   ;
    88       HGA3      1    LIG    HC9     88      0.090      1.008   ;
    89       HGA2      1    LIG   HC10     89      0.090      1.008   ;
    90       HGA2      1    LIG   HC11     90      0.090      1.008   ;
    91       HGA1      1    LIG   HC12     91      0.090      1.008   ;
    92       HGA2      1    LIG   HC13     92      0.090      1.008   ;
    93       HGA2      1    LIG   HC14     93      0.090      1.008   ;
    94       HGA2      1    LIG   HC15     94      0.090      1.008   ;
    95       HGA2      1    LIG   HC16     95      0.090      1.008   ;
    96       HGA2      1    LIG   HC17     96      0.090      1.008   ;
    97       HGA2      1    LIG   HC18     97      0.090      1.008   ;
    98       HGA2      1    LIG   HC19     98      0.090      1.008   ;
    99       HGA2      1    LIG   HC20     99      0.090      1.008   ;
   100       HGA2      1    LIG   HC21    100      0.090      1.008   ;
   101       HGA2      1    LIG   HC22    101      0.090      1.008   ;
   102       HGA1      1    LIG   HC23    102      0.090      1.008   ;
   103       HGA2      1    LIG   HC24    103      0.090      1.008   ;
   104       HGA2      1    LIG   HC25    104      0.090      1.008   ;
   105       HGA2      1    LIG   HC26    105      0.090      1.008   ;
   106       HGA2      1    LIG   HC27    106      0.090      1.008   ;
   107       HGA2      1    LIG   HC28    107      0.090      1.008   ;
   108       HGA2      1    LIG   HC29    108      0.090      1.008   ;
   109       HGA3      1    LIG   HC30    109      0.090      1.008   ;
   110       HGA3      1    LIG   HC31    110      0.090      1.008   ;
   111       HGA3      1    LIG   HC32    111      0.090      1.008   ;
   112       HGA2      1    LIG   HC33    112      0.090      1.008   ;
   113       HGA2      1    LIG   HC34    113      0.090      1.008   ;
   114       HGA1      1    LIG   HC35    114      0.090      1.008   ;
   115       HGA3      1    LIG   HC36    115      0.090      1.008   ;
   116       HGA3      1    LIG   HC37    116      0.090      1.008   ;
   117       HGA3      1    LIG   HC38    117      0.090      1.008   ;
   118       HGA3      1    LIG   HC39    118      0.090      1.008   ;
   119       HGA3      1    LIG   HC40    119      0.090      1.008   ;
   120       HGA3      1    LIG   HC41    120      0.090      1.008   ;
   121       HGA1      1    LIG   HC42    121      0.090      1.008   ;
   122       HGA1      1    LIG   HC43    122      0.090      1.008   ;
   123       HGA1      1    LIG   HC44    123      0.090      1.008   ;
   124       HGA3      1    LIG   HC45    124      0.090      1.008   ;
   125       HGA3      1    LIG   HC46    125      0.090      1.008   ;
   126       HGA3      1    LIG   HC47    126      0.090      1.008   ;
   127       HGA1      1    LIG   HC48    127      0.090      1.008   ;
   128       HGA1      1    LIG   HC49    128      0.090      1.008   ;
   129       HGA3      1    LIG   HC50    129      0.090      1.008   ;
   130       HGA3      1    LIG   HC51    130      0.090      1.008   ;
   131       HGA3      1    LIG   HC52    131      0.090      1.008   ;
   132       HGA1      1    LIG   HC53    132      0.090      1.008   ;
   133       HGA3      1    LIG   HC54    133      0.090      1.008   ;
   134       HGA3      1    LIG   HC55    134      0.090      1.008   ;
   135       HGA3      1    LIG   HC56    135      0.090      1.008   ;
   136       HGA3      1    LIG   HC57    136      0.090      1.008   ;
   137       HGA3      1    LIG   HC58    137      0.090      1.008   ;
   138       HGA3      1    LIG   HC59    138      0.090      1.008   ;
   139       HGA2      1    LIG   HC60    139      0.090      1.008   ;
   140       HGA2      1    LIG   HC61    140      0.090      1.008   ;
   141       HGA2      1    LIG   HC62    141      0.090      1.008   ;
   142       HGA2      1    LIG   HC63    142      0.090      1.008   ;
   143       HGA2      1    LIG   HC64    143      0.090      1.008   ;
   144       HGA2      1    LIG   HC65    144      0.090      1.008   ;
   145       HGA1      1    LIG   HC66    145      0.090      1.008   ;
   146       HGA2      1    LIG   HC67    146      0.090      1.008   ;
   147       HGA2      1    LIG   HC68    147      0.090      1.008   ;
   148       HGA2      1    LIG   HC69    148      0.090      1.008   ;
   149       HGA2      1    LIG   HC70    149      0.090      1.008   ;
   150       HGA2      1    LIG   HC71    150      0.090      1.008   ;
   151       HGA2      1    LIG   HC72    151      0.090      1.008   ;
   152       HGA2      1    LIG   HC73    152      0.090      1.008   ;
   153       HGA2      1    LIG   HC74    153      0.090      1.008   ;
   154       HGA2      1    LIG   HC75    154      0.090      1.008   ;
   155       HGA2      1    LIG   HC76    155      0.090      1.008   ;
   156       HGA1      1    LIG    H86    156      0.090      1.008   ;

[ bonds ]
;	ai	  aj funct			  c0			c1			  c2			c3
    1     2	 1 ;       CG321      CG2O1
    1    40	 1 ;       CG321      CG311
    1    79	 1 ;       CG321       HGA2
    1    80	 1 ;       CG321       HGA2
    2     3	 1 ;       CG2O1      NG2S1
    2     5	 1 ;       CG2O1      OG2D1
    3     6	 1 ;       NG2S1      CG311
    3     4	 1 ;       NG2S1       HGP1
    6     7	 1 ;       CG311      CG2O1
    6    36	 1 ;       CG311      CG321
    6    81	 1 ;       CG311       HGA1
    7    10	 1 ;       CG2O1      OG2D1
    7     8	 1 ;       CG2O1      NG2S1
    8     9	 1 ;       NG2S1       HGP1
    8    11	 1 ;       NG2S1      CG311
   11    13	 1 ;       CG311      CG2O1
   11    12	 1 ;       CG311      CG331
   11    82	 1 ;       CG311       HGA1
   12    83	 1 ;       CG331       HGA3
   12    84	 1 ;       CG331       HGA3
   12    85	 1 ;       CG331       HGA3
   13    14	 1 ;       CG2O1      NG2S0
   13    16	 1 ;       CG2O1      OG2D1
   14    15	 1 ;       NG2S0      CG331
   14    17	 1 ;       NG2S0      CG311
   15    86	 1 ;       CG331       HGA3
   15    87	 1 ;       CG331       HGA3
   15    88	 1 ;       CG331       HGA3
   17    25	 1 ;       CG311      CG2O1
   17    18	 1 ;       CG311      CG321
   17   156	 1 ;       CG311       HGA1
   18    19	 1 ;       CG321      CG311
   18    89	 1 ;       CG321       HGA2
   18    90	 1 ;       CG321       HGA2
   19    24	 1 ;       CG311      CG321
   19    20	 1 ;       CG311      CG321
   19    91	 1 ;       CG311       HGA1
   20    21	 1 ;       CG321      CG321
   20    92	 1 ;       CG321       HGA2
   20    93	 1 ;       CG321       HGA2
   21    22	 1 ;       CG321      CG321
   21    94	 1 ;       CG321       HGA2
   21    95	 1 ;       CG321       HGA2
   22    23	 1 ;       CG321      CG321
   22    96	 1 ;       CG321       HGA2
   22    97	 1 ;       CG321       HGA2
   23    24	 1 ;       CG321      CG321
   23    98	 1 ;       CG321       HGA2
   23    99	 1 ;       CG321       HGA2
   24   100	 1 ;       CG321       HGA2
   24   101	 1 ;       CG321       HGA2
   25    26	 1 ;       CG2O1      NG2S0
   25    31	 1 ;       CG2O1      OG2D1
   26    27	 1 ;       NG2S0     CG3C51
   26    28	 1 ;       NG2S0     CG3C52
   27    32	 1 ;      CG3C51      CG2O2
   27    29	 1 ;      CG3C51     CG3C52
   27   102	 1 ;      CG3C51       HGA1
   28    30	 1 ;      CG3C52     CG3C52
   28   103	 1 ;      CG3C52       HGA2
   28   104	 1 ;      CG3C52       HGA2
   29    30	 1 ;      CG3C52     CG3C52
   29   105	 1 ;      CG3C52       HGA2
   29   106	 1 ;      CG3C52       HGA2
   30   107	 1 ;      CG3C52       HGA2
   30   108	 1 ;      CG3C52       HGA2
   32    34	 1 ;       CG2O2      OG302
   32    33	 1 ;       CG2O2      OG2D1
   34    35	 1 ;       OG302      CG331
   35   109	 1 ;       CG331       HGA3
   35   110	 1 ;       CG331       HGA3
   35   111	 1 ;       CG331       HGA3
   36    37	 1 ;       CG321      CG311
   36   112	 1 ;       CG321       HGA2
   36   113	 1 ;       CG321       HGA2
   37    39	 1 ;       CG311      CG331
   37    38	 1 ;       CG311      CG331
   37   114	 1 ;       CG311       HGA1
   38   115	 1 ;       CG331       HGA3
   38   116	 1 ;       CG331       HGA3
   38   117	 1 ;       CG331       HGA3
   39   118	 1 ;       CG331       HGA3
   39   119	 1 ;       CG331       HGA3
   39   120	 1 ;       CG331       HGA3
   40    77	 1 ;       CG311      OG311
   40    41	 1 ;       CG311      CG311
   40   121	 1 ;       CG311       HGA1
   41    70	 1 ;       CG311      CG321
   41    42	 1 ;       CG311      NG2S1
   41   122	 1 ;       CG311       HGA1
   42    43	 1 ;       NG2S1      CG2O1
   42    45	 1 ;       NG2S1       HGP1
   43    44	 1 ;       CG2O1      OG2D1
   43    46	 1 ;       CG2O1      CG311
   46    47	 1 ;       CG311      NG2S0
   46    63	 1 ;       CG311      CG321
   46   123	 1 ;       CG311       HGA1
   47    48	 1 ;       NG2S0      CG2O1
   47    50	 1 ;       NG2S0      CG331
   48    51	 1 ;       CG2O1      CG311
   48    49	 1 ;       CG2O1      OG2D1
   50   124	 1 ;       CG331       HGA3
   50   125	 1 ;       CG331       HGA3
   50   126	 1 ;       CG331       HGA3
   51    60	 1 ;       CG311      CG311
   51    52	 1 ;       CG311      NG2S1
   51   127	 1 ;       CG311       HGA1
   52    55	 1 ;       NG2S1       HGP1
   52    53	 1 ;       NG2S1      CG2O1
   53    56	 1 ;       CG2O1      CG311
   53    54	 1 ;       CG2O1      OG2D1
   56    57	 1 ;       CG311      CG331
   56    58	 1 ;       CG311      OG311
   56   128	 1 ;       CG311       HGA1
   57   129	 1 ;       CG331       HGA3
   57   130	 1 ;       CG331       HGA3
   57   131	 1 ;       CG331       HGA3
   58    59	 1 ;       OG311       HGP1
   60    62	 1 ;       CG311      CG331
   60    61	 1 ;       CG311      CG331
   60   132	 1 ;       CG311       HGA1
   61   133	 1 ;       CG331       HGA3
   61   134	 1 ;       CG331       HGA3
   61   135	 1 ;       CG331       HGA3
   62   136	 1 ;       CG331       HGA3
   62   137	 1 ;       CG331       HGA3
   62   138	 1 ;       CG331       HGA3
   63    64	 1 ;       CG321      CG321
   63   139	 1 ;       CG321       HGA2
   63   140	 1 ;       CG321       HGA2
   64    65	 1 ;       CG321      CG2O1
   64   141	 1 ;       CG321       HGA2
   64   142	 1 ;       CG321       HGA2
   65    67	 1 ;       CG2O1      NG2S2
   65    66	 1 ;       CG2O1      OG2D1
   67    68	 1 ;       NG2S2       HGP1
   67    69	 1 ;       NG2S2       HGP1
   70    71	 1 ;       CG321      CG311
   70   143	 1 ;       CG321       HGA2
   70   144	 1 ;       CG321       HGA2
   71    72	 1 ;       CG311      CG321
   71    76	 1 ;       CG311      CG321
   71   145	 1 ;       CG311       HGA1
   72    73	 1 ;       CG321      CG321
   72   146	 1 ;       CG321       HGA2
   72   147	 1 ;       CG321       HGA2
   73    74	 1 ;       CG321      CG321
   73   148	 1 ;       CG321       HGA2
   73   149	 1 ;       CG321       HGA2
   74    75	 1 ;       CG321      CG321
   74   150	 1 ;       CG321       HGA2
   74   151	 1 ;       CG321       HGA2
   75    76	 1 ;       CG321      CG321
   75   152	 1 ;       CG321       HGA2
   75   153	 1 ;       CG321       HGA2
   76   154	 1 ;       CG321       HGA2
   76   155	 1 ;       CG321       HGA2
   77    78	 1 ;       OG311       HGP1

[ pairs ]
;	ai	  aj funct			  c0			c1			  c2			c3
    1     6	 1
    1     4	 1
    1    78	 1
    1    70	 1
    1    42	 1
    1   122	 1
    2    77	 1
    2    41	 1
    2   121	 1
    2     7	 1
    2    36	 1
    2    81	 1
    3    40	 1
    3    79	 1
    3    80	 1
    3    10	 1
    3     8	 1
    3    37	 1
    3   112	 1
    3   113	 1
    4     5	 1
    4     7	 1
    4    36	 1
    4    81	 1
    5    40	 1
    5    79	 1
    5    80	 1
    5     6	 1
    6     9	 1
    6    11	 1
    6    39	 1
    6    38	 1
    6   114	 1
    7    37	 1
    7   112	 1
    7   113	 1
    7    13	 1
    7    12	 1
    7    82	 1
    8    36	 1
    8    81	 1
    8    14	 1
    8    16	 1
    8    83	 1
    8    84	 1
    8    85	 1
    9    10	 1
    9    13	 1
    9    12	 1
    9    82	 1
   10    36	 1
   10    81	 1
   10    11	 1
   11    15	 1
   11    17	 1
   12    14	 1
   12    16	 1
   13    83	 1
   13    84	 1
   13    85	 1
   13    86	 1
   13    87	 1
   13    88	 1
   13    25	 1
   13    18	 1
   13   156	 1
   14    82	 1
   14    26	 1
   14    31	 1
   14    19	 1
   14    89	 1
   14    90	 1
   15    16	 1
   15    25	 1
   15    18	 1
   15   156	 1
   16    82	 1
   16    17	 1
   17    86	 1
   17    87	 1
   17    88	 1
   17    24	 1
   17    20	 1
   17    91	 1
   17    27	 1
   17    28	 1
   18    26	 1
   18    31	 1
   18    23	 1
   18   100	 1
   18   101	 1
   18    21	 1
   18    92	 1
   18    93	 1
   19    25	 1
   19   156	 1
   19    22	 1
   19    94	 1
   19    95	 1
   19    98	 1
   19    99	 1
   20    89	 1
   20    90	 1
   20    23	 1
   20   100	 1
   20   101	 1
   20    96	 1
   20    97	 1
   21    24	 1
   21    91	 1
   21    98	 1
   21    99	 1
   22    92	 1
   22    93	 1
   22   100	 1
   22   101	 1
   23    91	 1
   23    94	 1
   23    95	 1
   24    89	 1
   24    90	 1
   24    92	 1
   24    93	 1
   24    96	 1
   24    97	 1
   25    89	 1
   25    90	 1
   25    32	 1
   25    29	 1
   25   102	 1
   25    30	 1
   25   103	 1
   25   104	 1
   26   156	 1
   26    34	 1
   26    33	 1
   26   105	 1
   26   106	 1
   26   107	 1
   26   108	 1
   27    31	 1
   27   103	 1
   27   104	 1
   27   107	 1
   27   108	 1
   27    35	 1
   28    31	 1
   28    32	 1
   28   102	 1
   28   105	 1
   28   106	 1
   29    34	 1
   29    33	 1
   29   103	 1
   29   104	 1
   30    32	 1
   30   102	 1
   31   156	 1
   32   105	 1
   32   106	 1
   32   109	 1
   32   110	 1
   32   111	 1
   33   102	 1
   33    35	 1
   34   102	 1
   36   118	 1
   36   119	 1
   36   120	 1
   36   115	 1
   36   116	 1
   36   117	 1
   37    81	 1
   38   112	 1
   38   113	 1
   38   118	 1
   38   119	 1
   38   120	 1
   39   112	 1
   39   113	 1
   39   115	 1
   39   116	 1
   39   117	 1
   40    71	 1
   40   143	 1
   40   144	 1
   40    43	 1
   40    45	 1
   41    79	 1
   41    80	 1
   41    78	 1
   41    44	 1
   41    46	 1
   41    72	 1
   41    76	 1
   41   145	 1
   42    77	 1
   42   121	 1
   42    71	 1
   42   143	 1
   42   144	 1
   42    47	 1
   42    63	 1
   42   123	 1
   43    70	 1
   43   122	 1
   43    48	 1
   43    50	 1
   43    64	 1
   43   139	 1
   43   140	 1
   44    45	 1
   44    47	 1
   44    63	 1
   44   123	 1
   45    70	 1
   45   122	 1
   45    46	 1
   46    51	 1
   46    49	 1
   46   124	 1
   46   125	 1
   46   126	 1
   46    65	 1
   46   141	 1
   46   142	 1
   47    64	 1
   47   139	 1
   47   140	 1
   47    60	 1
   47    52	 1
   47   127	 1
   48    63	 1
   48   123	 1
   48   124	 1
   48   125	 1
   48   126	 1
   48    62	 1
   48    61	 1
   48   132	 1
   48    55	 1
   48    53	 1
   49    50	 1
   49    60	 1
   49    52	 1
   49   127	 1
   50    63	 1
   50   123	 1
   50    51	 1
   51    56	 1
   51    54	 1
   51   136	 1
   51   137	 1
   51   138	 1
   51   133	 1
   51   134	 1
   51   135	 1
   52    62	 1
   52    61	 1
   52   132	 1
   52    57	 1
   52    58	 1
   52   128	 1
   53    60	 1
   53   127	 1
   53   129	 1
   53   130	 1
   53   131	 1
   53    59	 1
   54    55	 1
   54    57	 1
   54    58	 1
   54   128	 1
   55    60	 1
   55   127	 1
   55    56	 1
   57    59	 1
   58   129	 1
   58   130	 1
   58   131	 1
   59   128	 1
   61   127	 1
   61   136	 1
   61   137	 1
   61   138	 1
   62   127	 1
   62   133	 1
   62   134	 1
   62   135	 1
   63    67	 1
   63    66	 1
   64   123	 1
   64    68	 1
   64    69	 1
   65   139	 1
   65   140	 1
   66   141	 1
   66   142	 1
   66    68	 1
   66    69	 1
   67   141	 1
   67   142	 1
   70    77	 1
   70   121	 1
   70    73	 1
   70   146	 1
   70   147	 1
   70    75	 1
   70   154	 1
   70   155	 1
   71   122	 1
   71    74	 1
   71   148	 1
   71   149	 1
   71   152	 1
   71   153	 1
   72   143	 1
   72   144	 1
   72    75	 1
   72   154	 1
   72   155	 1
   72   150	 1
   72   151	 1
   73    76	 1
   73   145	 1
   73   152	 1
   73   153	 1
   74   146	 1
   74   147	 1
   74   154	 1
   74   155	 1
   75   145	 1
   75   148	 1
   75   149	 1
   76   143	 1
   76   144	 1
   76   146	 1
   76   147	 1
   76   150	 1
   76   151	 1
   77    79	 1
   77    80	 1
   77   122	 1
   78   121	 1
   79   121	 1
   80   121	 1
   81   112	 1
   81   113	 1
   82    83	 1
   82    84	 1
   82    85	 1
   89   156	 1
   89    91	 1
   90   156	 1
   90    91	 1
   91   100	 1
   91   101	 1
   91    92	 1
   91    93	 1
   92    94	 1
   92    95	 1
   93    94	 1
   93    95	 1
   94    96	 1
   94    97	 1
   95    96	 1
   95    97	 1
   96    98	 1
   96    99	 1
   97    98	 1
   97    99	 1
   98   100	 1
   98   101	 1
   99   100	 1
   99   101	 1
  102   105	 1
  102   106	 1
  103   107	 1
  103   108	 1
  104   107	 1
  104   108	 1
  105   107	 1
  105   108	 1
  106   107	 1
  106   108	 1
  112   114	 1
  113   114	 1
  114   118	 1
  114   119	 1
  114   120	 1
  114   115	 1
  114   116	 1
  114   117	 1
  121   122	 1
  122   143	 1
  122   144	 1
  123   139	 1
  123   140	 1
  127   132	 1
  128   129	 1
  128   130	 1
  128   131	 1
  132   136	 1
  132   137	 1
  132   138	 1
  132   133	 1
  132   134	 1
  132   135	 1
  139   141	 1
  139   142	 1
  140   141	 1
  140   142	 1
  143   145	 1
  144   145	 1
  145   146	 1
  145   147	 1
  145   154	 1
  145   155	 1
  146   148	 1
  146   149	 1
  147   148	 1
  147   149	 1
  148   150	 1
  148   151	 1
  149   150	 1
  149   151	 1
  150   152	 1
  150   153	 1
  151   152	 1
  151   153	 1
  152   154	 1
  152   155	 1
  153   154	 1
  153   155	 1

[ angles ]
;	ai	  aj	ak funct			c0			  c1			c2			  c3
    2     1    40	5 ;      CG2O1      CG321      CG311
    2     1    79	5 ;      CG2O1      CG321       HGA2
    2     1    80	5 ;      CG2O1      CG321       HGA2
   40     1    79	5 ;      CG311      CG321       HGA2
   40     1    80	5 ;      CG311      CG321       HGA2
   79     1    80	5 ;       HGA2      CG321       HGA2
    3     2     5	5 ;      NG2S1      CG2O1      OG2D1
    3     2     1	5 ;      NG2S1      CG2O1      CG321
    5     2     1	5 ;      OG2D1      CG2O1      CG321
    6     3     4	5 ;      CG311      NG2S1       HGP1
    6     3     2	5 ;      CG311      NG2S1      CG2O1
    4     3     2	5 ;       HGP1      NG2S1      CG2O1
    7     6    36	5 ;      CG2O1      CG311      CG321
    7     6     3	5 ;      CG2O1      CG311      NG2S1
    7     6    81	5 ;      CG2O1      CG311       HGA1
   36     6     3	5 ;      CG321      CG311      NG2S1
   36     6    81	5 ;      CG321      CG311       HGA1
    3     6    81	5 ;      NG2S1      CG311       HGA1
   10     7     8	5 ;      OG2D1      CG2O1      NG2S1
   10     7     6	5 ;      OG2D1      CG2O1      CG311
    8     7     6	5 ;      NG2S1      CG2O1      CG311
    9     8     7	5 ;       HGP1      NG2S1      CG2O1
    9     8    11	5 ;       HGP1      NG2S1      CG311
    7     8    11	5 ;      CG2O1      NG2S1      CG311
    8    11    13	5 ;      NG2S1      CG311      CG2O1
    8    11    12	5 ;      NG2S1      CG311      CG331
    8    11    82	5 ;      NG2S1      CG311       HGA1
   13    11    12	5 ;      CG2O1      CG311      CG331
   13    11    82	5 ;      CG2O1      CG311       HGA1
   12    11    82	5 ;      CG331      CG311       HGA1
   11    12    83	5 ;      CG311      CG331       HGA3
   11    12    84	5 ;      CG311      CG331       HGA3
   11    12    85	5 ;      CG311      CG331       HGA3
   83    12    84	5 ;       HGA3      CG331       HGA3
   83    12    85	5 ;       HGA3      CG331       HGA3
   84    12    85	5 ;       HGA3      CG331       HGA3
   11    13    14	5 ;      CG311      CG2O1      NG2S0
   11    13    16	5 ;      CG311      CG2O1      OG2D1
   14    13    16	5 ;      NG2S0      CG2O1      OG2D1
   15    14    13	5 ;      CG331      NG2S0      CG2O1
   15    14    17	5 ;      CG331      NG2S0      CG311
   13    14    17	5 ;      CG2O1      NG2S0      CG311
   14    15    86	5 ;      NG2S0      CG331       HGA3
   14    15    87	5 ;      NG2S0      CG331       HGA3
   14    15    88	5 ;      NG2S0      CG331       HGA3
   86    15    87	5 ;       HGA3      CG331       HGA3
   86    15    88	5 ;       HGA3      CG331       HGA3
   87    15    88	5 ;       HGA3      CG331       HGA3
   14    17    25	5 ;      NG2S0      CG311      CG2O1
   14    17    18	5 ;      NG2S0      CG311      CG321
   14    17   156	5 ;      NG2S0      CG311       HGA1
   25    17    18	5 ;      CG2O1      CG311      CG321
   25    17   156	5 ;      CG2O1      CG311       HGA1
   18    17   156	5 ;      CG321      CG311       HGA1
   17    18    19	5 ;      CG311      CG321      CG311
   17    18    89	5 ;      CG311      CG321       HGA2
   17    18    90	5 ;      CG311      CG321       HGA2
   19    18    89	5 ;      CG311      CG321       HGA2
   19    18    90	5 ;      CG311      CG321       HGA2
   89    18    90	5 ;       HGA2      CG321       HGA2
   18    19    24	5 ;      CG321      CG311      CG321
   18    19    20	5 ;      CG321      CG311      CG321
   18    19    91	5 ;      CG321      CG311       HGA1
   24    19    20	5 ;      CG321      CG311      CG321
   24    19    91	5 ;      CG321      CG311       HGA1
   20    19    91	5 ;      CG321      CG311       HGA1
   19    20    21	5 ;      CG311      CG321      CG321
   19    20    92	5 ;      CG311      CG321       HGA2
   19    20    93	5 ;      CG311      CG321       HGA2
   21    20    92	5 ;      CG321      CG321       HGA2
   21    20    93	5 ;      CG321      CG321       HGA2
   92    20    93	5 ;       HGA2      CG321       HGA2
   20    21    22	5 ;      CG321      CG321      CG321
   20    21    94	5 ;      CG321      CG321       HGA2
   20    21    95	5 ;      CG321      CG321       HGA2
   22    21    94	5 ;      CG321      CG321       HGA2
   22    21    95	5 ;      CG321      CG321       HGA2
   94    21    95	5 ;       HGA2      CG321       HGA2
   23    22    21	5 ;      CG321      CG321      CG321
   23    22    96	5 ;      CG321      CG321       HGA2
   23    22    97	5 ;      CG321      CG321       HGA2
   21    22    96	5 ;      CG321      CG321       HGA2
   21    22    97	5 ;      CG321      CG321       HGA2
   96    22    97	5 ;       HGA2      CG321       HGA2
   24    23    22	5 ;      CG321      CG321      CG321
   24    23    98	5 ;      CG321      CG321       HGA2
   24    23    99	5 ;      CG321      CG321       HGA2
   22    23    98	5 ;      CG321      CG321       HGA2
   22    23    99	5 ;      CG321      CG321       HGA2
   98    23    99	5 ;       HGA2      CG321       HGA2
   19    24    23	5 ;      CG311      CG321      CG321
   19    24   100	5 ;      CG311      CG321       HGA2
   19    24   101	5 ;      CG311      CG321       HGA2
   23    24   100	5 ;      CG321      CG321       HGA2
   23    24   101	5 ;      CG321      CG321       HGA2
  100    24   101	5 ;       HGA2      CG321       HGA2
   26    25    31	5 ;      NG2S0      CG2O1      OG2D1
   26    25    17	5 ;      NG2S0      CG2O1      CG311
   31    25    17	5 ;      OG2D1      CG2O1      CG311
   27    26    25	5 ;     CG3C51      NG2S0      CG2O1
   27    26    28	5 ;     CG3C51      NG2S0     CG3C52
   25    26    28	5 ;      CG2O1      NG2S0     CG3C52
   32    27    29	5 ;      CG2O2     CG3C51     CG3C52
   32    27    26	5 ;      CG2O2     CG3C51      NG2S0
   32    27   102	5 ;      CG2O2     CG3C51       HGA1
   29    27    26	5 ;     CG3C52     CG3C51      NG2S0
   29    27   102	5 ;     CG3C52     CG3C51       HGA1
   26    27   102	5 ;      NG2S0     CG3C51       HGA1
   26    28    30	5 ;      NG2S0     CG3C52     CG3C52
   26    28   103	5 ;      NG2S0     CG3C52       HGA2
   26    28   104	5 ;      NG2S0     CG3C52       HGA2
   30    28   103	5 ;     CG3C52     CG3C52       HGA2
   30    28   104	5 ;     CG3C52     CG3C52       HGA2
  103    28   104	5 ;       HGA2     CG3C52       HGA2
   27    29    30	5 ;     CG3C51     CG3C52     CG3C52
   27    29   105	5 ;     CG3C51     CG3C52       HGA2
   27    29   106	5 ;     CG3C51     CG3C52       HGA2
   30    29   105	5 ;     CG3C52     CG3C52       HGA2
   30    29   106	5 ;     CG3C52     CG3C52       HGA2
  105    29   106	5 ;       HGA2     CG3C52       HGA2
   29    30    28	5 ;     CG3C52     CG3C52     CG3C52
   29    30   107	5 ;     CG3C52     CG3C52       HGA2
   29    30   108	5 ;     CG3C52     CG3C52       HGA2
   28    30   107	5 ;     CG3C52     CG3C52       HGA2
   28    30   108	5 ;     CG3C52     CG3C52       HGA2
  107    30   108	5 ;       HGA2     CG3C52       HGA2
   34    32    33	5 ;      OG302      CG2O2      OG2D1
   34    32    27	5 ;      OG302      CG2O2     CG3C51
   33    32    27	5 ;      OG2D1      CG2O2     CG3C51
   35    34    32	5 ;      CG331      OG302      CG2O2
   34    35   109	5 ;      OG302      CG331       HGA3
   34    35   110	5 ;      OG302      CG331       HGA3
   34    35   111	5 ;      OG302      CG331       HGA3
  109    35   110	5 ;       HGA3      CG331       HGA3
  109    35   111	5 ;       HGA3      CG331       HGA3
  110    35   111	5 ;       HGA3      CG331       HGA3
   37    36     6	5 ;      CG311      CG321      CG311
   37    36   112	5 ;      CG311      CG321       HGA2
   37    36   113	5 ;      CG311      CG321       HGA2
    6    36   112	5 ;      CG311      CG321       HGA2
    6    36   113	5 ;      CG311      CG321       HGA2
  112    36   113	5 ;       HGA2      CG321       HGA2
   39    37    38	5 ;      CG331      CG311      CG331
   39    37    36	5 ;      CG331      CG311      CG321
   39    37   114	5 ;      CG331      CG311       HGA1
   38    37    36	5 ;      CG331      CG311      CG321
   38    37   114	5 ;      CG331      CG311       HGA1
   36    37   114	5 ;      CG321      CG311       HGA1
   37    38   115	5 ;      CG311      CG331       HGA3
   37    38   116	5 ;      CG311      CG331       HGA3
   37    38   117	5 ;      CG311      CG331       HGA3
  115    38   116	5 ;       HGA3      CG331       HGA3
  115    38   117	5 ;       HGA3      CG331       HGA3
  116    38   117	5 ;       HGA3      CG331       HGA3
   37    39   118	5 ;      CG311      CG331       HGA3
   37    39   119	5 ;      CG311      CG331       HGA3
   37    39   120	5 ;      CG311      CG331       HGA3
  118    39   119	5 ;       HGA3      CG331       HGA3
  118    39   120	5 ;       HGA3      CG331       HGA3
  119    39   120	5 ;       HGA3      CG331       HGA3
    1    40    77	5 ;      CG321      CG311      OG311
    1    40    41	5 ;      CG321      CG311      CG311
    1    40   121	5 ;      CG321      CG311       HGA1
   77    40    41	5 ;      OG311      CG311      CG311
   77    40   121	5 ;      OG311      CG311       HGA1
   41    40   121	5 ;      CG311      CG311       HGA1
   40    41    70	5 ;      CG311      CG311      CG321
   40    41    42	5 ;      CG311      CG311      NG2S1
   40    41   122	5 ;      CG311      CG311       HGA1
   70    41    42	5 ;      CG321      CG311      NG2S1
   70    41   122	5 ;      CG321      CG311       HGA1
   42    41   122	5 ;      NG2S1      CG311       HGA1
   41    42    43	5 ;      CG311      NG2S1      CG2O1
   41    42    45	5 ;      CG311      NG2S1       HGP1
   43    42    45	5 ;      CG2O1      NG2S1       HGP1
   44    43    42	5 ;      OG2D1      CG2O1      NG2S1
   44    43    46	5 ;      OG2D1      CG2O1      CG311
   42    43    46	5 ;      NG2S1      CG2O1      CG311
   43    46    47	5 ;      CG2O1      CG311      NG2S0
   43    46    63	5 ;      CG2O1      CG311      CG321
   43    46   123	5 ;      CG2O1      CG311       HGA1
   47    46    63	5 ;      NG2S0      CG311      CG321
   47    46   123	5 ;      NG2S0      CG311       HGA1
   63    46   123	5 ;      CG321      CG311       HGA1
   48    47    46	5 ;      CG2O1      NG2S0      CG311
   48    47    50	5 ;      CG2O1      NG2S0      CG331
   46    47    50	5 ;      CG311      NG2S0      CG331
   51    48    49	5 ;      CG311      CG2O1      OG2D1
   51    48    47	5 ;      CG311      CG2O1      NG2S0
   49    48    47	5 ;      OG2D1      CG2O1      NG2S0
   47    50   124	5 ;      NG2S0      CG331       HGA3
   47    50   125	5 ;      NG2S0      CG331       HGA3
   47    50   126	5 ;      NG2S0      CG331       HGA3
  124    50   125	5 ;       HGA3      CG331       HGA3
  124    50   126	5 ;       HGA3      CG331       HGA3
  125    50   126	5 ;       HGA3      CG331       HGA3
   60    51    52	5 ;      CG311      CG311      NG2S1
   60    51    48	5 ;      CG311      CG311      CG2O1
   60    51   127	5 ;      CG311      CG311       HGA1
   52    51    48	5 ;      NG2S1      CG311      CG2O1
   52    51   127	5 ;      NG2S1      CG311       HGA1
   48    51   127	5 ;      CG2O1      CG311       HGA1
   55    52    51	5 ;       HGP1      NG2S1      CG311
   55    52    53	5 ;       HGP1      NG2S1      CG2O1
   51    52    53	5 ;      CG311      NG2S1      CG2O1
   52    53    56	5 ;      NG2S1      CG2O1      CG311
   52    53    54	5 ;      NG2S1      CG2O1      OG2D1
   56    53    54	5 ;      CG311      CG2O1      OG2D1
   57    56    53	5 ;      CG331      CG311      CG2O1
   57    56    58	5 ;      CG331      CG311      OG311
   57    56   128	5 ;      CG331      CG311       HGA1
   53    56    58	5 ;      CG2O1      CG311      OG311
   53    56   128	5 ;      CG2O1      CG311       HGA1
   58    56   128	5 ;      OG311      CG311       HGA1
   56    57   129	5 ;      CG311      CG331       HGA3
   56    57   130	5 ;      CG311      CG331       HGA3
   56    57   131	5 ;      CG311      CG331       HGA3
  129    57   130	5 ;       HGA3      CG331       HGA3
  129    57   131	5 ;       HGA3      CG331       HGA3
  130    57   131	5 ;       HGA3      CG331       HGA3
   59    58    56	5 ;       HGP1      OG311      CG311
   62    60    61	5 ;      CG331      CG311      CG331
   62    60    51	5 ;      CG331      CG311      CG311
   62    60   132	5 ;      CG331      CG311       HGA1
   61    60    51	5 ;      CG331      CG311      CG311
   61    60   132	5 ;      CG331      CG311       HGA1
   51    60   132	5 ;      CG311      CG311       HGA1
   60    61   133	5 ;      CG311      CG331       HGA3
   60    61   134	5 ;      CG311      CG331       HGA3
   60    61   135	5 ;      CG311      CG331       HGA3
  133    61   134	5 ;       HGA3      CG331       HGA3
  133    61   135	5 ;       HGA3      CG331       HGA3
  134    61   135	5 ;       HGA3      CG331       HGA3
   60    62   136	5 ;      CG311      CG331       HGA3
   60    62   137	5 ;      CG311      CG331       HGA3
   60    62   138	5 ;      CG311      CG331       HGA3
  136    62   137	5 ;       HGA3      CG331       HGA3
  136    62   138	5 ;       HGA3      CG331       HGA3
  137    62   138	5 ;       HGA3      CG331       HGA3
   46    63    64	5 ;      CG311      CG321      CG321
   46    63   139	5 ;      CG311      CG321       HGA2
   46    63   140	5 ;      CG311      CG321       HGA2
   64    63   139	5 ;      CG321      CG321       HGA2
   64    63   140	5 ;      CG321      CG321       HGA2
  139    63   140	5 ;       HGA2      CG321       HGA2
   63    64    65	5 ;      CG321      CG321      CG2O1
   63    64   141	5 ;      CG321      CG321       HGA2
   63    64   142	5 ;      CG321      CG321       HGA2
   65    64   141	5 ;      CG2O1      CG321       HGA2
   65    64   142	5 ;      CG2O1      CG321       HGA2
  141    64   142	5 ;       HGA2      CG321       HGA2
   64    65    67	5 ;      CG321      CG2O1      NG2S2
   64    65    66	5 ;      CG321      CG2O1      OG2D1
   67    65    66	5 ;      NG2S2      CG2O1      OG2D1
   68    67    65	5 ;       HGP1      NG2S2      CG2O1
   68    67    69	5 ;       HGP1      NG2S2       HGP1
   65    67    69	5 ;      CG2O1      NG2S2       HGP1
   71    70    41	5 ;      CG311      CG321      CG311
   71    70   143	5 ;      CG311      CG321       HGA2
   71    70   144	5 ;      CG311      CG321       HGA2
   41    70   143	5 ;      CG311      CG321       HGA2
   41    70   144	5 ;      CG311      CG321       HGA2
  143    70   144	5 ;       HGA2      CG321       HGA2
   72    71    76	5 ;      CG321      CG311      CG321
   72    71    70	5 ;      CG321      CG311      CG321
   72    71   145	5 ;      CG321      CG311       HGA1
   76    71    70	5 ;      CG321      CG311      CG321
   76    71   145	5 ;      CG321      CG311       HGA1
   70    71   145	5 ;      CG321      CG311       HGA1
   73    72    71	5 ;      CG321      CG321      CG311
   73    72   146	5 ;      CG321      CG321       HGA2
   73    72   147	5 ;      CG321      CG321       HGA2
   71    72   146	5 ;      CG311      CG321       HGA2
   71    72   147	5 ;      CG311      CG321       HGA2
  146    72   147	5 ;       HGA2      CG321       HGA2
   72    73    74	5 ;      CG321      CG321      CG321
   72    73   148	5 ;      CG321      CG321       HGA2
   72    73   149	5 ;      CG321      CG321       HGA2
   74    73   148	5 ;      CG321      CG321       HGA2
   74    73   149	5 ;      CG321      CG321       HGA2
  148    73   149	5 ;       HGA2      CG321       HGA2
   73    74    75	5 ;      CG321      CG321      CG321
   73    74   150	5 ;      CG321      CG321       HGA2
   73    74   151	5 ;      CG321      CG321       HGA2
   75    74   150	5 ;      CG321      CG321       HGA2
   75    74   151	5 ;      CG321      CG321       HGA2
  150    74   151	5 ;       HGA2      CG321       HGA2
   74    75    76	5 ;      CG321      CG321      CG321
   74    75   152	5 ;      CG321      CG321       HGA2
   74    75   153	5 ;      CG321      CG321       HGA2
   76    75   152	5 ;      CG321      CG321       HGA2
   76    75   153	5 ;      CG321      CG321       HGA2
  152    75   153	5 ;       HGA2      CG321       HGA2
   71    76    75	5 ;      CG311      CG321      CG321
   71    76   154	5 ;      CG311      CG321       HGA2
   71    76   155	5 ;      CG311      CG321       HGA2
   75    76   154	5 ;      CG321      CG321       HGA2
   75    76   155	5 ;      CG321      CG321       HGA2
  154    76   155	5 ;       HGA2      CG321       HGA2
   78    77    40	5 ;       HGP1      OG311      CG311

[ dihedrals ]
;	ai	  aj	ak	  al funct			  c0			c1			  c2			c3			  c4			c5
   40     1     2     3	 9 ;      CG311      CG321      CG2O1      NG2S1
   40     1     2     5	 9 ;      CG311      CG321      CG2O1      OG2D1
   79     1     2     3	 9 ;       HGA2      CG321      CG2O1      NG2S1
   79     1     2     5	 9 ;       HGA2      CG321      CG2O1      OG2D1
   80     1     2     3	 9 ;       HGA2      CG321      CG2O1      NG2S1
   80     1     2     5	 9 ;       HGA2      CG321      CG2O1      OG2D1
    2     1    40    77	 9 ;      CG2O1      CG321      CG311      OG311
    2     1    40    41	 9 ;      CG2O1      CG321      CG311      CG311
    2     1    40   121	 9 ;      CG2O1      CG321      CG311       HGA1
   79     1    40    77	 9 ;       HGA2      CG321      CG311      OG311
   79     1    40    41	 9 ;       HGA2      CG321      CG311      CG311
   79     1    40   121	 9 ;       HGA2      CG321      CG311       HGA1
   80     1    40    77	 9 ;       HGA2      CG321      CG311      OG311
   80     1    40    41	 9 ;       HGA2      CG321      CG311      CG311
   80     1    40   121	 9 ;       HGA2      CG321      CG311       HGA1
    5     2     3     6	 9 ;      OG2D1      CG2O1      NG2S1      CG311
    5     2     3     4	 9 ;      OG2D1      CG2O1      NG2S1       HGP1
    1     2     3     6	 9 ;      CG321      CG2O1      NG2S1      CG311
    1     2     3     4	 9 ;      CG321      CG2O1      NG2S1       HGP1
    4     3     6     7	 9 ;       HGP1      NG2S1      CG311      CG2O1
    4     3     6    36	 9 ;       HGP1      NG2S1      CG311      CG321
    4     3     6    81	 9 ;       HGP1      NG2S1      CG311       HGA1
    2     3     6     7	 9 ;      CG2O1      NG2S1      CG311      CG2O1
    2     3     6    36	 9 ;      CG2O1      NG2S1      CG311      CG321
    2     3     6    81	 9 ;      CG2O1      NG2S1      CG311       HGA1
   36     6     7    10	 9 ;      CG321      CG311      CG2O1      OG2D1
   36     6     7     8	 9 ;      CG321      CG311      CG2O1      NG2S1
    3     6     7    10	 9 ;      NG2S1      CG311      CG2O1      OG2D1
    3     6     7     8	 9 ;      NG2S1      CG311      CG2O1      NG2S1
   81     6     7    10	 9 ;       HGA1      CG311      CG2O1      OG2D1
   81     6     7     8	 9 ;       HGA1      CG311      CG2O1      NG2S1
    7     6    36    37	 9 ;      CG2O1      CG311      CG321      CG311
    7     6    36   112	 9 ;      CG2O1      CG311      CG321       HGA2
    7     6    36   113	 9 ;      CG2O1      CG311      CG321       HGA2
    3     6    36    37	 9 ;      NG2S1      CG311      CG321      CG311
    3     6    36   112	 9 ;      NG2S1      CG311      CG321       HGA2
    3     6    36   113	 9 ;      NG2S1      CG311      CG321       HGA2
   81     6    36    37	 9 ;       HGA1      CG311      CG321      CG311
   81     6    36   112	 9 ;       HGA1      CG311      CG321       HGA2
   81     6    36   113	 9 ;       HGA1      CG311      CG321       HGA2
   10     7     8     9	 9 ;      OG2D1      CG2O1      NG2S1       HGP1
   10     7     8    11	 9 ;      OG2D1      CG2O1      NG2S1      CG311
    6     7     8     9	 9 ;      CG311      CG2O1      NG2S1       HGP1
    6     7     8    11	 9 ;      CG311      CG2O1      NG2S1      CG311
    9     8    11    13	 9 ;       HGP1      NG2S1      CG311      CG2O1
    9     8    11    12	 9 ;       HGP1      NG2S1      CG311      CG331
    9     8    11    82	 9 ;       HGP1      NG2S1      CG311       HGA1
    7     8    11    13	 9 ;      CG2O1      NG2S1      CG311      CG2O1
    7     8    11    12	 9 ;      CG2O1      NG2S1      CG311      CG331
    7     8    11    82	 9 ;      CG2O1      NG2S1      CG311       HGA1
    8    11    13    14	 9 ;      NG2S1      CG311      CG2O1      NG2S0
    8    11    13    16	 9 ;      NG2S1      CG311      CG2O1      OG2D1
   12    11    13    14	 9 ;      CG331      CG311      CG2O1      NG2S0
   12    11    13    16	 9 ;      CG331      CG311      CG2O1      OG2D1
   82    11    13    14	 9 ;       HGA1      CG311      CG2O1      NG2S0
   82    11    13    16	 9 ;       HGA1      CG311      CG2O1      OG2D1
    8    11    12    83	 9 ;      NG2S1      CG311      CG331       HGA3
    8    11    12    84	 9 ;      NG2S1      CG311      CG331       HGA3
    8    11    12    85	 9 ;      NG2S1      CG311      CG331       HGA3
   13    11    12    83	 9 ;      CG2O1      CG311      CG331       HGA3
   13    11    12    84	 9 ;      CG2O1      CG311      CG331       HGA3
   13    11    12    85	 9 ;      CG2O1      CG311      CG331       HGA3
   82    11    12    83	 9 ;       HGA1      CG311      CG331       HGA3
   82    11    12    84	 9 ;       HGA1      CG311      CG331       HGA3
   82    11    12    85	 9 ;       HGA1      CG311      CG331       HGA3
   11    13    14    15	 9 ;      CG311      CG2O1      NG2S0      CG331
   11    13    14    17	 9 ;      CG311      CG2O1      NG2S0      CG311
   16    13    14    15	 9 ;      OG2D1      CG2O1      NG2S0      CG331
   16    13    14    17	 9 ;      OG2D1      CG2O1      NG2S0      CG311
   13    14    15    86	 9 ;      CG2O1      NG2S0      CG331       HGA3
   13    14    15    87	 9 ;      CG2O1      NG2S0      CG331       HGA3
   13    14    15    88	 9 ;      CG2O1      NG2S0      CG331       HGA3
   17    14    15    86	 9 ;      CG311      NG2S0      CG331       HGA3
   17    14    15    87	 9 ;      CG311      NG2S0      CG331       HGA3
   17    14    15    88	 9 ;      CG311      NG2S0      CG331       HGA3
   15    14    17    25	 9 ;      CG331      NG2S0      CG311      CG2O1
   15    14    17    18	 9 ;      CG331      NG2S0      CG311      CG321
   15    14    17   156	 9 ;      CG331      NG2S0      CG311       HGA1
   13    14    17    25	 9 ;      CG2O1      NG2S0      CG311      CG2O1
   13    14    17    18	 9 ;      CG2O1      NG2S0      CG311      CG321
   13    14    17   156	 9 ;      CG2O1      NG2S0      CG311       HGA1
   14    17    25    26	 9 ;      NG2S0      CG311      CG2O1      NG2S0
   14    17    25    31	 9 ;      NG2S0      CG311      CG2O1      OG2D1
   18    17    25    26	 9 ;      CG321      CG311      CG2O1      NG2S0
   18    17    25    31	 9 ;      CG321      CG311      CG2O1      OG2D1
  156    17    25    26	 9 ;       HGA1      CG311      CG2O1      NG2S0
  156    17    25    31	 9 ;       HGA1      CG311      CG2O1      OG2D1
   14    17    18    19	 9 ;      NG2S0      CG311      CG321      CG311
   14    17    18    89	 9 ;      NG2S0      CG311      CG321       HGA2
   14    17    18    90	 9 ;      NG2S0      CG311      CG321       HGA2
   25    17    18    19	 9 ;      CG2O1      CG311      CG321      CG311
   25    17    18    89	 9 ;      CG2O1      CG311      CG321       HGA2
   25    17    18    90	 9 ;      CG2O1      CG311      CG321       HGA2
  156    17    18    19	 9 ;       HGA1      CG311      CG321      CG311
  156    17    18    89	 9 ;       HGA1      CG311      CG321       HGA2
  156    17    18    90	 9 ;       HGA1      CG311      CG321       HGA2
   17    18    19    24	 9 ;      CG311      CG321      CG311      CG321
   17    18    19    20	 9 ;      CG311      CG321      CG311      CG321
   17    18    19    91	 9 ;      CG311      CG321      CG311       HGA1
   89    18    19    24	 9 ;       HGA2      CG321      CG311      CG321
   89    18    19    20	 9 ;       HGA2      CG321      CG311      CG321
   89    18    19    91	 9 ;       HGA2      CG321      CG311       HGA1
   90    18    19    24	 9 ;       HGA2      CG321      CG311      CG321
   90    18    19    20	 9 ;       HGA2      CG321      CG311      CG321
   90    18    19    91	 9 ;       HGA2      CG321      CG311       HGA1
   18    19    24    23	 9 ;      CG321      CG311      CG321      CG321
   18    19    24   100	 9 ;      CG321      CG311      CG321       HGA2
   18    19    24   101	 9 ;      CG321      CG311      CG321       HGA2
   20    19    24    23	 9 ;      CG321      CG311      CG321      CG321
   20    19    24   100	 9 ;      CG321      CG311      CG321       HGA2
   20    19    24   101	 9 ;      CG321      CG311      CG321       HGA2
   91    19    24    23	 9 ;       HGA1      CG311      CG321      CG321
   91    19    24   100	 9 ;       HGA1      CG311      CG321       HGA2
   91    19    24   101	 9 ;       HGA1      CG311      CG321       HGA2
   18    19    20    21	 9 ;      CG321      CG311      CG321      CG321
   18    19    20    92	 9 ;      CG321      CG311      CG321       HGA2
   18    19    20    93	 9 ;      CG321      CG311      CG321       HGA2
   24    19    20    21	 9 ;      CG321      CG311      CG321      CG321
   24    19    20    92	 9 ;      CG321      CG311      CG321       HGA2
   24    19    20    93	 9 ;      CG321      CG311      CG321       HGA2
   91    19    20    21	 9 ;       HGA1      CG311      CG321      CG321
   91    19    20    92	 9 ;       HGA1      CG311      CG321       HGA2
   91    19    20    93	 9 ;       HGA1      CG311      CG321       HGA2
   19    20    21    22	 9 ;      CG311      CG321      CG321      CG321
   19    20    21    94	 9 ;      CG311      CG321      CG321       HGA2
   19    20    21    95	 9 ;      CG311      CG321      CG321       HGA2
   92    20    21    22	 9 ;       HGA2      CG321      CG321      CG321
   92    20    21    94	 9 ;       HGA2      CG321      CG321       HGA2
   92    20    21    95	 9 ;       HGA2      CG321      CG321       HGA2
   93    20    21    22	 9 ;       HGA2      CG321      CG321      CG321
   93    20    21    94	 9 ;       HGA2      CG321      CG321       HGA2
   93    20    21    95	 9 ;       HGA2      CG321      CG321       HGA2
   20    21    22    23	 9 ;      CG321      CG321      CG321      CG321
   20    21    22    96	 9 ;      CG321      CG321      CG321       HGA2
   20    21    22    97	 9 ;      CG321      CG321      CG321       HGA2
   94    21    22    23	 9 ;       HGA2      CG321      CG321      CG321
   94    21    22    96	 9 ;       HGA2      CG321      CG321       HGA2
   94    21    22    97	 9 ;       HGA2      CG321      CG321       HGA2
   95    21    22    23	 9 ;       HGA2      CG321      CG321      CG321
   95    21    22    96	 9 ;       HGA2      CG321      CG321       HGA2
   95    21    22    97	 9 ;       HGA2      CG321      CG321       HGA2
   21    22    23    24	 9 ;      CG321      CG321      CG321      CG321
   21    22    23    98	 9 ;      CG321      CG321      CG321       HGA2
   21    22    23    99	 9 ;      CG321      CG321      CG321       HGA2
   96    22    23    24	 9 ;       HGA2      CG321      CG321      CG321
   96    22    23    98	 9 ;       HGA2      CG321      CG321       HGA2
   96    22    23    99	 9 ;       HGA2      CG321      CG321       HGA2
   97    22    23    24	 9 ;       HGA2      CG321      CG321      CG321
   97    22    23    98	 9 ;       HGA2      CG321      CG321       HGA2
   97    22    23    99	 9 ;       HGA2      CG321      CG321       HGA2
   22    23    24    19	 9 ;      CG321      CG321      CG321      CG311
   22    23    24   100	 9 ;      CG321      CG321      CG321       HGA2
   22    23    24   101	 9 ;      CG321      CG321      CG321       HGA2
   98    23    24    19	 9 ;       HGA2      CG321      CG321      CG311
   98    23    24   100	 9 ;       HGA2      CG321      CG321       HGA2
   98    23    24   101	 9 ;       HGA2      CG321      CG321       HGA2
   99    23    24    19	 9 ;       HGA2      CG321      CG321      CG311
   99    23    24   100	 9 ;       HGA2      CG321      CG321       HGA2
   99    23    24   101	 9 ;       HGA2      CG321      CG321       HGA2
   31    25    26    27	 9 ;      OG2D1      CG2O1      NG2S0     CG3C51
   31    25    26    28	 9 ;      OG2D1      CG2O1      NG2S0     CG3C52
   17    25    26    27	 9 ;      CG311      CG2O1      NG2S0     CG3C51
   17    25    26    28	 9 ;      CG311      CG2O1      NG2S0     CG3C52
   25    26    27    32	 9 ;      CG2O1      NG2S0     CG3C51      CG2O2
   25    26    27    29	 9 ;      CG2O1      NG2S0     CG3C51     CG3C52
   25    26    27   102	 9 ;      CG2O1      NG2S0     CG3C51       HGA1
   28    26    27    32	 9 ;     CG3C52      NG2S0     CG3C51      CG2O2
   28    26    27    29	 9 ;     CG3C52      NG2S0     CG3C51     CG3C52
   28    26    27   102	 9 ;     CG3C52      NG2S0     CG3C51       HGA1
   27    26    28    30	 9 ;     CG3C51      NG2S0     CG3C52     CG3C52
   27    26    28   103	 9 ;     CG3C51      NG2S0     CG3C52       HGA2
   27    26    28   104	 9 ;     CG3C51      NG2S0     CG3C52       HGA2
   25    26    28    30	 9 ;      CG2O1      NG2S0     CG3C52     CG3C52
   25    26    28   103	 9 ;      CG2O1      NG2S0     CG3C52       HGA2
   25    26    28   104	 9 ;      CG2O1      NG2S0     CG3C52       HGA2
   29    27    32    34	 9 ;     CG3C52     CG3C51      CG2O2      OG302
   29    27    32    33	 9 ;     CG3C52     CG3C51      CG2O2      OG2D1
   26    27    32    34	 9 ;      NG2S0     CG3C51      CG2O2      OG302
   26    27    32    33	 9 ;      NG2S0     CG3C51      CG2O2      OG2D1
  102    27    32    34	 9 ;       HGA1     CG3C51      CG2O2      OG302
  102    27    32    33	 9 ;       HGA1     CG3C51      CG2O2      OG2D1
   32    27    29    30	 9 ;      CG2O2     CG3C51     CG3C52     CG3C52
   32    27    29   105	 9 ;      CG2O2     CG3C51     CG3C52       HGA2
   32    27    29   106	 9 ;      CG2O2     CG3C51     CG3C52       HGA2
   26    27    29    30	 9 ;      NG2S0     CG3C51     CG3C52     CG3C52
   26    27    29   105	 9 ;      NG2S0     CG3C51     CG3C52       HGA2
   26    27    29   106	 9 ;      NG2S0     CG3C51     CG3C52       HGA2
  102    27    29    30	 9 ;       HGA1     CG3C51     CG3C52     CG3C52
  102    27    29   105	 9 ;       HGA1     CG3C51     CG3C52       HGA2
  102    27    29   106	 9 ;       HGA1     CG3C51     CG3C52       HGA2
   26    28    30    29	 9 ;      NG2S0     CG3C52     CG3C52     CG3C52
   26    28    30   107	 9 ;      NG2S0     CG3C52     CG3C52       HGA2
   26    28    30   108	 9 ;      NG2S0     CG3C52     CG3C52       HGA2
  103    28    30    29	 9 ;       HGA2     CG3C52     CG3C52     CG3C52
  103    28    30   107	 9 ;       HGA2     CG3C52     CG3C52       HGA2
  103    28    30   108	 9 ;       HGA2     CG3C52     CG3C52       HGA2
  104    28    30    29	 9 ;       HGA2     CG3C52     CG3C52     CG3C52
  104    28    30   107	 9 ;       HGA2     CG3C52     CG3C52       HGA2
  104    28    30   108	 9 ;       HGA2     CG3C52     CG3C52       HGA2
   27    29    30    28	 9 ;     CG3C51     CG3C52     CG3C52     CG3C52
   27    29    30   107	 9 ;     CG3C51     CG3C52     CG3C52       HGA2
   27    29    30   108	 9 ;     CG3C51     CG3C52     CG3C52       HGA2
  105    29    30    28	 9 ;       HGA2     CG3C52     CG3C52     CG3C52
  105    29    30   107	 9 ;       HGA2     CG3C52     CG3C52       HGA2
  105    29    30   108	 9 ;       HGA2     CG3C52     CG3C52       HGA2
  106    29    30    28	 9 ;       HGA2     CG3C52     CG3C52     CG3C52
  106    29    30   107	 9 ;       HGA2     CG3C52     CG3C52       HGA2
  106    29    30   108	 9 ;       HGA2     CG3C52     CG3C52       HGA2
   33    32    34    35	 9 ;      OG2D1      CG2O2      OG302      CG331
   27    32    34    35	 9 ;     CG3C51      CG2O2      OG302      CG331
   32    34    35   109	 9 ;      CG2O2      OG302      CG331       HGA3
   32    34    35   110	 9 ;      CG2O2      OG302      CG331       HGA3
   32    34    35   111	 9 ;      CG2O2      OG302      CG331       HGA3
    6    36    37    39	 9 ;      CG311      CG321      CG311      CG331
    6    36    37    38	 9 ;      CG311      CG321      CG311      CG331
    6    36    37   114	 9 ;      CG311      CG321      CG311       HGA1
  112    36    37    39	 9 ;       HGA2      CG321      CG311      CG331
  112    36    37    38	 9 ;       HGA2      CG321      CG311      CG331
  112    36    37   114	 9 ;       HGA2      CG321      CG311       HGA1
  113    36    37    39	 9 ;       HGA2      CG321      CG311      CG331
  113    36    37    38	 9 ;       HGA2      CG321      CG311      CG331
  113    36    37   114	 9 ;       HGA2      CG321      CG311       HGA1
   38    37    39   118	 9 ;      CG331      CG311      CG331       HGA3
   38    37    39   119	 9 ;      CG331      CG311      CG331       HGA3
   38    37    39   120	 9 ;      CG331      CG311      CG331       HGA3
   36    37    39   118	 9 ;      CG321      CG311      CG331       HGA3
   36    37    39   119	 9 ;      CG321      CG311      CG331       HGA3
   36    37    39   120	 9 ;      CG321      CG311      CG331       HGA3
  114    37    39   118	 9 ;       HGA1      CG311      CG331       HGA3
  114    37    39   119	 9 ;       HGA1      CG311      CG331       HGA3
  114    37    39   120	 9 ;       HGA1      CG311      CG331       HGA3
   39    37    38   115	 9 ;      CG331      CG311      CG331       HGA3
   39    37    38   116	 9 ;      CG331      CG311      CG331       HGA3
   39    37    38   117	 9 ;      CG331      CG311      CG331       HGA3
   36    37    38   115	 9 ;      CG321      CG311      CG331       HGA3
   36    37    38   116	 9 ;      CG321      CG311      CG331       HGA3
   36    37    38   117	 9 ;      CG321      CG311      CG331       HGA3
  114    37    38   115	 9 ;       HGA1      CG311      CG331       HGA3
  114    37    38   116	 9 ;       HGA1      CG311      CG331       HGA3
  114    37    38   117	 9 ;       HGA1      CG311      CG331       HGA3
    1    40    77    78	 9 ;      CG321      CG311      OG311       HGP1
   41    40    77    78	 9 ;      CG311      CG311      OG311       HGP1
  121    40    77    78	 9 ;       HGA1      CG311      OG311       HGP1
    1    40    41    70	 9 ;      CG321      CG311      CG311      CG321
    1    40    41    42	 9 ;      CG321      CG311      CG311      NG2S1
    1    40    41   122	 9 ;      CG321      CG311      CG311       HGA1
   77    40    41    70	 9 ;      OG311      CG311      CG311      CG321
   77    40    41    42	 9 ;      OG311      CG311      CG311      NG2S1
   77    40    41   122	 9 ;      OG311      CG311      CG311       HGA1
  121    40    41    70	 9 ;       HGA1      CG311      CG311      CG321
  121    40    41    42	 9 ;       HGA1      CG311      CG311      NG2S1
  121    40    41   122	 9 ;       HGA1      CG311      CG311       HGA1
   40    41    70    71	 9 ;      CG311      CG311      CG321      CG311
   40    41    70   143	 9 ;      CG311      CG311      CG321       HGA2
   40    41    70   144	 9 ;      CG311      CG311      CG321       HGA2
   42    41    70    71	 9 ;      NG2S1      CG311      CG321      CG311
   42    41    70   143	 9 ;      NG2S1      CG311      CG321       HGA2
   42    41    70   144	 9 ;      NG2S1      CG311      CG321       HGA2
  122    41    70    71	 9 ;       HGA1      CG311      CG321      CG311
  122    41    70   143	 9 ;       HGA1      CG311      CG321       HGA2
  122    41    70   144	 9 ;       HGA1      CG311      CG321       HGA2
   40    41    42    43	 9 ;      CG311      CG311      NG2S1      CG2O1
   40    41    42    45	 9 ;      CG311      CG311      NG2S1       HGP1
   70    41    42    43	 9 ;      CG321      CG311      NG2S1      CG2O1
   70    41    42    45	 9 ;      CG321      CG311      NG2S1       HGP1
  122    41    42    43	 9 ;       HGA1      CG311      NG2S1      CG2O1
  122    41    42    45	 9 ;       HGA1      CG311      NG2S1       HGP1
   41    42    43    44	 9 ;      CG311      NG2S1      CG2O1      OG2D1
   41    42    43    46	 9 ;      CG311      NG2S1      CG2O1      CG311
   45    42    43    44	 9 ;       HGP1      NG2S1      CG2O1      OG2D1
   45    42    43    46	 9 ;       HGP1      NG2S1      CG2O1      CG311
   44    43    46    47	 9 ;      OG2D1      CG2O1      CG311      NG2S0
   44    43    46    63	 9 ;      OG2D1      CG2O1      CG311      CG321
   44    43    46   123	 9 ;      OG2D1      CG2O1      CG311       HGA1
   42    43    46    47	 9 ;      NG2S1      CG2O1      CG311      NG2S0
   42    43    46    63	 9 ;      NG2S1      CG2O1      CG311      CG321
   42    43    46   123	 9 ;      NG2S1      CG2O1      CG311       HGA1
   43    46    47    48	 9 ;      CG2O1      CG311      NG2S0      CG2O1
   43    46    47    50	 9 ;      CG2O1      CG311      NG2S0      CG331
   63    46    47    48	 9 ;      CG321      CG311      NG2S0      CG2O1
   63    46    47    50	 9 ;      CG321      CG311      NG2S0      CG331
  123    46    47    48	 9 ;       HGA1      CG311      NG2S0      CG2O1
  123    46    47    50	 9 ;       HGA1      CG311      NG2S0      CG331
   43    46    63    64	 9 ;      CG2O1      CG311      CG321      CG321
   43    46    63   139	 9 ;      CG2O1      CG311      CG321       HGA2
   43    46    63   140	 9 ;      CG2O1      CG311      CG321       HGA2
   47    46    63    64	 9 ;      NG2S0      CG311      CG321      CG321
   47    46    63   139	 9 ;      NG2S0      CG311      CG321       HGA2
   47    46    63   140	 9 ;      NG2S0      CG311      CG321       HGA2
  123    46    63    64	 9 ;       HGA1      CG311      CG321      CG321
  123    46    63   139	 9 ;       HGA1      CG311      CG321       HGA2
  123    46    63   140	 9 ;       HGA1      CG311      CG321       HGA2
   46    47    48    51	 9 ;      CG311      NG2S0      CG2O1      CG311
   46    47    48    49	 9 ;      CG311      NG2S0      CG2O1      OG2D1
   50    47    48    51	 9 ;      CG331      NG2S0      CG2O1      CG311
   50    47    48    49	 9 ;      CG331      NG2S0      CG2O1      OG2D1
   48    47    50   124	 9 ;      CG2O1      NG2S0      CG331       HGA3
   48    47    50   125	 9 ;      CG2O1      NG2S0      CG331       HGA3
   48    47    50   126	 9 ;      CG2O1      NG2S0      CG331       HGA3
   46    47    50   124	 9 ;      CG311      NG2S0      CG331       HGA3
   46    47    50   125	 9 ;      CG311      NG2S0      CG331       HGA3
   46    47    50   126	 9 ;      CG311      NG2S0      CG331       HGA3
   49    48    51    60	 9 ;      OG2D1      CG2O1      CG311      CG311
   49    48    51    52	 9 ;      OG2D1      CG2O1      CG311      NG2S1
   49    48    51   127	 9 ;      OG2D1      CG2O1      CG311       HGA1
   47    48    51    60	 9 ;      NG2S0      CG2O1      CG311      CG311
   47    48    51    52	 9 ;      NG2S0      CG2O1      CG311      NG2S1
   47    48    51   127	 9 ;      NG2S0      CG2O1      CG311       HGA1
   52    51    60    62	 9 ;      NG2S1      CG311      CG311      CG331
   52    51    60    61	 9 ;      NG2S1      CG311      CG311      CG331
   52    51    60   132	 9 ;      NG2S1      CG311      CG311       HGA1
   48    51    60    62	 9 ;      CG2O1      CG311      CG311      CG331
   48    51    60    61	 9 ;      CG2O1      CG311      CG311      CG331
   48    51    60   132	 9 ;      CG2O1      CG311      CG311       HGA1
  127    51    60    62	 9 ;       HGA1      CG311      CG311      CG331
  127    51    60    61	 9 ;       HGA1      CG311      CG311      CG331
  127    51    60   132	 9 ;       HGA1      CG311      CG311       HGA1
   60    51    52    55	 9 ;      CG311      CG311      NG2S1       HGP1
   60    51    52    53	 9 ;      CG311      CG311      NG2S1      CG2O1
   48    51    52    55	 9 ;      CG2O1      CG311      NG2S1       HGP1
   48    51    52    53	 9 ;      CG2O1      CG311      NG2S1      CG2O1
  127    51    52    55	 9 ;       HGA1      CG311      NG2S1       HGP1
  127    51    52    53	 9 ;       HGA1      CG311      NG2S1      CG2O1
   55    52    53    56	 9 ;       HGP1      NG2S1      CG2O1      CG311
   55    52    53    54	 9 ;       HGP1      NG2S1      CG2O1      OG2D1
   51    52    53    56	 9 ;      CG311      NG2S1      CG2O1      CG311
   51    52    53    54	 9 ;      CG311      NG2S1      CG2O1      OG2D1
   52    53    56    57	 9 ;      NG2S1      CG2O1      CG311      CG331
   52    53    56    58	 9 ;      NG2S1      CG2O1      CG311      OG311
   52    53    56   128	 9 ;      NG2S1      CG2O1      CG311       HGA1
   54    53    56    57	 9 ;      OG2D1      CG2O1      CG311      CG331
   54    53    56    58	 9 ;      OG2D1      CG2O1      CG311      OG311
   54    53    56   128	 9 ;      OG2D1      CG2O1      CG311       HGA1
   53    56    57   129	 9 ;      CG2O1      CG311      CG331       HGA3
   53    56    57   130	 9 ;      CG2O1      CG311      CG331       HGA3
   53    56    57   131	 9 ;      CG2O1      CG311      CG331       HGA3
   58    56    57   129	 9 ;      OG311      CG311      CG331       HGA3
   58    56    57   130	 9 ;      OG311      CG311      CG331       HGA3
   58    56    57   131	 9 ;      OG311      CG311      CG331       HGA3
  128    56    57   129	 9 ;       HGA1      CG311      CG331       HGA3
  128    56    57   130	 9 ;       HGA1      CG311      CG331       HGA3
  128    56    57   131	 9 ;       HGA1      CG311      CG331       HGA3
   57    56    58    59	 9 ;      CG331      CG311      OG311       HGP1
   53    56    58    59	 9 ;      CG2O1      CG311      OG311       HGP1
  128    56    58    59	 9 ;       HGA1      CG311      OG311       HGP1
   61    60    62   136	 9 ;      CG331      CG311      CG331       HGA3
   61    60    62   137	 9 ;      CG331      CG311      CG331       HGA3
   61    60    62   138	 9 ;      CG331      CG311      CG331       HGA3
   51    60    62   136	 9 ;      CG311      CG311      CG331       HGA3
   51    60    62   137	 9 ;      CG311      CG311      CG331       HGA3
   51    60    62   138	 9 ;      CG311      CG311      CG331       HGA3
  132    60    62   136	 9 ;       HGA1      CG311      CG331       HGA3
  132    60    62   137	 9 ;       HGA1      CG311      CG331       HGA3
  132    60    62   138	 9 ;       HGA1      CG311      CG331       HGA3
   62    60    61   133	 9 ;      CG331      CG311      CG331       HGA3
   62    60    61   134	 9 ;      CG331      CG311      CG331       HGA3
   62    60    61   135	 9 ;      CG331      CG311      CG331       HGA3
   51    60    61   133	 9 ;      CG311      CG311      CG331       HGA3
   51    60    61   134	 9 ;      CG311      CG311      CG331       HGA3
   51    60    61   135	 9 ;      CG311      CG311      CG331       HGA3
  132    60    61   133	 9 ;       HGA1      CG311      CG331       HGA3
  132    60    61   134	 9 ;       HGA1      CG311      CG331       HGA3
  132    60    61   135	 9 ;       HGA1      CG311      CG331       HGA3
   46    63    64    65	 9 ;      CG311      CG321      CG321      CG2O1
   46    63    64   141	 9 ;      CG311      CG321      CG321       HGA2
   46    63    64   142	 9 ;      CG311      CG321      CG321       HGA2
  139    63    64    65	 9 ;       HGA2      CG321      CG321      CG2O1
  139    63    64   141	 9 ;       HGA2      CG321      CG321       HGA2
  139    63    64   142	 9 ;       HGA2      CG321      CG321       HGA2
  140    63    64    65	 9 ;       HGA2      CG321      CG321      CG2O1
  140    63    64   141	 9 ;       HGA2      CG321      CG321       HGA2
  140    63    64   142	 9 ;       HGA2      CG321      CG321       HGA2
   63    64    65    67	 9 ;      CG321      CG321      CG2O1      NG2S2
   63    64    65    66	 9 ;      CG321      CG321      CG2O1      OG2D1
  141    64    65    67	 9 ;       HGA2      CG321      CG2O1      NG2S2
  141    64    65    66	 9 ;       HGA2      CG321      CG2O1      OG2D1
  142    64    65    67	 9 ;       HGA2      CG321      CG2O1      NG2S2
  142    64    65    66	 9 ;       HGA2      CG321      CG2O1      OG2D1
   64    65    67    68	 9 ;      CG321      CG2O1      NG2S2       HGP1
   64    65    67    69	 9 ;      CG321      CG2O1      NG2S2       HGP1
   66    65    67    68	 9 ;      OG2D1      CG2O1      NG2S2       HGP1
   66    65    67    69	 9 ;      OG2D1      CG2O1      NG2S2       HGP1
   41    70    71    72	 9 ;      CG311      CG321      CG311      CG321
   41    70    71    76	 9 ;      CG311      CG321      CG311      CG321
   41    70    71   145	 9 ;      CG311      CG321      CG311       HGA1
  143    70    71    72	 9 ;       HGA2      CG321      CG311      CG321
  143    70    71    76	 9 ;       HGA2      CG321      CG311      CG321
  143    70    71   145	 9 ;       HGA2      CG321      CG311       HGA1
  144    70    71    72	 9 ;       HGA2      CG321      CG311      CG321
  144    70    71    76	 9 ;       HGA2      CG321      CG311      CG321
  144    70    71   145	 9 ;       HGA2      CG321      CG311       HGA1
   76    71    72    73	 9 ;      CG321      CG311      CG321      CG321
   76    71    72   146	 9 ;      CG321      CG311      CG321       HGA2
   76    71    72   147	 9 ;      CG321      CG311      CG321       HGA2
   70    71    72    73	 9 ;      CG321      CG311      CG321      CG321
   70    71    72   146	 9 ;      CG321      CG311      CG321       HGA2
   70    71    72   147	 9 ;      CG321      CG311      CG321       HGA2
  145    71    72    73	 9 ;       HGA1      CG311      CG321      CG321
  145    71    72   146	 9 ;       HGA1      CG311      CG321       HGA2
  145    71    72   147	 9 ;       HGA1      CG311      CG321       HGA2
   72    71    76    75	 9 ;      CG321      CG311      CG321      CG321
   72    71    76   154	 9 ;      CG321      CG311      CG321       HGA2
   72    71    76   155	 9 ;      CG321      CG311      CG321       HGA2
   70    71    76    75	 9 ;      CG321      CG311      CG321      CG321
   70    71    76   154	 9 ;      CG321      CG311      CG321       HGA2
   70    71    76   155	 9 ;      CG321      CG311      CG321       HGA2
  145    71    76    75	 9 ;       HGA1      CG311      CG321      CG321
  145    71    76   154	 9 ;       HGA1      CG311      CG321       HGA2
  145    71    76   155	 9 ;       HGA1      CG311      CG321       HGA2
   71    72    73    74	 9 ;      CG311      CG321      CG321      CG321
   71    72    73   148	 9 ;      CG311      CG321      CG321       HGA2
   71    72    73   149	 9 ;      CG311      CG321      CG321       HGA2
  146    72    73    74	 9 ;       HGA2      CG321      CG321      CG321
  146    72    73   148	 9 ;       HGA2      CG321      CG321       HGA2
  146    72    73   149	 9 ;       HGA2      CG321      CG321       HGA2
  147    72    73    74	 9 ;       HGA2      CG321      CG321      CG321
  147    72    73   148	 9 ;       HGA2      CG321      CG321       HGA2
  147    72    73   149	 9 ;       HGA2      CG321      CG321       HGA2
   72    73    74    75	 9 ;      CG321      CG321      CG321      CG321
   72    73    74   150	 9 ;      CG321      CG321      CG321       HGA2
   72    73    74   151	 9 ;      CG321      CG321      CG321       HGA2
  148    73    74    75	 9 ;       HGA2      CG321      CG321      CG321
  148    73    74   150	 9 ;       HGA2      CG321      CG321       HGA2
  148    73    74   151	 9 ;       HGA2      CG321      CG321       HGA2
  149    73    74    75	 9 ;       HGA2      CG321      CG321      CG321
  149    73    74   150	 9 ;       HGA2      CG321      CG321       HGA2
  149    73    74   151	 9 ;       HGA2      CG321      CG321       HGA2
   73    74    75    76	 9 ;      CG321      CG321      CG321      CG321
   73    74    75   152	 9 ;      CG321      CG321      CG321       HGA2
   73    74    75   153	 9 ;      CG321      CG321      CG321       HGA2
  150    74    75    76	 9 ;       HGA2      CG321      CG321      CG321
  150    74    75   152	 9 ;       HGA2      CG321      CG321       HGA2
  150    74    75   153	 9 ;       HGA2      CG321      CG321       HGA2
  151    74    75    76	 9 ;       HGA2      CG321      CG321      CG321
  151    74    75   152	 9 ;       HGA2      CG321      CG321       HGA2
  151    74    75   153	 9 ;       HGA2      CG321      CG321       HGA2
   74    75    76    71	 9 ;      CG321      CG321      CG321      CG311
   74    75    76   154	 9 ;      CG321      CG321      CG321       HGA2
   74    75    76   155	 9 ;      CG321      CG321      CG321       HGA2
  152    75    76    71	 9 ;       HGA2      CG321      CG321      CG311
  152    75    76   154	 9 ;       HGA2      CG321      CG321       HGA2
  152    75    76   155	 9 ;       HGA2      CG321      CG321       HGA2
  153    75    76    71	 9 ;       HGA2      CG321      CG321      CG311
  153    75    76   154	 9 ;       HGA2      CG321      CG321       HGA2
  153    75    76   155	 9 ;       HGA2      CG321      CG321       HGA2

[ dihedrals ]
;	ai	  aj	ak	  al funct			  c0			c1			  c2			c3
    2     1     3     5	 2
    7     6     8    10	 2
   13    11    14    16	 2
   25    17    26    31	 2
   32    27    33    34	 2
   43    46    42    44	 2
   48    51    47    49	 2
   53    56    52    54	 2
   65    64    67    66	 2

