Gromacs Runs On Most of All Computer Systems
   58
    1LIG     C1    1  -1.372   0.256  -1.644
    1LIG     C2    2  -1.465   0.326  -1.542
    1LIG     C3    3  -1.615   0.331  -1.562
    1LIG     C4    4  -1.703   0.397  -1.477
    1LIG     C5    5  -1.841   0.388  -1.497
    1LIG     C6    6  -1.892   0.313  -1.603
    1LIG     C7    7  -1.806   0.250  -1.691
    1LIG     C8    8  -1.668   0.259  -1.671
    1LIG     N1    9  -1.308   0.351  -1.737
    1LIG     H1   10  -1.336   0.334  -1.834
    1LIG     C9   11  -1.286   0.484  -1.705
    1LIG     N2   12  -1.169   0.526  -1.664
    1LIG    C10   13  -1.161   0.671  -1.626
    1LIG    HN1   14  -1.089   0.464  -1.658
    1LIG    C11   15  -1.281   0.702  -1.534
    1LIG    C12   16  -1.033   0.696  -1.545
    1LIG    C13   17  -1.152   0.759  -1.753
    1LIG    C14   18  -1.405   0.684  -1.617
    1LIG    C15   19  -1.405   0.578  -1.710
    1LIG    C16   20  -1.509   0.777  -1.615
    1LIG    C17   21  -1.506   0.570  -1.806
    1LIG    C18   22  -1.607   0.667  -1.806
    1LIG    C19   23  -1.609   0.768  -1.710
    1LIG    CL1   24  -1.733   0.888  -1.713
    1LIG    C20   25  -1.260   0.187  -1.561
    1LIG     N3   26  -1.146   0.156  -1.614
    1LIG    C21   27  -1.054   0.095  -1.534
    1LIG    HN2   28  -1.126   0.176  -1.712
    1LIG    C22   29  -1.074   0.060  -1.406
    1LIG    CL2   30  -0.955  -0.017  -1.311
    1LIG    C23   31  -1.208   0.089  -1.349
    1LIG     N4   32  -1.292   0.159  -1.431
    1LIG      O   33  -1.242   0.052  -1.237
    1LIG     H2   34  -1.388   0.171  -1.400
    1LIG     HC   35  -1.428   0.181  -1.700
    1LIG    HC2   36  -1.432   0.429  -1.536
    1LIG    HC3   37  -1.447   0.280  -1.445
    1LIG    HC1   38  -1.664   0.456  -1.395
    1LIG    HC4   39  -1.908   0.438  -1.430
    1LIG    HC5   40  -1.999   0.305  -1.617
    1LIG    HC6   41  -1.845   0.194  -1.775
    1LIG    HC7   42  -1.601   0.211  -1.741
    1LIG    HC8   43  -1.283   0.634  -1.449
    1LIG    HC9   44  -1.275   0.805  -1.499
    1LIG   HC10   45  -1.035   0.636  -1.454
    1LIG   HC11   46  -1.027   0.802  -1.519
    1LIG   HC12   47  -0.946   0.669  -1.605
    1LIG   HC13   48  -1.241   0.744  -1.814
    1LIG   HC14   49  -1.145   0.864  -1.724
    1LIG   HC15   50  -1.064   0.731  -1.810
    1LIG   HC16   51  -1.512   0.854  -1.539
    1LIG   HC17   52  -1.505   0.490  -1.879
    1LIG   HC18   53  -1.684   0.663  -1.882
    1LIG   HC19   54  -1.221   0.284  -1.532
    1LIG   HC20   55  -0.957   0.073  -1.577
    1LIG    H26   56  -1.261   0.508  -1.808
    1LIG    LP1   57  -1.851   1.002  -1.716
    1LIG    LP2   58  -0.840  -0.091  -1.220
   0.00000   0.00000   0.00000
