S  C  A  M  O  R  G
   91
    1LIG     C1    1  -1.314   0.570  -1.828
    1LIG     N1    2  -1.447   0.565  -1.890
    1LIG     C2    3  -1.553   0.478  -1.880
    1LIG     O1    4  -1.631   0.477  -1.976
    1LIG     H1    5  -1.459   0.610  -1.980
    1LIG     C3    6  -1.578   0.390  -1.764
    1LIG     C4    7  -1.479   0.305  -1.715
    1LIG     C5    8  -1.504   0.215  -1.612
    1LIG     C6    9  -1.628   0.228  -1.545
    1LIG     C7   10  -1.724   0.323  -1.582
    1LIG     C8   11  -1.700   0.401  -1.696
    1LIG     C9   12  -1.847   0.346  -1.499
    1LIG    C10   13  -1.413   0.104  -1.567
    1LIG     O2   14  -1.433  -0.006  -1.620
    1LIG     N2   15  -1.303   0.119  -1.480
    1LIG    C11   16  -1.273   0.228  -1.388
    1LIG    C12   17  -1.138   0.297  -1.416
    1LIG    C13   18  -1.138   0.370  -1.550
    1LIG    C14   19  -1.212   0.004  -1.469
    1LIG    C15   20  -1.250  -0.090  -1.354
    1LIG    C16   21  -1.238  -0.235  -1.398
    1LIG    C17   22  -1.200   0.518  -1.919
    1LIG    C18   23  -1.221   0.377  -1.972
    1LIG    C19   24  -1.249   0.352  -2.108
    1LIG    C20   25  -1.273   0.222  -2.152
    1LIG     F1   26  -1.304   0.201  -2.281
    1LIG    C21   27  -1.268   0.114  -2.065
    1LIG    C22   28  -1.236   0.138  -1.932
    1LIG    C23   29  -1.212   0.267  -1.886
    1LIG     F2   30  -1.230   0.036  -1.846
    1LIG    C24   31  -1.285   0.709  -1.761
    1LIG     O3   32  -1.227   0.694  -1.630
    1LIG     H2   33  -1.202   0.600  -1.617
    1LIG    C25   34  -1.400   0.814  -1.749
    1LIG     N3   35  -1.333   0.947  -1.718
    1LIG    C26   36  -1.425   1.062  -1.694
    1LIG     H3   37  -1.273   0.932  -1.635
    1LIG     H4   38  -1.268   0.972  -1.794
    1LIG    C27   39  -1.517   1.030  -1.577
    1LIG    C28   40  -1.595   0.900  -1.603
    1LIG    C29   41  -1.498   0.785  -1.635
    1LIG    C30   42  -1.683   0.860  -1.483
    1LIG    C31   43  -1.625   0.748  -1.401
    1LIG    C32   44  -1.701   0.649  -1.354
    1LIG    C33   45  -1.649   0.540  -1.273
    1LIG    C34   46  -1.717   0.476  -1.177
    1LIG    C35   47  -1.857   0.499  -1.130
    1LIG     HC   48  -1.318   0.500  -1.745
    1LIG    HC1   49  -1.380   0.310  -1.758
    1LIG    HC2   50  -1.649   0.161  -1.462
    1LIG    HC3   51  -1.776   0.470  -1.731
    1LIG    HC4   52  -1.351   0.303  -1.397
    1LIG    HC5   53  -1.272   0.189  -1.286
    1LIG    HC6   54  -1.060   0.221  -1.417
    1LIG    HC7   55  -1.117   0.368  -1.336
    1LIG    HC8   56  -1.215  -0.052  -1.562
    1LIG    HC9   57  -1.111   0.041  -1.452
    1LIG   HC10   58  -1.184  -0.072  -1.270
    1LIG   HC11   59  -1.353  -0.069  -1.324
    1LIG   HC12   60  -1.191   0.586  -2.004
    1LIG   HC13   61  -1.106   0.521  -1.863
    1LIG   HC14   62  -1.253   0.434  -2.178
    1LIG   HC15   63  -1.289   0.013  -2.099
    1LIG   HC16   64  -1.185   0.283  -1.782
    1LIG   HC17   65  -1.207   0.757  -1.822
    1LIG   HC18   66  -1.454   0.820  -1.844
    1LIG   HC19   67  -1.485   1.079  -1.783
    1LIG   HC20   68  -1.367   1.151  -1.671
    1LIG   HC21   69  -1.456   1.018  -1.487
    1LIG   HC22   70  -1.587   1.112  -1.563
    1LIG   HC23   71  -1.659   0.916  -1.689
    1LIG   HC24   72  -1.441   0.763  -1.545
    1LIG   HC25   73  -1.557   0.697  -1.661
    1LIG   HC26   74  -1.780   0.828  -1.521
    1LIG   HC27   75  -1.697   0.947  -1.419
    1LIG   HC28   76  -1.519   0.748  -1.381
    1LIG   HC29   77  -1.807   0.649  -1.376
    1LIG   HC30   78  -1.548   0.509  -1.293
    1LIG   HC31   79  -1.663   0.397  -1.127
    1LIG   HC32   80  -1.100   0.303  -1.628
    1LIG   HC33   81  -1.073   0.457  -1.543
    1LIG   HC34   82  -1.239   0.401  -1.574
    1LIG   HC35   83  -1.266  -0.300  -1.315
    1LIG   HC36   84  -1.135  -0.255  -1.428
    1LIG   HC37   85  -1.305  -0.253  -1.482
    1LIG   HC38   86  -1.881   0.429  -1.050
    1LIG   HC39   87  -1.926   0.484  -1.213
    1LIG   HC40   88  -1.867   0.601  -1.093
    1LIG   HC41   89  -1.847   0.276  -1.415
    1LIG   HC42   90  -1.847   0.448  -1.461
    1LIG   HC43   91  -1.935   0.329  -1.560
   0.00000   0.00000   0.00000
