S  C  A  M  O  R  G
   75
    1LIG      S    1  -1.666   0.953  -1.489
    1LIG     O1    2  -1.710   0.851  -1.397
    1LIG     O2    3  -1.645   1.091  -1.447
    1LIG     C1    4  -1.518   0.893  -1.569
    1LIG     C2    5  -1.547   0.762  -1.642
    1LIG     C3    6  -1.662   0.776  -1.745
    1LIG     C4    7  -1.801   0.818  -1.682
    1LIG     C5    8  -1.788   0.956  -1.618
    1LIG     C6    9  -1.421   0.687  -1.692
    1LIG     C7   10  -1.418   0.541  -1.730
    1LIG     C8   11  -1.365   0.443  -1.643
    1LIG     C9   12  -1.330   0.313  -1.687
    1LIG    C10   13  -1.349   0.281  -1.824
    1LIG    C11   14  -1.406   0.378  -1.908
    1LIG     F1   15  -1.420   0.351  -2.039
    1LIG    C12   16  -1.443   0.504  -1.863
    1LIG    C13   17  -1.259   0.213  -1.596
    1LIG    C14   18  -1.106   0.224  -1.575
    1LIG    C15   19  -1.041   0.085  -1.600
    1LIG     F2   20  -0.943   0.087  -1.693
    1LIG     F3   21  -0.987   0.033  -1.487
    1LIG     F4   22  -1.135  -0.003  -1.642
    1LIG     O3   23  -1.052   0.325  -1.663
    1LIG    C16   24  -0.998   0.437  -1.594
    1LIG     N1   25  -1.289   0.168  -1.884
    1LIG     H1   26  -1.189   0.162  -1.867
    1LIG     H2   27  -1.314   0.146  -1.979
    1LIG     O4   28  -1.628   0.865  -1.851
    1LIG     H3   29  -1.561   0.931  -1.828
    1LIG     N2   30  -1.850   0.710  -1.586
    1LIG     H4   31  -1.796   0.714  -1.499
    1LIG     H5   32  -1.949   0.728  -1.562
    1LIG    C17   33  -1.856   0.564  -1.626
    1LIG    C18   34  -1.771   0.472  -1.544
    1LIG    C19   35  -1.727   0.510  -1.416
    1LIG    C20   36  -1.654   0.421  -1.334
    1LIG    C21   37  -1.621   0.296  -1.390
    1LIG    C22   38  -1.659   0.260  -1.519
    1LIG    C23   39  -1.736   0.347  -1.595
    1LIG    C24   40  -1.629   0.450  -1.185
    1LIG    C25   41  -1.706   0.580  -1.155
    1LIG    C26   42  -1.681   0.338  -1.092
    1LIG    C27   43  -1.481   0.473  -1.149
    1LIG     H6   44  -1.483   0.966  -1.639
    1LIG     H7   45  -1.443   0.876  -1.495
    1LIG     H8   46  -1.586   0.695  -1.568
    1LIG     H9   47  -1.674   0.677  -1.785
    1LIG    H10   48  -1.875   0.827  -1.758
    1LIG    H11   49  -1.883   0.984  -1.576
    1LIG    H12   50  -1.758   1.026  -1.693
    1LIG    H13   51  -1.388   0.740  -1.778
    1LIG    H14   52  -1.362   0.685  -1.602
    1LIG    H15   53  -1.351   0.467  -1.544
    1LIG    H16   54  -1.488   0.571  -1.927
    1LIG    H17   55  -1.278   0.116  -1.635
    1LIG    H18   56  -1.298   0.236  -1.499
    1LIG    H19   57  -1.084   0.254  -1.475
    1LIG    H20   58  -0.959   0.507  -1.665
    1LIG    H21   59  -0.918   0.404  -1.530
    1LIG    H22   60  -1.074   0.483  -1.535
    1LIG    H23   61  -1.825   0.556  -1.728
    1LIG    H24   62  -1.958   0.533  -1.610
    1LIG    H25   63  -1.747   0.605  -1.381
    1LIG    H26   64  -1.566   0.229  -1.333
    1LIG    H27   65  -1.630   0.169  -1.558
    1LIG    H28   66  -1.767   0.319  -1.690
    1LIG    H29   67  -1.671   0.658  -1.219
    1LIG    H30   68  -1.690   0.608  -1.053
    1LIG    H31   69  -1.810   0.564  -1.171
    1LIG    H32   70  -1.784   0.318  -1.113
    1LIG    H33   71  -1.671   0.369  -0.990
    1LIG    H34   72  -1.623   0.249  -1.107
    1LIG    H35   73  -1.440   0.550  -1.211
    1LIG    H36   74  -1.426   0.382  -1.163
    1LIG    H37   75  -1.474   0.503  -1.046
   0.00000   0.00000   0.00000
