; Created by cgenff_charmm2gmx.py

[ moleculetype ]
; Name			   nrexcl
LIG				 3

[ atoms ]
;	 nr		  type	resnr residue  atom   cgnr	   charge		mass  typeB    chargeB		massB
; residue	 1 LIG rtp LIG q	qsum
     1      SG3O2      1    LIG      S      1      0.113     32.060   ;
     2      OG2P1      1    LIG     O1      2     -0.300     15.999   ;
     3      OG2P1      1    LIG     O2      3     -0.300     15.999   ;
     4      CG321      1    LIG     C1      4      0.180     12.011   ;
     5      CG311      1    LIG     C2      5     -0.145     12.011   ;
     6      CG311      1    LIG     C3      6      0.100     12.011   ;
     7      CG314      1    LIG     C4      7     -0.043     12.011   ;
     8      CG321      1    LIG     C5      8      0.224     12.011   ;
     9      CG321      1    LIG     C6      9     -0.108     12.011   ;
    10     CG2R61      1    LIG     C7     10      0.007     12.011   ;
    11     CG2R61      1    LIG     C8     11     -0.115     12.011   ;
    12     CG2R61      1    LIG     C9     12      0.025     12.011   ;
    13     CG2R61      1    LIG    C10     13      0.140     12.011   ;
    14     CG2R66      1    LIG    C11     14      0.006     12.011   ;
    15       FGR1      1    LIG     F1     15     -0.230     18.998   ;
    16     CG2R61      1    LIG    C12     16     -0.121     12.011   ;
    17      CG321      1    LIG    C13     17     -0.202     12.011   ;
    18      CG311      1    LIG    C14     18      0.321     12.011   ;
    19      CG302      1    LIG    C15     19      0.185     12.011   ;
    20       FGA3      1    LIG     F2     20     -0.115     18.998   ;
    21       FGA3      1    LIG     F3     21     -0.115     18.998   ;
    22       FGA3      1    LIG     F4     22     -0.115     18.998   ;
    23      OG301      1    LIG     O3     23     -0.402     15.999   ;
    24      CG331      1    LIG    C16     24     -0.091     12.011   ;
    25      NG2S3      1    LIG     N1     25     -0.742     14.007   ;
    26       HGP4      1    LIG     H1     26      0.357      1.008   ;
    27       HGP4      1    LIG     H2     27      0.357      1.008   ;
    28      OG311      1    LIG     O4     28     -0.595     15.999   ;
    29       HGP1      1    LIG     H3     29      0.422      1.008   ;
    30      NG3P2      1    LIG     N2     30     -0.444     14.007   ;
    31       HGP2      1    LIG     H4     31      0.346      1.008   ;
    32       HGP2      1    LIG     H5     32      0.346      1.008   ;
    33      CG324      1    LIG    C17     33      0.178     12.011   ;
    34     CG2R61      1    LIG    C18     34      0.036     12.011   ;
    35     CG2R61      1    LIG    C19     35     -0.124     12.011   ;
    36     CG2R61      1    LIG    C20     36      0.084     12.011   ;
    37     CG2R61      1    LIG    C21     37     -0.121     12.011   ;
    38     CG2R61      1    LIG    C22     38     -0.108     12.011   ;
    39     CG2R61      1    LIG    C23     39     -0.119     12.011   ;
    40      CG301      1    LIG    C24     40     -0.018     12.011   ;
    41      CG331      1    LIG    C25     41     -0.289     12.011   ;
    42      CG331      1    LIG    C26     42     -0.289     12.011   ;
    43      CG331      1    LIG    C27     43     -0.289     12.011   ;
    44       HGA2      1    LIG     H6     44      0.090      1.008   ;
    45       HGA2      1    LIG     H7     45      0.090      1.008   ;
    46       HGA1      1    LIG     H8     46      0.090      1.008   ;
    47       HGA1      1    LIG     H9     47      0.090      1.008   ;
    48       HGA1      1    LIG    H10     48      0.109      1.008   ;
    49       HGA2      1    LIG    H11     49      0.090      1.008   ;
    50       HGA2      1    LIG    H12     50      0.090      1.008   ;
    51       HGA2      1    LIG    H13     51      0.090      1.008   ;
    52       HGA2      1    LIG    H14     52      0.090      1.008   ;
    53      HGR61      1    LIG    H15     53      0.116      1.008   ;
    54      HGR62      1    LIG    H16     54      0.174      1.008   ;
    55       HGA2      1    LIG    H17     55      0.090      1.008   ;
    56       HGA2      1    LIG    H18     56      0.090      1.008   ;
    57       HGA1      1    LIG    H19     57      0.090      1.008   ;
    58       HGA3      1    LIG    H20     58      0.090      1.008   ;
    59       HGA3      1    LIG    H21     59      0.090      1.008   ;
    60       HGA3      1    LIG    H22     60      0.090      1.008   ;
    61       HGA2      1    LIG    H23     61      0.090      1.008   ;
    62       HGA2      1    LIG    H24     62      0.090      1.008   ;
    63      HGR61      1    LIG    H25     63      0.116      1.008   ;
    64      HGR61      1    LIG    H26     64      0.116      1.008   ;
    65      HGR61      1    LIG    H27     65      0.116      1.008   ;
    66      HGR61      1    LIG    H28     66      0.116      1.008   ;
    67       HGA3      1    LIG    H29     67      0.090      1.008   ;
    68       HGA3      1    LIG    H30     68      0.090      1.008   ;
    69       HGA3      1    LIG    H31     69      0.090      1.008   ;
    70       HGA3      1    LIG    H32     70      0.090      1.008   ;
    71       HGA3      1    LIG    H33     71      0.090      1.008   ;
    72       HGA3      1    LIG    H34     72      0.090      1.008   ;
    73       HGA3      1    LIG    H35     73      0.090      1.008   ;
    74       HGA3      1    LIG    H36     74      0.090      1.008   ;
    75       HGA3      1    LIG    H37     75      0.090      1.008   ;

[ bonds ]
;	ai	  aj funct			  c0			c1			  c2			c3
    1     8	 1 ;       SG3O2      CG321
    1     4	 1 ;       SG3O2      CG321
    1     3	 1 ;       SG3O2      OG2P1
    1     2	 1 ;       SG3O2      OG2P1
    4     5	 1 ;       CG321      CG311
    4    44	 1 ;       CG321       HGA2
    4    45	 1 ;       CG321       HGA2
    5     6	 1 ;       CG311      CG311
    5     9	 1 ;       CG311      CG321
    5    46	 1 ;       CG311       HGA1
    6    28	 1 ;       CG311      OG311
    6     7	 1 ;       CG311      CG314
    6    47	 1 ;       CG311       HGA1
    7     8	 1 ;       CG314      CG321
    7    30	 1 ;       CG314      NG3P2
    7    48	 1 ;       CG314       HGA1
    8    49	 1 ;       CG321       HGA2
    8    50	 1 ;       CG321       HGA2
    9    10	 1 ;       CG321     CG2R61
    9    51	 1 ;       CG321       HGA2
    9    52	 1 ;       CG321       HGA2
   10    16	 1 ;      CG2R61     CG2R61
   10    11	 1 ;      CG2R61     CG2R61
   11    12	 1 ;      CG2R61     CG2R61
   11    53	 1 ;      CG2R61      HGR61
   12    13	 1 ;      CG2R61     CG2R61
   12    17	 1 ;      CG2R61      CG321
   13    14	 1 ;      CG2R61     CG2R66
   13    25	 1 ;      CG2R61      NG2S3
   14    15	 1 ;      CG2R66       FGR1
   14    16	 1 ;      CG2R66     CG2R61
   16    54	 1 ;      CG2R61      HGR62
   17    18	 1 ;       CG321      CG311
   17    55	 1 ;       CG321       HGA2
   17    56	 1 ;       CG321       HGA2
   18    23	 1 ;       CG311      OG301
   18    19	 1 ;       CG311      CG302
   18    57	 1 ;       CG311       HGA1
   19    20	 1 ;       CG302       FGA3
   19    22	 1 ;       CG302       FGA3
   19    21	 1 ;       CG302       FGA3
   23    24	 1 ;       OG301      CG331
   24    58	 1 ;       CG331       HGA3
   24    59	 1 ;       CG331       HGA3
   24    60	 1 ;       CG331       HGA3
   25    27	 1 ;       NG2S3       HGP4
   25    26	 1 ;       NG2S3       HGP4
   28    29	 1 ;       OG311       HGP1
   30    33	 1 ;       NG3P2      CG324
   30    32	 1 ;       NG3P2       HGP2
   30    31	 1 ;       NG3P2       HGP2
   33    34	 1 ;       CG324     CG2R61
   33    61	 1 ;       CG324       HGA2
   33    62	 1 ;       CG324       HGA2
   34    39	 1 ;      CG2R61     CG2R61
   34    35	 1 ;      CG2R61     CG2R61
   35    36	 1 ;      CG2R61     CG2R61
   35    63	 1 ;      CG2R61      HGR61
   36    37	 1 ;      CG2R61     CG2R61
   36    40	 1 ;      CG2R61      CG301
   37    38	 1 ;      CG2R61     CG2R61
   37    64	 1 ;      CG2R61      HGR61
   38    39	 1 ;      CG2R61     CG2R61
   38    65	 1 ;      CG2R61      HGR61
   39    66	 1 ;      CG2R61      HGR61
   40    41	 1 ;       CG301      CG331
   40    43	 1 ;       CG301      CG331
   40    42	 1 ;       CG301      CG331
   41    67	 1 ;       CG331       HGA3
   41    68	 1 ;       CG331       HGA3
   41    69	 1 ;       CG331       HGA3
   42    70	 1 ;       CG331       HGA3
   42    71	 1 ;       CG331       HGA3
   42    72	 1 ;       CG331       HGA3
   43    73	 1 ;       CG331       HGA3
   43    74	 1 ;       CG331       HGA3
   43    75	 1 ;       CG331       HGA3

[ pairs ]
;	ai	  aj funct			  c0			c1			  c2			c3
    1     6	 1
    1     9	 1
    1    46	 1
    1    30	 1
    1    48	 1
    2     7	 1
    2    49	 1
    2    50	 1
    2     5	 1
    2    44	 1
    2    45	 1
    3     7	 1
    3    49	 1
    3    50	 1
    3     5	 1
    3    44	 1
    3    45	 1
    4     7	 1
    4    49	 1
    4    50	 1
    4    28	 1
    4    47	 1
    4    10	 1
    4    51	 1
    4    52	 1
    5     8	 1
    5    29	 1
    5    30	 1
    5    48	 1
    5    16	 1
    5    11	 1
    6    44	 1
    6    45	 1
    6    10	 1
    6    51	 1
    6    52	 1
    6    49	 1
    6    50	 1
    6    33	 1
    6    32	 1
    6    31	 1
    7     9	 1
    7    46	 1
    7    29	 1
    7    34	 1
    7    61	 1
    7    62	 1
    8    44	 1
    8    45	 1
    8    28	 1
    8    47	 1
    8    33	 1
    8    32	 1
    8    31	 1
    9    44	 1
    9    45	 1
    9    28	 1
    9    47	 1
    9    14	 1
    9    54	 1
    9    12	 1
    9    53	 1
   10    46	 1
   10    13	 1
   10    17	 1
   10    15	 1
   11    51	 1
   11    52	 1
   11    14	 1
   11    54	 1
   11    25	 1
   11    18	 1
   11    55	 1
   11    56	 1
   12    16	 1
   12    15	 1
   12    27	 1
   12    26	 1
   12    23	 1
   12    19	 1
   12    57	 1
   13    53	 1
   13    18	 1
   13    55	 1
   13    56	 1
   13    54	 1
   14    17	 1
   14    27	 1
   14    26	 1
   15    25	 1
   15    54	 1
   16    51	 1
   16    52	 1
   16    53	 1
   16    25	 1
   17    53	 1
   17    25	 1
   17    24	 1
   17    20	 1
   17    22	 1
   17    21	 1
   18    58	 1
   18    59	 1
   18    60	 1
   19    55	 1
   19    56	 1
   19    24	 1
   20    23	 1
   20    57	 1
   21    23	 1
   21    57	 1
   22    23	 1
   22    57	 1
   23    55	 1
   23    56	 1
   24    57	 1
   28    46	 1
   28    30	 1
   28    48	 1
   29    47	 1
   30    47	 1
   30    49	 1
   30    50	 1
   30    39	 1
   30    35	 1
   31    48	 1
   31    34	 1
   31    61	 1
   31    62	 1
   32    48	 1
   32    34	 1
   32    61	 1
   32    62	 1
   33    48	 1
   33    38	 1
   33    66	 1
   33    36	 1
   33    63	 1
   34    37	 1
   34    40	 1
   34    65	 1
   35    61	 1
   35    62	 1
   35    38	 1
   35    66	 1
   35    64	 1
   35    41	 1
   35    43	 1
   35    42	 1
   36    39	 1
   36    65	 1
   36    67	 1
   36    68	 1
   36    69	 1
   36    73	 1
   36    74	 1
   36    75	 1
   36    70	 1
   36    71	 1
   36    72	 1
   37    63	 1
   37    41	 1
   37    43	 1
   37    42	 1
   37    66	 1
   38    40	 1
   39    61	 1
   39    62	 1
   39    63	 1
   39    64	 1
   40    63	 1
   40    64	 1
   41    73	 1
   41    74	 1
   41    75	 1
   41    70	 1
   41    71	 1
   41    72	 1
   42    67	 1
   42    68	 1
   42    69	 1
   42    73	 1
   42    74	 1
   42    75	 1
   43    67	 1
   43    68	 1
   43    69	 1
   43    70	 1
   43    71	 1
   43    72	 1
   44    46	 1
   45    46	 1
   46    47	 1
   46    51	 1
   46    52	 1
   47    48	 1
   48    49	 1
   48    50	 1
   55    57	 1
   56    57	 1
   64    65	 1
   65    66	 1

[ angles ]
;	ai	  aj	ak funct			c0			  c1			c2			  c3
    8     1     4	5 ;      CG321      SG3O2      CG321
    8     1     3	5 ;      CG321      SG3O2      OG2P1
    8     1     2	5 ;      CG321      SG3O2      OG2P1
    4     1     3	5 ;      CG321      SG3O2      OG2P1
    4     1     2	5 ;      CG321      SG3O2      OG2P1
    3     1     2	5 ;      OG2P1      SG3O2      OG2P1
    5     4     1	5 ;      CG311      CG321      SG3O2
    5     4    44	5 ;      CG311      CG321       HGA2
    5     4    45	5 ;      CG311      CG321       HGA2
    1     4    44	5 ;      SG3O2      CG321       HGA2
    1     4    45	5 ;      SG3O2      CG321       HGA2
   44     4    45	5 ;       HGA2      CG321       HGA2
    6     5     9	5 ;      CG311      CG311      CG321
    6     5     4	5 ;      CG311      CG311      CG321
    6     5    46	5 ;      CG311      CG311       HGA1
    9     5     4	5 ;      CG321      CG311      CG321
    9     5    46	5 ;      CG321      CG311       HGA1
    4     5    46	5 ;      CG321      CG311       HGA1
   28     6     7	5 ;      OG311      CG311      CG314
   28     6     5	5 ;      OG311      CG311      CG311
   28     6    47	5 ;      OG311      CG311       HGA1
    7     6     5	5 ;      CG314      CG311      CG311
    7     6    47	5 ;      CG314      CG311       HGA1
    5     6    47	5 ;      CG311      CG311       HGA1
    6     7     8	5 ;      CG311      CG314      CG321
    6     7    30	5 ;      CG311      CG314      NG3P2
    6     7    48	5 ;      CG311      CG314       HGA1
    8     7    30	5 ;      CG321      CG314      NG3P2
    8     7    48	5 ;      CG321      CG314       HGA1
   30     7    48	5 ;      NG3P2      CG314       HGA1
    7     8     1	5 ;      CG314      CG321      SG3O2
    7     8    49	5 ;      CG314      CG321       HGA2
    7     8    50	5 ;      CG314      CG321       HGA2
    1     8    49	5 ;      SG3O2      CG321       HGA2
    1     8    50	5 ;      SG3O2      CG321       HGA2
   49     8    50	5 ;       HGA2      CG321       HGA2
   10     9     5	5 ;     CG2R61      CG321      CG311
   10     9    51	5 ;     CG2R61      CG321       HGA2
   10     9    52	5 ;     CG2R61      CG321       HGA2
    5     9    51	5 ;      CG311      CG321       HGA2
    5     9    52	5 ;      CG311      CG321       HGA2
   51     9    52	5 ;       HGA2      CG321       HGA2
   16    10     9	5 ;     CG2R61     CG2R61      CG321
   16    10    11	5 ;     CG2R61     CG2R61     CG2R61
    9    10    11	5 ;      CG321     CG2R61     CG2R61
   10    11    12	5 ;     CG2R61     CG2R61     CG2R61
   10    11    53	5 ;     CG2R61     CG2R61      HGR61
   12    11    53	5 ;     CG2R61     CG2R61      HGR61
   13    12    11	5 ;     CG2R61     CG2R61     CG2R61
   13    12    17	5 ;     CG2R61     CG2R61      CG321
   11    12    17	5 ;     CG2R61     CG2R61      CG321
   14    13    25	5 ;     CG2R66     CG2R61      NG2S3
   14    13    12	5 ;     CG2R66     CG2R61     CG2R61
   25    13    12	5 ;      NG2S3     CG2R61     CG2R61
   15    14    16	5 ;       FGR1     CG2R66     CG2R61
   15    14    13	5 ;       FGR1     CG2R66     CG2R61
   16    14    13	5 ;     CG2R61     CG2R66     CG2R61
   14    16    10	5 ;     CG2R66     CG2R61     CG2R61
   14    16    54	5 ;     CG2R66     CG2R61      HGR62
   10    16    54	5 ;     CG2R61     CG2R61      HGR62
   12    17    18	5 ;     CG2R61      CG321      CG311
   12    17    55	5 ;     CG2R61      CG321       HGA2
   12    17    56	5 ;     CG2R61      CG321       HGA2
   18    17    55	5 ;      CG311      CG321       HGA2
   18    17    56	5 ;      CG311      CG321       HGA2
   55    17    56	5 ;       HGA2      CG321       HGA2
   23    18    19	5 ;      OG301      CG311      CG302
   23    18    17	5 ;      OG301      CG311      CG321
   23    18    57	5 ;      OG301      CG311       HGA1
   19    18    17	5 ;      CG302      CG311      CG321
   19    18    57	5 ;      CG302      CG311       HGA1
   17    18    57	5 ;      CG321      CG311       HGA1
   20    19    22	5 ;       FGA3      CG302       FGA3
   20    19    18	5 ;       FGA3      CG302      CG311
   20    19    21	5 ;       FGA3      CG302       FGA3
   22    19    18	5 ;       FGA3      CG302      CG311
   22    19    21	5 ;       FGA3      CG302       FGA3
   18    19    21	5 ;      CG311      CG302       FGA3
   24    23    18	5 ;      CG331      OG301      CG311
   23    24    58	5 ;      OG301      CG331       HGA3
   23    24    59	5 ;      OG301      CG331       HGA3
   23    24    60	5 ;      OG301      CG331       HGA3
   58    24    59	5 ;       HGA3      CG331       HGA3
   58    24    60	5 ;       HGA3      CG331       HGA3
   59    24    60	5 ;       HGA3      CG331       HGA3
   27    25    26	5 ;       HGP4      NG2S3       HGP4
   27    25    13	5 ;       HGP4      NG2S3     CG2R61
   26    25    13	5 ;       HGP4      NG2S3     CG2R61
   29    28     6	5 ;       HGP1      OG311      CG311
    7    30    33	5 ;      CG314      NG3P2      CG324
    7    30    32	5 ;      CG314      NG3P2       HGP2
    7    30    31	5 ;      CG314      NG3P2       HGP2
   33    30    32	5 ;      CG324      NG3P2       HGP2
   33    30    31	5 ;      CG324      NG3P2       HGP2
   32    30    31	5 ;       HGP2      NG3P2       HGP2
   30    33    34	5 ;      NG3P2      CG324     CG2R61
   30    33    61	5 ;      NG3P2      CG324       HGA2
   30    33    62	5 ;      NG3P2      CG324       HGA2
   34    33    61	5 ;     CG2R61      CG324       HGA2
   34    33    62	5 ;     CG2R61      CG324       HGA2
   61    33    62	5 ;       HGA2      CG324       HGA2
   33    34    39	5 ;      CG324     CG2R61     CG2R61
   33    34    35	5 ;      CG324     CG2R61     CG2R61
   39    34    35	5 ;     CG2R61     CG2R61     CG2R61
   34    35    36	5 ;     CG2R61     CG2R61     CG2R61
   34    35    63	5 ;     CG2R61     CG2R61      HGR61
   36    35    63	5 ;     CG2R61     CG2R61      HGR61
   35    36    37	5 ;     CG2R61     CG2R61     CG2R61
   35    36    40	5 ;     CG2R61     CG2R61      CG301
   37    36    40	5 ;     CG2R61     CG2R61      CG301
   38    37    36	5 ;     CG2R61     CG2R61     CG2R61
   38    37    64	5 ;     CG2R61     CG2R61      HGR61
   36    37    64	5 ;     CG2R61     CG2R61      HGR61
   39    38    37	5 ;     CG2R61     CG2R61     CG2R61
   39    38    65	5 ;     CG2R61     CG2R61      HGR61
   37    38    65	5 ;     CG2R61     CG2R61      HGR61
   34    39    38	5 ;     CG2R61     CG2R61     CG2R61
   34    39    66	5 ;     CG2R61     CG2R61      HGR61
   38    39    66	5 ;     CG2R61     CG2R61      HGR61
   36    40    41	5 ;     CG2R61      CG301      CG331
   36    40    43	5 ;     CG2R61      CG301      CG331
   36    40    42	5 ;     CG2R61      CG301      CG331
   41    40    43	5 ;      CG331      CG301      CG331
   41    40    42	5 ;      CG331      CG301      CG331
   43    40    42	5 ;      CG331      CG301      CG331
   40    41    67	5 ;      CG301      CG331       HGA3
   40    41    68	5 ;      CG301      CG331       HGA3
   40    41    69	5 ;      CG301      CG331       HGA3
   67    41    68	5 ;       HGA3      CG331       HGA3
   67    41    69	5 ;       HGA3      CG331       HGA3
   68    41    69	5 ;       HGA3      CG331       HGA3
   40    42    70	5 ;      CG301      CG331       HGA3
   40    42    71	5 ;      CG301      CG331       HGA3
   40    42    72	5 ;      CG301      CG331       HGA3
   70    42    71	5 ;       HGA3      CG331       HGA3
   70    42    72	5 ;       HGA3      CG331       HGA3
   71    42    72	5 ;       HGA3      CG331       HGA3
   40    43    73	5 ;      CG301      CG331       HGA3
   40    43    74	5 ;      CG301      CG331       HGA3
   40    43    75	5 ;      CG301      CG331       HGA3
   73    43    74	5 ;       HGA3      CG331       HGA3
   73    43    75	5 ;       HGA3      CG331       HGA3
   74    43    75	5 ;       HGA3      CG331       HGA3

[ dihedrals ]
;	ai	  aj	ak	  al funct			  c0			c1			  c2			c3			  c4			c5
    4     1     8     7	 9 ;      CG321      SG3O2      CG321      CG314
    4     1     8    49	 9 ;      CG321      SG3O2      CG321       HGA2
    4     1     8    50	 9 ;      CG321      SG3O2      CG321       HGA2
    3     1     8     7	 9 ;      OG2P1      SG3O2      CG321      CG314
    3     1     8    49	 9 ;      OG2P1      SG3O2      CG321       HGA2
    3     1     8    50	 9 ;      OG2P1      SG3O2      CG321       HGA2
    2     1     8     7	 9 ;      OG2P1      SG3O2      CG321      CG314
    2     1     8    49	 9 ;      OG2P1      SG3O2      CG321       HGA2
    2     1     8    50	 9 ;      OG2P1      SG3O2      CG321       HGA2
    8     1     4     5	 9 ;      CG321      SG3O2      CG321      CG311
    8     1     4    44	 9 ;      CG321      SG3O2      CG321       HGA2
    8     1     4    45	 9 ;      CG321      SG3O2      CG321       HGA2
    3     1     4     5	 9 ;      OG2P1      SG3O2      CG321      CG311
    3     1     4    44	 9 ;      OG2P1      SG3O2      CG321       HGA2
    3     1     4    45	 9 ;      OG2P1      SG3O2      CG321       HGA2
    2     1     4     5	 9 ;      OG2P1      SG3O2      CG321      CG311
    2     1     4    44	 9 ;      OG2P1      SG3O2      CG321       HGA2
    2     1     4    45	 9 ;      OG2P1      SG3O2      CG321       HGA2
    1     4     5     6	 9 ;      SG3O2      CG321      CG311      CG311
    1     4     5     9	 9 ;      SG3O2      CG321      CG311      CG321
    1     4     5    46	 9 ;      SG3O2      CG321      CG311       HGA1
   44     4     5     6	 9 ;       HGA2      CG321      CG311      CG311
   44     4     5     9	 9 ;       HGA2      CG321      CG311      CG321
   44     4     5    46	 9 ;       HGA2      CG321      CG311       HGA1
   45     4     5     6	 9 ;       HGA2      CG321      CG311      CG311
   45     4     5     9	 9 ;       HGA2      CG321      CG311      CG321
   45     4     5    46	 9 ;       HGA2      CG321      CG311       HGA1
    9     5     6    28	 9 ;      CG321      CG311      CG311      OG311
    9     5     6     7	 9 ;      CG321      CG311      CG311      CG314
    9     5     6    47	 9 ;      CG321      CG311      CG311       HGA1
    4     5     6    28	 9 ;      CG321      CG311      CG311      OG311
    4     5     6     7	 9 ;      CG321      CG311      CG311      CG314
    4     5     6    47	 9 ;      CG321      CG311      CG311       HGA1
   46     5     6    28	 9 ;       HGA1      CG311      CG311      OG311
   46     5     6     7	 9 ;       HGA1      CG311      CG311      CG314
   46     5     6    47	 9 ;       HGA1      CG311      CG311       HGA1
    6     5     9    10	 9 ;      CG311      CG311      CG321     CG2R61
    6     5     9    51	 9 ;      CG311      CG311      CG321       HGA2
    6     5     9    52	 9 ;      CG311      CG311      CG321       HGA2
    4     5     9    10	 9 ;      CG321      CG311      CG321     CG2R61
    4     5     9    51	 9 ;      CG321      CG311      CG321       HGA2
    4     5     9    52	 9 ;      CG321      CG311      CG321       HGA2
   46     5     9    10	 9 ;       HGA1      CG311      CG321     CG2R61
   46     5     9    51	 9 ;       HGA1      CG311      CG321       HGA2
   46     5     9    52	 9 ;       HGA1      CG311      CG321       HGA2
    7     6    28    29	 9 ;      CG314      CG311      OG311       HGP1
    5     6    28    29	 9 ;      CG311      CG311      OG311       HGP1
   47     6    28    29	 9 ;       HGA1      CG311      OG311       HGP1
   28     6     7     8	 9 ;      OG311      CG311      CG314      CG321
   28     6     7    30	 9 ;      OG311      CG311      CG314      NG3P2
   28     6     7    48	 9 ;      OG311      CG311      CG314       HGA1
    5     6     7     8	 9 ;      CG311      CG311      CG314      CG321
    5     6     7    30	 9 ;      CG311      CG311      CG314      NG3P2
    5     6     7    48	 9 ;      CG311      CG311      CG314       HGA1
   47     6     7     8	 9 ;       HGA1      CG311      CG314      CG321
   47     6     7    30	 9 ;       HGA1      CG311      CG314      NG3P2
   47     6     7    48	 9 ;       HGA1      CG311      CG314       HGA1
    6     7     8     1	 9 ;      CG311      CG314      CG321      SG3O2
    6     7     8    49	 9 ;      CG311      CG314      CG321       HGA2
    6     7     8    50	 9 ;      CG311      CG314      CG321       HGA2
   30     7     8     1	 9 ;      NG3P2      CG314      CG321      SG3O2
   30     7     8    49	 9 ;      NG3P2      CG314      CG321       HGA2
   30     7     8    50	 9 ;      NG3P2      CG314      CG321       HGA2
   48     7     8     1	 9 ;       HGA1      CG314      CG321      SG3O2
   48     7     8    49	 9 ;       HGA1      CG314      CG321       HGA2
   48     7     8    50	 9 ;       HGA1      CG314      CG321       HGA2
    6     7    30    33	 9 ;      CG311      CG314      NG3P2      CG324
    6     7    30    32	 9 ;      CG311      CG314      NG3P2       HGP2
    6     7    30    31	 9 ;      CG311      CG314      NG3P2       HGP2
    8     7    30    33	 9 ;      CG321      CG314      NG3P2      CG324
    8     7    30    32	 9 ;      CG321      CG314      NG3P2       HGP2
    8     7    30    31	 9 ;      CG321      CG314      NG3P2       HGP2
   48     7    30    33	 9 ;       HGA1      CG314      NG3P2      CG324
   48     7    30    32	 9 ;       HGA1      CG314      NG3P2       HGP2
   48     7    30    31	 9 ;       HGA1      CG314      NG3P2       HGP2
    5     9    10    16	 9 ;      CG311      CG321     CG2R61     CG2R61
    5     9    10    11	 9 ;      CG311      CG321     CG2R61     CG2R61
   51     9    10    16	 9 ;       HGA2      CG321     CG2R61     CG2R61
   51     9    10    11	 9 ;       HGA2      CG321     CG2R61     CG2R61
   52     9    10    16	 9 ;       HGA2      CG321     CG2R61     CG2R61
   52     9    10    11	 9 ;       HGA2      CG321     CG2R61     CG2R61
    9    10    16    14	 9 ;      CG321     CG2R61     CG2R61     CG2R66
    9    10    16    54	 9 ;      CG321     CG2R61     CG2R61      HGR62
   11    10    16    14	 9 ;     CG2R61     CG2R61     CG2R61     CG2R66
   11    10    16    54	 9 ;     CG2R61     CG2R61     CG2R61      HGR62
   16    10    11    12	 9 ;     CG2R61     CG2R61     CG2R61     CG2R61
   16    10    11    53	 9 ;     CG2R61     CG2R61     CG2R61      HGR61
    9    10    11    12	 9 ;      CG321     CG2R61     CG2R61     CG2R61
    9    10    11    53	 9 ;      CG321     CG2R61     CG2R61      HGR61
   10    11    12    13	 9 ;     CG2R61     CG2R61     CG2R61     CG2R61
   10    11    12    17	 9 ;     CG2R61     CG2R61     CG2R61      CG321
   53    11    12    13	 9 ;      HGR61     CG2R61     CG2R61     CG2R61
   53    11    12    17	 9 ;      HGR61     CG2R61     CG2R61      CG321
   11    12    13    14	 9 ;     CG2R61     CG2R61     CG2R61     CG2R66
   11    12    13    25	 9 ;     CG2R61     CG2R61     CG2R61      NG2S3
   17    12    13    14	 9 ;      CG321     CG2R61     CG2R61     CG2R66
   17    12    13    25	 9 ;      CG321     CG2R61     CG2R61      NG2S3
   13    12    17    18	 9 ;     CG2R61     CG2R61      CG321      CG311
   13    12    17    55	 9 ;     CG2R61     CG2R61      CG321       HGA2
   13    12    17    56	 9 ;     CG2R61     CG2R61      CG321       HGA2
   11    12    17    18	 9 ;     CG2R61     CG2R61      CG321      CG311
   11    12    17    55	 9 ;     CG2R61     CG2R61      CG321       HGA2
   11    12    17    56	 9 ;     CG2R61     CG2R61      CG321       HGA2
   25    13    14    15	 9 ;      NG2S3     CG2R61     CG2R66       FGR1
   25    13    14    16	 9 ;      NG2S3     CG2R61     CG2R66     CG2R61
   12    13    14    15	 9 ;     CG2R61     CG2R61     CG2R66       FGR1
   12    13    14    16	 9 ;     CG2R61     CG2R61     CG2R66     CG2R61
   14    13    25    27	 9 ;     CG2R66     CG2R61      NG2S3       HGP4
   14    13    25    26	 9 ;     CG2R66     CG2R61      NG2S3       HGP4
   12    13    25    27	 9 ;     CG2R61     CG2R61      NG2S3       HGP4
   12    13    25    26	 9 ;     CG2R61     CG2R61      NG2S3       HGP4
   15    14    16    10	 9 ;       FGR1     CG2R66     CG2R61     CG2R61
   15    14    16    54	 9 ;       FGR1     CG2R66     CG2R61      HGR62
   13    14    16    10	 9 ;     CG2R61     CG2R66     CG2R61     CG2R61
   13    14    16    54	 9 ;     CG2R61     CG2R66     CG2R61      HGR62
   12    17    18    23	 9 ;     CG2R61      CG321      CG311      OG301
   12    17    18    19	 9 ;     CG2R61      CG321      CG311      CG302
   12    17    18    57	 9 ;     CG2R61      CG321      CG311       HGA1
   55    17    18    23	 9 ;       HGA2      CG321      CG311      OG301
   55    17    18    19	 9 ;       HGA2      CG321      CG311      CG302
   55    17    18    57	 9 ;       HGA2      CG321      CG311       HGA1
   56    17    18    23	 9 ;       HGA2      CG321      CG311      OG301
   56    17    18    19	 9 ;       HGA2      CG321      CG311      CG302
   56    17    18    57	 9 ;       HGA2      CG321      CG311       HGA1
   19    18    23    24	 9 ;      CG302      CG311      OG301      CG331
   17    18    23    24	 9 ;      CG321      CG311      OG301      CG331
   57    18    23    24	 9 ;       HGA1      CG311      OG301      CG331
   23    18    19    20	 9 ;      OG301      CG311      CG302       FGA3
   23    18    19    22	 9 ;      OG301      CG311      CG302       FGA3
   23    18    19    21	 9 ;      OG301      CG311      CG302       FGA3
   17    18    19    20	 9 ;      CG321      CG311      CG302       FGA3
   17    18    19    22	 9 ;      CG321      CG311      CG302       FGA3
   17    18    19    21	 9 ;      CG321      CG311      CG302       FGA3
   57    18    19    20	 9 ;       HGA1      CG311      CG302       FGA3
   57    18    19    22	 9 ;       HGA1      CG311      CG302       FGA3
   57    18    19    21	 9 ;       HGA1      CG311      CG302       FGA3
   18    23    24    58	 9 ;      CG311      OG301      CG331       HGA3
   18    23    24    59	 9 ;      CG311      OG301      CG331       HGA3
   18    23    24    60	 9 ;      CG311      OG301      CG331       HGA3
    7    30    33    34	 9 ;      CG314      NG3P2      CG324     CG2R61
    7    30    33    61	 9 ;      CG314      NG3P2      CG324       HGA2
    7    30    33    62	 9 ;      CG314      NG3P2      CG324       HGA2
   32    30    33    34	 9 ;       HGP2      NG3P2      CG324     CG2R61
   32    30    33    61	 9 ;       HGP2      NG3P2      CG324       HGA2
   32    30    33    62	 9 ;       HGP2      NG3P2      CG324       HGA2
   31    30    33    34	 9 ;       HGP2      NG3P2      CG324     CG2R61
   31    30    33    61	 9 ;       HGP2      NG3P2      CG324       HGA2
   31    30    33    62	 9 ;       HGP2      NG3P2      CG324       HGA2
   30    33    34    39	 9 ;      NG3P2      CG324     CG2R61     CG2R61
   30    33    34    35	 9 ;      NG3P2      CG324     CG2R61     CG2R61
   61    33    34    39	 9 ;       HGA2      CG324     CG2R61     CG2R61
   61    33    34    35	 9 ;       HGA2      CG324     CG2R61     CG2R61
   62    33    34    39	 9 ;       HGA2      CG324     CG2R61     CG2R61
   62    33    34    35	 9 ;       HGA2      CG324     CG2R61     CG2R61
   33    34    39    38	 9 ;      CG324     CG2R61     CG2R61     CG2R61
   33    34    39    66	 9 ;      CG324     CG2R61     CG2R61      HGR61
   35    34    39    38	 9 ;     CG2R61     CG2R61     CG2R61     CG2R61
   35    34    39    66	 9 ;     CG2R61     CG2R61     CG2R61      HGR61
   33    34    35    36	 9 ;      CG324     CG2R61     CG2R61     CG2R61
   33    34    35    63	 9 ;      CG324     CG2R61     CG2R61      HGR61
   39    34    35    36	 9 ;     CG2R61     CG2R61     CG2R61     CG2R61
   39    34    35    63	 9 ;     CG2R61     CG2R61     CG2R61      HGR61
   34    35    36    37	 9 ;     CG2R61     CG2R61     CG2R61     CG2R61
   34    35    36    40	 9 ;     CG2R61     CG2R61     CG2R61      CG301
   63    35    36    37	 9 ;      HGR61     CG2R61     CG2R61     CG2R61
   63    35    36    40	 9 ;      HGR61     CG2R61     CG2R61      CG301
   35    36    37    38	 9 ;     CG2R61     CG2R61     CG2R61     CG2R61
   35    36    37    64	 9 ;     CG2R61     CG2R61     CG2R61      HGR61
   40    36    37    38	 9 ;      CG301     CG2R61     CG2R61     CG2R61
   40    36    37    64	 9 ;      CG301     CG2R61     CG2R61      HGR61
   35    36    40    41	 9 ;     CG2R61     CG2R61      CG301      CG331
   35    36    40    43	 9 ;     CG2R61     CG2R61      CG301      CG331
   35    36    40    42	 9 ;     CG2R61     CG2R61      CG301      CG331
   37    36    40    41	 9 ;     CG2R61     CG2R61      CG301      CG331
   37    36    40    43	 9 ;     CG2R61     CG2R61      CG301      CG331
   37    36    40    42	 9 ;     CG2R61     CG2R61      CG301      CG331
   36    37    38    39	 9 ;     CG2R61     CG2R61     CG2R61     CG2R61
   36    37    38    65	 9 ;     CG2R61     CG2R61     CG2R61      HGR61
   64    37    38    39	 9 ;      HGR61     CG2R61     CG2R61     CG2R61
   64    37    38    65	 9 ;      HGR61     CG2R61     CG2R61      HGR61
   37    38    39    34	 9 ;     CG2R61     CG2R61     CG2R61     CG2R61
   37    38    39    66	 9 ;     CG2R61     CG2R61     CG2R61      HGR61
   65    38    39    34	 9 ;      HGR61     CG2R61     CG2R61     CG2R61
   65    38    39    66	 9 ;      HGR61     CG2R61     CG2R61      HGR61
   36    40    41    67	 9 ;     CG2R61      CG301      CG331       HGA3
   36    40    41    68	 9 ;     CG2R61      CG301      CG331       HGA3
   36    40    41    69	 9 ;     CG2R61      CG301      CG331       HGA3
   43    40    41    67	 9 ;      CG331      CG301      CG331       HGA3
   43    40    41    68	 9 ;      CG331      CG301      CG331       HGA3
   43    40    41    69	 9 ;      CG331      CG301      CG331       HGA3
   42    40    41    67	 9 ;      CG331      CG301      CG331       HGA3
   42    40    41    68	 9 ;      CG331      CG301      CG331       HGA3
   42    40    41    69	 9 ;      CG331      CG301      CG331       HGA3
   36    40    43    73	 9 ;     CG2R61      CG301      CG331       HGA3
   36    40    43    74	 9 ;     CG2R61      CG301      CG331       HGA3
   36    40    43    75	 9 ;     CG2R61      CG301      CG331       HGA3
   41    40    43    73	 9 ;      CG331      CG301      CG331       HGA3
   41    40    43    74	 9 ;      CG331      CG301      CG331       HGA3
   41    40    43    75	 9 ;      CG331      CG301      CG331       HGA3
   42    40    43    73	 9 ;      CG331      CG301      CG331       HGA3
   42    40    43    74	 9 ;      CG331      CG301      CG331       HGA3
   42    40    43    75	 9 ;      CG331      CG301      CG331       HGA3
   36    40    42    70	 9 ;     CG2R61      CG301      CG331       HGA3
   36    40    42    71	 9 ;     CG2R61      CG301      CG331       HGA3
   36    40    42    72	 9 ;     CG2R61      CG301      CG331       HGA3
   41    40    42    70	 9 ;      CG331      CG301      CG331       HGA3
   41    40    42    71	 9 ;      CG331      CG301      CG331       HGA3
   41    40    42    72	 9 ;      CG331      CG301      CG331       HGA3
   43    40    42    70	 9 ;      CG331      CG301      CG331       HGA3
   43    40    42    71	 9 ;      CG331      CG301      CG331       HGA3
   43    40    42    72	 9 ;      CG331      CG301      CG331       HGA3

[ dihedrals ]
;	ai	  aj	ak	  al funct			  c0			c1			  c2			c3
   25    27    26    13	 2

