Good gRace! Old Maple Actually Chews Slate
   56
    1LIG     N1    1  -1.173   0.302  -1.500
    1LIG     C1    2  -1.279   0.335  -1.579
    1LIG     O1    3  -1.281   0.325  -1.701
    1LIG     C2    4  -1.386   0.395  -1.487
    1LIG     N2    5  -1.330   0.363  -1.350
    1LIG     HN    6  -1.375   0.377  -1.260
    1LIG     C3    7  -1.212   0.314  -1.371
    1LIG     C4    8  -1.389   0.552  -1.504
    1LIG     C5    9  -1.463   0.595  -1.633
    1LIG     C6   10  -1.464   0.747  -1.653
    1LIG     C7   11  -1.323   0.803  -1.652
    1LIG     C8   12  -1.252   0.767  -1.523
    1LIG     C9   13  -1.248   0.617  -1.500
    1LIG    C10   14  -1.527   0.336  -1.499
    1LIG    C11   15  -1.625   0.369  -1.403
    1LIG    C12   16  -1.757   0.326  -1.415
    1LIG    C13   17  -1.795   0.247  -1.524
    1LIG    C14   18  -1.701   0.214  -1.620
    1LIG    C15   19  -1.568   0.257  -1.608
    1LIG    C16   20  -1.039   0.274  -1.550
    1LIG    C17   21  -0.997   0.127  -1.543
    1LIG    C18   22  -1.111   0.027  -1.533
    1LIG    C19   23  -1.053  -0.081  -1.446
    1LIG    C20   24  -0.959  -0.005  -1.355
    1LIG     O2   25  -0.909   0.106  -1.430
    1LIG     N3   26  -1.130   0.276  -1.270
    1LIG     H1   27  -1.171   0.294  -1.179
    1LIG     H2   28  -1.094   0.181  -1.279
    1LIG    HN2   29  -1.290   0.456  -1.345
    1LIG     HC   30  -1.254   0.213  -1.374
    1LIG    HC1   31  -1.445   0.592  -1.420
    1LIG    HC2   32  -1.566   0.561  -1.627
    1LIG    HC3   33  -1.416   0.548  -1.719
    1LIG    HC4   34  -1.510   0.769  -1.750
    1LIG    HC5   35  -1.522   0.793  -1.574
    1LIG    HC6   36  -1.328   0.912  -1.661
    1LIG    HC7   37  -1.267   0.763  -1.736
    1LIG    HC8   38  -1.149   0.805  -1.527
    1LIG    HC9   39  -1.303   0.815  -1.439
    1LIG   HC10   40  -1.203   0.596  -1.403
    1LIG   HC11   41  -1.186   0.571  -1.578
    1LIG   HC12   42  -1.597   0.430  -1.319
    1LIG   HC13   43  -1.829   0.352  -1.340
    1LIG   HC14   44  -1.897   0.213  -1.533
    1LIG   HC15   45  -1.730   0.154  -1.705
    1LIG   HC16   46  -1.496   0.230  -1.684
    1LIG   HC17   47  -1.036   0.305  -1.655
    1LIG   HC18   48  -0.968   0.334  -1.494
    1LIG   HC19   49  -0.941   0.104  -1.633
    1LIG   HC20   50  -1.138  -0.012  -1.631
    1LIG   HC21   51  -1.197   0.073  -1.485
    1LIG   HC22   52  -1.132  -0.131  -1.388
    1LIG   HC23   53  -0.999  -0.154  -1.506
    1LIG   HC24   54  -0.876  -0.070  -1.325
    1LIG   HC25   55  -1.012   0.030  -1.267
    1LIG    HN1   56  -1.050   0.337  -1.275
   0.00000   0.00000   0.00000
