; Created by cgenff_charmm2gmx.py

[ moleculetype ]
; Name			   nrexcl
LIG				 3

[ atoms ]
;	 nr		  type	resnr residue  atom   cgnr	   charge		mass  typeB    chargeB		massB
; residue	 1 LIG rtp LIG q	qsum
     1     NG2R53      1    LIG     N1      1     -0.217     14.007   ;
     2     CG2R53      1    LIG     C1      2     -0.401     12.011   ;
     3      OG2D1      1    LIG     O1      3     -0.317     15.999   ;
     4     CG3C50      1    LIG     C2      4      1.379     12.011   ;
     5      NG3P2      1    LIG     N2      5     -0.588     14.007   ;
     6       HGP2      1    LIG     HN      6      0.336      1.008   ;
     7     CG3C53      1    LIG     C3      7      0.834     12.011   ;
     8      CG311      1    LIG     C4      8     -0.044     12.011   ;
     9      CG321      1    LIG     C5      9     -0.129     12.011   ;
    10      CG321      1    LIG     C6     10     -0.241     12.011   ;
    11      CG321      1    LIG     C7     11     -0.154     12.011   ;
    12      CG321      1    LIG     C8     12     -0.241     12.011   ;
    13      CG321      1    LIG     C9     13     -0.129     12.011   ;
    14     CG2R61      1    LIG    C10     14     -0.215     12.011   ;
    15     CG2R61      1    LIG    C11     15     -0.131     12.011   ;
    16     CG2R61      1    LIG    C12     16     -0.105     12.011   ;
    17     CG2R61      1    LIG    C13     17     -0.116     12.011   ;
    18     CG2R61      1    LIG    C14     18     -0.105     12.011   ;
    19     CG2R61      1    LIG    C15     19     -0.131     12.011   ;
    20      CG321      1    LIG    C16     20     -0.061     12.011   ;
    21     CG3C51      1    LIG    C17     21      0.113     12.011   ;
    22     CG3C52      1    LIG    C18     22     -0.184     12.011   ;
    23     CG3C52      1    LIG    C19     23     -0.176     12.011   ;
    24     CG3C52      1    LIG    C20     24      0.016     12.011   ;
    25     OG3C51      1    LIG     O2     25     -0.418     15.999   ;
    26      NG3P3      1    LIG     N3     26     -0.267     14.007   ;
    27       HGP2      1    LIG     H1     27      0.301      1.008   ;
    28       HGP2      1    LIG     H2     28      0.301      1.008   ;
    29       HGP2      1    LIG    HN2     29      0.336      1.008   ;
    30       HGA1      1    LIG     HC     30      0.073      1.008   ;
    31       HGA1      1    LIG    HC1     31      0.090      1.008   ;
    32       HGA2      1    LIG    HC2     32      0.090      1.008   ;
    33       HGA2      1    LIG    HC3     33      0.090      1.008   ;
    34       HGA2      1    LIG    HC4     34      0.090      1.008   ;
    35       HGA2      1    LIG    HC5     35      0.090      1.008   ;
    36       HGA2      1    LIG    HC6     36      0.090      1.008   ;
    37       HGA2      1    LIG    HC7     37      0.090      1.008   ;
    38       HGA2      1    LIG    HC8     38      0.090      1.008   ;
    39       HGA2      1    LIG    HC9     39      0.090      1.008   ;
    40       HGA2      1    LIG   HC10     40      0.090      1.008   ;
    41       HGA2      1    LIG   HC11     41      0.090      1.008   ;
    42      HGR61      1    LIG   HC12     42      0.116      1.008   ;
    43      HGR61      1    LIG   HC13     43      0.116      1.008   ;
    44      HGR61      1    LIG   HC14     44      0.116      1.008   ;
    45      HGR61      1    LIG   HC15     45      0.116      1.008   ;
    46      HGR61      1    LIG   HC16     46      0.116      1.008   ;
    47       HGA2      1    LIG   HC17     47      0.090      1.008   ;
    48       HGA2      1    LIG   HC18     48      0.090      1.008   ;
    49       HGA1      1    LIG   HC19     49      0.090      1.008   ;
    50       HGA2      1    LIG   HC20     50      0.090      1.008   ;
    51       HGA2      1    LIG   HC21     51      0.090      1.008   ;
    52       HGA2      1    LIG   HC22     52      0.090      1.008   ;
    53       HGA2      1    LIG   HC23     53      0.090      1.008   ;
    54       HGA2      1    LIG   HC24     54      0.090      1.008   ;
    55       HGA2      1    LIG   HC25     55      0.090      1.008   ;
    56       HGP2      1    LIG    HN1     56      0.301      1.008   ;

[ bonds ]
;	ai	  aj funct			  c0			c1			  c2			c3
    1    20	 1 ;      NG2R53      CG321
    1     2	 1 ;      NG2R53     CG2R53
    1     7	 1 ;      NG2R53     CG3C53
    2     3	 1 ;      CG2R53      OG2D1
    2     4	 1 ;      CG2R53     CG3C50
    4     8	 1 ;      CG3C50      CG311
    4     5	 1 ;      CG3C50      NG3P2
    4    14	 1 ;      CG3C50     CG2R61
    5     7	 1 ;       NG3P2     CG3C53
    5     6	 1 ;       NG3P2       HGP2
    5    29	 1 ;       NG3P2       HGP2
    7    26	 1 ;      CG3C53      NG3P3
    7    30	 1 ;      CG3C53       HGA1
    8    13	 1 ;       CG311      CG321
    8     9	 1 ;       CG311      CG321
    8    31	 1 ;       CG311       HGA1
    9    10	 1 ;       CG321      CG321
    9    32	 1 ;       CG321       HGA2
    9    33	 1 ;       CG321       HGA2
   10    11	 1 ;       CG321      CG321
   10    34	 1 ;       CG321       HGA2
   10    35	 1 ;       CG321       HGA2
   11    12	 1 ;       CG321      CG321
   11    36	 1 ;       CG321       HGA2
   11    37	 1 ;       CG321       HGA2
   12    13	 1 ;       CG321      CG321
   12    38	 1 ;       CG321       HGA2
   12    39	 1 ;       CG321       HGA2
   13    40	 1 ;       CG321       HGA2
   13    41	 1 ;       CG321       HGA2
   14    19	 1 ;      CG2R61     CG2R61
   14    15	 1 ;      CG2R61     CG2R61
   15    16	 1 ;      CG2R61     CG2R61
   15    42	 1 ;      CG2R61      HGR61
   16    17	 1 ;      CG2R61     CG2R61
   16    43	 1 ;      CG2R61      HGR61
   17    18	 1 ;      CG2R61     CG2R61
   17    44	 1 ;      CG2R61      HGR61
   18    19	 1 ;      CG2R61     CG2R61
   18    45	 1 ;      CG2R61      HGR61
   19    46	 1 ;      CG2R61      HGR61
   20    21	 1 ;       CG321     CG3C51
   20    47	 1 ;       CG321       HGA2
   20    48	 1 ;       CG321       HGA2
   21    25	 1 ;      CG3C51     OG3C51
   21    22	 1 ;      CG3C51     CG3C52
   21    49	 1 ;      CG3C51       HGA1
   22    23	 1 ;      CG3C52     CG3C52
   22    50	 1 ;      CG3C52       HGA2
   22    51	 1 ;      CG3C52       HGA2
   23    24	 1 ;      CG3C52     CG3C52
   23    52	 1 ;      CG3C52       HGA2
   23    53	 1 ;      CG3C52       HGA2
   24    25	 1 ;      CG3C52     OG3C51
   24    54	 1 ;      CG3C52       HGA2
   24    55	 1 ;      CG3C52       HGA2
   26    28	 1 ;       NG3P3       HGP2
   26    27	 1 ;       NG3P3       HGP2
   26    56	 1 ;       NG3P3       HGP2

[ pairs ]
;	ai	  aj funct			  c0			c1			  c2			c3
    1     8	 1
    1    14	 1
    1     6	 1
    1    29	 1
    1    28	 1
    1    27	 1
    1    56	 1
    1    25	 1
    1    22	 1
    1    49	 1
    2    21	 1
    2    47	 1
    2    48	 1
    2    26	 1
    2    30	 1
    2    13	 1
    2     9	 1
    2    31	 1
    2     6	 1
    2    29	 1
    2    19	 1
    2    15	 1
    3    20	 1
    3     7	 1
    3     8	 1
    3     5	 1
    3    14	 1
    4    20	 1
    4    26	 1
    4    30	 1
    4    12	 1
    4    40	 1
    4    41	 1
    4    10	 1
    4    32	 1
    4    33	 1
    4    18	 1
    4    46	 1
    4    16	 1
    4    42	 1
    5    20	 1
    5    13	 1
    5     9	 1
    5    31	 1
    5    19	 1
    5    15	 1
    5    28	 1
    5    27	 1
    5    56	 1
    6     8	 1
    6    14	 1
    6    26	 1
    6    30	 1
    7    21	 1
    7    47	 1
    7    48	 1
    7     8	 1
    7    14	 1
    8    29	 1
    8    19	 1
    8    15	 1
    8    11	 1
    8    34	 1
    8    35	 1
    8    38	 1
    8    39	 1
    9    14	 1
    9    12	 1
    9    40	 1
    9    41	 1
    9    36	 1
    9    37	 1
   10    13	 1
   10    31	 1
   10    38	 1
   10    39	 1
   11    32	 1
   11    33	 1
   11    40	 1
   11    41	 1
   12    31	 1
   12    34	 1
   12    35	 1
   13    14	 1
   13    32	 1
   13    33	 1
   13    36	 1
   13    37	 1
   14    31	 1
   14    29	 1
   14    17	 1
   14    43	 1
   14    45	 1
   15    18	 1
   15    46	 1
   15    44	 1
   16    19	 1
   16    45	 1
   17    42	 1
   17    46	 1
   18    43	 1
   19    42	 1
   19    44	 1
   20    26	 1
   20    30	 1
   20    24	 1
   20    23	 1
   20    50	 1
   20    51	 1
   21    52	 1
   21    53	 1
   21    54	 1
   21    55	 1
   22    47	 1
   22    48	 1
   22    54	 1
   22    55	 1
   23    49	 1
   24    49	 1
   24    50	 1
   24    51	 1
   25    47	 1
   25    48	 1
   25    50	 1
   25    51	 1
   25    52	 1
   25    53	 1
   26    29	 1
   27    30	 1
   28    30	 1
   29    30	 1
   30    56	 1
   31    40	 1
   31    41	 1
   31    32	 1
   31    33	 1
   32    34	 1
   32    35	 1
   33    34	 1
   33    35	 1
   34    36	 1
   34    37	 1
   35    36	 1
   35    37	 1
   36    38	 1
   36    39	 1
   37    38	 1
   37    39	 1
   38    40	 1
   38    41	 1
   39    40	 1
   39    41	 1
   42    43	 1
   43    44	 1
   44    45	 1
   45    46	 1
   47    49	 1
   48    49	 1
   49    50	 1
   49    51	 1
   50    52	 1
   50    53	 1
   51    52	 1
   51    53	 1
   52    54	 1
   52    55	 1
   53    54	 1
   53    55	 1

[ angles ]
;	ai	  aj	ak funct			c0			  c1			c2			  c3
   20     1     2	5 ;      CG321     NG2R53     CG2R53
   20     1     7	5 ;      CG321     NG2R53     CG3C53
    2     1     7	5 ;     CG2R53     NG2R53     CG3C53
    3     2     1	5 ;      OG2D1     CG2R53     NG2R53
    3     2     4	5 ;      OG2D1     CG2R53     CG3C50
    1     2     4	5 ;     NG2R53     CG2R53     CG3C50
    2     4     8	5 ;     CG2R53     CG3C50      CG311
    2     4     5	5 ;     CG2R53     CG3C50      NG3P2
    2     4    14	5 ;     CG2R53     CG3C50     CG2R61
    8     4     5	5 ;      CG311     CG3C50      NG3P2
    8     4    14	5 ;      CG311     CG3C50     CG2R61
    5     4    14	5 ;      NG3P2     CG3C50     CG2R61
    4     5     7	5 ;     CG3C50      NG3P2     CG3C53
    4     5     6	5 ;     CG3C50      NG3P2       HGP2
    4     5    29	5 ;     CG3C50      NG3P2       HGP2
    7     5     6	5 ;     CG3C53      NG3P2       HGP2
    7     5    29	5 ;     CG3C53      NG3P2       HGP2
    6     5    29	5 ;       HGP2      NG3P2       HGP2
    1     7    26	5 ;     NG2R53     CG3C53      NG3P3
    1     7     5	5 ;     NG2R53     CG3C53      NG3P2
    1     7    30	5 ;     NG2R53     CG3C53       HGA1
   26     7     5	5 ;      NG3P3     CG3C53      NG3P2
   26     7    30	5 ;      NG3P3     CG3C53       HGA1
    5     7    30	5 ;      NG3P2     CG3C53       HGA1
   13     8     9	5 ;      CG321      CG311      CG321
   13     8     4	5 ;      CG321      CG311     CG3C50
   13     8    31	5 ;      CG321      CG311       HGA1
    9     8     4	5 ;      CG321      CG311     CG3C50
    9     8    31	5 ;      CG321      CG311       HGA1
    4     8    31	5 ;     CG3C50      CG311       HGA1
   10     9     8	5 ;      CG321      CG321      CG311
   10     9    32	5 ;      CG321      CG321       HGA2
   10     9    33	5 ;      CG321      CG321       HGA2
    8     9    32	5 ;      CG311      CG321       HGA2
    8     9    33	5 ;      CG311      CG321       HGA2
   32     9    33	5 ;       HGA2      CG321       HGA2
   11    10     9	5 ;      CG321      CG321      CG321
   11    10    34	5 ;      CG321      CG321       HGA2
   11    10    35	5 ;      CG321      CG321       HGA2
    9    10    34	5 ;      CG321      CG321       HGA2
    9    10    35	5 ;      CG321      CG321       HGA2
   34    10    35	5 ;       HGA2      CG321       HGA2
   12    11    10	5 ;      CG321      CG321      CG321
   12    11    36	5 ;      CG321      CG321       HGA2
   12    11    37	5 ;      CG321      CG321       HGA2
   10    11    36	5 ;      CG321      CG321       HGA2
   10    11    37	5 ;      CG321      CG321       HGA2
   36    11    37	5 ;       HGA2      CG321       HGA2
   11    12    13	5 ;      CG321      CG321      CG321
   11    12    38	5 ;      CG321      CG321       HGA2
   11    12    39	5 ;      CG321      CG321       HGA2
   13    12    38	5 ;      CG321      CG321       HGA2
   13    12    39	5 ;      CG321      CG321       HGA2
   38    12    39	5 ;       HGA2      CG321       HGA2
   12    13     8	5 ;      CG321      CG321      CG311
   12    13    40	5 ;      CG321      CG321       HGA2
   12    13    41	5 ;      CG321      CG321       HGA2
    8    13    40	5 ;      CG311      CG321       HGA2
    8    13    41	5 ;      CG311      CG321       HGA2
   40    13    41	5 ;       HGA2      CG321       HGA2
    4    14    19	5 ;     CG3C50     CG2R61     CG2R61
    4    14    15	5 ;     CG3C50     CG2R61     CG2R61
   19    14    15	5 ;     CG2R61     CG2R61     CG2R61
   14    15    16	5 ;     CG2R61     CG2R61     CG2R61
   14    15    42	5 ;     CG2R61     CG2R61      HGR61
   16    15    42	5 ;     CG2R61     CG2R61      HGR61
   15    16    17	5 ;     CG2R61     CG2R61     CG2R61
   15    16    43	5 ;     CG2R61     CG2R61      HGR61
   17    16    43	5 ;     CG2R61     CG2R61      HGR61
   18    17    16	5 ;     CG2R61     CG2R61     CG2R61
   18    17    44	5 ;     CG2R61     CG2R61      HGR61
   16    17    44	5 ;     CG2R61     CG2R61      HGR61
   19    18    17	5 ;     CG2R61     CG2R61     CG2R61
   19    18    45	5 ;     CG2R61     CG2R61      HGR61
   17    18    45	5 ;     CG2R61     CG2R61      HGR61
   14    19    18	5 ;     CG2R61     CG2R61     CG2R61
   14    19    46	5 ;     CG2R61     CG2R61      HGR61
   18    19    46	5 ;     CG2R61     CG2R61      HGR61
   21    20     1	5 ;     CG3C51      CG321     NG2R53
   21    20    47	5 ;     CG3C51      CG321       HGA2
   21    20    48	5 ;     CG3C51      CG321       HGA2
    1    20    47	5 ;     NG2R53      CG321       HGA2
    1    20    48	5 ;     NG2R53      CG321       HGA2
   47    20    48	5 ;       HGA2      CG321       HGA2
   20    21    25	5 ;      CG321     CG3C51     OG3C51
   20    21    22	5 ;      CG321     CG3C51     CG3C52
   20    21    49	5 ;      CG321     CG3C51       HGA1
   25    21    22	5 ;     OG3C51     CG3C51     CG3C52
   25    21    49	5 ;     OG3C51     CG3C51       HGA1
   22    21    49	5 ;     CG3C52     CG3C51       HGA1
   21    22    23	5 ;     CG3C51     CG3C52     CG3C52
   21    22    50	5 ;     CG3C51     CG3C52       HGA2
   21    22    51	5 ;     CG3C51     CG3C52       HGA2
   23    22    50	5 ;     CG3C52     CG3C52       HGA2
   23    22    51	5 ;     CG3C52     CG3C52       HGA2
   50    22    51	5 ;       HGA2     CG3C52       HGA2
   22    23    24	5 ;     CG3C52     CG3C52     CG3C52
   22    23    52	5 ;     CG3C52     CG3C52       HGA2
   22    23    53	5 ;     CG3C52     CG3C52       HGA2
   24    23    52	5 ;     CG3C52     CG3C52       HGA2
   24    23    53	5 ;     CG3C52     CG3C52       HGA2
   52    23    53	5 ;       HGA2     CG3C52       HGA2
   25    24    23	5 ;     OG3C51     CG3C52     CG3C52
   25    24    54	5 ;     OG3C51     CG3C52       HGA2
   25    24    55	5 ;     OG3C51     CG3C52       HGA2
   23    24    54	5 ;     CG3C52     CG3C52       HGA2
   23    24    55	5 ;     CG3C52     CG3C52       HGA2
   54    24    55	5 ;       HGA2     CG3C52       HGA2
   21    25    24	5 ;     CG3C51     OG3C51     CG3C52
    7    26    28	5 ;     CG3C53      NG3P3       HGP2
    7    26    27	5 ;     CG3C53      NG3P3       HGP2
    7    26    56	5 ;     CG3C53      NG3P3       HGP2
   28    26    27	5 ;       HGP2      NG3P3       HGP2
   28    26    56	5 ;       HGP2      NG3P3       HGP2
   27    26    56	5 ;       HGP2      NG3P3       HGP2

[ dihedrals ]
;	ai	  aj	ak	  al funct			  c0			c1			  c2			c3			  c4			c5
    2     1    20    21	 9 ;     CG2R53     NG2R53      CG321     CG3C51
    2     1    20    47	 9 ;     CG2R53     NG2R53      CG321       HGA2
    2     1    20    48	 9 ;     CG2R53     NG2R53      CG321       HGA2
    7     1    20    21	 9 ;     CG3C53     NG2R53      CG321     CG3C51
    7     1    20    47	 9 ;     CG3C53     NG2R53      CG321       HGA2
    7     1    20    48	 9 ;     CG3C53     NG2R53      CG321       HGA2
   20     1     2     3	 9 ;      CG321     NG2R53     CG2R53      OG2D1
   20     1     2     4	 9 ;      CG321     NG2R53     CG2R53     CG3C50
    7     1     2     3	 9 ;     CG3C53     NG2R53     CG2R53      OG2D1
    7     1     2     4	 9 ;     CG3C53     NG2R53     CG2R53     CG3C50
   20     1     7    26	 9 ;      CG321     NG2R53     CG3C53      NG3P3
   20     1     7     5	 9 ;      CG321     NG2R53     CG3C53      NG3P2
   20     1     7    30	 9 ;      CG321     NG2R53     CG3C53       HGA1
    2     1     7    26	 9 ;     CG2R53     NG2R53     CG3C53      NG3P3
    2     1     7     5	 9 ;     CG2R53     NG2R53     CG3C53      NG3P2
    2     1     7    30	 9 ;     CG2R53     NG2R53     CG3C53       HGA1
    3     2     4     8	 9 ;      OG2D1     CG2R53     CG3C50      CG311
    3     2     4     5	 9 ;      OG2D1     CG2R53     CG3C50      NG3P2
    3     2     4    14	 9 ;      OG2D1     CG2R53     CG3C50     CG2R61
    1     2     4     8	 9 ;     NG2R53     CG2R53     CG3C50      CG311
    1     2     4     5	 9 ;     NG2R53     CG2R53     CG3C50      NG3P2
    1     2     4    14	 9 ;     NG2R53     CG2R53     CG3C50     CG2R61
    2     4     8    13	 9 ;     CG2R53     CG3C50      CG311      CG321
    2     4     8     9	 9 ;     CG2R53     CG3C50      CG311      CG321
    2     4     8    31	 9 ;     CG2R53     CG3C50      CG311       HGA1
    5     4     8    13	 9 ;      NG3P2     CG3C50      CG311      CG321
    5     4     8     9	 9 ;      NG3P2     CG3C50      CG311      CG321
    5     4     8    31	 9 ;      NG3P2     CG3C50      CG311       HGA1
   14     4     8    13	 9 ;     CG2R61     CG3C50      CG311      CG321
   14     4     8     9	 9 ;     CG2R61     CG3C50      CG311      CG321
   14     4     8    31	 9 ;     CG2R61     CG3C50      CG311       HGA1
    2     4     5     7	 9 ;     CG2R53     CG3C50      NG3P2     CG3C53
    2     4     5     6	 9 ;     CG2R53     CG3C50      NG3P2       HGP2
    2     4     5    29	 9 ;     CG2R53     CG3C50      NG3P2       HGP2
    8     4     5     7	 9 ;      CG311     CG3C50      NG3P2     CG3C53
    8     4     5     6	 9 ;      CG311     CG3C50      NG3P2       HGP2
    8     4     5    29	 9 ;      CG311     CG3C50      NG3P2       HGP2
   14     4     5     7	 9 ;     CG2R61     CG3C50      NG3P2     CG3C53
   14     4     5     6	 9 ;     CG2R61     CG3C50      NG3P2       HGP2
   14     4     5    29	 9 ;     CG2R61     CG3C50      NG3P2       HGP2
    2     4    14    19	 9 ;     CG2R53     CG3C50     CG2R61     CG2R61
    2     4    14    15	 9 ;     CG2R53     CG3C50     CG2R61     CG2R61
    8     4    14    19	 9 ;      CG311     CG3C50     CG2R61     CG2R61
    8     4    14    15	 9 ;      CG311     CG3C50     CG2R61     CG2R61
    5     4    14    19	 9 ;      NG3P2     CG3C50     CG2R61     CG2R61
    5     4    14    15	 9 ;      NG3P2     CG3C50     CG2R61     CG2R61
    4     5     7     1	 9 ;     CG3C50      NG3P2     CG3C53     NG2R53
    4     5     7    26	 9 ;     CG3C50      NG3P2     CG3C53      NG3P3
    4     5     7    30	 9 ;     CG3C50      NG3P2     CG3C53       HGA1
    6     5     7     1	 9 ;       HGP2      NG3P2     CG3C53     NG2R53
    6     5     7    26	 9 ;       HGP2      NG3P2     CG3C53      NG3P3
    6     5     7    30	 9 ;       HGP2      NG3P2     CG3C53       HGA1
   29     5     7     1	 9 ;       HGP2      NG3P2     CG3C53     NG2R53
   29     5     7    26	 9 ;       HGP2      NG3P2     CG3C53      NG3P3
   29     5     7    30	 9 ;       HGP2      NG3P2     CG3C53       HGA1
    1     7    26    28	 9 ;     NG2R53     CG3C53      NG3P3       HGP2
    1     7    26    27	 9 ;     NG2R53     CG3C53      NG3P3       HGP2
    1     7    26    56	 9 ;     NG2R53     CG3C53      NG3P3       HGP2
    5     7    26    28	 9 ;      NG3P2     CG3C53      NG3P3       HGP2
    5     7    26    27	 9 ;      NG3P2     CG3C53      NG3P3       HGP2
    5     7    26    56	 9 ;      NG3P2     CG3C53      NG3P3       HGP2
   30     7    26    28	 9 ;       HGA1     CG3C53      NG3P3       HGP2
   30     7    26    27	 9 ;       HGA1     CG3C53      NG3P3       HGP2
   30     7    26    56	 9 ;       HGA1     CG3C53      NG3P3       HGP2
    9     8    13    12	 9 ;      CG321      CG311      CG321      CG321
    9     8    13    40	 9 ;      CG321      CG311      CG321       HGA2
    9     8    13    41	 9 ;      CG321      CG311      CG321       HGA2
    4     8    13    12	 9 ;     CG3C50      CG311      CG321      CG321
    4     8    13    40	 9 ;     CG3C50      CG311      CG321       HGA2
    4     8    13    41	 9 ;     CG3C50      CG311      CG321       HGA2
   31     8    13    12	 9 ;       HGA1      CG311      CG321      CG321
   31     8    13    40	 9 ;       HGA1      CG311      CG321       HGA2
   31     8    13    41	 9 ;       HGA1      CG311      CG321       HGA2
   13     8     9    10	 9 ;      CG321      CG311      CG321      CG321
   13     8     9    32	 9 ;      CG321      CG311      CG321       HGA2
   13     8     9    33	 9 ;      CG321      CG311      CG321       HGA2
    4     8     9    10	 9 ;     CG3C50      CG311      CG321      CG321
    4     8     9    32	 9 ;     CG3C50      CG311      CG321       HGA2
    4     8     9    33	 9 ;     CG3C50      CG311      CG321       HGA2
   31     8     9    10	 9 ;       HGA1      CG311      CG321      CG321
   31     8     9    32	 9 ;       HGA1      CG311      CG321       HGA2
   31     8     9    33	 9 ;       HGA1      CG311      CG321       HGA2
    8     9    10    11	 9 ;      CG311      CG321      CG321      CG321
    8     9    10    34	 9 ;      CG311      CG321      CG321       HGA2
    8     9    10    35	 9 ;      CG311      CG321      CG321       HGA2
   32     9    10    11	 9 ;       HGA2      CG321      CG321      CG321
   32     9    10    34	 9 ;       HGA2      CG321      CG321       HGA2
   32     9    10    35	 9 ;       HGA2      CG321      CG321       HGA2
   33     9    10    11	 9 ;       HGA2      CG321      CG321      CG321
   33     9    10    34	 9 ;       HGA2      CG321      CG321       HGA2
   33     9    10    35	 9 ;       HGA2      CG321      CG321       HGA2
    9    10    11    12	 9 ;      CG321      CG321      CG321      CG321
    9    10    11    36	 9 ;      CG321      CG321      CG321       HGA2
    9    10    11    37	 9 ;      CG321      CG321      CG321       HGA2
   34    10    11    12	 9 ;       HGA2      CG321      CG321      CG321
   34    10    11    36	 9 ;       HGA2      CG321      CG321       HGA2
   34    10    11    37	 9 ;       HGA2      CG321      CG321       HGA2
   35    10    11    12	 9 ;       HGA2      CG321      CG321      CG321
   35    10    11    36	 9 ;       HGA2      CG321      CG321       HGA2
   35    10    11    37	 9 ;       HGA2      CG321      CG321       HGA2
   10    11    12    13	 9 ;      CG321      CG321      CG321      CG321
   10    11    12    38	 9 ;      CG321      CG321      CG321       HGA2
   10    11    12    39	 9 ;      CG321      CG321      CG321       HGA2
   36    11    12    13	 9 ;       HGA2      CG321      CG321      CG321
   36    11    12    38	 9 ;       HGA2      CG321      CG321       HGA2
   36    11    12    39	 9 ;       HGA2      CG321      CG321       HGA2
   37    11    12    13	 9 ;       HGA2      CG321      CG321      CG321
   37    11    12    38	 9 ;       HGA2      CG321      CG321       HGA2
   37    11    12    39	 9 ;       HGA2      CG321      CG321       HGA2
   11    12    13     8	 9 ;      CG321      CG321      CG321      CG311
   11    12    13    40	 9 ;      CG321      CG321      CG321       HGA2
   11    12    13    41	 9 ;      CG321      CG321      CG321       HGA2
   38    12    13     8	 9 ;       HGA2      CG321      CG321      CG311
   38    12    13    40	 9 ;       HGA2      CG321      CG321       HGA2
   38    12    13    41	 9 ;       HGA2      CG321      CG321       HGA2
   39    12    13     8	 9 ;       HGA2      CG321      CG321      CG311
   39    12    13    40	 9 ;       HGA2      CG321      CG321       HGA2
   39    12    13    41	 9 ;       HGA2      CG321      CG321       HGA2
    4    14    19    18	 9 ;     CG3C50     CG2R61     CG2R61     CG2R61
    4    14    19    46	 9 ;     CG3C50     CG2R61     CG2R61      HGR61
   15    14    19    18	 9 ;     CG2R61     CG2R61     CG2R61     CG2R61
   15    14    19    46	 9 ;     CG2R61     CG2R61     CG2R61      HGR61
    4    14    15    16	 9 ;     CG3C50     CG2R61     CG2R61     CG2R61
    4    14    15    42	 9 ;     CG3C50     CG2R61     CG2R61      HGR61
   19    14    15    16	 9 ;     CG2R61     CG2R61     CG2R61     CG2R61
   19    14    15    42	 9 ;     CG2R61     CG2R61     CG2R61      HGR61
   14    15    16    17	 9 ;     CG2R61     CG2R61     CG2R61     CG2R61
   14    15    16    43	 9 ;     CG2R61     CG2R61     CG2R61      HGR61
   42    15    16    17	 9 ;      HGR61     CG2R61     CG2R61     CG2R61
   42    15    16    43	 9 ;      HGR61     CG2R61     CG2R61      HGR61
   15    16    17    18	 9 ;     CG2R61     CG2R61     CG2R61     CG2R61
   15    16    17    44	 9 ;     CG2R61     CG2R61     CG2R61      HGR61
   43    16    17    18	 9 ;      HGR61     CG2R61     CG2R61     CG2R61
   43    16    17    44	 9 ;      HGR61     CG2R61     CG2R61      HGR61
   16    17    18    19	 9 ;     CG2R61     CG2R61     CG2R61     CG2R61
   16    17    18    45	 9 ;     CG2R61     CG2R61     CG2R61      HGR61
   44    17    18    19	 9 ;      HGR61     CG2R61     CG2R61     CG2R61
   44    17    18    45	 9 ;      HGR61     CG2R61     CG2R61      HGR61
   17    18    19    14	 9 ;     CG2R61     CG2R61     CG2R61     CG2R61
   17    18    19    46	 9 ;     CG2R61     CG2R61     CG2R61      HGR61
   45    18    19    14	 9 ;      HGR61     CG2R61     CG2R61     CG2R61
   45    18    19    46	 9 ;      HGR61     CG2R61     CG2R61      HGR61
    1    20    21    25	 9 ;     NG2R53      CG321     CG3C51     OG3C51
    1    20    21    22	 9 ;     NG2R53      CG321     CG3C51     CG3C52
    1    20    21    49	 9 ;     NG2R53      CG321     CG3C51       HGA1
   47    20    21    25	 9 ;       HGA2      CG321     CG3C51     OG3C51
   47    20    21    22	 9 ;       HGA2      CG321     CG3C51     CG3C52
   47    20    21    49	 9 ;       HGA2      CG321     CG3C51       HGA1
   48    20    21    25	 9 ;       HGA2      CG321     CG3C51     OG3C51
   48    20    21    22	 9 ;       HGA2      CG321     CG3C51     CG3C52
   48    20    21    49	 9 ;       HGA2      CG321     CG3C51       HGA1
   20    21    25    24	 9 ;      CG321     CG3C51     OG3C51     CG3C52
   22    21    25    24	 9 ;     CG3C52     CG3C51     OG3C51     CG3C52
   49    21    25    24	 9 ;       HGA1     CG3C51     OG3C51     CG3C52
   20    21    22    23	 9 ;      CG321     CG3C51     CG3C52     CG3C52
   20    21    22    50	 9 ;      CG321     CG3C51     CG3C52       HGA2
   20    21    22    51	 9 ;      CG321     CG3C51     CG3C52       HGA2
   25    21    22    23	 9 ;     OG3C51     CG3C51     CG3C52     CG3C52
   25    21    22    50	 9 ;     OG3C51     CG3C51     CG3C52       HGA2
   25    21    22    51	 9 ;     OG3C51     CG3C51     CG3C52       HGA2
   49    21    22    23	 9 ;       HGA1     CG3C51     CG3C52     CG3C52
   49    21    22    50	 9 ;       HGA1     CG3C51     CG3C52       HGA2
   49    21    22    51	 9 ;       HGA1     CG3C51     CG3C52       HGA2
   21    22    23    24	 9 ;     CG3C51     CG3C52     CG3C52     CG3C52
   21    22    23    52	 9 ;     CG3C51     CG3C52     CG3C52       HGA2
   21    22    23    53	 9 ;     CG3C51     CG3C52     CG3C52       HGA2
   50    22    23    24	 9 ;       HGA2     CG3C52     CG3C52     CG3C52
   50    22    23    52	 9 ;       HGA2     CG3C52     CG3C52       HGA2
   50    22    23    53	 9 ;       HGA2     CG3C52     CG3C52       HGA2
   51    22    23    24	 9 ;       HGA2     CG3C52     CG3C52     CG3C52
   51    22    23    52	 9 ;       HGA2     CG3C52     CG3C52       HGA2
   51    22    23    53	 9 ;       HGA2     CG3C52     CG3C52       HGA2
   22    23    24    25	 9 ;     CG3C52     CG3C52     CG3C52     OG3C51
   22    23    24    54	 9 ;     CG3C52     CG3C52     CG3C52       HGA2
   22    23    24    55	 9 ;     CG3C52     CG3C52     CG3C52       HGA2
   52    23    24    25	 9 ;       HGA2     CG3C52     CG3C52     OG3C51
   52    23    24    54	 9 ;       HGA2     CG3C52     CG3C52       HGA2
   52    23    24    55	 9 ;       HGA2     CG3C52     CG3C52       HGA2
   53    23    24    25	 9 ;       HGA2     CG3C52     CG3C52     OG3C51
   53    23    24    54	 9 ;       HGA2     CG3C52     CG3C52       HGA2
   53    23    24    55	 9 ;       HGA2     CG3C52     CG3C52       HGA2
   23    24    25    21	 9 ;     CG3C52     CG3C52     OG3C51     CG3C51
   54    24    25    21	 9 ;       HGA2     CG3C52     OG3C51     CG3C51
   55    24    25    21	 9 ;       HGA2     CG3C52     OG3C51     CG3C51

[ dihedrals ]
;	ai	  aj	ak	  al funct			  c0			c1			  c2			c3
    2     4     1     3	 2

