; Created by cgenff_charmm2gmx.py

[ moleculetype ]
; Name			   nrexcl
LIG				 3

[ atoms ]
;	 nr		  type	resnr residue  atom   cgnr	   charge		mass  typeB    chargeB		massB
; residue	 1 LIG rtp LIG q	qsum
     1      NG2S1      1    LIG     N1      1     -0.385     14.007   ;
     2      CG2O1      1    LIG     C1      2      0.497     12.011   ;
     3      OG2D1      1    LIG     O1      3     -0.509     15.999   ;
     4       HGP1      1    LIG     H1      4      0.269      1.008   ;
     5      CG311      1    LIG     C2      5     -0.003     12.011   ;
     6      CG311      1    LIG     C3      6      0.094     12.011   ;
     7      CG324      1    LIG     C4      7      0.178     12.011   ;
     8      NG3P2      1    LIG     N2      8     -0.444     14.007   ;
     9       HGP2      1    LIG     H2      9      0.348      1.008   ;
    10       HGP2      1    LIG     H3     10      0.348      1.008   ;
    11      CG324      1    LIG     C5     11      0.171     12.011   ;
    12     CG2R61      1    LIG     C6     12      0.036     12.011   ;
    13     CG2R61      1    LIG     C7     13     -0.124     12.011   ;
    14     CG2R61      1    LIG     C8     14      0.216     12.011   ;
    15     CG2R61      1    LIG     C9     15     -0.121     12.011   ;
    16     CG2R61      1    LIG    C10     16     -0.108     12.011   ;
    17     CG2R61      1    LIG    C11     17     -0.119     12.011   ;
    18      OG301      1    LIG     O2     18     -0.383     15.999   ;
    19      CG331      1    LIG    C12     19     -0.094     12.011   ;
    20      OG311      1    LIG     O3     20     -0.625     15.999   ;
    21       HGP1      1    LIG     H4     21      0.415      1.008   ;
    22      CG321      1    LIG    C13     22     -0.111     12.011   ;
    23     CG2R61      1    LIG    C14     23     -0.019     12.011   ;
    24     CG2R61      1    LIG    C15     24     -0.123     12.011   ;
    25     CG2R61      1    LIG    C16     25     -0.112     12.011   ;
    26     CG2R61      1    LIG    C17     26     -0.116     12.011   ;
    27     CG2R61      1    LIG    C18     27     -0.112     12.011   ;
    28     CG2R61      1    LIG    C19     28     -0.123     12.011   ;
    29      CG311      1    LIG    C20     29      0.051     12.011   ;
    30     NG2R53      1    LIG     N3     30     -0.115     14.007   ;
    31     CG3C52      1    LIG    C21     31     -0.083     12.011   ;
    32     CG3C52      1    LIG    C22     32     -0.365     12.011   ;
    33     CG3C50      1    LIG    C23     33      0.578     12.011   ;
    34     CG2R53      1    LIG    C24     34      0.040     12.011   ;
    35      OG2D1      1    LIG     O4     35     -0.404     15.999   ;
    36      NG2S1      1    LIG     N4     36     -0.174     14.007   ;
    37      CG2O1      1    LIG    C25     37      0.398     12.011   ;
    38      OG2D1      1    LIG     O5     38     -0.536     15.999   ;
    39      CG331      1    LIG    C26     39     -0.269     12.011   ;
    40       HGP1      1    LIG     H5     40      0.256      1.008   ;
    41      CG311      1    LIG    C27     41     -0.157     12.011   ;
    42      CG331      1    LIG    C28     42     -0.269     12.011   ;
    43      CG321      1    LIG    C29     43     -0.126     12.011   ;
    44      CG331      1    LIG    C30     44     -0.319     12.011   ;
    45      CG321      1    LIG    C31     45     -0.187     12.011   ;
    46      CG321      1    LIG    C32     46     -0.185     12.011   ;
    47     CG2R61      1    LIG    C33     47      0.007     12.011   ;
    48     CG2R61      1    LIG    C34     48     -0.123     12.011   ;
    49     CG2R61      1    LIG    C35     49     -0.112     12.011   ;
    50     CG2R61      1    LIG    C36     50     -0.116     12.011   ;
    51     CG2R61      1    LIG    C37     51     -0.112     12.011   ;
    52     CG2R61      1    LIG    C38     52     -0.123     12.011   ;
    53       HGA1      1    LIG     HC     53      0.090      1.008   ;
    54       HGA1      1    LIG    HC1     54      0.090      1.008   ;
    55       HGA2      1    LIG    HC2     55      0.090      1.008   ;
    56       HGA2      1    LIG    HC3     56      0.090      1.008   ;
    57       HGA2      1    LIG    HC4     57      0.090      1.008   ;
    58       HGA2      1    LIG    HC5     58      0.090      1.008   ;
    59      HGR61      1    LIG    HC6     59      0.116      1.008   ;
    60      HGR61      1    LIG    HC7     60      0.116      1.008   ;
    61      HGR61      1    LIG    HC8     61      0.116      1.008   ;
    62      HGR61      1    LIG    HC9     62      0.116      1.008   ;
    63       HGA2      1    LIG   HC10     63      0.090      1.008   ;
    64       HGA2      1    LIG   HC11     64      0.090      1.008   ;
    65      HGR61      1    LIG   HC12     65      0.116      1.008   ;
    66      HGR61      1    LIG   HC13     66      0.116      1.008   ;
    67      HGR61      1    LIG   HC14     67      0.116      1.008   ;
    68      HGR61      1    LIG   HC15     68      0.116      1.008   ;
    69      HGR61      1    LIG   HC16     69      0.116      1.008   ;
    70       HGA1      1    LIG   HC17     70      0.090      1.008   ;
    71       HGA2      1    LIG   HC18     71      0.090      1.008   ;
    72       HGA2      1    LIG   HC19     72      0.090      1.008   ;
    73       HGA2      1    LIG   HC20     73      0.090      1.008   ;
    74       HGA2      1    LIG   HC21     74      0.090      1.008   ;
    75       HGA1      1    LIG   HC22     75      0.090      1.008   ;
    76       HGA2      1    LIG   HC23     76      0.090      1.008   ;
    77       HGA2      1    LIG   HC24     77      0.090      1.008   ;
    78       HGA2      1    LIG   HC25     78      0.090      1.008   ;
    79       HGA2      1    LIG   HC26     79      0.090      1.008   ;
    80       HGA2      1    LIG   HC27     80      0.090      1.008   ;
    81       HGA2      1    LIG   HC28     81      0.090      1.008   ;
    82      HGR61      1    LIG   HC29     82      0.116      1.008   ;
    83      HGR61      1    LIG   HC30     83      0.116      1.008   ;
    84      HGR61      1    LIG   HC31     84      0.116      1.008   ;
    85      HGR61      1    LIG   HC32     85      0.116      1.008   ;
    86      HGR61      1    LIG   HC33     86      0.116      1.008   ;
    87       HGA3      1    LIG   HC34     87      0.090      1.008   ;
    88       HGA3      1    LIG   HC35     88      0.090      1.008   ;
    89       HGA3      1    LIG   HC36     89      0.090      1.008   ;
    90       HGA3      1    LIG   HC37     90      0.090      1.008   ;
    91       HGA3      1    LIG   HC38     91      0.090      1.008   ;
    92       HGA3      1    LIG   HC39     92      0.090      1.008   ;
    93       HGA3      1    LIG   HC40     93      0.090      1.008   ;
    94       HGA3      1    LIG   HC41     94      0.090      1.008   ;
    95       HGA3      1    LIG   HC42     95      0.090      1.008   ;
    96       HGA3      1    LIG   HC43     96      0.090      1.008   ;
    97       HGA3      1    LIG   HC44     97      0.090      1.008   ;
    98       HGA3      1    LIG   HC45     98      0.090      1.008   ;

[ bonds ]
;	ai	  aj funct			  c0			c1			  c2			c3
    1     2	 1 ;       NG2S1      CG2O1
    1     4	 1 ;       NG2S1       HGP1
    1     5	 1 ;       NG2S1      CG311
    2    29	 1 ;       CG2O1      CG311
    2     3	 1 ;       CG2O1      OG2D1
    5     6	 1 ;       CG311      CG311
    5    22	 1 ;       CG311      CG321
    5    53	 1 ;       CG311       HGA1
    6     7	 1 ;       CG311      CG324
    6    20	 1 ;       CG311      OG311
    6    54	 1 ;       CG311       HGA1
    7     8	 1 ;       CG324      NG3P2
    7    55	 1 ;       CG324       HGA2
    7    56	 1 ;       CG324       HGA2
    8    11	 1 ;       NG3P2      CG324
    8     9	 1 ;       NG3P2       HGP2
    8    10	 1 ;       NG3P2       HGP2
   11    12	 1 ;       CG324     CG2R61
   11    57	 1 ;       CG324       HGA2
   11    58	 1 ;       CG324       HGA2
   12    17	 1 ;      CG2R61     CG2R61
   12    13	 1 ;      CG2R61     CG2R61
   13    14	 1 ;      CG2R61     CG2R61
   13    59	 1 ;      CG2R61      HGR61
   14    15	 1 ;      CG2R61     CG2R61
   14    18	 1 ;      CG2R61      OG301
   15    16	 1 ;      CG2R61     CG2R61
   15    60	 1 ;      CG2R61      HGR61
   16    17	 1 ;      CG2R61     CG2R61
   16    61	 1 ;      CG2R61      HGR61
   17    62	 1 ;      CG2R61      HGR61
   18    19	 1 ;       OG301      CG331
   19    93	 1 ;       CG331       HGA3
   19    94	 1 ;       CG331       HGA3
   19    95	 1 ;       CG331       HGA3
   20    21	 1 ;       OG311       HGP1
   22    23	 1 ;       CG321     CG2R61
   22    63	 1 ;       CG321       HGA2
   22    64	 1 ;       CG321       HGA2
   23    28	 1 ;      CG2R61     CG2R61
   23    24	 1 ;      CG2R61     CG2R61
   24    25	 1 ;      CG2R61     CG2R61
   24    65	 1 ;      CG2R61      HGR61
   25    26	 1 ;      CG2R61     CG2R61
   25    66	 1 ;      CG2R61      HGR61
   26    27	 1 ;      CG2R61     CG2R61
   26    67	 1 ;      CG2R61      HGR61
   27    28	 1 ;      CG2R61     CG2R61
   27    68	 1 ;      CG2R61      HGR61
   28    69	 1 ;      CG2R61      HGR61
   29    30	 1 ;       CG311     NG2R53
   29    45	 1 ;       CG311      CG321
   29    70	 1 ;       CG311       HGA1
   30    34	 1 ;      NG2R53     CG2R53
   30    31	 1 ;      NG2R53     CG3C52
   31    32	 1 ;      CG3C52     CG3C52
   31    71	 1 ;      CG3C52       HGA2
   31    72	 1 ;      CG3C52       HGA2
   32    33	 1 ;      CG3C52     CG3C50
   32    73	 1 ;      CG3C52       HGA2
   32    74	 1 ;      CG3C52       HGA2
   33    41	 1 ;      CG3C50      CG311
   33    36	 1 ;      CG3C50      NG2S1
   33    34	 1 ;      CG3C50     CG2R53
   34    35	 1 ;      CG2R53      OG2D1
   36    37	 1 ;       NG2S1      CG2O1
   36    40	 1 ;       NG2S1       HGP1
   37    38	 1 ;       CG2O1      OG2D1
   37    39	 1 ;       CG2O1      CG331
   39    90	 1 ;       CG331       HGA3
   39    91	 1 ;       CG331       HGA3
   39    92	 1 ;       CG331       HGA3
   41    42	 1 ;       CG311      CG331
   41    43	 1 ;       CG311      CG321
   41    75	 1 ;       CG311       HGA1
   42    96	 1 ;       CG331       HGA3
   42    97	 1 ;       CG331       HGA3
   42    98	 1 ;       CG331       HGA3
   43    44	 1 ;       CG321      CG331
   43    76	 1 ;       CG321       HGA2
   43    77	 1 ;       CG321       HGA2
   44    87	 1 ;       CG331       HGA3
   44    88	 1 ;       CG331       HGA3
   44    89	 1 ;       CG331       HGA3
   45    46	 1 ;       CG321      CG321
   45    78	 1 ;       CG321       HGA2
   45    79	 1 ;       CG321       HGA2
   46    47	 1 ;       CG321     CG2R61
   46    80	 1 ;       CG321       HGA2
   46    81	 1 ;       CG321       HGA2
   47    52	 1 ;      CG2R61     CG2R61
   47    48	 1 ;      CG2R61     CG2R61
   48    49	 1 ;      CG2R61     CG2R61
   48    82	 1 ;      CG2R61      HGR61
   49    50	 1 ;      CG2R61     CG2R61
   49    83	 1 ;      CG2R61      HGR61
   50    51	 1 ;      CG2R61     CG2R61
   50    84	 1 ;      CG2R61      HGR61
   51    52	 1 ;      CG2R61     CG2R61
   51    85	 1 ;      CG2R61      HGR61
   52    86	 1 ;      CG2R61      HGR61

[ pairs ]
;	ai	  aj funct			  c0			c1			  c2			c3
    1    30	 1
    1    45	 1
    1    70	 1
    1     7	 1
    1    20	 1
    1    54	 1
    1    23	 1
    1    63	 1
    1    64	 1
    2     6	 1
    2    22	 1
    2    53	 1
    2    34	 1
    2    31	 1
    2    46	 1
    2    78	 1
    2    79	 1
    3     4	 1
    3     5	 1
    3    30	 1
    3    45	 1
    3    70	 1
    4    29	 1
    4     6	 1
    4    22	 1
    4    53	 1
    5    29	 1
    5     8	 1
    5    55	 1
    5    56	 1
    5    21	 1
    5    28	 1
    5    24	 1
    6    23	 1
    6    63	 1
    6    64	 1
    6    11	 1
    6     9	 1
    6    10	 1
    7    22	 1
    7    53	 1
    7    21	 1
    7    12	 1
    7    57	 1
    7    58	 1
    8    20	 1
    8    54	 1
    8    17	 1
    8    13	 1
    9    55	 1
    9    56	 1
    9    12	 1
    9    57	 1
    9    58	 1
   10    55	 1
   10    56	 1
   10    12	 1
   10    57	 1
   10    58	 1
   11    55	 1
   11    56	 1
   11    16	 1
   11    62	 1
   11    14	 1
   11    59	 1
   12    15	 1
   12    18	 1
   12    61	 1
   13    57	 1
   13    58	 1
   13    16	 1
   13    62	 1
   13    60	 1
   13    19	 1
   14    17	 1
   14    61	 1
   14    93	 1
   14    94	 1
   14    95	 1
   15    59	 1
   15    19	 1
   15    62	 1
   16    18	 1
   17    57	 1
   17    58	 1
   17    59	 1
   17    60	 1
   18    59	 1
   18    60	 1
   20    22	 1
   20    53	 1
   20    55	 1
   20    56	 1
   21    54	 1
   22    54	 1
   22    27	 1
   22    69	 1
   22    25	 1
   22    65	 1
   23    53	 1
   23    26	 1
   23    66	 1
   23    68	 1
   24    63	 1
   24    64	 1
   24    27	 1
   24    69	 1
   24    67	 1
   25    28	 1
   25    68	 1
   26    65	 1
   26    69	 1
   27    66	 1
   28    63	 1
   28    64	 1
   28    65	 1
   28    67	 1
   29    33	 1
   29    35	 1
   29    32	 1
   29    71	 1
   29    72	 1
   29    47	 1
   29    80	 1
   29    81	 1
   30    46	 1
   30    78	 1
   30    79	 1
   30    73	 1
   30    74	 1
   30    41	 1
   30    36	 1
   31    45	 1
   31    70	 1
   31    35	 1
   31    41	 1
   31    36	 1
   32    42	 1
   32    43	 1
   32    75	 1
   32    37	 1
   32    40	 1
   32    35	 1
   33    71	 1
   33    72	 1
   33    38	 1
   33    39	 1
   33    96	 1
   33    97	 1
   33    98	 1
   33    44	 1
   33    76	 1
   33    77	 1
   34    45	 1
   34    70	 1
   34    71	 1
   34    72	 1
   34    73	 1
   34    74	 1
   34    42	 1
   34    43	 1
   34    75	 1
   34    37	 1
   34    40	 1
   35    41	 1
   35    36	 1
   36    73	 1
   36    74	 1
   36    42	 1
   36    43	 1
   36    75	 1
   36    90	 1
   36    91	 1
   36    92	 1
   37    41	 1
   38    40	 1
   38    90	 1
   38    91	 1
   38    92	 1
   39    40	 1
   40    41	 1
   41    73	 1
   41    74	 1
   41    87	 1
   41    88	 1
   41    89	 1
   42    44	 1
   42    76	 1
   42    77	 1
   43    96	 1
   43    97	 1
   43    98	 1
   44    75	 1
   45    52	 1
   45    48	 1
   46    70	 1
   46    51	 1
   46    86	 1
   46    49	 1
   46    82	 1
   47    78	 1
   47    79	 1
   47    50	 1
   47    83	 1
   47    85	 1
   48    80	 1
   48    81	 1
   48    51	 1
   48    86	 1
   48    84	 1
   49    52	 1
   49    85	 1
   50    82	 1
   50    86	 1
   51    83	 1
   52    80	 1
   52    81	 1
   52    82	 1
   52    84	 1
   53    54	 1
   53    63	 1
   53    64	 1
   54    55	 1
   54    56	 1
   60    61	 1
   61    62	 1
   65    66	 1
   66    67	 1
   67    68	 1
   68    69	 1
   70    78	 1
   70    79	 1
   71    73	 1
   71    74	 1
   72    73	 1
   72    74	 1
   75    96	 1
   75    97	 1
   75    98	 1
   75    76	 1
   75    77	 1
   76    87	 1
   76    88	 1
   76    89	 1
   77    87	 1
   77    88	 1
   77    89	 1
   78    80	 1
   78    81	 1
   79    80	 1
   79    81	 1
   82    83	 1
   83    84	 1
   84    85	 1
   85    86	 1

[ angles ]
;	ai	  aj	ak funct			c0			  c1			c2			  c3
    2     1     4	5 ;      CG2O1      NG2S1       HGP1
    2     1     5	5 ;      CG2O1      NG2S1      CG311
    4     1     5	5 ;       HGP1      NG2S1      CG311
   29     2     3	5 ;      CG311      CG2O1      OG2D1
   29     2     1	5 ;      CG311      CG2O1      NG2S1
    3     2     1	5 ;      OG2D1      CG2O1      NG2S1
    1     5     6	5 ;      NG2S1      CG311      CG311
    1     5    22	5 ;      NG2S1      CG311      CG321
    1     5    53	5 ;      NG2S1      CG311       HGA1
    6     5    22	5 ;      CG311      CG311      CG321
    6     5    53	5 ;      CG311      CG311       HGA1
   22     5    53	5 ;      CG321      CG311       HGA1
    7     6     5	5 ;      CG324      CG311      CG311
    7     6    20	5 ;      CG324      CG311      OG311
    7     6    54	5 ;      CG324      CG311       HGA1
    5     6    20	5 ;      CG311      CG311      OG311
    5     6    54	5 ;      CG311      CG311       HGA1
   20     6    54	5 ;      OG311      CG311       HGA1
    6     7     8	5 ;      CG311      CG324      NG3P2
    6     7    55	5 ;      CG311      CG324       HGA2
    6     7    56	5 ;      CG311      CG324       HGA2
    8     7    55	5 ;      NG3P2      CG324       HGA2
    8     7    56	5 ;      NG3P2      CG324       HGA2
   55     7    56	5 ;       HGA2      CG324       HGA2
    7     8    11	5 ;      CG324      NG3P2      CG324
    7     8     9	5 ;      CG324      NG3P2       HGP2
    7     8    10	5 ;      CG324      NG3P2       HGP2
   11     8     9	5 ;      CG324      NG3P2       HGP2
   11     8    10	5 ;      CG324      NG3P2       HGP2
    9     8    10	5 ;       HGP2      NG3P2       HGP2
    8    11    12	5 ;      NG3P2      CG324     CG2R61
    8    11    57	5 ;      NG3P2      CG324       HGA2
    8    11    58	5 ;      NG3P2      CG324       HGA2
   12    11    57	5 ;     CG2R61      CG324       HGA2
   12    11    58	5 ;     CG2R61      CG324       HGA2
   57    11    58	5 ;       HGA2      CG324       HGA2
   11    12    17	5 ;      CG324     CG2R61     CG2R61
   11    12    13	5 ;      CG324     CG2R61     CG2R61
   17    12    13	5 ;     CG2R61     CG2R61     CG2R61
   12    13    14	5 ;     CG2R61     CG2R61     CG2R61
   12    13    59	5 ;     CG2R61     CG2R61      HGR61
   14    13    59	5 ;     CG2R61     CG2R61      HGR61
   13    14    15	5 ;     CG2R61     CG2R61     CG2R61
   13    14    18	5 ;     CG2R61     CG2R61      OG301
   15    14    18	5 ;     CG2R61     CG2R61      OG301
   16    15    14	5 ;     CG2R61     CG2R61     CG2R61
   16    15    60	5 ;     CG2R61     CG2R61      HGR61
   14    15    60	5 ;     CG2R61     CG2R61      HGR61
   17    16    15	5 ;     CG2R61     CG2R61     CG2R61
   17    16    61	5 ;     CG2R61     CG2R61      HGR61
   15    16    61	5 ;     CG2R61     CG2R61      HGR61
   12    17    16	5 ;     CG2R61     CG2R61     CG2R61
   12    17    62	5 ;     CG2R61     CG2R61      HGR61
   16    17    62	5 ;     CG2R61     CG2R61      HGR61
   14    18    19	5 ;     CG2R61      OG301      CG331
   18    19    93	5 ;      OG301      CG331       HGA3
   18    19    94	5 ;      OG301      CG331       HGA3
   18    19    95	5 ;      OG301      CG331       HGA3
   93    19    94	5 ;       HGA3      CG331       HGA3
   93    19    95	5 ;       HGA3      CG331       HGA3
   94    19    95	5 ;       HGA3      CG331       HGA3
    6    20    21	5 ;      CG311      OG311       HGP1
    5    22    23	5 ;      CG311      CG321     CG2R61
    5    22    63	5 ;      CG311      CG321       HGA2
    5    22    64	5 ;      CG311      CG321       HGA2
   23    22    63	5 ;     CG2R61      CG321       HGA2
   23    22    64	5 ;     CG2R61      CG321       HGA2
   63    22    64	5 ;       HGA2      CG321       HGA2
   22    23    28	5 ;      CG321     CG2R61     CG2R61
   22    23    24	5 ;      CG321     CG2R61     CG2R61
   28    23    24	5 ;     CG2R61     CG2R61     CG2R61
   23    24    25	5 ;     CG2R61     CG2R61     CG2R61
   23    24    65	5 ;     CG2R61     CG2R61      HGR61
   25    24    65	5 ;     CG2R61     CG2R61      HGR61
   24    25    26	5 ;     CG2R61     CG2R61     CG2R61
   24    25    66	5 ;     CG2R61     CG2R61      HGR61
   26    25    66	5 ;     CG2R61     CG2R61      HGR61
   27    26    25	5 ;     CG2R61     CG2R61     CG2R61
   27    26    67	5 ;     CG2R61     CG2R61      HGR61
   25    26    67	5 ;     CG2R61     CG2R61      HGR61
   28    27    26	5 ;     CG2R61     CG2R61     CG2R61
   28    27    68	5 ;     CG2R61     CG2R61      HGR61
   26    27    68	5 ;     CG2R61     CG2R61      HGR61
   23    28    27	5 ;     CG2R61     CG2R61     CG2R61
   23    28    69	5 ;     CG2R61     CG2R61      HGR61
   27    28    69	5 ;     CG2R61     CG2R61      HGR61
   30    29    45	5 ;     NG2R53      CG311      CG321
   30    29     2	5 ;     NG2R53      CG311      CG2O1
   30    29    70	5 ;     NG2R53      CG311       HGA1
   45    29     2	5 ;      CG321      CG311      CG2O1
   45    29    70	5 ;      CG321      CG311       HGA1
    2    29    70	5 ;      CG2O1      CG311       HGA1
   34    30    31	5 ;     CG2R53     NG2R53     CG3C52
   34    30    29	5 ;     CG2R53     NG2R53      CG311
   31    30    29	5 ;     CG3C52     NG2R53      CG311
   32    31    30	5 ;     CG3C52     CG3C52     NG2R53
   32    31    71	5 ;     CG3C52     CG3C52       HGA2
   32    31    72	5 ;     CG3C52     CG3C52       HGA2
   30    31    71	5 ;     NG2R53     CG3C52       HGA2
   30    31    72	5 ;     NG2R53     CG3C52       HGA2
   71    31    72	5 ;       HGA2     CG3C52       HGA2
   33    32    31	5 ;     CG3C50     CG3C52     CG3C52
   33    32    73	5 ;     CG3C50     CG3C52       HGA2
   33    32    74	5 ;     CG3C50     CG3C52       HGA2
   31    32    73	5 ;     CG3C52     CG3C52       HGA2
   31    32    74	5 ;     CG3C52     CG3C52       HGA2
   73    32    74	5 ;       HGA2     CG3C52       HGA2
   41    33    36	5 ;      CG311     CG3C50      NG2S1
   41    33    32	5 ;      CG311     CG3C50     CG3C52
   41    33    34	5 ;      CG311     CG3C50     CG2R53
   36    33    32	5 ;      NG2S1     CG3C50     CG3C52
   36    33    34	5 ;      NG2S1     CG3C50     CG2R53
   32    33    34	5 ;     CG3C52     CG3C50     CG2R53
   33    34    35	5 ;     CG3C50     CG2R53      OG2D1
   33    34    30	5 ;     CG3C50     CG2R53     NG2R53
   35    34    30	5 ;      OG2D1     CG2R53     NG2R53
   37    36    33	5 ;      CG2O1      NG2S1     CG3C50
   37    36    40	5 ;      CG2O1      NG2S1       HGP1
   33    36    40	5 ;     CG3C50      NG2S1       HGP1
   38    37    39	5 ;      OG2D1      CG2O1      CG331
   38    37    36	5 ;      OG2D1      CG2O1      NG2S1
   39    37    36	5 ;      CG331      CG2O1      NG2S1
   37    39    90	5 ;      CG2O1      CG331       HGA3
   37    39    91	5 ;      CG2O1      CG331       HGA3
   37    39    92	5 ;      CG2O1      CG331       HGA3
   90    39    91	5 ;       HGA3      CG331       HGA3
   90    39    92	5 ;       HGA3      CG331       HGA3
   91    39    92	5 ;       HGA3      CG331       HGA3
   42    41    43	5 ;      CG331      CG311      CG321
   42    41    33	5 ;      CG331      CG311     CG3C50
   42    41    75	5 ;      CG331      CG311       HGA1
   43    41    33	5 ;      CG321      CG311     CG3C50
   43    41    75	5 ;      CG321      CG311       HGA1
   33    41    75	5 ;     CG3C50      CG311       HGA1
   41    42    96	5 ;      CG311      CG331       HGA3
   41    42    97	5 ;      CG311      CG331       HGA3
   41    42    98	5 ;      CG311      CG331       HGA3
   96    42    97	5 ;       HGA3      CG331       HGA3
   96    42    98	5 ;       HGA3      CG331       HGA3
   97    42    98	5 ;       HGA3      CG331       HGA3
   44    43    41	5 ;      CG331      CG321      CG311
   44    43    76	5 ;      CG331      CG321       HGA2
   44    43    77	5 ;      CG331      CG321       HGA2
   41    43    76	5 ;      CG311      CG321       HGA2
   41    43    77	5 ;      CG311      CG321       HGA2
   76    43    77	5 ;       HGA2      CG321       HGA2
   43    44    87	5 ;      CG321      CG331       HGA3
   43    44    88	5 ;      CG321      CG331       HGA3
   43    44    89	5 ;      CG321      CG331       HGA3
   87    44    88	5 ;       HGA3      CG331       HGA3
   87    44    89	5 ;       HGA3      CG331       HGA3
   88    44    89	5 ;       HGA3      CG331       HGA3
   29    45    46	5 ;      CG311      CG321      CG321
   29    45    78	5 ;      CG311      CG321       HGA2
   29    45    79	5 ;      CG311      CG321       HGA2
   46    45    78	5 ;      CG321      CG321       HGA2
   46    45    79	5 ;      CG321      CG321       HGA2
   78    45    79	5 ;       HGA2      CG321       HGA2
   45    46    47	5 ;      CG321      CG321     CG2R61
   45    46    80	5 ;      CG321      CG321       HGA2
   45    46    81	5 ;      CG321      CG321       HGA2
   47    46    80	5 ;     CG2R61      CG321       HGA2
   47    46    81	5 ;     CG2R61      CG321       HGA2
   80    46    81	5 ;       HGA2      CG321       HGA2
   52    47    48	5 ;     CG2R61     CG2R61     CG2R61
   52    47    46	5 ;     CG2R61     CG2R61      CG321
   48    47    46	5 ;     CG2R61     CG2R61      CG321
   49    48    47	5 ;     CG2R61     CG2R61     CG2R61
   49    48    82	5 ;     CG2R61     CG2R61      HGR61
   47    48    82	5 ;     CG2R61     CG2R61      HGR61
   50    49    48	5 ;     CG2R61     CG2R61     CG2R61
   50    49    83	5 ;     CG2R61     CG2R61      HGR61
   48    49    83	5 ;     CG2R61     CG2R61      HGR61
   51    50    49	5 ;     CG2R61     CG2R61     CG2R61
   51    50    84	5 ;     CG2R61     CG2R61      HGR61
   49    50    84	5 ;     CG2R61     CG2R61      HGR61
   50    51    52	5 ;     CG2R61     CG2R61     CG2R61
   50    51    85	5 ;     CG2R61     CG2R61      HGR61
   52    51    85	5 ;     CG2R61     CG2R61      HGR61
   51    52    47	5 ;     CG2R61     CG2R61     CG2R61
   51    52    86	5 ;     CG2R61     CG2R61      HGR61
   47    52    86	5 ;     CG2R61     CG2R61      HGR61

[ dihedrals ]
;	ai	  aj	ak	  al funct			  c0			c1			  c2			c3			  c4			c5
    4     1     2    29	 9 ;       HGP1      NG2S1      CG2O1      CG311
    4     1     2     3	 9 ;       HGP1      NG2S1      CG2O1      OG2D1
    5     1     2    29	 9 ;      CG311      NG2S1      CG2O1      CG311
    5     1     2     3	 9 ;      CG311      NG2S1      CG2O1      OG2D1
    2     1     5     6	 9 ;      CG2O1      NG2S1      CG311      CG311
    2     1     5    22	 9 ;      CG2O1      NG2S1      CG311      CG321
    2     1     5    53	 9 ;      CG2O1      NG2S1      CG311       HGA1
    4     1     5     6	 9 ;       HGP1      NG2S1      CG311      CG311
    4     1     5    22	 9 ;       HGP1      NG2S1      CG311      CG321
    4     1     5    53	 9 ;       HGP1      NG2S1      CG311       HGA1
    3     2    29    30	 9 ;      OG2D1      CG2O1      CG311     NG2R53
    3     2    29    45	 9 ;      OG2D1      CG2O1      CG311      CG321
    3     2    29    70	 9 ;      OG2D1      CG2O1      CG311       HGA1
    1     2    29    30	 9 ;      NG2S1      CG2O1      CG311     NG2R53
    1     2    29    45	 9 ;      NG2S1      CG2O1      CG311      CG321
    1     2    29    70	 9 ;      NG2S1      CG2O1      CG311       HGA1
    1     5     6     7	 9 ;      NG2S1      CG311      CG311      CG324
    1     5     6    20	 9 ;      NG2S1      CG311      CG311      OG311
    1     5     6    54	 9 ;      NG2S1      CG311      CG311       HGA1
   22     5     6     7	 9 ;      CG321      CG311      CG311      CG324
   22     5     6    20	 9 ;      CG321      CG311      CG311      OG311
   22     5     6    54	 9 ;      CG321      CG311      CG311       HGA1
   53     5     6     7	 9 ;       HGA1      CG311      CG311      CG324
   53     5     6    20	 9 ;       HGA1      CG311      CG311      OG311
   53     5     6    54	 9 ;       HGA1      CG311      CG311       HGA1
    1     5    22    23	 9 ;      NG2S1      CG311      CG321     CG2R61
    1     5    22    63	 9 ;      NG2S1      CG311      CG321       HGA2
    1     5    22    64	 9 ;      NG2S1      CG311      CG321       HGA2
    6     5    22    23	 9 ;      CG311      CG311      CG321     CG2R61
    6     5    22    63	 9 ;      CG311      CG311      CG321       HGA2
    6     5    22    64	 9 ;      CG311      CG311      CG321       HGA2
   53     5    22    23	 9 ;       HGA1      CG311      CG321     CG2R61
   53     5    22    63	 9 ;       HGA1      CG311      CG321       HGA2
   53     5    22    64	 9 ;       HGA1      CG311      CG321       HGA2
    5     6     7     8	 9 ;      CG311      CG311      CG324      NG3P2
    5     6     7    55	 9 ;      CG311      CG311      CG324       HGA2
    5     6     7    56	 9 ;      CG311      CG311      CG324       HGA2
   20     6     7     8	 9 ;      OG311      CG311      CG324      NG3P2
   20     6     7    55	 9 ;      OG311      CG311      CG324       HGA2
   20     6     7    56	 9 ;      OG311      CG311      CG324       HGA2
   54     6     7     8	 9 ;       HGA1      CG311      CG324      NG3P2
   54     6     7    55	 9 ;       HGA1      CG311      CG324       HGA2
   54     6     7    56	 9 ;       HGA1      CG311      CG324       HGA2
    7     6    20    21	 9 ;      CG324      CG311      OG311       HGP1
    5     6    20    21	 9 ;      CG311      CG311      OG311       HGP1
   54     6    20    21	 9 ;       HGA1      CG311      OG311       HGP1
    6     7     8    11	 9 ;      CG311      CG324      NG3P2      CG324
    6     7     8     9	 9 ;      CG311      CG324      NG3P2       HGP2
    6     7     8    10	 9 ;      CG311      CG324      NG3P2       HGP2
   55     7     8    11	 9 ;       HGA2      CG324      NG3P2      CG324
   55     7     8     9	 9 ;       HGA2      CG324      NG3P2       HGP2
   55     7     8    10	 9 ;       HGA2      CG324      NG3P2       HGP2
   56     7     8    11	 9 ;       HGA2      CG324      NG3P2      CG324
   56     7     8     9	 9 ;       HGA2      CG324      NG3P2       HGP2
   56     7     8    10	 9 ;       HGA2      CG324      NG3P2       HGP2
    7     8    11    12	 9 ;      CG324      NG3P2      CG324     CG2R61
    7     8    11    57	 9 ;      CG324      NG3P2      CG324       HGA2
    7     8    11    58	 9 ;      CG324      NG3P2      CG324       HGA2
    9     8    11    12	 9 ;       HGP2      NG3P2      CG324     CG2R61
    9     8    11    57	 9 ;       HGP2      NG3P2      CG324       HGA2
    9     8    11    58	 9 ;       HGP2      NG3P2      CG324       HGA2
   10     8    11    12	 9 ;       HGP2      NG3P2      CG324     CG2R61
   10     8    11    57	 9 ;       HGP2      NG3P2      CG324       HGA2
   10     8    11    58	 9 ;       HGP2      NG3P2      CG324       HGA2
    8    11    12    17	 9 ;      NG3P2      CG324     CG2R61     CG2R61
    8    11    12    13	 9 ;      NG3P2      CG324     CG2R61     CG2R61
   57    11    12    17	 9 ;       HGA2      CG324     CG2R61     CG2R61
   57    11    12    13	 9 ;       HGA2      CG324     CG2R61     CG2R61
   58    11    12    17	 9 ;       HGA2      CG324     CG2R61     CG2R61
   58    11    12    13	 9 ;       HGA2      CG324     CG2R61     CG2R61
   11    12    17    16	 9 ;      CG324     CG2R61     CG2R61     CG2R61
   11    12    17    62	 9 ;      CG324     CG2R61     CG2R61      HGR61
   13    12    17    16	 9 ;     CG2R61     CG2R61     CG2R61     CG2R61
   13    12    17    62	 9 ;     CG2R61     CG2R61     CG2R61      HGR61
   11    12    13    14	 9 ;      CG324     CG2R61     CG2R61     CG2R61
   11    12    13    59	 9 ;      CG324     CG2R61     CG2R61      HGR61
   17    12    13    14	 9 ;     CG2R61     CG2R61     CG2R61     CG2R61
   17    12    13    59	 9 ;     CG2R61     CG2R61     CG2R61      HGR61
   12    13    14    15	 9 ;     CG2R61     CG2R61     CG2R61     CG2R61
   12    13    14    18	 9 ;     CG2R61     CG2R61     CG2R61      OG301
   59    13    14    15	 9 ;      HGR61     CG2R61     CG2R61     CG2R61
   59    13    14    18	 9 ;      HGR61     CG2R61     CG2R61      OG301
   13    14    15    16	 9 ;     CG2R61     CG2R61     CG2R61     CG2R61
   13    14    15    60	 9 ;     CG2R61     CG2R61     CG2R61      HGR61
   18    14    15    16	 9 ;      OG301     CG2R61     CG2R61     CG2R61
   18    14    15    60	 9 ;      OG301     CG2R61     CG2R61      HGR61
   13    14    18    19	 9 ;     CG2R61     CG2R61      OG301      CG331
   15    14    18    19	 9 ;     CG2R61     CG2R61      OG301      CG331
   14    15    16    17	 9 ;     CG2R61     CG2R61     CG2R61     CG2R61
   14    15    16    61	 9 ;     CG2R61     CG2R61     CG2R61      HGR61
   60    15    16    17	 9 ;      HGR61     CG2R61     CG2R61     CG2R61
   60    15    16    61	 9 ;      HGR61     CG2R61     CG2R61      HGR61
   15    16    17    12	 9 ;     CG2R61     CG2R61     CG2R61     CG2R61
   15    16    17    62	 9 ;     CG2R61     CG2R61     CG2R61      HGR61
   61    16    17    12	 9 ;      HGR61     CG2R61     CG2R61     CG2R61
   61    16    17    62	 9 ;      HGR61     CG2R61     CG2R61      HGR61
   14    18    19    93	 9 ;     CG2R61      OG301      CG331       HGA3
   14    18    19    94	 9 ;     CG2R61      OG301      CG331       HGA3
   14    18    19    95	 9 ;     CG2R61      OG301      CG331       HGA3
    5    22    23    28	 9 ;      CG311      CG321     CG2R61     CG2R61
    5    22    23    24	 9 ;      CG311      CG321     CG2R61     CG2R61
   63    22    23    28	 9 ;       HGA2      CG321     CG2R61     CG2R61
   63    22    23    24	 9 ;       HGA2      CG321     CG2R61     CG2R61
   64    22    23    28	 9 ;       HGA2      CG321     CG2R61     CG2R61
   64    22    23    24	 9 ;       HGA2      CG321     CG2R61     CG2R61
   22    23    28    27	 9 ;      CG321     CG2R61     CG2R61     CG2R61
   22    23    28    69	 9 ;      CG321     CG2R61     CG2R61      HGR61
   24    23    28    27	 9 ;     CG2R61     CG2R61     CG2R61     CG2R61
   24    23    28    69	 9 ;     CG2R61     CG2R61     CG2R61      HGR61
   22    23    24    25	 9 ;      CG321     CG2R61     CG2R61     CG2R61
   22    23    24    65	 9 ;      CG321     CG2R61     CG2R61      HGR61
   28    23    24    25	 9 ;     CG2R61     CG2R61     CG2R61     CG2R61
   28    23    24    65	 9 ;     CG2R61     CG2R61     CG2R61      HGR61
   23    24    25    26	 9 ;     CG2R61     CG2R61     CG2R61     CG2R61
   23    24    25    66	 9 ;     CG2R61     CG2R61     CG2R61      HGR61
   65    24    25    26	 9 ;      HGR61     CG2R61     CG2R61     CG2R61
   65    24    25    66	 9 ;      HGR61     CG2R61     CG2R61      HGR61
   24    25    26    27	 9 ;     CG2R61     CG2R61     CG2R61     CG2R61
   24    25    26    67	 9 ;     CG2R61     CG2R61     CG2R61      HGR61
   66    25    26    27	 9 ;      HGR61     CG2R61     CG2R61     CG2R61
   66    25    26    67	 9 ;      HGR61     CG2R61     CG2R61      HGR61
   25    26    27    28	 9 ;     CG2R61     CG2R61     CG2R61     CG2R61
   25    26    27    68	 9 ;     CG2R61     CG2R61     CG2R61      HGR61
   67    26    27    28	 9 ;      HGR61     CG2R61     CG2R61     CG2R61
   67    26    27    68	 9 ;      HGR61     CG2R61     CG2R61      HGR61
   26    27    28    23	 9 ;     CG2R61     CG2R61     CG2R61     CG2R61
   26    27    28    69	 9 ;     CG2R61     CG2R61     CG2R61      HGR61
   68    27    28    23	 9 ;      HGR61     CG2R61     CG2R61     CG2R61
   68    27    28    69	 9 ;      HGR61     CG2R61     CG2R61      HGR61
   45    29    30    34	 9 ;      CG321      CG311     NG2R53     CG2R53
   45    29    30    31	 9 ;      CG321      CG311     NG2R53     CG3C52
    2    29    30    34	 9 ;      CG2O1      CG311     NG2R53     CG2R53
    2    29    30    31	 9 ;      CG2O1      CG311     NG2R53     CG3C52
   70    29    30    34	 9 ;       HGA1      CG311     NG2R53     CG2R53
   70    29    30    31	 9 ;       HGA1      CG311     NG2R53     CG3C52
   30    29    45    46	 9 ;     NG2R53      CG311      CG321      CG321
   30    29    45    78	 9 ;     NG2R53      CG311      CG321       HGA2
   30    29    45    79	 9 ;     NG2R53      CG311      CG321       HGA2
    2    29    45    46	 9 ;      CG2O1      CG311      CG321      CG321
    2    29    45    78	 9 ;      CG2O1      CG311      CG321       HGA2
    2    29    45    79	 9 ;      CG2O1      CG311      CG321       HGA2
   70    29    45    46	 9 ;       HGA1      CG311      CG321      CG321
   70    29    45    78	 9 ;       HGA1      CG311      CG321       HGA2
   70    29    45    79	 9 ;       HGA1      CG311      CG321       HGA2
   31    30    34    33	 9 ;     CG3C52     NG2R53     CG2R53     CG3C50
   31    30    34    35	 9 ;     CG3C52     NG2R53     CG2R53      OG2D1
   29    30    34    33	 9 ;      CG311     NG2R53     CG2R53     CG3C50
   29    30    34    35	 9 ;      CG311     NG2R53     CG2R53      OG2D1
   34    30    31    32	 9 ;     CG2R53     NG2R53     CG3C52     CG3C52
   34    30    31    71	 9 ;     CG2R53     NG2R53     CG3C52       HGA2
   34    30    31    72	 9 ;     CG2R53     NG2R53     CG3C52       HGA2
   29    30    31    32	 9 ;      CG311     NG2R53     CG3C52     CG3C52
   29    30    31    71	 9 ;      CG311     NG2R53     CG3C52       HGA2
   29    30    31    72	 9 ;      CG311     NG2R53     CG3C52       HGA2
   30    31    32    33	 9 ;     NG2R53     CG3C52     CG3C52     CG3C50
   30    31    32    73	 9 ;     NG2R53     CG3C52     CG3C52       HGA2
   30    31    32    74	 9 ;     NG2R53     CG3C52     CG3C52       HGA2
   71    31    32    33	 9 ;       HGA2     CG3C52     CG3C52     CG3C50
   71    31    32    73	 9 ;       HGA2     CG3C52     CG3C52       HGA2
   71    31    32    74	 9 ;       HGA2     CG3C52     CG3C52       HGA2
   72    31    32    33	 9 ;       HGA2     CG3C52     CG3C52     CG3C50
   72    31    32    73	 9 ;       HGA2     CG3C52     CG3C52       HGA2
   72    31    32    74	 9 ;       HGA2     CG3C52     CG3C52       HGA2
   31    32    33    41	 9 ;     CG3C52     CG3C52     CG3C50      CG311
   31    32    33    36	 9 ;     CG3C52     CG3C52     CG3C50      NG2S1
   31    32    33    34	 9 ;     CG3C52     CG3C52     CG3C50     CG2R53
   73    32    33    41	 9 ;       HGA2     CG3C52     CG3C50      CG311
   73    32    33    36	 9 ;       HGA2     CG3C52     CG3C50      NG2S1
   73    32    33    34	 9 ;       HGA2     CG3C52     CG3C50     CG2R53
   74    32    33    41	 9 ;       HGA2     CG3C52     CG3C50      CG311
   74    32    33    36	 9 ;       HGA2     CG3C52     CG3C50      NG2S1
   74    32    33    34	 9 ;       HGA2     CG3C52     CG3C50     CG2R53
   36    33    41    42	 9 ;      NG2S1     CG3C50      CG311      CG331
   36    33    41    43	 9 ;      NG2S1     CG3C50      CG311      CG321
   36    33    41    75	 9 ;      NG2S1     CG3C50      CG311       HGA1
   32    33    41    42	 9 ;     CG3C52     CG3C50      CG311      CG331
   32    33    41    43	 9 ;     CG3C52     CG3C50      CG311      CG321
   32    33    41    75	 9 ;     CG3C52     CG3C50      CG311       HGA1
   34    33    41    42	 9 ;     CG2R53     CG3C50      CG311      CG331
   34    33    41    43	 9 ;     CG2R53     CG3C50      CG311      CG321
   34    33    41    75	 9 ;     CG2R53     CG3C50      CG311       HGA1
   41    33    36    37	 9 ;      CG311     CG3C50      NG2S1      CG2O1
   41    33    36    40	 9 ;      CG311     CG3C50      NG2S1       HGP1
   32    33    36    37	 9 ;     CG3C52     CG3C50      NG2S1      CG2O1
   32    33    36    40	 9 ;     CG3C52     CG3C50      NG2S1       HGP1
   34    33    36    37	 9 ;     CG2R53     CG3C50      NG2S1      CG2O1
   34    33    36    40	 9 ;     CG2R53     CG3C50      NG2S1       HGP1
   41    33    34    35	 9 ;      CG311     CG3C50     CG2R53      OG2D1
   41    33    34    30	 9 ;      CG311     CG3C50     CG2R53     NG2R53
   36    33    34    35	 9 ;      NG2S1     CG3C50     CG2R53      OG2D1
   36    33    34    30	 9 ;      NG2S1     CG3C50     CG2R53     NG2R53
   32    33    34    35	 9 ;     CG3C52     CG3C50     CG2R53      OG2D1
   32    33    34    30	 9 ;     CG3C52     CG3C50     CG2R53     NG2R53
   33    36    37    38	 9 ;     CG3C50      NG2S1      CG2O1      OG2D1
   33    36    37    39	 9 ;     CG3C50      NG2S1      CG2O1      CG331
   40    36    37    38	 9 ;       HGP1      NG2S1      CG2O1      OG2D1
   40    36    37    39	 9 ;       HGP1      NG2S1      CG2O1      CG331
   38    37    39    90	 9 ;      OG2D1      CG2O1      CG331       HGA3
   38    37    39    91	 9 ;      OG2D1      CG2O1      CG331       HGA3
   38    37    39    92	 9 ;      OG2D1      CG2O1      CG331       HGA3
   36    37    39    90	 9 ;      NG2S1      CG2O1      CG331       HGA3
   36    37    39    91	 9 ;      NG2S1      CG2O1      CG331       HGA3
   36    37    39    92	 9 ;      NG2S1      CG2O1      CG331       HGA3
   43    41    42    96	 9 ;      CG321      CG311      CG331       HGA3
   43    41    42    97	 9 ;      CG321      CG311      CG331       HGA3
   43    41    42    98	 9 ;      CG321      CG311      CG331       HGA3
   33    41    42    96	 9 ;     CG3C50      CG311      CG331       HGA3
   33    41    42    97	 9 ;     CG3C50      CG311      CG331       HGA3
   33    41    42    98	 9 ;     CG3C50      CG311      CG331       HGA3
   75    41    42    96	 9 ;       HGA1      CG311      CG331       HGA3
   75    41    42    97	 9 ;       HGA1      CG311      CG331       HGA3
   75    41    42    98	 9 ;       HGA1      CG311      CG331       HGA3
   42    41    43    44	 9 ;      CG331      CG311      CG321      CG331
   42    41    43    76	 9 ;      CG331      CG311      CG321       HGA2
   42    41    43    77	 9 ;      CG331      CG311      CG321       HGA2
   33    41    43    44	 9 ;     CG3C50      CG311      CG321      CG331
   33    41    43    76	 9 ;     CG3C50      CG311      CG321       HGA2
   33    41    43    77	 9 ;     CG3C50      CG311      CG321       HGA2
   75    41    43    44	 9 ;       HGA1      CG311      CG321      CG331
   75    41    43    76	 9 ;       HGA1      CG311      CG321       HGA2
   75    41    43    77	 9 ;       HGA1      CG311      CG321       HGA2
   41    43    44    87	 9 ;      CG311      CG321      CG331       HGA3
   41    43    44    88	 9 ;      CG311      CG321      CG331       HGA3
   41    43    44    89	 9 ;      CG311      CG321      CG331       HGA3
   76    43    44    87	 9 ;       HGA2      CG321      CG331       HGA3
   76    43    44    88	 9 ;       HGA2      CG321      CG331       HGA3
   76    43    44    89	 9 ;       HGA2      CG321      CG331       HGA3
   77    43    44    87	 9 ;       HGA2      CG321      CG331       HGA3
   77    43    44    88	 9 ;       HGA2      CG321      CG331       HGA3
   77    43    44    89	 9 ;       HGA2      CG321      CG331       HGA3
   29    45    46    47	 9 ;      CG311      CG321      CG321     CG2R61
   29    45    46    80	 9 ;      CG311      CG321      CG321       HGA2
   29    45    46    81	 9 ;      CG311      CG321      CG321       HGA2
   78    45    46    47	 9 ;       HGA2      CG321      CG321     CG2R61
   78    45    46    80	 9 ;       HGA2      CG321      CG321       HGA2
   78    45    46    81	 9 ;       HGA2      CG321      CG321       HGA2
   79    45    46    47	 9 ;       HGA2      CG321      CG321     CG2R61
   79    45    46    80	 9 ;       HGA2      CG321      CG321       HGA2
   79    45    46    81	 9 ;       HGA2      CG321      CG321       HGA2
   45    46    47    52	 9 ;      CG321      CG321     CG2R61     CG2R61
   45    46    47    48	 9 ;      CG321      CG321     CG2R61     CG2R61
   80    46    47    52	 9 ;       HGA2      CG321     CG2R61     CG2R61
   80    46    47    48	 9 ;       HGA2      CG321     CG2R61     CG2R61
   81    46    47    52	 9 ;       HGA2      CG321     CG2R61     CG2R61
   81    46    47    48	 9 ;       HGA2      CG321     CG2R61     CG2R61
   48    47    52    51	 9 ;     CG2R61     CG2R61     CG2R61     CG2R61
   48    47    52    86	 9 ;     CG2R61     CG2R61     CG2R61      HGR61
   46    47    52    51	 9 ;      CG321     CG2R61     CG2R61     CG2R61
   46    47    52    86	 9 ;      CG321     CG2R61     CG2R61      HGR61
   52    47    48    49	 9 ;     CG2R61     CG2R61     CG2R61     CG2R61
   52    47    48    82	 9 ;     CG2R61     CG2R61     CG2R61      HGR61
   46    47    48    49	 9 ;      CG321     CG2R61     CG2R61     CG2R61
   46    47    48    82	 9 ;      CG321     CG2R61     CG2R61      HGR61
   47    48    49    50	 9 ;     CG2R61     CG2R61     CG2R61     CG2R61
   47    48    49    83	 9 ;     CG2R61     CG2R61     CG2R61      HGR61
   82    48    49    50	 9 ;      HGR61     CG2R61     CG2R61     CG2R61
   82    48    49    83	 9 ;      HGR61     CG2R61     CG2R61      HGR61
   48    49    50    51	 9 ;     CG2R61     CG2R61     CG2R61     CG2R61
   48    49    50    84	 9 ;     CG2R61     CG2R61     CG2R61      HGR61
   83    49    50    51	 9 ;      HGR61     CG2R61     CG2R61     CG2R61
   83    49    50    84	 9 ;      HGR61     CG2R61     CG2R61      HGR61
   49    50    51    52	 9 ;     CG2R61     CG2R61     CG2R61     CG2R61
   49    50    51    85	 9 ;     CG2R61     CG2R61     CG2R61      HGR61
   84    50    51    52	 9 ;      HGR61     CG2R61     CG2R61     CG2R61
   84    50    51    85	 9 ;      HGR61     CG2R61     CG2R61      HGR61
   50    51    52    47	 9 ;     CG2R61     CG2R61     CG2R61     CG2R61
   50    51    52    86	 9 ;     CG2R61     CG2R61     CG2R61      HGR61
   85    51    52    47	 9 ;      HGR61     CG2R61     CG2R61     CG2R61
   85    51    52    86	 9 ;      HGR61     CG2R61     CG2R61      HGR61

[ dihedrals ]
;	ai	  aj	ak	  al funct			  c0			c1			  c2			c3
    2    29     1     3	 2
   34    33    30    35	 2
   37    39    36    38	 2

