GROningen Mixture of Alchemy and Childrens' Stories
   98
    1LIG     N1    1  -1.487   0.514  -1.518
    1LIG     C1    2  -1.506   0.408  -1.603
    1LIG     O1    3  -1.617   0.377  -1.643
    1LIG     H1    4  -1.397   0.518  -1.472
    1LIG     C2    5  -1.590   0.605  -1.466
    1LIG     C3    6  -1.559   0.756  -1.487
    1LIG     C4    7  -1.676   0.838  -1.547
    1LIG     N2    8  -1.785   0.850  -1.445
    1LIG     H2    9  -1.771   0.939  -1.395
    1LIG     H3   10  -1.771   0.777  -1.373
    1LIG     C5   11  -1.924   0.839  -1.496
    1LIG     C6   12  -2.015   0.794  -1.386
    1LIG     C7   13  -1.973   0.808  -1.252
    1LIG     C8   14  -2.049   0.755  -1.149
    1LIG     C9   15  -2.168   0.688  -1.179
    1LIG    C10   16  -2.211   0.676  -1.312
    1LIG    C11   17  -2.135   0.729  -1.415
    1LIG     O2   18  -2.018   0.761  -1.016
    1LIG    C12   19  -2.101   0.688  -0.926
    1LIG     O3   20  -1.515   0.826  -1.370
    1LIG     H4   21  -1.511   0.763  -1.295
    1LIG    C13   22  -1.630   0.587  -1.317
    1LIG    C14   23  -1.753   0.508  -1.284
    1LIG    C15   24  -1.786   0.489  -1.150
    1LIG    C16   25  -1.905   0.424  -1.114
    1LIG    C17   26  -1.991   0.379  -1.213
    1LIG    C18   27  -1.960   0.400  -1.348
    1LIG    C19   28  -1.842   0.464  -1.383
    1LIG    C20   29  -1.378   0.329  -1.642
    1LIG     N3   30  -1.316   0.385  -1.764
    1LIG    C21   31  -1.324   0.522  -1.809
    1LIG    C22   32  -1.273   0.517  -1.954
    1LIG    C23   33  -1.174   0.397  -1.957
    1LIG    C24   34  -1.252   0.305  -1.857
    1LIG     O4   35  -1.254   0.183  -1.851
    1LIG     N4   36  -1.046   0.435  -1.893
    1LIG    C25   37  -0.969   0.544  -1.929
    1LIG     O5   38  -0.996   0.619  -2.022
    1LIG    C26   39  -0.847   0.567  -1.842
    1LIG     H5   40  -1.020   0.386  -1.808
    1LIG    C27   41  -1.161   0.325  -2.095
    1LIG    C28   42  -1.185   0.412  -2.219
    1LIG    C29   43  -1.033   0.238  -2.118
    1LIG    C30   44  -1.048   0.087  -2.115
    1LIG    C31   45  -1.280   0.320  -1.525
    1LIG    C32   46  -1.319   0.212  -1.423
    1LIG    C33   47  -1.279   0.073  -1.468
    1LIG    C34   48  -1.375  -0.017  -1.516
    1LIG    C35   49  -1.339  -0.147  -1.553
    1LIG    C36   50  -1.206  -0.187  -1.543
    1LIG    C37   51  -1.109  -0.098  -1.499
    1LIG    C38   52  -1.145   0.032  -1.462
    1LIG     HC   53  -1.680   0.585  -1.523
    1LIG    HC1   54  -1.478   0.762  -1.559
    1LIG    HC2   55  -1.640   0.938  -1.573
    1LIG    HC3   56  -1.714   0.788  -1.636
    1LIG    HC4   57  -1.957   0.936  -1.533
    1LIG    HC5   58  -1.928   0.766  -1.577
    1LIG    HC6   59  -1.881   0.860  -1.230
    1LIG    HC7   60  -2.226   0.645  -1.100
    1LIG    HC8   61  -2.304   0.625  -1.334
    1LIG    HC9   62  -2.168   0.720  -1.518
    1LIG   HC10   63  -1.547   0.539  -1.267
    1LIG   HC11   64  -1.642   0.687  -1.274
    1LIG   HC12   65  -1.720   0.524  -1.072
    1LIG   HC13   66  -1.929   0.408  -1.010
    1LIG   HC14   67  -2.083   0.329  -1.186
    1LIG   HC15   68  -2.028   0.366  -1.424
    1LIG   HC16   69  -1.818   0.480  -1.488
    1LIG   HC17   70  -1.409   0.228  -1.666
    1LIG   HC18   71  -1.427   0.558  -1.806
    1LIG   HC19   72  -1.260   0.586  -1.748
    1LIG   HC20   73  -1.355   0.501  -2.023
    1LIG   HC21   74  -1.220   0.609  -1.979
    1LIG   HC22   75  -1.243   0.253  -2.096
    1LIG   HC23   76  -0.992   0.265  -2.215
    1LIG   HC24   77  -0.960   0.266  -2.041
    1LIG   HC25   78  -1.181   0.296  -1.564
    1LIG   HC26   79  -1.276   0.416  -1.474
    1LIG   HC27   80  -1.427   0.214  -1.408
    1LIG   HC28   81  -1.270   0.234  -1.328
    1LIG   HC29   82  -1.478   0.014  -1.525
    1LIG   HC30   83  -1.414  -0.215  -1.589
    1LIG   HC31   84  -1.178  -0.288  -1.570
    1LIG   HC32   85  -1.006  -0.129  -1.493
    1LIG   HC33   86  -1.069   0.101  -1.428
    1LIG   HC34   87  -0.951   0.041  -2.132
    1LIG   HC35   88  -1.087   0.056  -2.018
    1LIG   HC36   89  -1.117   0.056  -2.193
    1LIG   HC37   90  -0.794   0.655  -1.878
    1LIG   HC38   91  -0.782   0.480  -1.848
    1LIG   HC39   92  -0.878   0.583  -1.739
    1LIG   HC40   93  -2.059   0.694  -0.826
    1LIG   HC41   94  -2.201   0.731  -0.926
    1LIG   HC42   95  -2.106   0.584  -0.957
    1LIG   HC43   96  -1.148   0.360  -2.308
    1LIG   HC44   97  -1.292   0.430  -2.230
    1LIG   HC45   98  -1.133   0.507  -2.208
   0.00000   0.00000   0.00000
