Guyana Rwanda Oman Macau Angola Cameroon Senegal
   81
    1LIG     C1    1  -1.271   0.266  -1.647
    1LIG     C2    2  -1.314   0.125  -1.693
    1LIG     C3    3  -1.283   0.008  -1.602
    1LIG     C4    4  -1.383  -0.085  -1.569
    1LIG     C5    5  -1.353  -0.196  -1.490
    1LIG     C6    6  -1.223  -0.216  -1.444
    1LIG     C7    7  -1.123  -0.125  -1.477
    1LIG     C8    8  -1.152  -0.014  -1.556
    1LIG     C9    9  -1.173   0.338  -1.746
    1LIG    C10   10  -1.232   0.419  -1.864
    1LIG     N1   11  -1.178   0.557  -1.875
    1LIG     H1   12  -1.134   0.583  -1.786
    1LIG     H2   13  -1.103   0.555  -1.944
    1LIG    C11   14  -1.273   0.665  -1.914
    1LIG    C12   15  -1.327   0.750  -1.802
    1LIG    C13   16  -1.371   0.880  -1.830
    1LIG    C14   17  -1.409   0.966  -1.727
    1LIG    C15   18  -1.402   0.920  -1.595
    1LIG    C16   19  -1.362   0.790  -1.566
    1LIG    C17   20  -1.324   0.705  -1.670
    1LIG     O1   21  -1.449   1.095  -1.742
    1LIG    C18   22  -1.533   1.122  -1.854
    1LIG     O2   23  -1.084   0.426  -1.676
    1LIG     H3   24  -1.018   0.373  -1.625
    1LIG     N2   25  -1.388   0.348  -1.607
    1LIG    C19   26  -1.448   0.342  -1.482
    1LIG     O3   27  -1.404   0.272  -1.392
    1LIG     H4   28  -1.451   0.374  -1.682
    1LIG    C20   29  -1.563   0.437  -1.460
    1LIG    C21   30  -1.599   0.529  -1.560
    1LIG    C22   31  -1.716   0.605  -1.545
    1LIG     N3   32  -1.743   0.726  -1.618
    1LIG    C23   33  -1.804   0.572  -1.440
    1LIG      S   34  -1.765   0.866  -1.523
    1LIG    C24   35  -1.719   0.740  -1.762
    1LIG     O4   36  -1.746   0.983  -1.607
    1LIG     O5   37  -1.690   0.851  -1.400
    1LIG    C25   38  -1.939   0.858  -1.483
    1LIG    C26   39  -1.999   0.719  -1.493
    1LIG     N4   40  -1.929   0.621  -1.412
    1LIG    C27   41  -1.978   0.564  -1.298
    1LIG    C28   42  -1.880   0.482  -1.244
    1LIG    C29   43  -1.770   0.485  -1.337
    1LIG    C30   44  -1.642   0.425  -1.344
    1LIG    C31   45  -1.901   0.409  -1.115
    1LIG    C32   46  -2.031   0.333  -1.097
    1LIG     HC   47  -1.214   0.250  -1.556
    1LIG    HC2   48  -1.266   0.105  -1.789
    1LIG    HC3   49  -1.422   0.127  -1.710
    1LIG    HC1   50  -1.483  -0.071  -1.606
    1LIG    HC4   51  -1.430  -0.267  -1.465
    1LIG    HC5   52  -1.200  -0.302  -1.382
    1LIG    HC6   53  -1.022  -0.140  -1.440
    1LIG    HC7   54  -1.074   0.054  -1.583
    1LIG    HC8   55  -1.111   0.260  -1.791
    1LIG    HC9   56  -1.211   0.366  -1.957
    1LIG   HC10   57  -1.341   0.424  -1.851
    1LIG   HC11   58  -1.358   0.618  -1.963
    1LIG   HC12   59  -1.224   0.730  -1.986
    1LIG   HC13   60  -1.375   0.915  -1.932
    1LIG   HC14   61  -1.427   0.987  -1.514
    1LIG   HC15   62  -1.361   0.755  -1.464
    1LIG   HC16   63  -1.293   0.604  -1.647
    1LIG   HC17   64  -1.537   0.541  -1.647
    1LIG   HC18   65  -1.953   0.894  -1.381
    1LIG   HC19   66  -1.994   0.924  -1.551
    1LIG   HC20   67  -2.103   0.724  -1.461
    1LIG   HC21   68  -1.996   0.687  -1.597
    1LIG   HC22   69  -2.076   0.579  -1.257
    1LIG   HC23   70  -1.605   0.370  -1.259
    1LIG   HC24   71  -1.896   0.483  -1.035
    1LIG   HC25   72  -1.819   0.339  -1.102
    1LIG   HC26   73  -1.583   1.218  -1.840
    1LIG   HC27   74  -1.473   1.126  -1.945
    1LIG   HC28   75  -1.608   1.044  -1.864
    1LIG   HC29   76  -2.019   0.258  -1.019
    1LIG   HC30   77  -2.057   0.284  -1.191
    1LIG   HC31   78  -2.111   0.402  -1.069
    1LIG   HC32   79  -1.712   0.642  -1.807
    1LIG   HC33   80  -1.627   0.795  -1.778
    1LIG   HC34   81  -1.803   0.795  -1.807
   0.00000   0.00000   0.00000
