; Created by cgenff_charmm2gmx.py

[ moleculetype ]
; Name			   nrexcl
LIG				 3

[ atoms ]
;	 nr		  type	resnr residue  atom   cgnr	   charge		mass  typeB    chargeB		massB
; residue	 1 LIG rtp LIG q	qsum
     1      CG311      1    LIG     C1      1      0.010     12.011   ;
     2      CG321      1    LIG     C2      2     -0.111     12.011   ;
     3     CG2R61      1    LIG     C3      3     -0.019     12.011   ;
     4     CG2R61      1    LIG     C4      4     -0.123     12.011   ;
     5     CG2R61      1    LIG     C5      5     -0.112     12.011   ;
     6     CG2R61      1    LIG     C6      6     -0.116     12.011   ;
     7     CG2R61      1    LIG     C7      7     -0.112     12.011   ;
     8     CG2R61      1    LIG     C8      8     -0.123     12.011   ;
     9      CG311      1    LIG     C9      9      0.094     12.011   ;
    10      CG324      1    LIG    C10     10      0.178     12.011   ;
    11      NG3P2      1    LIG     N1     11     -0.444     14.007   ;
    12       HGP2      1    LIG     H1     12      0.348      1.008   ;
    13       HGP2      1    LIG     H2     13      0.348      1.008   ;
    14      CG324      1    LIG    C11     14      0.171     12.011   ;
    15     CG2R61      1    LIG    C12     15      0.036     12.011   ;
    16     CG2R61      1    LIG    C13     16     -0.124     12.011   ;
    17     CG2R61      1    LIG    C14     17      0.216     12.011   ;
    18     CG2R61      1    LIG    C15     18     -0.121     12.011   ;
    19     CG2R61      1    LIG    C16     19     -0.108     12.011   ;
    20     CG2R61      1    LIG    C17     20     -0.119     12.011   ;
    21      OG301      1    LIG     O1     21     -0.383     15.999   ;
    22      CG331      1    LIG    C18     22     -0.094     12.011   ;
    23      OG311      1    LIG     O2     23     -0.625     15.999   ;
    24       HGP1      1    LIG     H3     24      0.415      1.008   ;
    25      NG2S1      1    LIG     N2     25     -0.226     14.007   ;
    26      CG2O1      1    LIG    C19     26      0.282     12.011   ;
    27      OG2D1      1    LIG     O3     27     -0.463     15.999   ;
    28       HGP1      1    LIG     H4     28      0.262      1.008   ;
    29     CG2R61      1    LIG    C20     29     -0.154     12.011   ;
    30     CG2R61      1    LIG    C21     30     -0.125     12.011   ;
    31     CG2R61      1    LIG    C22     31      0.152     12.011   ;
    32      NG301      1    LIG     N3     32     -0.294     14.007   ;
    33     CG2RC0      1    LIG    C23     33      0.286     12.011   ;
    34      SG3O2      1    LIG      S     34      0.520     32.060   ;
    35      CG331      1    LIG    C24     35     -0.055     12.011   ;
    36      OG2P1      1    LIG     O4     36     -0.374     15.999   ;
    37      OG2P1      1    LIG     O5     37     -0.374     15.999   ;
    38      CG321      1    LIG    C25     38     -0.044     12.011   ;
    39      CG321      1    LIG    C26     39     -0.097     12.011   ;
    40     NG2R51      1    LIG     N4     40     -0.087     14.007   ;
    41     CG2R51      1    LIG    C27     41     -0.194     12.011   ;
    42     CG2R51      1    LIG    C28     42     -0.060     12.011   ;
    43     CG2RC0      1    LIG    C29     43      0.002     12.011   ;
    44     CG2R61      1    LIG    C30     44     -0.202     12.011   ;
    45      CG321      1    LIG    C31     45     -0.169     12.011   ;
    46      CG331      1    LIG    C32     46     -0.267     12.011   ;
    47       HGA1      1    LIG     HC     47      0.090      1.008   ;
    48       HGA2      1    LIG    HC2     48      0.090      1.008   ;
    49       HGA2      1    LIG    HC3     49      0.090      1.008   ;
    50      HGR61      1    LIG    HC1     50      0.116      1.008   ;
    51      HGR61      1    LIG    HC4     51      0.116      1.008   ;
    52      HGR61      1    LIG    HC5     52      0.116      1.008   ;
    53      HGR61      1    LIG    HC6     53      0.116      1.008   ;
    54      HGR61      1    LIG    HC7     54      0.116      1.008   ;
    55       HGA1      1    LIG    HC8     55      0.090      1.008   ;
    56       HGA2      1    LIG    HC9     56      0.090      1.008   ;
    57       HGA2      1    LIG   HC10     57      0.090      1.008   ;
    58       HGA2      1    LIG   HC11     58      0.090      1.008   ;
    59       HGA2      1    LIG   HC12     59      0.090      1.008   ;
    60      HGR61      1    LIG   HC13     60      0.116      1.008   ;
    61      HGR61      1    LIG   HC14     61      0.116      1.008   ;
    62      HGR61      1    LIG   HC15     62      0.116      1.008   ;
    63      HGR61      1    LIG   HC16     63      0.116      1.008   ;
    64      HGR61      1    LIG   HC17     64      0.134      1.008   ;
    65       HGA2      1    LIG   HC18     65      0.090      1.008   ;
    66       HGA2      1    LIG   HC19     66      0.090      1.008   ;
    67       HGA2      1    LIG   HC20     67      0.090      1.008   ;
    68       HGA2      1    LIG   HC21     68      0.090      1.008   ;
    69      HGR52      1    LIG   HC22     69      0.154      1.008   ;
    70      HGR61      1    LIG   HC23     70      0.197      1.008   ;
    71       HGA2      1    LIG   HC24     71      0.090      1.008   ;
    72       HGA2      1    LIG   HC25     72      0.090      1.008   ;
    73       HGA3      1    LIG   HC26     73      0.090      1.008   ;
    74       HGA3      1    LIG   HC27     74      0.090      1.008   ;
    75       HGA3      1    LIG   HC28     75      0.090      1.008   ;
    76       HGA3      1    LIG   HC29     76      0.090      1.008   ;
    77       HGA3      1    LIG   HC30     77      0.090      1.008   ;
    78       HGA3      1    LIG   HC31     78      0.090      1.008   ;
    79       HGA3      1    LIG   HC32     79      0.090      1.008   ;
    80       HGA3      1    LIG   HC33     80      0.090      1.008   ;
    81       HGA3      1    LIG   HC34     81      0.090      1.008   ;

[ bonds ]
;	ai	  aj funct			  c0			c1			  c2			c3
    1     9	 1 ;       CG311      CG311
    1     2	 1 ;       CG311      CG321
    1    25	 1 ;       CG311      NG2S1
    1    47	 1 ;       CG311       HGA1
    2     3	 1 ;       CG321     CG2R61
    2    48	 1 ;       CG321       HGA2
    2    49	 1 ;       CG321       HGA2
    3     8	 1 ;      CG2R61     CG2R61
    3     4	 1 ;      CG2R61     CG2R61
    4     5	 1 ;      CG2R61     CG2R61
    4    50	 1 ;      CG2R61      HGR61
    5     6	 1 ;      CG2R61     CG2R61
    5    51	 1 ;      CG2R61      HGR61
    6     7	 1 ;      CG2R61     CG2R61
    6    52	 1 ;      CG2R61      HGR61
    7     8	 1 ;      CG2R61     CG2R61
    7    53	 1 ;      CG2R61      HGR61
    8    54	 1 ;      CG2R61      HGR61
    9    10	 1 ;       CG311      CG324
    9    23	 1 ;       CG311      OG311
    9    55	 1 ;       CG311       HGA1
   10    11	 1 ;       CG324      NG3P2
   10    56	 1 ;       CG324       HGA2
   10    57	 1 ;       CG324       HGA2
   11    13	 1 ;       NG3P2       HGP2
   11    14	 1 ;       NG3P2      CG324
   11    12	 1 ;       NG3P2       HGP2
   14    15	 1 ;       CG324     CG2R61
   14    58	 1 ;       CG324       HGA2
   14    59	 1 ;       CG324       HGA2
   15    16	 1 ;      CG2R61     CG2R61
   15    20	 1 ;      CG2R61     CG2R61
   16    17	 1 ;      CG2R61     CG2R61
   16    60	 1 ;      CG2R61      HGR61
   17    21	 1 ;      CG2R61      OG301
   17    18	 1 ;      CG2R61     CG2R61
   18    19	 1 ;      CG2R61     CG2R61
   18    61	 1 ;      CG2R61      HGR61
   19    20	 1 ;      CG2R61     CG2R61
   19    62	 1 ;      CG2R61      HGR61
   20    63	 1 ;      CG2R61      HGR61
   21    22	 1 ;       OG301      CG331
   22    73	 1 ;       CG331       HGA3
   22    74	 1 ;       CG331       HGA3
   22    75	 1 ;       CG331       HGA3
   23    24	 1 ;       OG311       HGP1
   25    28	 1 ;       NG2S1       HGP1
   25    26	 1 ;       NG2S1      CG2O1
   26    27	 1 ;       CG2O1      OG2D1
   26    29	 1 ;       CG2O1     CG2R61
   29    30	 1 ;      CG2R61     CG2R61
   29    44	 1 ;      CG2R61     CG2R61
   30    31	 1 ;      CG2R61     CG2R61
   30    64	 1 ;      CG2R61      HGR61
   31    32	 1 ;      CG2R61      NG301
   31    33	 1 ;      CG2R61     CG2RC0
   32    35	 1 ;       NG301      CG331
   32    34	 1 ;       NG301      SG3O2
   33    43	 1 ;      CG2RC0     CG2RC0
   33    40	 1 ;      CG2RC0     NG2R51
   34    36	 1 ;       SG3O2      OG2P1
   34    37	 1 ;       SG3O2      OG2P1
   34    38	 1 ;       SG3O2      CG321
   35    79	 1 ;       CG331       HGA3
   35    80	 1 ;       CG331       HGA3
   35    81	 1 ;       CG331       HGA3
   38    39	 1 ;       CG321      CG321
   38    65	 1 ;       CG321       HGA2
   38    66	 1 ;       CG321       HGA2
   39    40	 1 ;       CG321     NG2R51
   39    67	 1 ;       CG321       HGA2
   39    68	 1 ;       CG321       HGA2
   40    41	 1 ;      NG2R51     CG2R51
   41    42	 1 ;      CG2R51     CG2R51
   41    69	 1 ;      CG2R51      HGR52
   42    43	 1 ;      CG2R51     CG2RC0
   42    45	 1 ;      CG2R51      CG321
   43    44	 1 ;      CG2RC0     CG2R61
   44    70	 1 ;      CG2R61      HGR61
   45    46	 1 ;       CG321      CG331
   45    71	 1 ;       CG321       HGA2
   45    72	 1 ;       CG321       HGA2
   46    76	 1 ;       CG331       HGA3
   46    77	 1 ;       CG331       HGA3
   46    78	 1 ;       CG331       HGA3

[ pairs ]
;	ai	  aj funct			  c0			c1			  c2			c3
    1     8	 1
    1     4	 1
    1    11	 1
    1    56	 1
    1    57	 1
    1    24	 1
    1    27	 1
    1    29	 1
    2    10	 1
    2    23	 1
    2    55	 1
    2    28	 1
    2    26	 1
    2     7	 1
    2    54	 1
    2     5	 1
    2    50	 1
    3     9	 1
    3    25	 1
    3    47	 1
    3     6	 1
    3    51	 1
    3    53	 1
    4    48	 1
    4    49	 1
    4     7	 1
    4    54	 1
    4    52	 1
    5     8	 1
    5    53	 1
    6    50	 1
    6    54	 1
    7    51	 1
    8    48	 1
    8    49	 1
    8    50	 1
    8    52	 1
    9    48	 1
    9    49	 1
    9    28	 1
    9    26	 1
    9    13	 1
    9    14	 1
    9    12	 1
   10    25	 1
   10    47	 1
   10    24	 1
   10    15	 1
   10    58	 1
   10    59	 1
   11    23	 1
   11    55	 1
   11    16	 1
   11    20	 1
   12    56	 1
   12    57	 1
   12    15	 1
   12    58	 1
   12    59	 1
   13    56	 1
   13    57	 1
   13    15	 1
   13    58	 1
   13    59	 1
   14    56	 1
   14    57	 1
   14    17	 1
   14    60	 1
   14    19	 1
   14    63	 1
   15    21	 1
   15    18	 1
   15    62	 1
   16    58	 1
   16    59	 1
   16    19	 1
   16    63	 1
   16    22	 1
   16    61	 1
   17    20	 1
   17    62	 1
   17    73	 1
   17    74	 1
   17    75	 1
   18    60	 1
   18    22	 1
   18    63	 1
   19    21	 1
   20    58	 1
   20    59	 1
   20    60	 1
   20    61	 1
   21    60	 1
   21    61	 1
   23    25	 1
   23    47	 1
   23    56	 1
   23    57	 1
   24    55	 1
   25    55	 1
   25    48	 1
   25    49	 1
   25    30	 1
   25    44	 1
   26    47	 1
   26    31	 1
   26    64	 1
   26    43	 1
   26    70	 1
   27    28	 1
   27    30	 1
   27    44	 1
   28    47	 1
   28    29	 1
   29    32	 1
   29    33	 1
   29    42	 1
   30    43	 1
   30    70	 1
   30    35	 1
   30    34	 1
   30    40	 1
   31    44	 1
   31    79	 1
   31    80	 1
   31    81	 1
   31    36	 1
   31    37	 1
   31    38	 1
   31    42	 1
   31    39	 1
   31    41	 1
   32    64	 1
   32    43	 1
   32    40	 1
   32    39	 1
   32    65	 1
   32    66	 1
   33    64	 1
   33    35	 1
   33    34	 1
   33    38	 1
   33    67	 1
   33    68	 1
   33    69	 1
   33    45	 1
   33    70	 1
   34    79	 1
   34    80	 1
   34    81	 1
   34    40	 1
   34    67	 1
   34    68	 1
   35    36	 1
   35    37	 1
   35    38	 1
   36    39	 1
   36    65	 1
   36    66	 1
   37    39	 1
   37    65	 1
   37    66	 1
   38    41	 1
   39    43	 1
   39    42	 1
   39    69	 1
   40    44	 1
   40    65	 1
   40    66	 1
   40    45	 1
   41    67	 1
   41    68	 1
   41    44	 1
   41    46	 1
   41    71	 1
   41    72	 1
   42    70	 1
   42    76	 1
   42    77	 1
   42    78	 1
   43    69	 1
   43    46	 1
   43    71	 1
   43    72	 1
   44    64	 1
   44    45	 1
   45    69	 1
   47    55	 1
   47    48	 1
   47    49	 1
   50    51	 1
   51    52	 1
   52    53	 1
   53    54	 1
   55    56	 1
   55    57	 1
   61    62	 1
   62    63	 1
   65    67	 1
   65    68	 1
   66    67	 1
   66    68	 1
   71    76	 1
   71    77	 1
   71    78	 1
   72    76	 1
   72    77	 1
   72    78	 1

[ angles ]
;	ai	  aj	ak funct			c0			  c1			c2			  c3
    9     1     2	5 ;      CG311      CG311      CG321
    9     1    25	5 ;      CG311      CG311      NG2S1
    9     1    47	5 ;      CG311      CG311       HGA1
    2     1    25	5 ;      CG321      CG311      NG2S1
    2     1    47	5 ;      CG321      CG311       HGA1
   25     1    47	5 ;      NG2S1      CG311       HGA1
    1     2     3	5 ;      CG311      CG321     CG2R61
    1     2    48	5 ;      CG311      CG321       HGA2
    1     2    49	5 ;      CG311      CG321       HGA2
    3     2    48	5 ;     CG2R61      CG321       HGA2
    3     2    49	5 ;     CG2R61      CG321       HGA2
   48     2    49	5 ;       HGA2      CG321       HGA2
    2     3     8	5 ;      CG321     CG2R61     CG2R61
    2     3     4	5 ;      CG321     CG2R61     CG2R61
    8     3     4	5 ;     CG2R61     CG2R61     CG2R61
    3     4     5	5 ;     CG2R61     CG2R61     CG2R61
    3     4    50	5 ;     CG2R61     CG2R61      HGR61
    5     4    50	5 ;     CG2R61     CG2R61      HGR61
    4     5     6	5 ;     CG2R61     CG2R61     CG2R61
    4     5    51	5 ;     CG2R61     CG2R61      HGR61
    6     5    51	5 ;     CG2R61     CG2R61      HGR61
    7     6     5	5 ;     CG2R61     CG2R61     CG2R61
    7     6    52	5 ;     CG2R61     CG2R61      HGR61
    5     6    52	5 ;     CG2R61     CG2R61      HGR61
    8     7     6	5 ;     CG2R61     CG2R61     CG2R61
    8     7    53	5 ;     CG2R61     CG2R61      HGR61
    6     7    53	5 ;     CG2R61     CG2R61      HGR61
    3     8     7	5 ;     CG2R61     CG2R61     CG2R61
    3     8    54	5 ;     CG2R61     CG2R61      HGR61
    7     8    54	5 ;     CG2R61     CG2R61      HGR61
   10     9    23	5 ;      CG324      CG311      OG311
   10     9     1	5 ;      CG324      CG311      CG311
   10     9    55	5 ;      CG324      CG311       HGA1
   23     9     1	5 ;      OG311      CG311      CG311
   23     9    55	5 ;      OG311      CG311       HGA1
    1     9    55	5 ;      CG311      CG311       HGA1
   11    10     9	5 ;      NG3P2      CG324      CG311
   11    10    56	5 ;      NG3P2      CG324       HGA2
   11    10    57	5 ;      NG3P2      CG324       HGA2
    9    10    56	5 ;      CG311      CG324       HGA2
    9    10    57	5 ;      CG311      CG324       HGA2
   56    10    57	5 ;       HGA2      CG324       HGA2
   13    11    14	5 ;       HGP2      NG3P2      CG324
   13    11    10	5 ;       HGP2      NG3P2      CG324
   13    11    12	5 ;       HGP2      NG3P2       HGP2
   14    11    10	5 ;      CG324      NG3P2      CG324
   14    11    12	5 ;      CG324      NG3P2       HGP2
   10    11    12	5 ;      CG324      NG3P2       HGP2
   11    14    15	5 ;      NG3P2      CG324     CG2R61
   11    14    58	5 ;      NG3P2      CG324       HGA2
   11    14    59	5 ;      NG3P2      CG324       HGA2
   15    14    58	5 ;     CG2R61      CG324       HGA2
   15    14    59	5 ;     CG2R61      CG324       HGA2
   58    14    59	5 ;       HGA2      CG324       HGA2
   14    15    16	5 ;      CG324     CG2R61     CG2R61
   14    15    20	5 ;      CG324     CG2R61     CG2R61
   16    15    20	5 ;     CG2R61     CG2R61     CG2R61
   15    16    17	5 ;     CG2R61     CG2R61     CG2R61
   15    16    60	5 ;     CG2R61     CG2R61      HGR61
   17    16    60	5 ;     CG2R61     CG2R61      HGR61
   16    17    21	5 ;     CG2R61     CG2R61      OG301
   16    17    18	5 ;     CG2R61     CG2R61     CG2R61
   21    17    18	5 ;      OG301     CG2R61     CG2R61
   17    18    19	5 ;     CG2R61     CG2R61     CG2R61
   17    18    61	5 ;     CG2R61     CG2R61      HGR61
   19    18    61	5 ;     CG2R61     CG2R61      HGR61
   20    19    18	5 ;     CG2R61     CG2R61     CG2R61
   20    19    62	5 ;     CG2R61     CG2R61      HGR61
   18    19    62	5 ;     CG2R61     CG2R61      HGR61
   15    20    19	5 ;     CG2R61     CG2R61     CG2R61
   15    20    63	5 ;     CG2R61     CG2R61      HGR61
   19    20    63	5 ;     CG2R61     CG2R61      HGR61
   22    21    17	5 ;      CG331      OG301     CG2R61
   21    22    73	5 ;      OG301      CG331       HGA3
   21    22    74	5 ;      OG301      CG331       HGA3
   21    22    75	5 ;      OG301      CG331       HGA3
   73    22    74	5 ;       HGA3      CG331       HGA3
   73    22    75	5 ;       HGA3      CG331       HGA3
   74    22    75	5 ;       HGA3      CG331       HGA3
    9    23    24	5 ;      CG311      OG311       HGP1
    1    25    28	5 ;      CG311      NG2S1       HGP1
    1    25    26	5 ;      CG311      NG2S1      CG2O1
   28    25    26	5 ;       HGP1      NG2S1      CG2O1
   25    26    27	5 ;      NG2S1      CG2O1      OG2D1
   25    26    29	5 ;      NG2S1      CG2O1     CG2R61
   27    26    29	5 ;      OG2D1      CG2O1     CG2R61
   26    29    30	5 ;      CG2O1     CG2R61     CG2R61
   26    29    44	5 ;      CG2O1     CG2R61     CG2R61
   30    29    44	5 ;     CG2R61     CG2R61     CG2R61
   29    30    31	5 ;     CG2R61     CG2R61     CG2R61
   29    30    64	5 ;     CG2R61     CG2R61      HGR61
   31    30    64	5 ;     CG2R61     CG2R61      HGR61
   30    31    32	5 ;     CG2R61     CG2R61      NG301
   30    31    33	5 ;     CG2R61     CG2R61     CG2RC0
   32    31    33	5 ;      NG301     CG2R61     CG2RC0
   35    32    31	5 ;      CG331      NG301     CG2R61
   35    32    34	5 ;      CG331      NG301      SG3O2
   31    32    34	5 ;     CG2R61      NG301      SG3O2
   31    33    43	5 ;     CG2R61     CG2RC0     CG2RC0
   31    33    40	5 ;     CG2R61     CG2RC0     NG2R51
   43    33    40	5 ;     CG2RC0     CG2RC0     NG2R51
   32    34    36	5 ;      NG301      SG3O2      OG2P1
   32    34    37	5 ;      NG301      SG3O2      OG2P1
   32    34    38	5 ;      NG301      SG3O2      CG321
   36    34    37	5 ;      OG2P1      SG3O2      OG2P1
   36    34    38	5 ;      OG2P1      SG3O2      CG321
   37    34    38	5 ;      OG2P1      SG3O2      CG321
   32    35    79	5 ;      NG301      CG331       HGA3
   32    35    80	5 ;      NG301      CG331       HGA3
   32    35    81	5 ;      NG301      CG331       HGA3
   79    35    80	5 ;       HGA3      CG331       HGA3
   79    35    81	5 ;       HGA3      CG331       HGA3
   80    35    81	5 ;       HGA3      CG331       HGA3
   34    38    39	5 ;      SG3O2      CG321      CG321
   34    38    65	5 ;      SG3O2      CG321       HGA2
   34    38    66	5 ;      SG3O2      CG321       HGA2
   39    38    65	5 ;      CG321      CG321       HGA2
   39    38    66	5 ;      CG321      CG321       HGA2
   65    38    66	5 ;       HGA2      CG321       HGA2
   38    39    40	5 ;      CG321      CG321     NG2R51
   38    39    67	5 ;      CG321      CG321       HGA2
   38    39    68	5 ;      CG321      CG321       HGA2
   40    39    67	5 ;     NG2R51      CG321       HGA2
   40    39    68	5 ;     NG2R51      CG321       HGA2
   67    39    68	5 ;       HGA2      CG321       HGA2
   33    40    39	5 ;     CG2RC0     NG2R51      CG321
   33    40    41	5 ;     CG2RC0     NG2R51     CG2R51
   39    40    41	5 ;      CG321     NG2R51     CG2R51
   40    41    42	5 ;     NG2R51     CG2R51     CG2R51
   40    41    69	5 ;     NG2R51     CG2R51      HGR52
   42    41    69	5 ;     CG2R51     CG2R51      HGR52
   43    42    41	5 ;     CG2RC0     CG2R51     CG2R51
   43    42    45	5 ;     CG2RC0     CG2R51      CG321
   41    42    45	5 ;     CG2R51     CG2R51      CG321
   44    43    33	5 ;     CG2R61     CG2RC0     CG2RC0
   44    43    42	5 ;     CG2R61     CG2RC0     CG2R51
   33    43    42	5 ;     CG2RC0     CG2RC0     CG2R51
   29    44    43	5 ;     CG2R61     CG2R61     CG2RC0
   29    44    70	5 ;     CG2R61     CG2R61      HGR61
   43    44    70	5 ;     CG2RC0     CG2R61      HGR61
   42    45    46	5 ;     CG2R51      CG321      CG331
   42    45    71	5 ;     CG2R51      CG321       HGA2
   42    45    72	5 ;     CG2R51      CG321       HGA2
   46    45    71	5 ;      CG331      CG321       HGA2
   46    45    72	5 ;      CG331      CG321       HGA2
   71    45    72	5 ;       HGA2      CG321       HGA2
   45    46    76	5 ;      CG321      CG331       HGA3
   45    46    77	5 ;      CG321      CG331       HGA3
   45    46    78	5 ;      CG321      CG331       HGA3
   76    46    77	5 ;       HGA3      CG331       HGA3
   76    46    78	5 ;       HGA3      CG331       HGA3
   77    46    78	5 ;       HGA3      CG331       HGA3

[ dihedrals ]
;	ai	  aj	ak	  al funct			  c0			c1			  c2			c3			  c4			c5
    2     1     9    10	 9 ;      CG321      CG311      CG311      CG324
    2     1     9    23	 9 ;      CG321      CG311      CG311      OG311
    2     1     9    55	 9 ;      CG321      CG311      CG311       HGA1
   25     1     9    10	 9 ;      NG2S1      CG311      CG311      CG324
   25     1     9    23	 9 ;      NG2S1      CG311      CG311      OG311
   25     1     9    55	 9 ;      NG2S1      CG311      CG311       HGA1
   47     1     9    10	 9 ;       HGA1      CG311      CG311      CG324
   47     1     9    23	 9 ;       HGA1      CG311      CG311      OG311
   47     1     9    55	 9 ;       HGA1      CG311      CG311       HGA1
    9     1     2     3	 9 ;      CG311      CG311      CG321     CG2R61
    9     1     2    48	 9 ;      CG311      CG311      CG321       HGA2
    9     1     2    49	 9 ;      CG311      CG311      CG321       HGA2
   25     1     2     3	 9 ;      NG2S1      CG311      CG321     CG2R61
   25     1     2    48	 9 ;      NG2S1      CG311      CG321       HGA2
   25     1     2    49	 9 ;      NG2S1      CG311      CG321       HGA2
   47     1     2     3	 9 ;       HGA1      CG311      CG321     CG2R61
   47     1     2    48	 9 ;       HGA1      CG311      CG321       HGA2
   47     1     2    49	 9 ;       HGA1      CG311      CG321       HGA2
    9     1    25    28	 9 ;      CG311      CG311      NG2S1       HGP1
    9     1    25    26	 9 ;      CG311      CG311      NG2S1      CG2O1
    2     1    25    28	 9 ;      CG321      CG311      NG2S1       HGP1
    2     1    25    26	 9 ;      CG321      CG311      NG2S1      CG2O1
   47     1    25    28	 9 ;       HGA1      CG311      NG2S1       HGP1
   47     1    25    26	 9 ;       HGA1      CG311      NG2S1      CG2O1
    1     2     3     8	 9 ;      CG311      CG321     CG2R61     CG2R61
    1     2     3     4	 9 ;      CG311      CG321     CG2R61     CG2R61
   48     2     3     8	 9 ;       HGA2      CG321     CG2R61     CG2R61
   48     2     3     4	 9 ;       HGA2      CG321     CG2R61     CG2R61
   49     2     3     8	 9 ;       HGA2      CG321     CG2R61     CG2R61
   49     2     3     4	 9 ;       HGA2      CG321     CG2R61     CG2R61
    2     3     8     7	 9 ;      CG321     CG2R61     CG2R61     CG2R61
    2     3     8    54	 9 ;      CG321     CG2R61     CG2R61      HGR61
    4     3     8     7	 9 ;     CG2R61     CG2R61     CG2R61     CG2R61
    4     3     8    54	 9 ;     CG2R61     CG2R61     CG2R61      HGR61
    2     3     4     5	 9 ;      CG321     CG2R61     CG2R61     CG2R61
    2     3     4    50	 9 ;      CG321     CG2R61     CG2R61      HGR61
    8     3     4     5	 9 ;     CG2R61     CG2R61     CG2R61     CG2R61
    8     3     4    50	 9 ;     CG2R61     CG2R61     CG2R61      HGR61
    3     4     5     6	 9 ;     CG2R61     CG2R61     CG2R61     CG2R61
    3     4     5    51	 9 ;     CG2R61     CG2R61     CG2R61      HGR61
   50     4     5     6	 9 ;      HGR61     CG2R61     CG2R61     CG2R61
   50     4     5    51	 9 ;      HGR61     CG2R61     CG2R61      HGR61
    4     5     6     7	 9 ;     CG2R61     CG2R61     CG2R61     CG2R61
    4     5     6    52	 9 ;     CG2R61     CG2R61     CG2R61      HGR61
   51     5     6     7	 9 ;      HGR61     CG2R61     CG2R61     CG2R61
   51     5     6    52	 9 ;      HGR61     CG2R61     CG2R61      HGR61
    5     6     7     8	 9 ;     CG2R61     CG2R61     CG2R61     CG2R61
    5     6     7    53	 9 ;     CG2R61     CG2R61     CG2R61      HGR61
   52     6     7     8	 9 ;      HGR61     CG2R61     CG2R61     CG2R61
   52     6     7    53	 9 ;      HGR61     CG2R61     CG2R61      HGR61
    6     7     8     3	 9 ;     CG2R61     CG2R61     CG2R61     CG2R61
    6     7     8    54	 9 ;     CG2R61     CG2R61     CG2R61      HGR61
   53     7     8     3	 9 ;      HGR61     CG2R61     CG2R61     CG2R61
   53     7     8    54	 9 ;      HGR61     CG2R61     CG2R61      HGR61
   23     9    10    11	 9 ;      OG311      CG311      CG324      NG3P2
   23     9    10    56	 9 ;      OG311      CG311      CG324       HGA2
   23     9    10    57	 9 ;      OG311      CG311      CG324       HGA2
    1     9    10    11	 9 ;      CG311      CG311      CG324      NG3P2
    1     9    10    56	 9 ;      CG311      CG311      CG324       HGA2
    1     9    10    57	 9 ;      CG311      CG311      CG324       HGA2
   55     9    10    11	 9 ;       HGA1      CG311      CG324      NG3P2
   55     9    10    56	 9 ;       HGA1      CG311      CG324       HGA2
   55     9    10    57	 9 ;       HGA1      CG311      CG324       HGA2
   10     9    23    24	 9 ;      CG324      CG311      OG311       HGP1
    1     9    23    24	 9 ;      CG311      CG311      OG311       HGP1
   55     9    23    24	 9 ;       HGA1      CG311      OG311       HGP1
    9    10    11    13	 9 ;      CG311      CG324      NG3P2       HGP2
    9    10    11    14	 9 ;      CG311      CG324      NG3P2      CG324
    9    10    11    12	 9 ;      CG311      CG324      NG3P2       HGP2
   56    10    11    13	 9 ;       HGA2      CG324      NG3P2       HGP2
   56    10    11    14	 9 ;       HGA2      CG324      NG3P2      CG324
   56    10    11    12	 9 ;       HGA2      CG324      NG3P2       HGP2
   57    10    11    13	 9 ;       HGA2      CG324      NG3P2       HGP2
   57    10    11    14	 9 ;       HGA2      CG324      NG3P2      CG324
   57    10    11    12	 9 ;       HGA2      CG324      NG3P2       HGP2
   13    11    14    15	 9 ;       HGP2      NG3P2      CG324     CG2R61
   13    11    14    58	 9 ;       HGP2      NG3P2      CG324       HGA2
   13    11    14    59	 9 ;       HGP2      NG3P2      CG324       HGA2
   10    11    14    15	 9 ;      CG324      NG3P2      CG324     CG2R61
   10    11    14    58	 9 ;      CG324      NG3P2      CG324       HGA2
   10    11    14    59	 9 ;      CG324      NG3P2      CG324       HGA2
   12    11    14    15	 9 ;       HGP2      NG3P2      CG324     CG2R61
   12    11    14    58	 9 ;       HGP2      NG3P2      CG324       HGA2
   12    11    14    59	 9 ;       HGP2      NG3P2      CG324       HGA2
   11    14    15    16	 9 ;      NG3P2      CG324     CG2R61     CG2R61
   11    14    15    20	 9 ;      NG3P2      CG324     CG2R61     CG2R61
   58    14    15    16	 9 ;       HGA2      CG324     CG2R61     CG2R61
   58    14    15    20	 9 ;       HGA2      CG324     CG2R61     CG2R61
   59    14    15    16	 9 ;       HGA2      CG324     CG2R61     CG2R61
   59    14    15    20	 9 ;       HGA2      CG324     CG2R61     CG2R61
   14    15    16    17	 9 ;      CG324     CG2R61     CG2R61     CG2R61
   14    15    16    60	 9 ;      CG324     CG2R61     CG2R61      HGR61
   20    15    16    17	 9 ;     CG2R61     CG2R61     CG2R61     CG2R61
   20    15    16    60	 9 ;     CG2R61     CG2R61     CG2R61      HGR61
   14    15    20    19	 9 ;      CG324     CG2R61     CG2R61     CG2R61
   14    15    20    63	 9 ;      CG324     CG2R61     CG2R61      HGR61
   16    15    20    19	 9 ;     CG2R61     CG2R61     CG2R61     CG2R61
   16    15    20    63	 9 ;     CG2R61     CG2R61     CG2R61      HGR61
   15    16    17    21	 9 ;     CG2R61     CG2R61     CG2R61      OG301
   15    16    17    18	 9 ;     CG2R61     CG2R61     CG2R61     CG2R61
   60    16    17    21	 9 ;      HGR61     CG2R61     CG2R61      OG301
   60    16    17    18	 9 ;      HGR61     CG2R61     CG2R61     CG2R61
   16    17    21    22	 9 ;     CG2R61     CG2R61      OG301      CG331
   18    17    21    22	 9 ;     CG2R61     CG2R61      OG301      CG331
   16    17    18    19	 9 ;     CG2R61     CG2R61     CG2R61     CG2R61
   16    17    18    61	 9 ;     CG2R61     CG2R61     CG2R61      HGR61
   21    17    18    19	 9 ;      OG301     CG2R61     CG2R61     CG2R61
   21    17    18    61	 9 ;      OG301     CG2R61     CG2R61      HGR61
   17    18    19    20	 9 ;     CG2R61     CG2R61     CG2R61     CG2R61
   17    18    19    62	 9 ;     CG2R61     CG2R61     CG2R61      HGR61
   61    18    19    20	 9 ;      HGR61     CG2R61     CG2R61     CG2R61
   61    18    19    62	 9 ;      HGR61     CG2R61     CG2R61      HGR61
   18    19    20    15	 9 ;     CG2R61     CG2R61     CG2R61     CG2R61
   18    19    20    63	 9 ;     CG2R61     CG2R61     CG2R61      HGR61
   62    19    20    15	 9 ;      HGR61     CG2R61     CG2R61     CG2R61
   62    19    20    63	 9 ;      HGR61     CG2R61     CG2R61      HGR61
   17    21    22    73	 9 ;     CG2R61      OG301      CG331       HGA3
   17    21    22    74	 9 ;     CG2R61      OG301      CG331       HGA3
   17    21    22    75	 9 ;     CG2R61      OG301      CG331       HGA3
    1    25    26    27	 9 ;      CG311      NG2S1      CG2O1      OG2D1
    1    25    26    29	 9 ;      CG311      NG2S1      CG2O1     CG2R61
   28    25    26    27	 9 ;       HGP1      NG2S1      CG2O1      OG2D1
   28    25    26    29	 9 ;       HGP1      NG2S1      CG2O1     CG2R61
   25    26    29    30	 9 ;      NG2S1      CG2O1     CG2R61     CG2R61
   25    26    29    44	 9 ;      NG2S1      CG2O1     CG2R61     CG2R61
   27    26    29    30	 9 ;      OG2D1      CG2O1     CG2R61     CG2R61
   27    26    29    44	 9 ;      OG2D1      CG2O1     CG2R61     CG2R61
   26    29    30    31	 9 ;      CG2O1     CG2R61     CG2R61     CG2R61
   26    29    30    64	 9 ;      CG2O1     CG2R61     CG2R61      HGR61
   44    29    30    31	 9 ;     CG2R61     CG2R61     CG2R61     CG2R61
   44    29    30    64	 9 ;     CG2R61     CG2R61     CG2R61      HGR61
   26    29    44    43	 9 ;      CG2O1     CG2R61     CG2R61     CG2RC0
   26    29    44    70	 9 ;      CG2O1     CG2R61     CG2R61      HGR61
   30    29    44    43	 9 ;     CG2R61     CG2R61     CG2R61     CG2RC0
   30    29    44    70	 9 ;     CG2R61     CG2R61     CG2R61      HGR61
   29    30    31    32	 9 ;     CG2R61     CG2R61     CG2R61      NG301
   29    30    31    33	 9 ;     CG2R61     CG2R61     CG2R61     CG2RC0
   64    30    31    32	 9 ;      HGR61     CG2R61     CG2R61      NG301
   64    30    31    33	 9 ;      HGR61     CG2R61     CG2R61     CG2RC0
   30    31    32    35	 9 ;     CG2R61     CG2R61      NG301      CG331
   30    31    32    34	 9 ;     CG2R61     CG2R61      NG301      SG3O2
   33    31    32    35	 9 ;     CG2RC0     CG2R61      NG301      CG331
   33    31    32    34	 9 ;     CG2RC0     CG2R61      NG301      SG3O2
   30    31    33    43	 9 ;     CG2R61     CG2R61     CG2RC0     CG2RC0
   30    31    33    40	 9 ;     CG2R61     CG2R61     CG2RC0     NG2R51
   32    31    33    43	 9 ;      NG301     CG2R61     CG2RC0     CG2RC0
   32    31    33    40	 9 ;      NG301     CG2R61     CG2RC0     NG2R51
   31    32    35    79	 9 ;     CG2R61      NG301      CG331       HGA3
   31    32    35    80	 9 ;     CG2R61      NG301      CG331       HGA3
   31    32    35    81	 9 ;     CG2R61      NG301      CG331       HGA3
   34    32    35    79	 9 ;      SG3O2      NG301      CG331       HGA3
   34    32    35    80	 9 ;      SG3O2      NG301      CG331       HGA3
   34    32    35    81	 9 ;      SG3O2      NG301      CG331       HGA3
   35    32    34    36	 9 ;      CG331      NG301      SG3O2      OG2P1
   35    32    34    37	 9 ;      CG331      NG301      SG3O2      OG2P1
   35    32    34    38	 9 ;      CG331      NG301      SG3O2      CG321
   31    32    34    36	 9 ;     CG2R61      NG301      SG3O2      OG2P1
   31    32    34    37	 9 ;     CG2R61      NG301      SG3O2      OG2P1
   31    32    34    38	 9 ;     CG2R61      NG301      SG3O2      CG321
   31    33    43    44	 9 ;     CG2R61     CG2RC0     CG2RC0     CG2R61
   31    33    43    42	 9 ;     CG2R61     CG2RC0     CG2RC0     CG2R51
   40    33    43    44	 9 ;     NG2R51     CG2RC0     CG2RC0     CG2R61
   40    33    43    42	 9 ;     NG2R51     CG2RC0     CG2RC0     CG2R51
   31    33    40    39	 9 ;     CG2R61     CG2RC0     NG2R51      CG321
   31    33    40    41	 9 ;     CG2R61     CG2RC0     NG2R51     CG2R51
   43    33    40    39	 9 ;     CG2RC0     CG2RC0     NG2R51      CG321
   43    33    40    41	 9 ;     CG2RC0     CG2RC0     NG2R51     CG2R51
   32    34    38    39	 9 ;      NG301      SG3O2      CG321      CG321
   32    34    38    65	 9 ;      NG301      SG3O2      CG321       HGA2
   32    34    38    66	 9 ;      NG301      SG3O2      CG321       HGA2
   36    34    38    39	 9 ;      OG2P1      SG3O2      CG321      CG321
   36    34    38    65	 9 ;      OG2P1      SG3O2      CG321       HGA2
   36    34    38    66	 9 ;      OG2P1      SG3O2      CG321       HGA2
   37    34    38    39	 9 ;      OG2P1      SG3O2      CG321      CG321
   37    34    38    65	 9 ;      OG2P1      SG3O2      CG321       HGA2
   37    34    38    66	 9 ;      OG2P1      SG3O2      CG321       HGA2
   34    38    39    40	 9 ;      SG3O2      CG321      CG321     NG2R51
   34    38    39    67	 9 ;      SG3O2      CG321      CG321       HGA2
   34    38    39    68	 9 ;      SG3O2      CG321      CG321       HGA2
   65    38    39    40	 9 ;       HGA2      CG321      CG321     NG2R51
   65    38    39    67	 9 ;       HGA2      CG321      CG321       HGA2
   65    38    39    68	 9 ;       HGA2      CG321      CG321       HGA2
   66    38    39    40	 9 ;       HGA2      CG321      CG321     NG2R51
   66    38    39    67	 9 ;       HGA2      CG321      CG321       HGA2
   66    38    39    68	 9 ;       HGA2      CG321      CG321       HGA2
   38    39    40    33	 9 ;      CG321      CG321     NG2R51     CG2RC0
   38    39    40    41	 9 ;      CG321      CG321     NG2R51     CG2R51
   67    39    40    33	 9 ;       HGA2      CG321     NG2R51     CG2RC0
   67    39    40    41	 9 ;       HGA2      CG321     NG2R51     CG2R51
   68    39    40    33	 9 ;       HGA2      CG321     NG2R51     CG2RC0
   68    39    40    41	 9 ;       HGA2      CG321     NG2R51     CG2R51
   33    40    41    42	 9 ;     CG2RC0     NG2R51     CG2R51     CG2R51
   33    40    41    69	 9 ;     CG2RC0     NG2R51     CG2R51      HGR52
   39    40    41    42	 9 ;      CG321     NG2R51     CG2R51     CG2R51
   39    40    41    69	 9 ;      CG321     NG2R51     CG2R51      HGR52
   40    41    42    43	 9 ;     NG2R51     CG2R51     CG2R51     CG2RC0
   40    41    42    45	 9 ;     NG2R51     CG2R51     CG2R51      CG321
   69    41    42    43	 9 ;      HGR52     CG2R51     CG2R51     CG2RC0
   69    41    42    45	 9 ;      HGR52     CG2R51     CG2R51      CG321
   41    42    43    44	 9 ;     CG2R51     CG2R51     CG2RC0     CG2R61
   41    42    43    33	 9 ;     CG2R51     CG2R51     CG2RC0     CG2RC0
   45    42    43    44	 9 ;      CG321     CG2R51     CG2RC0     CG2R61
   45    42    43    33	 9 ;      CG321     CG2R51     CG2RC0     CG2RC0
   43    42    45    46	 9 ;     CG2RC0     CG2R51      CG321      CG331
   43    42    45    71	 9 ;     CG2RC0     CG2R51      CG321       HGA2
   43    42    45    72	 9 ;     CG2RC0     CG2R51      CG321       HGA2
   41    42    45    46	 9 ;     CG2R51     CG2R51      CG321      CG331
   41    42    45    71	 9 ;     CG2R51     CG2R51      CG321       HGA2
   41    42    45    72	 9 ;     CG2R51     CG2R51      CG321       HGA2
   33    43    44    29	 9 ;     CG2RC0     CG2RC0     CG2R61     CG2R61
   33    43    44    70	 9 ;     CG2RC0     CG2RC0     CG2R61      HGR61
   42    43    44    29	 9 ;     CG2R51     CG2RC0     CG2R61     CG2R61
   42    43    44    70	 9 ;     CG2R51     CG2RC0     CG2R61      HGR61
   42    45    46    76	 9 ;     CG2R51      CG321      CG331       HGA3
   42    45    46    77	 9 ;     CG2R51      CG321      CG331       HGA3
   42    45    46    78	 9 ;     CG2R51      CG321      CG331       HGA3
   71    45    46    76	 9 ;       HGA2      CG321      CG331       HGA3
   71    45    46    77	 9 ;       HGA2      CG321      CG331       HGA3
   71    45    46    78	 9 ;       HGA2      CG321      CG331       HGA3
   72    45    46    76	 9 ;       HGA2      CG321      CG331       HGA3
   72    45    46    77	 9 ;       HGA2      CG321      CG331       HGA3
   72    45    46    78	 9 ;       HGA2      CG321      CG331       HGA3

[ dihedrals ]
;	ai	  aj	ak	  al funct			  c0			c1			  c2			c3
   26    29    25    27	 2

