GROup of MAchos and Cynical Suckers
   29
    1LIG     O2    1   8.197   1.308   8.796
    1LIG     C2    2   8.341   1.205   8.957
    1LIG     C3    3   8.266   1.214   8.830
    1LIG     O3    4   8.502   1.166   9.176
    1LIG     C4    5   8.497   1.396   9.236
    1LIG     C5    6   8.448   1.524   9.207
    1LIG     C6    7   8.571   1.374   9.353
    1LIG     C7    8   8.472   1.629   9.297
    1LIG     C8    9   8.596   1.480   9.440
    1LIG     C9   10   8.547   1.608   9.413
    1LIG    C10   11   8.399   1.310   9.017
    1LIG    C11   12   8.405   1.453   8.971
    1LIG    C12   13   8.469   1.281   9.146
    1LIG    C13   14   8.365   1.548   9.083
    1LIG     C1   15   8.469   1.762   9.577
    1LIG     O1   16   8.578   1.702   9.507
    1LIG     O4   17   8.282   1.102   8.756
    1LIG    H12   18   8.372   1.066   8.756
    1LIG     H1   19   8.349   1.113   9.002
    1LIG     H2   20   8.607   1.280   9.374
    1LIG     H3   21   8.435   1.723   9.277
    1LIG     H4   22   8.651   1.464   9.526
    1LIG     H5   23   8.338   1.466   8.889
    1LIG     H6   24   8.505   1.475   8.941
    1LIG     H7   25   8.262   1.533   9.107
    1LIG     H8   26   8.381   1.649   9.051
    1LIG     H9   27   8.507   1.833   9.647
    1LIG    H10   28   8.414   1.687   9.629
    1LIG    H11   29   8.405   1.812   9.507
   0.00000   0.00000   0.00000
