Gnomes, ROck Monsters And Chili Sauce
   73
    1LIG     N1    1  -1.633   0.314  -1.578
    1LIG     H1    2  -1.639   0.386  -1.653
    1LIG     H2    3  -1.647   0.226  -1.631
    1LIG     C1    4  -1.491   0.313  -1.523
    1LIG     C2    5  -1.396   0.378  -1.625
    1LIG     O1    6  -1.461   0.499  -1.672
    1LIG     H3    7  -1.445   0.572  -1.609
    1LIG     C3    8  -1.248   0.407  -1.581
    1LIG     C4    9  -1.145   0.321  -1.658
    1LIG     C5   10  -1.095   0.201  -1.581
    1LIG     C6   11  -0.976   0.206  -1.506
    1LIG     C7   12  -0.932   0.093  -1.437
    1LIG     F1   13  -0.819   0.100  -1.365
    1LIG     C8   14  -1.002  -0.026  -1.441
    1LIG     C9   15  -1.120  -0.031  -1.515
    1LIG    C10   16  -1.167   0.081  -1.582
    1LIG     F2   17  -1.189  -0.145  -1.521
    1LIG     N2   18  -1.212   0.550  -1.572
    1LIG    C11   19  -1.176   0.616  -1.457
    1LIG     O2   20  -1.156   0.557  -1.351
    1LIG    C12   21  -1.161   0.766  -1.471
    1LIG     H4   22  -1.246   0.609  -1.648
    1LIG    C13   23  -1.754   0.329  -1.483
    1LIG    C14   24  -1.701   0.347  -1.339
    1LIG    C15   25  -1.814   0.349  -1.237
    1LIG    C16   26  -1.895   0.219  -1.242
    1LIG    C17   27  -1.945   0.186  -1.383
    1LIG    C18   28  -1.835   0.196  -1.488
    1LIG    C19   29  -1.835   0.452  -1.531
    1LIG    C20   30  -1.777   0.581  -1.522
    1LIG    C21   31  -1.832   0.695  -1.583
    1LIG    C22   32  -1.962   0.684  -1.633
    1LIG    C23   33  -2.027   0.561  -1.636
    1LIG    C24   34  -1.961   0.445  -1.592
    1LIG     N3   35  -1.757   0.816  -1.595
    1LIG    C25   36  -1.641   0.821  -1.687
    1LIG    C26   37  -1.555   0.945  -1.670
    1LIG     O3   38  -1.639   1.060  -1.672
    1LIG    C27   39  -1.724   1.059  -1.559
    1LIG    C28   40  -1.770   0.923  -1.504
    1LIG     O4   41  -1.818   0.915  -1.391
    1LIG    HC2   42  -1.459   0.211  -1.503
    1LIG    HC3   43  -1.488   0.370  -1.430
    1LIG     HC   44  -1.391   0.310  -1.711
    1LIG    HC1   45  -1.243   0.370  -1.478
    1LIG    HC4   46  -1.059   0.384  -1.682
    1LIG    HC5   47  -1.190   0.286  -1.751
    1LIG    HC6   48  -0.920   0.298  -1.501
    1LIG    HC7   49  -0.966  -0.113  -1.389
    1LIG    HC8   50  -1.260   0.075  -1.637
    1LIG    HC9   51  -1.132   0.809  -1.375
    1LIG   HC10   52  -1.255   0.809  -1.503
    1LIG   HC11   53  -1.083   0.788  -1.544
    1LIG   HC12   54  -1.647   0.442  -1.333
    1LIG   HC13   55  -1.632   0.266  -1.316
    1LIG   HC14   56  -1.772   0.360  -1.137
    1LIG   HC15   57  -1.880   0.433  -1.257
    1LIG   HC16   58  -1.980   0.228  -1.176
    1LIG   HC17   59  -1.832   0.137  -1.207
    1LIG   HC18   60  -1.985   0.085  -1.383
    1LIG   HC19   61  -2.025   0.256  -1.408
    1LIG   HC20   62  -1.881   0.188  -1.587
    1LIG   HC21   63  -1.766   0.113  -1.475
    1LIG   HC22   64  -1.686   0.592  -1.465
    1LIG   HC23   65  -2.013   0.772  -1.670
    1LIG   HC24   66  -2.128   0.554  -1.673
    1LIG   HC25   67  -2.009   0.349  -1.604
    1LIG   HC26   68  -1.678   0.817  -1.789
    1LIG   HC27   69  -1.579   0.733  -1.669
    1LIG   HC28   70  -1.484   0.951  -1.752
    1LIG   HC29   71  -1.502   0.940  -1.576
    1LIG   HC30   72  -1.813   1.116  -1.585
    1LIG   HC31   73  -1.673   1.112  -1.478
   0.00000   0.00000   0.00000
