Great Red Oystrich Makes All Chemists Sane
   56
    1LIG     C1    1  -1.268   0.008  -1.462
    1LIG     C2    2  -1.245  -0.107  -1.432
    1LIG     C3    3  -1.220  -0.246  -1.396
    1LIG     C4    4  -1.301   0.144  -1.497
    1LIG     C5    5  -1.429   0.194  -1.479
    1LIG     C6    6  -1.463   0.327  -1.513
    1LIG     C7    7  -1.358   0.401  -1.566
    1LIG     N1    8  -1.231   0.356  -1.585
    1LIG     C8    9  -1.205   0.228  -1.550
    1LIG    HN3   10  -1.158   0.416  -1.624
    1LIG     C9   11  -1.599   0.383  -1.490
    1LIG    C10   12  -1.615   0.517  -1.454
    1LIG    C11   13  -1.738   0.588  -1.465
    1LIG    C12   14  -1.854   0.511  -1.465
    1LIG    C13   15  -1.742   0.741  -1.462
    1LIG     O1   16  -1.978   0.561  -1.433
    1LIG    C14   17  -1.844   0.374  -1.491
    1LIG    C15   18  -1.988   0.706  -1.447
    1LIG    C16   19  -1.862   0.771  -1.374
    1LIG    C17   20  -2.116   0.760  -1.380
    1LIG    C18   21  -2.011   0.724  -1.600
    1LIG    C19   22  -1.719   0.312  -1.511
    1LIG     N2   23  -1.779   0.830  -1.580
    1LIG    C20   24  -1.597   0.792  -1.454
    1LIG    C21   25  -1.671   0.885  -1.621
    1LIG    HN4   26  -1.872   0.843  -1.619
    1LIG     N3   27  -1.559   0.820  -1.585
    1LIG    C22   28  -1.543   0.715  -1.688
    1LIG     O2   29  -1.536   0.823  -1.353
    1LIG     N4   30  -1.659   0.993  -1.702
    1LIG     H1   31  -1.704   1.075  -1.663
    1LIG     H2   32  -1.694   0.973  -1.795
    1LIG     HC   33  -1.506   0.129  -1.437
    1LIG    HC1   34  -1.379   0.503  -1.595
    1LIG    HC2   35  -1.105   0.190  -1.564
    1LIG    HC3   36  -1.529   0.570  -1.416
    1LIG    HC4   37  -1.934   0.314  -1.496
    1LIG    HC5   38  -1.876   0.879  -1.363
    1LIG    HC6   39  -1.848   0.725  -1.276
    1LIG    HC7   40  -1.714   0.209  -1.543
    1LIG    HN2   41  -1.794   0.907  -1.516
    1LIG    HC8   42  -1.666   0.948  -1.532
    1LIG    HN1   43  -1.560   1.013  -1.711
    1LIG    HC9   44  -2.095   0.663  -1.632
    1LIG   HC10   45  -2.033   0.829  -1.621
    1LIG   HC11   46  -1.921   0.694  -1.654
    1LIG   HC12   47  -1.454   0.656  -1.666
    1LIG   HC13   48  -1.534   0.761  -1.786
    1LIG   HC14   49  -1.630   0.649  -1.686
    1LIG   HC15   50  -2.108   0.750  -1.272
    1LIG   HC16   51  -2.202   0.703  -1.415
    1LIG   HC17   52  -2.129   0.865  -1.406
    1LIG   HC18   53  -1.112  -0.264  -1.393
    1LIG   HC19   54  -1.266  -0.312  -1.470
    1LIG   HC20   55  -1.263  -0.266  -1.298
    1LIG    H28   56  -1.331   0.435  -1.466
   0.00000   0.00000   0.00000
