Guyana Rwanda Oman Macau Angola Cameroon Senegal
   74
    1LIG      S    1  -2.093   0.539  -1.667
    1LIG     O1    2  -2.076   0.669  -1.606
    1LIG     O2    3  -2.174   0.516  -1.784
    1LIG     N1    4  -1.938   0.477  -1.700
    1LIG     C1    5  -1.901   0.360  -1.613
    1LIG     C2    6  -1.818   0.400  -1.489
    1LIG     C3    7  -1.668   0.424  -1.507
    1LIG     N2    8  -1.605   0.316  -1.595
    1LIG     C4    9  -1.684   0.272  -1.715
    1LIG     C5   10  -1.829   0.245  -1.684
    1LIG     C6   11  -1.632   0.564  -1.551
    1LIG     C7   12  -2.042   0.307  -1.561
    1LIG     N3   13  -2.122   0.426  -1.551
    1LIG      H   14  -1.597   0.234  -1.534
    1LIG     C8   15  -1.866   0.538  -1.807
    1LIG     C9   16  -1.791   0.654  -1.788
    1LIG    C10   17  -1.737   0.720  -1.898
    1LIG      F   18  -1.667   0.832  -1.881
    1LIG    C11   19  -1.759   0.674  -2.028
    1LIG    C12   20  -1.823   0.552  -2.046
    1LIG    C13   21  -1.868   0.481  -1.934
    1LIG    C14   22  -2.243   0.432  -1.482
    1LIG     N4   23  -2.256   0.369  -1.367
    1LIG    C15   24  -2.375   0.389  -1.306
    1LIG    HN1   25  -2.182   0.311  -1.327
    1LIG    C16   26  -2.475   0.470  -1.354
    1LIG    C17   27  -2.446   0.534  -1.473
    1LIG     N5   28  -2.329   0.519  -1.538
    1LIG    HN2   29  -2.308   0.570  -1.624
    1LIG    C18   30  -1.459   0.347  -1.638
    1LIG    C19   31  -1.361   0.344  -1.525
    1LIG    C20   32  -1.335   0.221  -1.466
    1LIG    C21   33  -1.250   0.209  -1.356
    1LIG    C22   34  -1.186   0.323  -1.308
    1LIG    C23   35  -1.209   0.447  -1.367
    1LIG    C24   36  -1.296   0.457  -1.476
    1LIG     O3   37  -1.223   0.090  -1.294
    1LIG    C25   38  -1.141  -0.004  -1.367
    1LIG    C26   39  -0.993   0.014  -1.333
    1LIG    C27   40  -1.188  -0.144  -1.329
    1LIG    HC2   41  -1.861   0.493  -1.450
    1LIG    HC3   42  -1.831   0.323  -1.413
    1LIG     HC   43  -1.623   0.411  -1.408
    1LIG    HC4   44  -1.639   0.180  -1.754
    1LIG    HC5   45  -1.677   0.349  -1.792
    1LIG    HC6   46  -1.881   0.226  -1.778
    1LIG    HC7   47  -1.836   0.156  -1.622
    1LIG    HC1   48  -1.554   0.603  -1.486
    1LIG    HC8   49  -1.720   0.627  -1.545
    1LIG    HC9   50  -1.596   0.561  -1.654
    1LIG   HC10   51  -2.085   0.237  -1.632
    1LIG   HC11   52  -2.031   0.260  -1.463
    1LIG   HC12   53  -1.775   0.693  -1.688
    1LIG   HC13   54  -1.727   0.732  -2.113
    1LIG   HC14   55  -1.838   0.512  -2.145
    1LIG   HC15   56  -1.906   0.380  -1.946
    1LIG   HC16   57  -2.392   0.337  -1.212
    1LIG   HC17   58  -2.569   0.482  -1.303
    1LIG   HC18   59  -2.520   0.599  -1.515
    1LIG   HC19   60  -1.457   0.446  -1.684
    1LIG   HC20   61  -1.429   0.273  -1.713
    1LIG   HC21   62  -1.381   0.132  -1.506
    1LIG   HC22   63  -1.118   0.315  -1.224
    1LIG   HC23   64  -1.161   0.536  -1.329
    1LIG   HC24   65  -1.312   0.553  -1.522
    1LIG   HC25   66  -1.156   0.012  -1.474
    1LIG   HC26   67  -0.961   0.115  -1.360
    1LIG   HC27   68  -0.979  -0.001  -1.226
    1LIG   HC28   69  -0.934  -0.059  -1.388
    1LIG   HC29   70  -1.293  -0.155  -1.354
    1LIG   HC30   71  -1.130  -0.217  -1.385
    1LIG   HC31   72  -1.174  -0.159  -1.222
    1LIG    H36   73  -2.284   0.348  -1.538
    1LIG    H37   74  -2.333   0.473  -1.251
   0.00000   0.00000   0.00000
