; Created by cgenff_charmm2gmx.py

[ moleculetype ]
; Name			   nrexcl
LIG				 3

[ atoms ]
;	 nr		  type	resnr residue  atom   cgnr	   charge		mass  typeB    chargeB		massB
; residue	 1 LIG rtp LIG q	qsum
     1      SG3O2      1    LIG      S      1      0.170     32.060   ;
     2      OG2P1      1    LIG     O1      2     -0.216     15.999   ;
     3      OG2P1      1    LIG     O2      3     -0.216     15.999   ;
     4     NG3C51      1    LIG     N1      4     -0.409     14.007   ;
     5     CG3C50      1    LIG     C1      5      0.239     12.011   ;
     6      CG321      1    LIG     C2      6     -0.124     12.011   ;
     7      CG314      1    LIG     C3      7      0.198     12.011   ;
     8      NG3P1      1    LIG     N2      8     -0.462     14.007   ;
     9      CG324      1    LIG     C4      9      0.103     12.011   ;
    10      CG321      1    LIG     C5     10     -0.123     12.011   ;
    11      CG331      1    LIG     C6     11     -0.213     12.011   ;
    12     CG3C52      1    LIG     C7     12     -0.058     12.011   ;
    13     NG3C51      1    LIG     N3     13     -0.060     14.007   ;
    14       HGP2      1    LIG      H     14      0.319      1.008   ;
    15     CG2R61      1    LIG     C8     15      0.378     12.011   ;
    16     CG2R61      1    LIG     C9     16     -0.169     12.011   ;
    17     CG2R66      1    LIG    C10     17      0.105     12.011   ;
    18       FGR1      1    LIG      F     18     -0.211     18.998   ;
    19     CG2R61      1    LIG    C11     19     -0.107     12.011   ;
    20     CG2R61      1    LIG    C12     20     -0.149     12.011   ;
    21     CG2R61      1    LIG    C13     21     -0.107     12.011   ;
    22      CG311      1    LIG    C14     22      0.271     12.011   ;
    23      NG311      1    LIG     N4     23     -0.847     14.007   ;
    24      CG321      1    LIG    C15     24      0.138     12.011   ;
    25     HGPAM1      1    LIG    HN1     25      0.389      1.008   ;
    26      CG2D1      1    LIG    C16     26     -0.115     12.011   ;
    27     CG2D1O      1    LIG    C17     27     -0.140     12.011   ;
    28      NG311      1    LIG     N5     28     -0.616     14.007   ;
    29     HGPAM1      1    LIG    HN2     29      0.413      1.008   ;
    30      CG324      1    LIG    C18     30      0.119     12.011   ;
    31     CG2R61      1    LIG    C19     31      0.069     12.011   ;
    32     CG2R61      1    LIG    C20     32     -0.123     12.011   ;
    33     CG2R61      1    LIG    C21     33      0.159     12.011   ;
    34     CG2R61      1    LIG    C22     34     -0.119     12.011   ;
    35     CG2R61      1    LIG    C23     35     -0.108     12.011   ;
    36     CG2R61      1    LIG    C24     36     -0.120     12.011   ;
    37      OG301      1    LIG     O3     37     -0.341     15.999   ;
    38      CG311      1    LIG    C25     38      0.059     12.011   ;
    39      CG331      1    LIG    C26     39     -0.251     12.011   ;
    40      CG331      1    LIG    C27     40     -0.251     12.011   ;
    41       HGA2      1    LIG    HC2     41      0.090      1.008   ;
    42       HGA2      1    LIG    HC3     42      0.090      1.008   ;
    43       HGA1      1    LIG     HC     43      0.090      1.008   ;
    44       HGA2      1    LIG    HC4     44      0.090      1.008   ;
    45       HGA2      1    LIG    HC5     45      0.090      1.008   ;
    46       HGA2      1    LIG    HC6     46      0.090      1.008   ;
    47       HGA2      1    LIG    HC7     47      0.090      1.008   ;
    48       HGA3      1    LIG    HC1     48      0.090      1.008   ;
    49       HGA3      1    LIG    HC8     49      0.090      1.008   ;
    50       HGA3      1    LIG    HC9     50      0.090      1.008   ;
    51       HGA2      1    LIG   HC10     51      0.090      1.008   ;
    52       HGA2      1    LIG   HC11     52      0.090      1.008   ;
    53      HGR62      1    LIG   HC12     53      0.175      1.008   ;
    54      HGR62      1    LIG   HC13     54      0.179      1.008   ;
    55      HGR61      1    LIG   HC14     55      0.116      1.008   ;
    56      HGR61      1    LIG   HC15     56      0.116      1.008   ;
    57       HGA2      1    LIG   HC16     57      0.090      1.008   ;
    58       HGA4      1    LIG   HC17     58      0.140      1.008   ;
    59       HGA4      1    LIG   HC18     59      0.176      1.008   ;
    60       HGA2      1    LIG   HC19     60      0.090      1.008   ;
    61       HGA2      1    LIG   HC20     61      0.090      1.008   ;
    62      HGR61      1    LIG   HC21     62      0.116      1.008   ;
    63      HGR61      1    LIG   HC22     63      0.116      1.008   ;
    64      HGR61      1    LIG   HC23     64      0.116      1.008   ;
    65      HGR61      1    LIG   HC24     65      0.116      1.008   ;
    66       HGA1      1    LIG   HC25     66      0.090      1.008   ;
    67       HGA3      1    LIG   HC26     67      0.090      1.008   ;
    68       HGA3      1    LIG   HC27     68      0.090      1.008   ;
    69       HGA3      1    LIG   HC28     69      0.090      1.008   ;
    70       HGA3      1    LIG   HC29     70      0.090      1.008   ;
    71       HGA3      1    LIG   HC30     71      0.090      1.008   ;
    72       HGA3      1    LIG   HC31     72      0.090      1.008   ;
    73       HGA1      1    LIG    H36     73      0.090      1.008   ;
    74       HGA2      1    LIG    H37     74      0.090      1.008   ;

[ bonds ]
;	ai	  aj funct			  c0			c1			  c2			c3
    1     4	 1 ;       SG3O2     NG3C51
    1     2	 1 ;       SG3O2      OG2P1
    1     3	 1 ;       SG3O2      OG2P1
    1    13	 1 ;       SG3O2     NG3C51
    4    15	 1 ;      NG3C51     CG2R61
    4     5	 1 ;      NG3C51     CG3C50
    5    10	 1 ;      CG3C50      CG321
    5     6	 1 ;      CG3C50      CG321
    5    12	 1 ;      CG3C50     CG3C52
    6     7	 1 ;       CG321      CG314
    6    41	 1 ;       CG321       HGA2
    6    42	 1 ;       CG321       HGA2
    7    11	 1 ;       CG314      CG331
    7     8	 1 ;       CG314      NG3P1
    7    43	 1 ;       CG314       HGA1
    8    30	 1 ;       NG3P1      CG324
    8     9	 1 ;       NG3P1      CG324
    8    14	 1 ;       NG3P1       HGP2
    9    10	 1 ;       CG324      CG321
    9    44	 1 ;       CG324       HGA2
    9    45	 1 ;       CG324       HGA2
   10    46	 1 ;       CG321       HGA2
   10    47	 1 ;       CG321       HGA2
   11    48	 1 ;       CG331       HGA3
   11    49	 1 ;       CG331       HGA3
   11    50	 1 ;       CG331       HGA3
   12    13	 1 ;      CG3C52     NG3C51
   12    51	 1 ;      CG3C52       HGA2
   12    52	 1 ;      CG3C52       HGA2
   13    22	 1 ;      NG3C51      CG311
   15    16	 1 ;      CG2R61     CG2R61
   15    21	 1 ;      CG2R61     CG2R61
   16    17	 1 ;      CG2R61     CG2R66
   16    53	 1 ;      CG2R61      HGR62
   17    18	 1 ;      CG2R66       FGR1
   17    19	 1 ;      CG2R66     CG2R61
   19    20	 1 ;      CG2R61     CG2R61
   19    54	 1 ;      CG2R61      HGR62
   20    21	 1 ;      CG2R61     CG2R61
   20    55	 1 ;      CG2R61      HGR61
   21    56	 1 ;      CG2R61      HGR61
   22    28	 1 ;       CG311      NG311
   22    23	 1 ;       CG311      NG311
   22    73	 1 ;       CG311       HGA1
   23    25	 1 ;       NG311     HGPAM1
   23    24	 1 ;       NG311      CG321
   24    26	 1 ;       CG321      CG2D1
   24    57	 1 ;       CG321       HGA2
   24    74	 1 ;       CG321       HGA2
   26    27	 1 ;       CG2D1     CG2D1O
   26    58	 1 ;       CG2D1       HGA4
   27    28	 1 ;      CG2D1O      NG311
   27    59	 1 ;      CG2D1O       HGA4
   28    29	 1 ;       NG311     HGPAM1
   30    31	 1 ;       CG324     CG2R61
   30    60	 1 ;       CG324       HGA2
   30    61	 1 ;       CG324       HGA2
   31    36	 1 ;      CG2R61     CG2R61
   31    32	 1 ;      CG2R61     CG2R61
   32    33	 1 ;      CG2R61     CG2R61
   32    62	 1 ;      CG2R61      HGR61
   33    34	 1 ;      CG2R61     CG2R61
   33    37	 1 ;      CG2R61      OG301
   34    35	 1 ;      CG2R61     CG2R61
   34    63	 1 ;      CG2R61      HGR61
   35    36	 1 ;      CG2R61     CG2R61
   35    64	 1 ;      CG2R61      HGR61
   36    65	 1 ;      CG2R61      HGR61
   37    38	 1 ;       OG301      CG311
   38    39	 1 ;       CG311      CG331
   38    40	 1 ;       CG311      CG331
   38    66	 1 ;       CG311       HGA1
   39    67	 1 ;       CG331       HGA3
   39    68	 1 ;       CG331       HGA3
   39    69	 1 ;       CG331       HGA3
   40    70	 1 ;       CG331       HGA3
   40    71	 1 ;       CG331       HGA3
   40    72	 1 ;       CG331       HGA3

[ pairs ]
;	ai	  aj funct			  c0			c1			  c2			c3
    1    16	 1
    1    21	 1
    1    10	 1
    1     6	 1
    1    51	 1
    1    52	 1
    1    28	 1
    1    23	 1
    1    73	 1
    2    15	 1
    2     5	 1
    2    12	 1
    2    22	 1
    3    15	 1
    3     5	 1
    3    12	 1
    3    22	 1
    4    22	 1
    4     9	 1
    4    46	 1
    4    47	 1
    4     7	 1
    4    41	 1
    4    42	 1
    4    51	 1
    4    52	 1
    4    17	 1
    4    53	 1
    4    20	 1
    4    56	 1
    5    16	 1
    5    21	 1
    5    11	 1
    5     8	 1
    5    43	 1
    5    44	 1
    5    45	 1
    5    22	 1
    6    15	 1
    6     9	 1
    6    46	 1
    6    47	 1
    6    13	 1
    6    51	 1
    6    52	 1
    6    48	 1
    6    49	 1
    6    50	 1
    6    30	 1
    6    14	 1
    7    10	 1
    7    12	 1
    7    31	 1
    7    60	 1
    7    61	 1
    7    44	 1
    7    45	 1
    8    41	 1
    8    42	 1
    8    48	 1
    8    49	 1
    8    50	 1
    8    46	 1
    8    47	 1
    8    36	 1
    8    32	 1
    9    12	 1
    9    11	 1
    9    43	 1
    9    31	 1
    9    60	 1
    9    61	 1
   10    15	 1
   10    41	 1
   10    42	 1
   10    13	 1
   10    51	 1
   10    52	 1
   10    30	 1
   10    14	 1
   11    41	 1
   11    42	 1
   11    30	 1
   11    14	 1
   12    15	 1
   12    46	 1
   12    47	 1
   12    41	 1
   12    42	 1
   12    28	 1
   12    23	 1
   12    73	 1
   13    15	 1
   13    29	 1
   13    27	 1
   13    25	 1
   13    24	 1
   14    43	 1
   14    31	 1
   14    60	 1
   14    61	 1
   14    44	 1
   14    45	 1
   15    18	 1
   15    19	 1
   15    55	 1
   16    20	 1
   16    56	 1
   16    54	 1
   17    21	 1
   17    55	 1
   18    53	 1
   18    20	 1
   18    54	 1
   19    53	 1
   19    56	 1
   21    53	 1
   21    54	 1
   22    51	 1
   22    52	 1
   22    26	 1
   22    57	 1
   22    74	 1
   22    59	 1
   23    29	 1
   23    27	 1
   23    58	 1
   24    28	 1
   24    73	 1
   24    59	 1
   25    28	 1
   25    73	 1
   25    26	 1
   25    57	 1
   25    74	 1
   26    29	 1
   27    73	 1
   27    57	 1
   27    74	 1
   28    58	 1
   29    73	 1
   29    59	 1
   30    43	 1
   30    44	 1
   30    45	 1
   30    35	 1
   30    65	 1
   30    33	 1
   30    62	 1
   31    34	 1
   31    37	 1
   31    64	 1
   32    60	 1
   32    61	 1
   32    35	 1
   32    65	 1
   32    63	 1
   32    38	 1
   33    36	 1
   33    64	 1
   33    39	 1
   33    40	 1
   33    66	 1
   34    62	 1
   34    38	 1
   34    65	 1
   35    37	 1
   36    60	 1
   36    61	 1
   36    62	 1
   36    63	 1
   37    62	 1
   37    63	 1
   37    67	 1
   37    68	 1
   37    69	 1
   37    70	 1
   37    71	 1
   37    72	 1
   39    70	 1
   39    71	 1
   39    72	 1
   40    67	 1
   40    68	 1
   40    69	 1
   41    43	 1
   42    43	 1
   43    48	 1
   43    49	 1
   43    50	 1
   44    46	 1
   44    47	 1
   45    46	 1
   45    47	 1
   54    55	 1
   55    56	 1
   57    58	 1
   58    74	 1
   58    59	 1
   63    64	 1
   64    65	 1
   66    67	 1
   66    68	 1
   66    69	 1
   66    70	 1
   66    71	 1
   66    72	 1

[ angles ]
;	ai	  aj	ak funct			c0			  c1			c2			  c3
    4     1     2	5 ;     NG3C51      SG3O2      OG2P1
    4     1     3	5 ;     NG3C51      SG3O2      OG2P1
    4     1    13	5 ;     NG3C51      SG3O2     NG3C51
    2     1     3	5 ;      OG2P1      SG3O2      OG2P1
    2     1    13	5 ;      OG2P1      SG3O2     NG3C51
    3     1    13	5 ;      OG2P1      SG3O2     NG3C51
   15     4     5	5 ;     CG2R61     NG3C51     CG3C50
   15     4     1	5 ;     CG2R61     NG3C51      SG3O2
    5     4     1	5 ;     CG3C50     NG3C51      SG3O2
   10     5     4	5 ;      CG321     CG3C50     NG3C51
   10     5     6	5 ;      CG321     CG3C50      CG321
   10     5    12	5 ;      CG321     CG3C50     CG3C52
    4     5     6	5 ;     NG3C51     CG3C50      CG321
    4     5    12	5 ;     NG3C51     CG3C50     CG3C52
    6     5    12	5 ;      CG321     CG3C50     CG3C52
    7     6     5	5 ;      CG314      CG321     CG3C50
    7     6    41	5 ;      CG314      CG321       HGA2
    7     6    42	5 ;      CG314      CG321       HGA2
    5     6    41	5 ;     CG3C50      CG321       HGA2
    5     6    42	5 ;     CG3C50      CG321       HGA2
   41     6    42	5 ;       HGA2      CG321       HGA2
   11     7     8	5 ;      CG331      CG314      NG3P1
   11     7     6	5 ;      CG331      CG314      CG321
   11     7    43	5 ;      CG331      CG314       HGA1
    8     7     6	5 ;      NG3P1      CG314      CG321
    8     7    43	5 ;      NG3P1      CG314       HGA1
    6     7    43	5 ;      CG321      CG314       HGA1
   30     8     9	5 ;      CG324      NG3P1      CG324
   30     8    14	5 ;      CG324      NG3P1       HGP2
   30     8     7	5 ;      CG324      NG3P1      CG314
    9     8    14	5 ;      CG324      NG3P1       HGP2
    9     8     7	5 ;      CG324      NG3P1      CG314
   14     8     7	5 ;       HGP2      NG3P1      CG314
    8     9    10	5 ;      NG3P1      CG324      CG321
    8     9    44	5 ;      NG3P1      CG324       HGA2
    8     9    45	5 ;      NG3P1      CG324       HGA2
   10     9    44	5 ;      CG321      CG324       HGA2
   10     9    45	5 ;      CG321      CG324       HGA2
   44     9    45	5 ;       HGA2      CG324       HGA2
    9    10     5	5 ;      CG324      CG321     CG3C50
    9    10    46	5 ;      CG324      CG321       HGA2
    9    10    47	5 ;      CG324      CG321       HGA2
    5    10    46	5 ;     CG3C50      CG321       HGA2
    5    10    47	5 ;     CG3C50      CG321       HGA2
   46    10    47	5 ;       HGA2      CG321       HGA2
    7    11    48	5 ;      CG314      CG331       HGA3
    7    11    49	5 ;      CG314      CG331       HGA3
    7    11    50	5 ;      CG314      CG331       HGA3
   48    11    49	5 ;       HGA3      CG331       HGA3
   48    11    50	5 ;       HGA3      CG331       HGA3
   49    11    50	5 ;       HGA3      CG331       HGA3
    5    12    13	5 ;     CG3C50     CG3C52     NG3C51
    5    12    51	5 ;     CG3C50     CG3C52       HGA2
    5    12    52	5 ;     CG3C50     CG3C52       HGA2
   13    12    51	5 ;     NG3C51     CG3C52       HGA2
   13    12    52	5 ;     NG3C51     CG3C52       HGA2
   51    12    52	5 ;       HGA2     CG3C52       HGA2
    1    13    12	5 ;      SG3O2     NG3C51     CG3C52
    1    13    22	5 ;      SG3O2     NG3C51      CG311
   12    13    22	5 ;     CG3C52     NG3C51      CG311
   16    15    21	5 ;     CG2R61     CG2R61     CG2R61
   16    15     4	5 ;     CG2R61     CG2R61     NG3C51
   21    15     4	5 ;     CG2R61     CG2R61     NG3C51
   17    16    15	5 ;     CG2R66     CG2R61     CG2R61
   17    16    53	5 ;     CG2R66     CG2R61      HGR62
   15    16    53	5 ;     CG2R61     CG2R61      HGR62
   18    17    19	5 ;       FGR1     CG2R66     CG2R61
   18    17    16	5 ;       FGR1     CG2R66     CG2R61
   19    17    16	5 ;     CG2R61     CG2R66     CG2R61
   17    19    20	5 ;     CG2R66     CG2R61     CG2R61
   17    19    54	5 ;     CG2R66     CG2R61      HGR62
   20    19    54	5 ;     CG2R61     CG2R61      HGR62
   19    20    21	5 ;     CG2R61     CG2R61     CG2R61
   19    20    55	5 ;     CG2R61     CG2R61      HGR61
   21    20    55	5 ;     CG2R61     CG2R61      HGR61
   20    21    15	5 ;     CG2R61     CG2R61     CG2R61
   20    21    56	5 ;     CG2R61     CG2R61      HGR61
   15    21    56	5 ;     CG2R61     CG2R61      HGR61
   13    22    28	5 ;     NG3C51      CG311      NG311
   13    22    23	5 ;     NG3C51      CG311      NG311
   13    22    73	5 ;     NG3C51      CG311       HGA1
   28    22    23	5 ;      NG311      CG311      NG311
   28    22    73	5 ;      NG311      CG311       HGA1
   23    22    73	5 ;      NG311      CG311       HGA1
   22    23    25	5 ;      CG311      NG311     HGPAM1
   22    23    24	5 ;      CG311      NG311      CG321
   25    23    24	5 ;     HGPAM1      NG311      CG321
   23    24    26	5 ;      NG311      CG321      CG2D1
   23    24    57	5 ;      NG311      CG321       HGA2
   23    24    74	5 ;      NG311      CG321       HGA2
   26    24    57	5 ;      CG2D1      CG321       HGA2
   26    24    74	5 ;      CG2D1      CG321       HGA2
   57    24    74	5 ;       HGA2      CG321       HGA2
   27    26    24	5 ;     CG2D1O      CG2D1      CG321
   27    26    58	5 ;     CG2D1O      CG2D1       HGA4
   24    26    58	5 ;      CG321      CG2D1       HGA4
   28    27    26	5 ;      NG311     CG2D1O      CG2D1
   28    27    59	5 ;      NG311     CG2D1O       HGA4
   26    27    59	5 ;      CG2D1     CG2D1O       HGA4
   29    28    22	5 ;     HGPAM1      NG311      CG311
   29    28    27	5 ;     HGPAM1      NG311     CG2D1O
   22    28    27	5 ;      CG311      NG311     CG2D1O
   31    30     8	5 ;     CG2R61      CG324      NG3P1
   31    30    60	5 ;     CG2R61      CG324       HGA2
   31    30    61	5 ;     CG2R61      CG324       HGA2
    8    30    60	5 ;      NG3P1      CG324       HGA2
    8    30    61	5 ;      NG3P1      CG324       HGA2
   60    30    61	5 ;       HGA2      CG324       HGA2
   36    31    30	5 ;     CG2R61     CG2R61      CG324
   36    31    32	5 ;     CG2R61     CG2R61     CG2R61
   30    31    32	5 ;      CG324     CG2R61     CG2R61
   31    32    33	5 ;     CG2R61     CG2R61     CG2R61
   31    32    62	5 ;     CG2R61     CG2R61      HGR61
   33    32    62	5 ;     CG2R61     CG2R61      HGR61
   34    33    32	5 ;     CG2R61     CG2R61     CG2R61
   34    33    37	5 ;     CG2R61     CG2R61      OG301
   32    33    37	5 ;     CG2R61     CG2R61      OG301
   35    34    33	5 ;     CG2R61     CG2R61     CG2R61
   35    34    63	5 ;     CG2R61     CG2R61      HGR61
   33    34    63	5 ;     CG2R61     CG2R61      HGR61
   36    35    34	5 ;     CG2R61     CG2R61     CG2R61
   36    35    64	5 ;     CG2R61     CG2R61      HGR61
   34    35    64	5 ;     CG2R61     CG2R61      HGR61
   35    36    31	5 ;     CG2R61     CG2R61     CG2R61
   35    36    65	5 ;     CG2R61     CG2R61      HGR61
   31    36    65	5 ;     CG2R61     CG2R61      HGR61
   38    37    33	5 ;      CG311      OG301     CG2R61
   39    38    40	5 ;      CG331      CG311      CG331
   39    38    37	5 ;      CG331      CG311      OG301
   39    38    66	5 ;      CG331      CG311       HGA1
   40    38    37	5 ;      CG331      CG311      OG301
   40    38    66	5 ;      CG331      CG311       HGA1
   37    38    66	5 ;      OG301      CG311       HGA1
   38    39    67	5 ;      CG311      CG331       HGA3
   38    39    68	5 ;      CG311      CG331       HGA3
   38    39    69	5 ;      CG311      CG331       HGA3
   67    39    68	5 ;       HGA3      CG331       HGA3
   67    39    69	5 ;       HGA3      CG331       HGA3
   68    39    69	5 ;       HGA3      CG331       HGA3
   38    40    70	5 ;      CG311      CG331       HGA3
   38    40    71	5 ;      CG311      CG331       HGA3
   38    40    72	5 ;      CG311      CG331       HGA3
   70    40    71	5 ;       HGA3      CG331       HGA3
   70    40    72	5 ;       HGA3      CG331       HGA3
   71    40    72	5 ;       HGA3      CG331       HGA3

[ dihedrals ]
;	ai	  aj	ak	  al funct			  c0			c1			  c2			c3			  c4			c5
    2     1     4    15	 9 ;      OG2P1      SG3O2     NG3C51     CG2R61
    2     1     4     5	 9 ;      OG2P1      SG3O2     NG3C51     CG3C50
    3     1     4    15	 9 ;      OG2P1      SG3O2     NG3C51     CG2R61
    3     1     4     5	 9 ;      OG2P1      SG3O2     NG3C51     CG3C50
   13     1     4    15	 9 ;     NG3C51      SG3O2     NG3C51     CG2R61
   13     1     4     5	 9 ;     NG3C51      SG3O2     NG3C51     CG3C50
    4     1    13    12	 9 ;     NG3C51      SG3O2     NG3C51     CG3C52
    4     1    13    22	 9 ;     NG3C51      SG3O2     NG3C51      CG311
    2     1    13    12	 9 ;      OG2P1      SG3O2     NG3C51     CG3C52
    2     1    13    22	 9 ;      OG2P1      SG3O2     NG3C51      CG311
    3     1    13    12	 9 ;      OG2P1      SG3O2     NG3C51     CG3C52
    3     1    13    22	 9 ;      OG2P1      SG3O2     NG3C51      CG311
    5     4    15    16	 9 ;     CG3C50     NG3C51     CG2R61     CG2R61
    5     4    15    21	 9 ;     CG3C50     NG3C51     CG2R61     CG2R61
    1     4    15    16	 9 ;      SG3O2     NG3C51     CG2R61     CG2R61
    1     4    15    21	 9 ;      SG3O2     NG3C51     CG2R61     CG2R61
   15     4     5    10	 9 ;     CG2R61     NG3C51     CG3C50      CG321
   15     4     5     6	 9 ;     CG2R61     NG3C51     CG3C50      CG321
   15     4     5    12	 9 ;     CG2R61     NG3C51     CG3C50     CG3C52
    1     4     5    10	 9 ;      SG3O2     NG3C51     CG3C50      CG321
    1     4     5     6	 9 ;      SG3O2     NG3C51     CG3C50      CG321
    1     4     5    12	 9 ;      SG3O2     NG3C51     CG3C50     CG3C52
    4     5    10     9	 9 ;     NG3C51     CG3C50      CG321      CG324
    4     5    10    46	 9 ;     NG3C51     CG3C50      CG321       HGA2
    4     5    10    47	 9 ;     NG3C51     CG3C50      CG321       HGA2
    6     5    10     9	 9 ;      CG321     CG3C50      CG321      CG324
    6     5    10    46	 9 ;      CG321     CG3C50      CG321       HGA2
    6     5    10    47	 9 ;      CG321     CG3C50      CG321       HGA2
   12     5    10     9	 9 ;     CG3C52     CG3C50      CG321      CG324
   12     5    10    46	 9 ;     CG3C52     CG3C50      CG321       HGA2
   12     5    10    47	 9 ;     CG3C52     CG3C50      CG321       HGA2
   10     5     6     7	 9 ;      CG321     CG3C50      CG321      CG314
   10     5     6    41	 9 ;      CG321     CG3C50      CG321       HGA2
   10     5     6    42	 9 ;      CG321     CG3C50      CG321       HGA2
    4     5     6     7	 9 ;     NG3C51     CG3C50      CG321      CG314
    4     5     6    41	 9 ;     NG3C51     CG3C50      CG321       HGA2
    4     5     6    42	 9 ;     NG3C51     CG3C50      CG321       HGA2
   12     5     6     7	 9 ;     CG3C52     CG3C50      CG321      CG314
   12     5     6    41	 9 ;     CG3C52     CG3C50      CG321       HGA2
   12     5     6    42	 9 ;     CG3C52     CG3C50      CG321       HGA2
   10     5    12    13	 9 ;      CG321     CG3C50     CG3C52     NG3C51
   10     5    12    51	 9 ;      CG321     CG3C50     CG3C52       HGA2
   10     5    12    52	 9 ;      CG321     CG3C50     CG3C52       HGA2
    4     5    12    13	 9 ;     NG3C51     CG3C50     CG3C52     NG3C51
    4     5    12    51	 9 ;     NG3C51     CG3C50     CG3C52       HGA2
    4     5    12    52	 9 ;     NG3C51     CG3C50     CG3C52       HGA2
    6     5    12    13	 9 ;      CG321     CG3C50     CG3C52     NG3C51
    6     5    12    51	 9 ;      CG321     CG3C50     CG3C52       HGA2
    6     5    12    52	 9 ;      CG321     CG3C50     CG3C52       HGA2
    5     6     7    11	 9 ;     CG3C50      CG321      CG314      CG331
    5     6     7     8	 9 ;     CG3C50      CG321      CG314      NG3P1
    5     6     7    43	 9 ;     CG3C50      CG321      CG314       HGA1
   41     6     7    11	 9 ;       HGA2      CG321      CG314      CG331
   41     6     7     8	 9 ;       HGA2      CG321      CG314      NG3P1
   41     6     7    43	 9 ;       HGA2      CG321      CG314       HGA1
   42     6     7    11	 9 ;       HGA2      CG321      CG314      CG331
   42     6     7     8	 9 ;       HGA2      CG321      CG314      NG3P1
   42     6     7    43	 9 ;       HGA2      CG321      CG314       HGA1
    8     7    11    48	 9 ;      NG3P1      CG314      CG331       HGA3
    8     7    11    49	 9 ;      NG3P1      CG314      CG331       HGA3
    8     7    11    50	 9 ;      NG3P1      CG314      CG331       HGA3
    6     7    11    48	 9 ;      CG321      CG314      CG331       HGA3
    6     7    11    49	 9 ;      CG321      CG314      CG331       HGA3
    6     7    11    50	 9 ;      CG321      CG314      CG331       HGA3
   43     7    11    48	 9 ;       HGA1      CG314      CG331       HGA3
   43     7    11    49	 9 ;       HGA1      CG314      CG331       HGA3
   43     7    11    50	 9 ;       HGA1      CG314      CG331       HGA3
   11     7     8    30	 9 ;      CG331      CG314      NG3P1      CG324
   11     7     8     9	 9 ;      CG331      CG314      NG3P1      CG324
   11     7     8    14	 9 ;      CG331      CG314      NG3P1       HGP2
    6     7     8    30	 9 ;      CG321      CG314      NG3P1      CG324
    6     7     8     9	 9 ;      CG321      CG314      NG3P1      CG324
    6     7     8    14	 9 ;      CG321      CG314      NG3P1       HGP2
   43     7     8    30	 9 ;       HGA1      CG314      NG3P1      CG324
   43     7     8     9	 9 ;       HGA1      CG314      NG3P1      CG324
   43     7     8    14	 9 ;       HGA1      CG314      NG3P1       HGP2
    9     8    30    31	 9 ;      CG324      NG3P1      CG324     CG2R61
    9     8    30    60	 9 ;      CG324      NG3P1      CG324       HGA2
    9     8    30    61	 9 ;      CG324      NG3P1      CG324       HGA2
   14     8    30    31	 9 ;       HGP2      NG3P1      CG324     CG2R61
   14     8    30    60	 9 ;       HGP2      NG3P1      CG324       HGA2
   14     8    30    61	 9 ;       HGP2      NG3P1      CG324       HGA2
    7     8    30    31	 9 ;      CG314      NG3P1      CG324     CG2R61
    7     8    30    60	 9 ;      CG314      NG3P1      CG324       HGA2
    7     8    30    61	 9 ;      CG314      NG3P1      CG324       HGA2
   30     8     9    10	 9 ;      CG324      NG3P1      CG324      CG321
   30     8     9    44	 9 ;      CG324      NG3P1      CG324       HGA2
   30     8     9    45	 9 ;      CG324      NG3P1      CG324       HGA2
   14     8     9    10	 9 ;       HGP2      NG3P1      CG324      CG321
   14     8     9    44	 9 ;       HGP2      NG3P1      CG324       HGA2
   14     8     9    45	 9 ;       HGP2      NG3P1      CG324       HGA2
    7     8     9    10	 9 ;      CG314      NG3P1      CG324      CG321
    7     8     9    44	 9 ;      CG314      NG3P1      CG324       HGA2
    7     8     9    45	 9 ;      CG314      NG3P1      CG324       HGA2
    8     9    10     5	 9 ;      NG3P1      CG324      CG321     CG3C50
    8     9    10    46	 9 ;      NG3P1      CG324      CG321       HGA2
    8     9    10    47	 9 ;      NG3P1      CG324      CG321       HGA2
   44     9    10     5	 9 ;       HGA2      CG324      CG321     CG3C50
   44     9    10    46	 9 ;       HGA2      CG324      CG321       HGA2
   44     9    10    47	 9 ;       HGA2      CG324      CG321       HGA2
   45     9    10     5	 9 ;       HGA2      CG324      CG321     CG3C50
   45     9    10    46	 9 ;       HGA2      CG324      CG321       HGA2
   45     9    10    47	 9 ;       HGA2      CG324      CG321       HGA2
    5    12    13     1	 9 ;     CG3C50     CG3C52     NG3C51      SG3O2
    5    12    13    22	 9 ;     CG3C50     CG3C52     NG3C51      CG311
   51    12    13     1	 9 ;       HGA2     CG3C52     NG3C51      SG3O2
   51    12    13    22	 9 ;       HGA2     CG3C52     NG3C51      CG311
   52    12    13     1	 9 ;       HGA2     CG3C52     NG3C51      SG3O2
   52    12    13    22	 9 ;       HGA2     CG3C52     NG3C51      CG311
    1    13    22    28	 9 ;      SG3O2     NG3C51      CG311      NG311
    1    13    22    23	 9 ;      SG3O2     NG3C51      CG311      NG311
    1    13    22    73	 9 ;      SG3O2     NG3C51      CG311       HGA1
   12    13    22    28	 9 ;     CG3C52     NG3C51      CG311      NG311
   12    13    22    23	 9 ;     CG3C52     NG3C51      CG311      NG311
   12    13    22    73	 9 ;     CG3C52     NG3C51      CG311       HGA1
   21    15    16    17	 9 ;     CG2R61     CG2R61     CG2R61     CG2R66
   21    15    16    53	 9 ;     CG2R61     CG2R61     CG2R61      HGR62
    4    15    16    17	 9 ;     NG3C51     CG2R61     CG2R61     CG2R66
    4    15    16    53	 9 ;     NG3C51     CG2R61     CG2R61      HGR62
   16    15    21    20	 9 ;     CG2R61     CG2R61     CG2R61     CG2R61
   16    15    21    56	 9 ;     CG2R61     CG2R61     CG2R61      HGR61
    4    15    21    20	 9 ;     NG3C51     CG2R61     CG2R61     CG2R61
    4    15    21    56	 9 ;     NG3C51     CG2R61     CG2R61      HGR61
   15    16    17    18	 9 ;     CG2R61     CG2R61     CG2R66       FGR1
   15    16    17    19	 9 ;     CG2R61     CG2R61     CG2R66     CG2R61
   53    16    17    18	 9 ;      HGR62     CG2R61     CG2R66       FGR1
   53    16    17    19	 9 ;      HGR62     CG2R61     CG2R66     CG2R61
   18    17    19    20	 9 ;       FGR1     CG2R66     CG2R61     CG2R61
   18    17    19    54	 9 ;       FGR1     CG2R66     CG2R61      HGR62
   16    17    19    20	 9 ;     CG2R61     CG2R66     CG2R61     CG2R61
   16    17    19    54	 9 ;     CG2R61     CG2R66     CG2R61      HGR62
   17    19    20    21	 9 ;     CG2R66     CG2R61     CG2R61     CG2R61
   17    19    20    55	 9 ;     CG2R66     CG2R61     CG2R61      HGR61
   54    19    20    21	 9 ;      HGR62     CG2R61     CG2R61     CG2R61
   54    19    20    55	 9 ;      HGR62     CG2R61     CG2R61      HGR61
   19    20    21    15	 9 ;     CG2R61     CG2R61     CG2R61     CG2R61
   19    20    21    56	 9 ;     CG2R61     CG2R61     CG2R61      HGR61
   55    20    21    15	 9 ;      HGR61     CG2R61     CG2R61     CG2R61
   55    20    21    56	 9 ;      HGR61     CG2R61     CG2R61      HGR61
   13    22    28    29	 9 ;     NG3C51      CG311      NG311     HGPAM1
   13    22    28    27	 9 ;     NG3C51      CG311      NG311     CG2D1O
   23    22    28    29	 9 ;      NG311      CG311      NG311     HGPAM1
   23    22    28    27	 9 ;      NG311      CG311      NG311     CG2D1O
   73    22    28    29	 9 ;       HGA1      CG311      NG311     HGPAM1
   73    22    28    27	 9 ;       HGA1      CG311      NG311     CG2D1O
   13    22    23    25	 9 ;     NG3C51      CG311      NG311     HGPAM1
   13    22    23    24	 9 ;     NG3C51      CG311      NG311      CG321
   28    22    23    25	 9 ;      NG311      CG311      NG311     HGPAM1
   28    22    23    24	 9 ;      NG311      CG311      NG311      CG321
   73    22    23    25	 9 ;       HGA1      CG311      NG311     HGPAM1
   73    22    23    24	 9 ;       HGA1      CG311      NG311      CG321
   22    23    24    26	 9 ;      CG311      NG311      CG321      CG2D1
   22    23    24    57	 9 ;      CG311      NG311      CG321       HGA2
   22    23    24    74	 9 ;      CG311      NG311      CG321       HGA2
   25    23    24    26	 9 ;     HGPAM1      NG311      CG321      CG2D1
   25    23    24    57	 9 ;     HGPAM1      NG311      CG321       HGA2
   25    23    24    74	 9 ;     HGPAM1      NG311      CG321       HGA2
   23    24    26    27	 9 ;      NG311      CG321      CG2D1     CG2D1O
   23    24    26    58	 9 ;      NG311      CG321      CG2D1       HGA4
   57    24    26    27	 9 ;       HGA2      CG321      CG2D1     CG2D1O
   57    24    26    58	 9 ;       HGA2      CG321      CG2D1       HGA4
   74    24    26    27	 9 ;       HGA2      CG321      CG2D1     CG2D1O
   74    24    26    58	 9 ;       HGA2      CG321      CG2D1       HGA4
   24    26    27    28	 9 ;      CG321      CG2D1     CG2D1O      NG311
   24    26    27    59	 9 ;      CG321      CG2D1     CG2D1O       HGA4
   58    26    27    28	 9 ;       HGA4      CG2D1     CG2D1O      NG311
   58    26    27    59	 9 ;       HGA4      CG2D1     CG2D1O       HGA4
   26    27    28    29	 9 ;      CG2D1     CG2D1O      NG311     HGPAM1
   26    27    28    22	 9 ;      CG2D1     CG2D1O      NG311      CG311
   59    27    28    29	 9 ;       HGA4     CG2D1O      NG311     HGPAM1
   59    27    28    22	 9 ;       HGA4     CG2D1O      NG311      CG311
    8    30    31    36	 9 ;      NG3P1      CG324     CG2R61     CG2R61
    8    30    31    32	 9 ;      NG3P1      CG324     CG2R61     CG2R61
   60    30    31    36	 9 ;       HGA2      CG324     CG2R61     CG2R61
   60    30    31    32	 9 ;       HGA2      CG324     CG2R61     CG2R61
   61    30    31    36	 9 ;       HGA2      CG324     CG2R61     CG2R61
   61    30    31    32	 9 ;       HGA2      CG324     CG2R61     CG2R61
   30    31    36    35	 9 ;      CG324     CG2R61     CG2R61     CG2R61
   30    31    36    65	 9 ;      CG324     CG2R61     CG2R61      HGR61
   32    31    36    35	 9 ;     CG2R61     CG2R61     CG2R61     CG2R61
   32    31    36    65	 9 ;     CG2R61     CG2R61     CG2R61      HGR61
   36    31    32    33	 9 ;     CG2R61     CG2R61     CG2R61     CG2R61
   36    31    32    62	 9 ;     CG2R61     CG2R61     CG2R61      HGR61
   30    31    32    33	 9 ;      CG324     CG2R61     CG2R61     CG2R61
   30    31    32    62	 9 ;      CG324     CG2R61     CG2R61      HGR61
   31    32    33    34	 9 ;     CG2R61     CG2R61     CG2R61     CG2R61
   31    32    33    37	 9 ;     CG2R61     CG2R61     CG2R61      OG301
   62    32    33    34	 9 ;      HGR61     CG2R61     CG2R61     CG2R61
   62    32    33    37	 9 ;      HGR61     CG2R61     CG2R61      OG301
   32    33    34    35	 9 ;     CG2R61     CG2R61     CG2R61     CG2R61
   32    33    34    63	 9 ;     CG2R61     CG2R61     CG2R61      HGR61
   37    33    34    35	 9 ;      OG301     CG2R61     CG2R61     CG2R61
   37    33    34    63	 9 ;      OG301     CG2R61     CG2R61      HGR61
   34    33    37    38	 9 ;     CG2R61     CG2R61      OG301      CG311
   32    33    37    38	 9 ;     CG2R61     CG2R61      OG301      CG311
   33    34    35    36	 9 ;     CG2R61     CG2R61     CG2R61     CG2R61
   33    34    35    64	 9 ;     CG2R61     CG2R61     CG2R61      HGR61
   63    34    35    36	 9 ;      HGR61     CG2R61     CG2R61     CG2R61
   63    34    35    64	 9 ;      HGR61     CG2R61     CG2R61      HGR61
   34    35    36    31	 9 ;     CG2R61     CG2R61     CG2R61     CG2R61
   34    35    36    65	 9 ;     CG2R61     CG2R61     CG2R61      HGR61
   64    35    36    31	 9 ;      HGR61     CG2R61     CG2R61     CG2R61
   64    35    36    65	 9 ;      HGR61     CG2R61     CG2R61      HGR61
   33    37    38    39	 9 ;     CG2R61      OG301      CG311      CG331
   33    37    38    40	 9 ;     CG2R61      OG301      CG311      CG331
   33    37    38    66	 9 ;     CG2R61      OG301      CG311       HGA1
   40    38    39    67	 9 ;      CG331      CG311      CG331       HGA3
   40    38    39    68	 9 ;      CG331      CG311      CG331       HGA3
   40    38    39    69	 9 ;      CG331      CG311      CG331       HGA3
   37    38    39    67	 9 ;      OG301      CG311      CG331       HGA3
   37    38    39    68	 9 ;      OG301      CG311      CG331       HGA3
   37    38    39    69	 9 ;      OG301      CG311      CG331       HGA3
   66    38    39    67	 9 ;       HGA1      CG311      CG331       HGA3
   66    38    39    68	 9 ;       HGA1      CG311      CG331       HGA3
   66    38    39    69	 9 ;       HGA1      CG311      CG331       HGA3
   39    38    40    70	 9 ;      CG331      CG311      CG331       HGA3
   39    38    40    71	 9 ;      CG331      CG311      CG331       HGA3
   39    38    40    72	 9 ;      CG331      CG311      CG331       HGA3
   37    38    40    70	 9 ;      OG301      CG311      CG331       HGA3
   37    38    40    71	 9 ;      OG301      CG311      CG331       HGA3
   37    38    40    72	 9 ;      OG301      CG311      CG331       HGA3
   66    38    40    70	 9 ;       HGA1      CG311      CG331       HGA3
   66    38    40    71	 9 ;       HGA1      CG311      CG331       HGA3
   66    38    40    72	 9 ;       HGA1      CG311      CG331       HGA3

[ dihedrals ]
;	ai	  aj	ak	  al funct			  c0			c1			  c2			c3
   27    26    28    59	 2

