GRoups of Organic Molecules in ACtion for Science
   45
    1LIG     C1    1  -1.614   0.343  -1.585
    1LIG     C2    2  -1.677   0.408  -1.477
    1LIG     C3    3  -1.816   0.428  -1.474
    1LIG     C4    4  -1.895   0.380  -1.578
    1LIG     C5    5  -1.835   0.314  -1.686
    1LIG     C6    6  -1.696   0.296  -1.689
    1LIG     C7    7  -1.874   0.503  -1.367
    1LIG     C8    8  -1.919   0.572  -1.279
    1LIG     C9    9  -1.461   0.342  -1.592
    1LIG     N1   10  -1.414   0.264  -1.714
    1LIG    C10   11  -1.324   0.337  -1.771
    1LIG     HN   12  -1.448   0.173  -1.745
    1LIG     N2   13  -1.302   0.458  -1.717
    1LIG    C11   14  -1.194   0.549  -1.748
    1LIG    C12   15  -1.393   0.479  -1.618
    1LIG     O1   16  -1.410   0.584  -1.558
    1LIG     N3   17  -1.258   0.295  -1.881
    1LIG     H1   18  -1.163   0.330  -1.884
    1LIG     H2   19  -1.263   0.196  -1.901
    1LIG    C13   20  -1.402   0.278  -1.464
    1LIG    C14   21  -1.362   0.357  -1.355
    1LIG    C15   22  -1.304   0.299  -1.241
    1LIG    C16   23  -1.289   0.161  -1.232
    1LIG    C17   24  -1.331   0.081  -1.339
    1LIG    C18   25  -1.388   0.139  -1.453
    1LIG     O2   26  -1.236   0.094  -1.127
    1LIG    C19   27  -1.192  -0.038  -1.155
    1LIG     F1   28  -1.056  -0.038  -1.147
    1LIG     F2   29  -1.236  -0.121  -1.057
    1LIG     HC   30  -1.617   0.443  -1.394
    1LIG    HC1   31  -2.002   0.395  -1.577
    1LIG    HC2   32  -1.896   0.276  -1.766
    1LIG    HC3   33  -1.651   0.245  -1.773
    1LIG    HC4   34  -1.959   0.632  -1.202
    1LIG    HN2   35  -1.486   0.309  -1.770
    1LIG    HC5   36  -1.248   0.294  -1.707
    1LIG    HN1   37  -1.305   0.339  -1.958
    1LIG    HC6   38  -1.375   0.464  -1.359
    1LIG    HC7   39  -1.270   0.362  -1.161
    1LIG    HC8   40  -1.319  -0.026  -1.334
    1LIG    HC9   41  -1.421   0.075  -1.534
    1LIG   HC10   42  -1.225  -0.071  -1.253
    1LIG   HC11   43  -1.203   0.639  -1.687
    1LIG   HC12   44  -1.098   0.500  -1.727
    1LIG   HC13   45  -1.198   0.576  -1.854
   0.00000   0.00000   0.00000
