; Created by cgenff_charmm2gmx.py

[ moleculetype ]
; Name			   nrexcl
LIG				 3

[ atoms ]
;	 nr		  type	resnr residue  atom   cgnr	   charge		mass  typeB    chargeB		massB
; residue	 1 LIG rtp LIG q	qsum
     1     CG2R61      1    LIG     C1      1     -0.152     12.011   ;
     2     CG2R61      1    LIG     C2      2     -0.133     12.011   ;
     3     CG2R61      1    LIG     C3      3      0.136     12.011   ;
     4     CG2R61      1    LIG     C4      4     -0.118     12.011   ;
     5     CG2R61      1    LIG     C5      5     -0.103     12.011   ;
     6     CG2R61      1    LIG     C6      6     -0.131     12.011   ;
     7      CG1T1      1    LIG     C7      7     -0.006     12.011   ;
     8      CG1T2      1    LIG     C8      8     -0.410     12.011   ;
     9     CG3C50      1    LIG     C9      9      1.599     12.011   ;
    10      NG3P2      1    LIG     N1     10     -0.701     14.007   ;
    11     CG3C53      1    LIG    C10     11      0.784     12.011   ;
    12       HGP2      1    LIG     HN     12      0.353      1.008   ;
    13     NG2R53      1    LIG     N2     13     -0.171     14.007   ;
    14      CG331      1    LIG    C11     14     -0.169     12.011   ;
    15     CG2R53      1    LIG    C12     15     -0.361     12.011   ;
    16      OG2D1      1    LIG     O1     16     -0.342     15.999   ;
    17      NG3P3      1    LIG     N3     17     -0.267     14.007   ;
    18       HGP2      1    LIG     H1     18      0.301      1.008   ;
    19       HGP2      1    LIG     H2     19      0.301      1.008   ;
    20     CG2R61      1    LIG    C13     20     -0.154     12.011   ;
    21     CG2R61      1    LIG    C14     21     -0.128     12.011   ;
    22     CG2R61      1    LIG    C15     22     -0.108     12.011   ;
    23     CG2R61      1    LIG    C16     23      0.217     12.011   ;
    24     CG2R61      1    LIG    C17     24     -0.108     12.011   ;
    25     CG2R61      1    LIG    C18     25     -0.128     12.011   ;
    26      OG301      1    LIG     O2     26     -0.272     15.999   ;
    27      CG312      1    LIG    C19     27      0.216     12.011   ;
    28       FGA2      1    LIG     F1     28     -0.160     18.998   ;
    29       FGA2      1    LIG     F2     29     -0.160     18.998   ;
    30      HGR61      1    LIG     HC     30      0.116      1.008   ;
    31      HGR61      1    LIG    HC1     31      0.116      1.008   ;
    32      HGR61      1    LIG    HC2     32      0.116      1.008   ;
    33      HGR61      1    LIG    HC3     33      0.116      1.008   ;
    34     HGPAM1      1    LIG    HC4     34      0.291      1.008   ;
    35       HGP2      1    LIG    HN2     35      0.353      1.008   ;
    36       HGA1      1    LIG    HC5     36      0.073      1.008   ;
    37       HGP2      1    LIG    HN1     37      0.301      1.008   ;
    38      HGR61      1    LIG    HC6     38      0.116      1.008   ;
    39      HGR61      1    LIG    HC7     39      0.116      1.008   ;
    40      HGR61      1    LIG    HC8     40      0.116      1.008   ;
    41      HGR61      1    LIG    HC9     41      0.116      1.008   ;
    42       HGA7      1    LIG   HC10     42      0.159      1.008   ;
    43       HGA3      1    LIG   HC11     43      0.090      1.008   ;
    44       HGA3      1    LIG   HC12     44      0.090      1.008   ;
    45       HGA3      1    LIG   HC13     45      0.090      1.008   ;

[ bonds ]
;	ai	  aj funct			  c0			c1			  c2			c3
    1     9	 1 ;      CG2R61     CG3C50
    1     6	 1 ;      CG2R61     CG2R61
    1     2	 1 ;      CG2R61     CG2R61
    2     3	 1 ;      CG2R61     CG2R61
    2    30	 1 ;      CG2R61      HGR61
    3     4	 1 ;      CG2R61     CG2R61
    3     7	 1 ;      CG2R61      CG1T1
    4     5	 1 ;      CG2R61     CG2R61
    4    31	 1 ;      CG2R61      HGR61
    5     6	 1 ;      CG2R61     CG2R61
    5    32	 1 ;      CG2R61      HGR61
    6    33	 1 ;      CG2R61      HGR61
    7     8	 1 ;       CG1T1      CG1T2
    8    34	 1 ;       CG1T2     HGPAM1
    9    10	 1 ;      CG3C50      NG3P2
    9    15	 1 ;      CG3C50     CG2R53
    9    20	 1 ;      CG3C50     CG2R61
   10    11	 1 ;       NG3P2     CG3C53
   10    12	 1 ;       NG3P2       HGP2
   10    35	 1 ;       NG3P2       HGP2
   11    17	 1 ;      CG3C53      NG3P3
   11    13	 1 ;      CG3C53     NG2R53
   11    36	 1 ;      CG3C53       HGA1
   13    14	 1 ;      NG2R53      CG331
   13    15	 1 ;      NG2R53     CG2R53
   14    43	 1 ;       CG331       HGA3
   14    44	 1 ;       CG331       HGA3
   14    45	 1 ;       CG331       HGA3
   15    16	 1 ;      CG2R53      OG2D1
   17    18	 1 ;       NG3P3       HGP2
   17    19	 1 ;       NG3P3       HGP2
   17    37	 1 ;       NG3P3       HGP2
   20    25	 1 ;      CG2R61     CG2R61
   20    21	 1 ;      CG2R61     CG2R61
   21    22	 1 ;      CG2R61     CG2R61
   21    38	 1 ;      CG2R61      HGR61
   22    23	 1 ;      CG2R61     CG2R61
   22    39	 1 ;      CG2R61      HGR61
   23    24	 1 ;      CG2R61     CG2R61
   23    26	 1 ;      CG2R61      OG301
   24    25	 1 ;      CG2R61     CG2R61
   24    40	 1 ;      CG2R61      HGR61
   25    41	 1 ;      CG2R61      HGR61
   26    27	 1 ;       OG301      CG312
   27    28	 1 ;       CG312       FGA2
   27    29	 1 ;       CG312       FGA2
   27    42	 1 ;       CG312       HGA7

[ pairs ]
;	ai	  aj funct			  c0			c1			  c2			c3
    1     4	 1
    1     7	 1
    1    32	 1
    1    11	 1
    1    12	 1
    1    35	 1
    1    13	 1
    1    16	 1
    1    25	 1
    1    21	 1
    2    10	 1
    2    15	 1
    2    20	 1
    2     5	 1
    2    33	 1
    2    31	 1
    2     8	 1
    3     9	 1
    3     6	 1
    3    32	 1
    3    34	 1
    4    30	 1
    4     8	 1
    4    33	 1
    5     9	 1
    5     7	 1
    6    10	 1
    6    15	 1
    6    20	 1
    6    30	 1
    6    31	 1
    7    30	 1
    7    31	 1
    9    33	 1
    9    30	 1
    9    17	 1
    9    36	 1
    9    14	 1
    9    24	 1
    9    41	 1
    9    22	 1
    9    38	 1
   10    16	 1
   10    25	 1
   10    21	 1
   10    18	 1
   10    19	 1
   10    37	 1
   10    14	 1
   11    20	 1
   11    43	 1
   11    44	 1
   11    45	 1
   11    16	 1
   12    15	 1
   12    20	 1
   12    17	 1
   12    13	 1
   12    36	 1
   13    20	 1
   13    35	 1
   13    18	 1
   13    19	 1
   13    37	 1
   14    17	 1
   14    36	 1
   14    16	 1
   15    35	 1
   15    25	 1
   15    21	 1
   15    17	 1
   15    36	 1
   15    43	 1
   15    44	 1
   15    45	 1
   16    20	 1
   17    35	 1
   18    36	 1
   19    36	 1
   20    35	 1
   20    23	 1
   20    39	 1
   20    40	 1
   21    24	 1
   21    41	 1
   21    26	 1
   22    25	 1
   22    40	 1
   22    27	 1
   23    38	 1
   23    41	 1
   23    28	 1
   23    29	 1
   23    42	 1
   24    39	 1
   24    27	 1
   25    38	 1
   25    26	 1
   26    39	 1
   26    40	 1
   31    32	 1
   32    33	 1
   35    36	 1
   36    37	 1
   38    39	 1
   40    41	 1

[ angles ]
;	ai	  aj	ak funct			c0			  c1			c2			  c3
    9     1     6	5 ;     CG3C50     CG2R61     CG2R61
    9     1     2	5 ;     CG3C50     CG2R61     CG2R61
    6     1     2	5 ;     CG2R61     CG2R61     CG2R61
    1     2     3	5 ;     CG2R61     CG2R61     CG2R61
    1     2    30	5 ;     CG2R61     CG2R61      HGR61
    3     2    30	5 ;     CG2R61     CG2R61      HGR61
    2     3     4	5 ;     CG2R61     CG2R61     CG2R61
    2     3     7	5 ;     CG2R61     CG2R61      CG1T1
    4     3     7	5 ;     CG2R61     CG2R61      CG1T1
    5     4     3	5 ;     CG2R61     CG2R61     CG2R61
    5     4    31	5 ;     CG2R61     CG2R61      HGR61
    3     4    31	5 ;     CG2R61     CG2R61      HGR61
    6     5     4	5 ;     CG2R61     CG2R61     CG2R61
    6     5    32	5 ;     CG2R61     CG2R61      HGR61
    4     5    32	5 ;     CG2R61     CG2R61      HGR61
    1     6     5	5 ;     CG2R61     CG2R61     CG2R61
    1     6    33	5 ;     CG2R61     CG2R61      HGR61
    5     6    33	5 ;     CG2R61     CG2R61      HGR61
    3     7     8	5 ;     CG2R61      CG1T1      CG1T2
    7     8    34	5 ;      CG1T1      CG1T2     HGPAM1
   10     9    15	5 ;      NG3P2     CG3C50     CG2R53
   10     9    20	5 ;      NG3P2     CG3C50     CG2R61
   10     9     1	5 ;      NG3P2     CG3C50     CG2R61
   15     9    20	5 ;     CG2R53     CG3C50     CG2R61
   15     9     1	5 ;     CG2R53     CG3C50     CG2R61
   20     9     1	5 ;     CG2R61     CG3C50     CG2R61
   11    10    12	5 ;     CG3C53      NG3P2       HGP2
   11    10     9	5 ;     CG3C53      NG3P2     CG3C50
   11    10    35	5 ;     CG3C53      NG3P2       HGP2
   12    10     9	5 ;       HGP2      NG3P2     CG3C50
   12    10    35	5 ;       HGP2      NG3P2       HGP2
    9    10    35	5 ;     CG3C50      NG3P2       HGP2
   17    11    13	5 ;      NG3P3     CG3C53     NG2R53
   17    11    10	5 ;      NG3P3     CG3C53      NG3P2
   17    11    36	5 ;      NG3P3     CG3C53       HGA1
   13    11    10	5 ;     NG2R53     CG3C53      NG3P2
   13    11    36	5 ;     NG2R53     CG3C53       HGA1
   10    11    36	5 ;      NG3P2     CG3C53       HGA1
   14    13    11	5 ;      CG331     NG2R53     CG3C53
   14    13    15	5 ;      CG331     NG2R53     CG2R53
   11    13    15	5 ;     CG3C53     NG2R53     CG2R53
   13    14    43	5 ;     NG2R53      CG331       HGA3
   13    14    44	5 ;     NG2R53      CG331       HGA3
   13    14    45	5 ;     NG2R53      CG331       HGA3
   43    14    44	5 ;       HGA3      CG331       HGA3
   43    14    45	5 ;       HGA3      CG331       HGA3
   44    14    45	5 ;       HGA3      CG331       HGA3
   13    15     9	5 ;     NG2R53     CG2R53     CG3C50
   13    15    16	5 ;     NG2R53     CG2R53      OG2D1
    9    15    16	5 ;     CG3C50     CG2R53      OG2D1
   18    17    19	5 ;       HGP2      NG3P3       HGP2
   18    17    11	5 ;       HGP2      NG3P3     CG3C53
   18    17    37	5 ;       HGP2      NG3P3       HGP2
   19    17    11	5 ;       HGP2      NG3P3     CG3C53
   19    17    37	5 ;       HGP2      NG3P3       HGP2
   11    17    37	5 ;     CG3C53      NG3P3       HGP2
    9    20    25	5 ;     CG3C50     CG2R61     CG2R61
    9    20    21	5 ;     CG3C50     CG2R61     CG2R61
   25    20    21	5 ;     CG2R61     CG2R61     CG2R61
   20    21    22	5 ;     CG2R61     CG2R61     CG2R61
   20    21    38	5 ;     CG2R61     CG2R61      HGR61
   22    21    38	5 ;     CG2R61     CG2R61      HGR61
   23    22    21	5 ;     CG2R61     CG2R61     CG2R61
   23    22    39	5 ;     CG2R61     CG2R61      HGR61
   21    22    39	5 ;     CG2R61     CG2R61      HGR61
   24    23    26	5 ;     CG2R61     CG2R61      OG301
   24    23    22	5 ;     CG2R61     CG2R61     CG2R61
   26    23    22	5 ;      OG301     CG2R61     CG2R61
   25    24    23	5 ;     CG2R61     CG2R61     CG2R61
   25    24    40	5 ;     CG2R61     CG2R61      HGR61
   23    24    40	5 ;     CG2R61     CG2R61      HGR61
   24    25    20	5 ;     CG2R61     CG2R61     CG2R61
   24    25    41	5 ;     CG2R61     CG2R61      HGR61
   20    25    41	5 ;     CG2R61     CG2R61      HGR61
   27    26    23	5 ;      CG312      OG301     CG2R61
   28    27    26	5 ;       FGA2      CG312      OG301
   28    27    29	5 ;       FGA2      CG312       FGA2
   28    27    42	5 ;       FGA2      CG312       HGA7
   26    27    29	5 ;      OG301      CG312       FGA2
   26    27    42	5 ;      OG301      CG312       HGA7
   29    27    42	5 ;       FGA2      CG312       HGA7

[ dihedrals ]
;	ai	  aj	ak	  al funct			  c0			c1			  c2			c3			  c4			c5
    6     1     9    10	 9 ;     CG2R61     CG2R61     CG3C50      NG3P2
    6     1     9    15	 9 ;     CG2R61     CG2R61     CG3C50     CG2R53
    6     1     9    20	 9 ;     CG2R61     CG2R61     CG3C50     CG2R61
    2     1     9    10	 9 ;     CG2R61     CG2R61     CG3C50      NG3P2
    2     1     9    15	 9 ;     CG2R61     CG2R61     CG3C50     CG2R53
    2     1     9    20	 9 ;     CG2R61     CG2R61     CG3C50     CG2R61
    9     1     6     5	 9 ;     CG3C50     CG2R61     CG2R61     CG2R61
    9     1     6    33	 9 ;     CG3C50     CG2R61     CG2R61      HGR61
    2     1     6     5	 9 ;     CG2R61     CG2R61     CG2R61     CG2R61
    2     1     6    33	 9 ;     CG2R61     CG2R61     CG2R61      HGR61
    9     1     2     3	 9 ;     CG3C50     CG2R61     CG2R61     CG2R61
    9     1     2    30	 9 ;     CG3C50     CG2R61     CG2R61      HGR61
    6     1     2     3	 9 ;     CG2R61     CG2R61     CG2R61     CG2R61
    6     1     2    30	 9 ;     CG2R61     CG2R61     CG2R61      HGR61
    1     2     3     4	 9 ;     CG2R61     CG2R61     CG2R61     CG2R61
    1     2     3     7	 9 ;     CG2R61     CG2R61     CG2R61      CG1T1
   30     2     3     4	 9 ;      HGR61     CG2R61     CG2R61     CG2R61
   30     2     3     7	 9 ;      HGR61     CG2R61     CG2R61      CG1T1
    2     3     4     5	 9 ;     CG2R61     CG2R61     CG2R61     CG2R61
    2     3     4    31	 9 ;     CG2R61     CG2R61     CG2R61      HGR61
    7     3     4     5	 9 ;      CG1T1     CG2R61     CG2R61     CG2R61
    7     3     4    31	 9 ;      CG1T1     CG2R61     CG2R61      HGR61
    3     4     5     6	 9 ;     CG2R61     CG2R61     CG2R61     CG2R61
    3     4     5    32	 9 ;     CG2R61     CG2R61     CG2R61      HGR61
   31     4     5     6	 9 ;      HGR61     CG2R61     CG2R61     CG2R61
   31     4     5    32	 9 ;      HGR61     CG2R61     CG2R61      HGR61
    4     5     6     1	 9 ;     CG2R61     CG2R61     CG2R61     CG2R61
    4     5     6    33	 9 ;     CG2R61     CG2R61     CG2R61      HGR61
   32     5     6     1	 9 ;      HGR61     CG2R61     CG2R61     CG2R61
   32     5     6    33	 9 ;      HGR61     CG2R61     CG2R61      HGR61
   15     9    10    11	 9 ;     CG2R53     CG3C50      NG3P2     CG3C53
   15     9    10    12	 9 ;     CG2R53     CG3C50      NG3P2       HGP2
   15     9    10    35	 9 ;     CG2R53     CG3C50      NG3P2       HGP2
   20     9    10    11	 9 ;     CG2R61     CG3C50      NG3P2     CG3C53
   20     9    10    12	 9 ;     CG2R61     CG3C50      NG3P2       HGP2
   20     9    10    35	 9 ;     CG2R61     CG3C50      NG3P2       HGP2
    1     9    10    11	 9 ;     CG2R61     CG3C50      NG3P2     CG3C53
    1     9    10    12	 9 ;     CG2R61     CG3C50      NG3P2       HGP2
    1     9    10    35	 9 ;     CG2R61     CG3C50      NG3P2       HGP2
   10     9    15    13	 9 ;      NG3P2     CG3C50     CG2R53     NG2R53
   10     9    15    16	 9 ;      NG3P2     CG3C50     CG2R53      OG2D1
   20     9    15    13	 9 ;     CG2R61     CG3C50     CG2R53     NG2R53
   20     9    15    16	 9 ;     CG2R61     CG3C50     CG2R53      OG2D1
    1     9    15    13	 9 ;     CG2R61     CG3C50     CG2R53     NG2R53
    1     9    15    16	 9 ;     CG2R61     CG3C50     CG2R53      OG2D1
   10     9    20    25	 9 ;      NG3P2     CG3C50     CG2R61     CG2R61
   10     9    20    21	 9 ;      NG3P2     CG3C50     CG2R61     CG2R61
   15     9    20    25	 9 ;     CG2R53     CG3C50     CG2R61     CG2R61
   15     9    20    21	 9 ;     CG2R53     CG3C50     CG2R61     CG2R61
    1     9    20    25	 9 ;     CG2R61     CG3C50     CG2R61     CG2R61
    1     9    20    21	 9 ;     CG2R61     CG3C50     CG2R61     CG2R61
   12    10    11    17	 9 ;       HGP2      NG3P2     CG3C53      NG3P3
   12    10    11    13	 9 ;       HGP2      NG3P2     CG3C53     NG2R53
   12    10    11    36	 9 ;       HGP2      NG3P2     CG3C53       HGA1
    9    10    11    17	 9 ;     CG3C50      NG3P2     CG3C53      NG3P3
    9    10    11    13	 9 ;     CG3C50      NG3P2     CG3C53     NG2R53
    9    10    11    36	 9 ;     CG3C50      NG3P2     CG3C53       HGA1
   35    10    11    17	 9 ;       HGP2      NG3P2     CG3C53      NG3P3
   35    10    11    13	 9 ;       HGP2      NG3P2     CG3C53     NG2R53
   35    10    11    36	 9 ;       HGP2      NG3P2     CG3C53       HGA1
   13    11    17    18	 9 ;     NG2R53     CG3C53      NG3P3       HGP2
   13    11    17    19	 9 ;     NG2R53     CG3C53      NG3P3       HGP2
   13    11    17    37	 9 ;     NG2R53     CG3C53      NG3P3       HGP2
   10    11    17    18	 9 ;      NG3P2     CG3C53      NG3P3       HGP2
   10    11    17    19	 9 ;      NG3P2     CG3C53      NG3P3       HGP2
   10    11    17    37	 9 ;      NG3P2     CG3C53      NG3P3       HGP2
   36    11    17    18	 9 ;       HGA1     CG3C53      NG3P3       HGP2
   36    11    17    19	 9 ;       HGA1     CG3C53      NG3P3       HGP2
   36    11    17    37	 9 ;       HGA1     CG3C53      NG3P3       HGP2
   17    11    13    14	 9 ;      NG3P3     CG3C53     NG2R53      CG331
   17    11    13    15	 9 ;      NG3P3     CG3C53     NG2R53     CG2R53
   10    11    13    14	 9 ;      NG3P2     CG3C53     NG2R53      CG331
   10    11    13    15	 9 ;      NG3P2     CG3C53     NG2R53     CG2R53
   36    11    13    14	 9 ;       HGA1     CG3C53     NG2R53      CG331
   36    11    13    15	 9 ;       HGA1     CG3C53     NG2R53     CG2R53
   11    13    14    43	 9 ;     CG3C53     NG2R53      CG331       HGA3
   11    13    14    44	 9 ;     CG3C53     NG2R53      CG331       HGA3
   11    13    14    45	 9 ;     CG3C53     NG2R53      CG331       HGA3
   15    13    14    43	 9 ;     CG2R53     NG2R53      CG331       HGA3
   15    13    14    44	 9 ;     CG2R53     NG2R53      CG331       HGA3
   15    13    14    45	 9 ;     CG2R53     NG2R53      CG331       HGA3
   14    13    15     9	 9 ;      CG331     NG2R53     CG2R53     CG3C50
   14    13    15    16	 9 ;      CG331     NG2R53     CG2R53      OG2D1
   11    13    15     9	 9 ;     CG3C53     NG2R53     CG2R53     CG3C50
   11    13    15    16	 9 ;     CG3C53     NG2R53     CG2R53      OG2D1
    9    20    25    24	 9 ;     CG3C50     CG2R61     CG2R61     CG2R61
    9    20    25    41	 9 ;     CG3C50     CG2R61     CG2R61      HGR61
   21    20    25    24	 9 ;     CG2R61     CG2R61     CG2R61     CG2R61
   21    20    25    41	 9 ;     CG2R61     CG2R61     CG2R61      HGR61
    9    20    21    22	 9 ;     CG3C50     CG2R61     CG2R61     CG2R61
    9    20    21    38	 9 ;     CG3C50     CG2R61     CG2R61      HGR61
   25    20    21    22	 9 ;     CG2R61     CG2R61     CG2R61     CG2R61
   25    20    21    38	 9 ;     CG2R61     CG2R61     CG2R61      HGR61
   20    21    22    23	 9 ;     CG2R61     CG2R61     CG2R61     CG2R61
   20    21    22    39	 9 ;     CG2R61     CG2R61     CG2R61      HGR61
   38    21    22    23	 9 ;      HGR61     CG2R61     CG2R61     CG2R61
   38    21    22    39	 9 ;      HGR61     CG2R61     CG2R61      HGR61
   21    22    23    24	 9 ;     CG2R61     CG2R61     CG2R61     CG2R61
   21    22    23    26	 9 ;     CG2R61     CG2R61     CG2R61      OG301
   39    22    23    24	 9 ;      HGR61     CG2R61     CG2R61     CG2R61
   39    22    23    26	 9 ;      HGR61     CG2R61     CG2R61      OG301
   26    23    24    25	 9 ;      OG301     CG2R61     CG2R61     CG2R61
   26    23    24    40	 9 ;      OG301     CG2R61     CG2R61      HGR61
   22    23    24    25	 9 ;     CG2R61     CG2R61     CG2R61     CG2R61
   22    23    24    40	 9 ;     CG2R61     CG2R61     CG2R61      HGR61
   24    23    26    27	 9 ;     CG2R61     CG2R61      OG301      CG312
   22    23    26    27	 9 ;     CG2R61     CG2R61      OG301      CG312
   23    24    25    20	 9 ;     CG2R61     CG2R61     CG2R61     CG2R61
   23    24    25    41	 9 ;     CG2R61     CG2R61     CG2R61      HGR61
   40    24    25    20	 9 ;      HGR61     CG2R61     CG2R61     CG2R61
   40    24    25    41	 9 ;      HGR61     CG2R61     CG2R61      HGR61
   23    26    27    28	 9 ;     CG2R61      OG301      CG312       FGA2
   23    26    27    29	 9 ;     CG2R61      OG301      CG312       FGA2
   23    26    27    42	 9 ;     CG2R61      OG301      CG312       HGA7

[ dihedrals ]
;	ai	  aj	ak	  al funct			  c0			c1			  c2			c3
   15     9    13    16	 2

