Gallium Rubidium Oxygen Manganese Argon Carbon Silicon
   48
    1LIG     C2    1   2.016   3.855  -1.663
    1LIG     O5    2   1.849   3.737  -1.847
    1LIG     C4    3   1.832   3.931  -1.979
    1LIG     C5    4   1.877   4.062  -2.003
    1LIG     C6    5   1.746   3.869  -2.071
    1LIG     C7    6   1.836   4.128  -2.120
    1LIG     C8    7   1.705   3.936  -2.186
    1LIG     C9    8   1.750   4.066  -2.211
    1LIG    C10    9   1.954   3.931  -1.755
    1LIG    C11   10   1.951   4.081  -1.765
    1LIG    C12   11   1.876   3.856  -1.859
    1LIG    C13   12   1.973   4.128  -1.908
    1LIG     N1   13   2.021   3.928  -1.437
    1LIG     O4   14   2.218   3.923  -1.553
    1LIG     C3   15   2.097   3.904  -1.549
    1LIG     H4   16   1.920   3.935  -1.447
    1LIG    C14   17   2.078   3.995  -1.320
    1LIG    C16   18   2.024   3.934  -1.189
    1LIG    C17   19   2.022   4.038  -1.076
    1LIG    C18   20   1.883   3.876  -1.207
    1LIG     O2   21   1.928   4.183  -1.366
    1LIG    C15   22   2.039   4.143  -1.331
    1LIG     O3   23   2.142   4.224  -1.294
    1LIG    C19   24   2.268   4.189  -1.353
    1LIG     C1   25   1.622   4.245  -2.302
    1LIG     O1   26   1.719   4.142  -2.321
    1LIG     H1   27   2.008   3.752  -1.674
    1LIG     H2   28   1.713   3.773  -2.053
    1LIG     H3   29   1.870   4.223  -2.139
    1LIG     H5   30   1.641   3.890  -2.253
    1LIG     H6   31   1.855   4.116  -1.731
    1LIG     H7   32   2.030   4.120  -1.704
    1LIG     H8   33   1.958   4.234  -1.913
    1LIG     H9   34   2.072   4.102  -1.938
    1LIG    H10   35   2.185   3.984  -1.317
    1LIG    H11   36   2.091   3.854  -1.163
    1LIG    H12   37   1.955   4.117  -1.102
    1LIG    H13   38   2.120   4.077  -1.061
    1LIG    H14   39   1.988   3.991  -0.985
    1LIG    H15   40   1.816   3.955  -1.233
    1LIG    H16   41   1.852   3.831  -1.115
    1LIG    H17   42   1.885   3.803  -1.285
    1LIG    H18   43   2.343   4.256  -1.319
    1LIG    H19   44   2.260   4.195  -1.459
    1LIG    H20   45   2.293   4.089  -1.325
    1LIG    H21   46   1.606   4.296  -2.394
    1LIG    H22   47   1.656   4.313  -2.228
    1LIG    H23   48   1.529   4.201  -2.270
   0.00000   0.00000   0.00000
