; Created by cgenff_charmm2gmx.py

[ moleculetype ]
; Name			   nrexcl
LIG				 3

[ atoms ]
;	 nr		  type	resnr residue  atom   cgnr	   charge		mass  typeB    chargeB		massB
; residue	 1 LIG rtp LIG q	qsum
     1      CG311      1    LIG     C1      1      0.244     12.011   ;
     2      NG311      1    LIG     N1      2     -0.787     14.007   ;
     3     HGPAM1      1    LIG     H1      3      0.359      1.008   ;
     4      CG311      1    LIG     C2      4      0.302     12.011   ;
     5      NG311      1    LIG     N2      5     -0.864     14.007   ;
     6      CG301      1    LIG     C3      6      0.375     12.011   ;
     7     HGPAM1      1    LIG    HN1      7      0.350      1.008   ;
     8      CG321      1    LIG     C4      8     -0.230     12.011   ;
     9      CG331      1    LIG     C5      9     -0.295     12.011   ;
    10      CG331      1    LIG     C6     10     -0.295     12.011   ;
    11     CG2R61      1    LIG     C7     11      0.075     12.011   ;
    12     CG2R61      1    LIG     C8     12     -0.121     12.011   ;
    13     CG2R61      1    LIG     C9     13     -0.052     12.011   ;
    14     CG2R61      1    LIG    C10     14      0.048     12.011   ;
    15      CLGR1      1    LIG     CL     15     -0.200     35.453   ;
    16     CG2R61      1    LIG    C11     16     -0.099     12.011   ;
    17     CG2R61      1    LIG    C12     17     -0.108     12.011   ;
    18      CG321      1    LIG    C13     18     -0.211     12.011   ;
    19     CG2R61      1    LIG    C14     19      0.002     12.011   ;
    20     CG2R61      1    LIG    C15     20     -0.123     12.011   ;
    21     CG2R61      1    LIG    C16     21     -0.112     12.011   ;
    22     CG2R61      1    LIG    C17     22     -0.116     12.011   ;
    23     CG2R61      1    LIG    C18     23     -0.112     12.011   ;
    24     CG2R61      1    LIG    C19     24     -0.123     12.011   ;
    25      CG311      1    LIG    C20     25      0.233     12.011   ;
    26      NG2S1      1    LIG     N3     26     -0.288     14.007   ;
    27      CG2O1      1    LIG    C21     27      0.270     12.011   ;
    28       HGP1      1    LIG     H2     28      0.256      1.008   ;
    29      OG2D1      1    LIG      O     29     -0.463     15.999   ;
    30     CG2R61      1    LIG    C22     30     -0.123     12.011   ;
    31     CG2R61      1    LIG    C23     31      0.183     12.011   ;
    32     CG2R61      1    LIG    C24     32     -0.057     12.011   ;
    33      NG311      1    LIG     N4     33     -0.589     14.007   ;
    34     CG2R61      1    LIG    C25     34     -0.126     12.011   ;
    35     HGPAM1      1    LIG    HN2     35      0.349      1.008   ;
    36     CG2R61      1    LIG    C26     36     -0.113     12.011   ;
    37     CG2R61      1    LIG    C27     37     -0.114     12.011   ;
    38       HGA1      1    LIG     HC     38      0.090      1.008   ;
    39       HGA2      1    LIG    HC2     39      0.090      1.008   ;
    40       HGA2      1    LIG    HC3     40      0.090      1.008   ;
    41       HGA3      1    LIG    HC1     41      0.090      1.008   ;
    42       HGA3      1    LIG    HC4     42      0.090      1.008   ;
    43       HGA3      1    LIG    HC5     43      0.090      1.008   ;
    44       HGA3      1    LIG    HC6     44      0.090      1.008   ;
    45       HGA3      1    LIG    HC7     45      0.090      1.008   ;
    46       HGA3      1    LIG    HC8     46      0.090      1.008   ;
    47      HGR62      1    LIG    HC9     47      0.145      1.008   ;
    48      HGR62      1    LIG   HC10     48      0.150      1.008   ;
    49      HGR61      1    LIG   HC11     49      0.116      1.008   ;
    50       HGA2      1    LIG   HC12     50      0.090      1.008   ;
    51       HGA2      1    LIG   HC13     51      0.090      1.008   ;
    52      HGR61      1    LIG   HC14     52      0.116      1.008   ;
    53      HGR61      1    LIG   HC15     53      0.116      1.008   ;
    54      HGR61      1    LIG   HC16     54      0.116      1.008   ;
    55      HGR61      1    LIG   HC17     55      0.116      1.008   ;
    56      HGR61      1    LIG   HC18     56      0.116      1.008   ;
    57       HGA1      1    LIG   HC19     57      0.090      1.008   ;
    58      HGR61      1    LIG   HC20     58      0.116      1.008   ;
    59      HGR61      1    LIG   HC21     59      0.116      1.008   ;
    60      HGR61      1    LIG   HC22     60      0.116      1.008   ;
    61      HGR61      1    LIG   HC23     61      0.116      1.008   ;
    62       HGA1      1    LIG    H29     62      0.090      1.008   ;
    63        LPH      1    LIG    LP1     63      0.050      0.000   ;

[ bonds ]
;	ai	  aj funct			  c0			c1			  c2			c3
    1    25	 1 ;       CG311      CG311
    1     2	 1 ;       CG311      NG311
    1    18	 1 ;       CG311      CG321
    1    38	 1 ;       CG311       HGA1
    2     3	 1 ;       NG311     HGPAM1
    2     4	 1 ;       NG311      CG311
    4     5	 1 ;       CG311      NG311
    4    13	 1 ;       CG311     CG2R61
    4    62	 1 ;       CG311       HGA1
    5     7	 1 ;       NG311     HGPAM1
    5     6	 1 ;       NG311      CG301
    6     9	 1 ;       CG301      CG331
    6    10	 1 ;       CG301      CG331
    6     8	 1 ;       CG301      CG321
    8    11	 1 ;       CG321     CG2R61
    8    39	 1 ;       CG321       HGA2
    8    40	 1 ;       CG321       HGA2
    9    41	 1 ;       CG331       HGA3
    9    42	 1 ;       CG331       HGA3
    9    43	 1 ;       CG331       HGA3
   10    44	 1 ;       CG331       HGA3
   10    45	 1 ;       CG331       HGA3
   10    46	 1 ;       CG331       HGA3
   11    13	 1 ;      CG2R61     CG2R61
   11    12	 1 ;      CG2R61     CG2R61
   12    14	 1 ;      CG2R61     CG2R61
   12    47	 1 ;      CG2R61      HGR62
   13    17	 1 ;      CG2R61     CG2R61
   14    16	 1 ;      CG2R61     CG2R61
   14    15	 1 ;      CG2R61      CLGR1
   16    17	 1 ;      CG2R61     CG2R61
   16    48	 1 ;      CG2R61      HGR62
   17    49	 1 ;      CG2R61      HGR61
   18    19	 1 ;       CG321     CG2R61
   18    50	 1 ;       CG321       HGA2
   18    51	 1 ;       CG321       HGA2
   19    24	 1 ;      CG2R61     CG2R61
   19    20	 1 ;      CG2R61     CG2R61
   20    21	 1 ;      CG2R61     CG2R61
   20    52	 1 ;      CG2R61      HGR61
   21    22	 1 ;      CG2R61     CG2R61
   21    53	 1 ;      CG2R61      HGR61
   22    23	 1 ;      CG2R61     CG2R61
   22    54	 1 ;      CG2R61      HGR61
   23    24	 1 ;      CG2R61     CG2R61
   23    55	 1 ;      CG2R61      HGR61
   24    56	 1 ;      CG2R61      HGR61
   25    26	 1 ;       CG311      NG2S1
   25    33	 1 ;       CG311      NG311
   25    57	 1 ;       CG311       HGA1
   26    28	 1 ;       NG2S1       HGP1
   26    27	 1 ;       NG2S1      CG2O1
   27    30	 1 ;       CG2O1     CG2R61
   27    29	 1 ;       CG2O1      OG2D1
   30    32	 1 ;      CG2R61     CG2R61
   30    31	 1 ;      CG2R61     CG2R61
   31    34	 1 ;      CG2R61     CG2R61
   31    33	 1 ;      CG2R61      NG311
   32    37	 1 ;      CG2R61     CG2R61
   32    58	 1 ;      CG2R61      HGR61
   33    35	 1 ;       NG311     HGPAM1
   34    36	 1 ;      CG2R61     CG2R61
   34    59	 1 ;      CG2R61      HGR61
   36    37	 1 ;      CG2R61     CG2R61
   36    60	 1 ;      CG2R61      HGR61
   37    61	 1 ;      CG2R61      HGR61

[ pairs ]
;	ai	  aj funct			  c0			c1			  c2			c3
    1     5	 1
    1    13	 1
    1    62	 1
    1    24	 1
    1    20	 1
    1    28	 1
    1    27	 1
    1    31	 1
    1    35	 1
    2    26	 1
    2    33	 1
    2    57	 1
    2    19	 1
    2    50	 1
    2    51	 1
    2     7	 1
    2     6	 1
    2    11	 1
    2    17	 1
    3    25	 1
    3    18	 1
    3    38	 1
    3     5	 1
    3    13	 1
    3    62	 1
    4    25	 1
    4    18	 1
    4    38	 1
    4     9	 1
    4    10	 1
    4     8	 1
    4    12	 1
    4    16	 1
    4    49	 1
    5    11	 1
    5    17	 1
    5    41	 1
    5    42	 1
    5    43	 1
    5    44	 1
    5    45	 1
    5    46	 1
    5    39	 1
    5    40	 1
    6    13	 1
    6    62	 1
    6    12	 1
    7    13	 1
    7    62	 1
    7     9	 1
    7    10	 1
    7     8	 1
    8    41	 1
    8    42	 1
    8    43	 1
    8    44	 1
    8    45	 1
    8    46	 1
    8    17	 1
    8    14	 1
    8    47	 1
    9    44	 1
    9    45	 1
    9    46	 1
    9    11	 1
    9    39	 1
    9    40	 1
   10    41	 1
   10    42	 1
   10    43	 1
   10    11	 1
   10    39	 1
   10    40	 1
   11    62	 1
   11    16	 1
   11    15	 1
   63    11	 1
   11    49	 1
   12    39	 1
   12    40	 1
   12    17	 1
   12    48	 1
   13    39	 1
   13    40	 1
   13    14	 1
   13    47	 1
   13    48	 1
   14    49	 1
   15    47	 1
   63    47	 1
   15    17	 1
   63    17	 1
   15    48	 1
   63    48	 1
   16    47	 1
   17    62	 1
   18    26	 1
   18    33	 1
   18    57	 1
   18    23	 1
   18    56	 1
   18    21	 1
   18    52	 1
   19    25	 1
   19    38	 1
   19    22	 1
   19    53	 1
   19    55	 1
   20    50	 1
   20    51	 1
   20    23	 1
   20    56	 1
   20    54	 1
   21    24	 1
   21    55	 1
   22    52	 1
   22    56	 1
   23    53	 1
   24    50	 1
   24    51	 1
   24    52	 1
   24    54	 1
   25    50	 1
   25    51	 1
   25    30	 1
   25    29	 1
   25    34	 1
   26    38	 1
   26    31	 1
   26    35	 1
   26    32	 1
   27    33	 1
   27    57	 1
   27    37	 1
   27    58	 1
   27    34	 1
   28    33	 1
   28    57	 1
   28    30	 1
   28    29	 1
   29    32	 1
   29    31	 1
   30    36	 1
   30    59	 1
   30    35	 1
   30    61	 1
   31    57	 1
   31    37	 1
   31    58	 1
   31    60	 1
   32    34	 1
   32    33	 1
   32    60	 1
   33    38	 1
   33    36	 1
   33    59	 1
   34    35	 1
   34    61	 1
   35    57	 1
   36    58	 1
   37    59	 1
   38    57	 1
   38    50	 1
   38    51	 1
   48    49	 1
   52    53	 1
   53    54	 1
   54    55	 1
   55    56	 1
   58    61	 1
   59    60	 1
   60    61	 1

[ angles ]
;	ai	  aj	ak funct			c0			  c1			c2			  c3
   25     1     2	5 ;      CG311      CG311      NG311
   25     1    18	5 ;      CG311      CG311      CG321
   25     1    38	5 ;      CG311      CG311       HGA1
    2     1    18	5 ;      NG311      CG311      CG321
    2     1    38	5 ;      NG311      CG311       HGA1
   18     1    38	5 ;      CG321      CG311       HGA1
    3     2     1	5 ;     HGPAM1      NG311      CG311
    3     2     4	5 ;     HGPAM1      NG311      CG311
    1     2     4	5 ;      CG311      NG311      CG311
    5     4     2	5 ;      NG311      CG311      NG311
    5     4    13	5 ;      NG311      CG311     CG2R61
    5     4    62	5 ;      NG311      CG311       HGA1
    2     4    13	5 ;      NG311      CG311     CG2R61
    2     4    62	5 ;      NG311      CG311       HGA1
   13     4    62	5 ;     CG2R61      CG311       HGA1
    7     5     6	5 ;     HGPAM1      NG311      CG301
    7     5     4	5 ;     HGPAM1      NG311      CG311
    6     5     4	5 ;      CG301      NG311      CG311
    9     6     5	5 ;      CG331      CG301      NG311
    9     6    10	5 ;      CG331      CG301      CG331
    9     6     8	5 ;      CG331      CG301      CG321
    5     6    10	5 ;      NG311      CG301      CG331
    5     6     8	5 ;      NG311      CG301      CG321
   10     6     8	5 ;      CG331      CG301      CG321
    6     8    11	5 ;      CG301      CG321     CG2R61
    6     8    39	5 ;      CG301      CG321       HGA2
    6     8    40	5 ;      CG301      CG321       HGA2
   11     8    39	5 ;     CG2R61      CG321       HGA2
   11     8    40	5 ;     CG2R61      CG321       HGA2
   39     8    40	5 ;       HGA2      CG321       HGA2
    6     9    41	5 ;      CG301      CG331       HGA3
    6     9    42	5 ;      CG301      CG331       HGA3
    6     9    43	5 ;      CG301      CG331       HGA3
   41     9    42	5 ;       HGA3      CG331       HGA3
   41     9    43	5 ;       HGA3      CG331       HGA3
   42     9    43	5 ;       HGA3      CG331       HGA3
    6    10    44	5 ;      CG301      CG331       HGA3
    6    10    45	5 ;      CG301      CG331       HGA3
    6    10    46	5 ;      CG301      CG331       HGA3
   44    10    45	5 ;       HGA3      CG331       HGA3
   44    10    46	5 ;       HGA3      CG331       HGA3
   45    10    46	5 ;       HGA3      CG331       HGA3
    8    11    13	5 ;      CG321     CG2R61     CG2R61
    8    11    12	5 ;      CG321     CG2R61     CG2R61
   13    11    12	5 ;     CG2R61     CG2R61     CG2R61
   11    12    14	5 ;     CG2R61     CG2R61     CG2R61
   11    12    47	5 ;     CG2R61     CG2R61      HGR62
   14    12    47	5 ;     CG2R61     CG2R61      HGR62
    4    13    11	5 ;      CG311     CG2R61     CG2R61
    4    13    17	5 ;      CG311     CG2R61     CG2R61
   11    13    17	5 ;     CG2R61     CG2R61     CG2R61
   12    14    16	5 ;     CG2R61     CG2R61     CG2R61
   12    14    15	5 ;     CG2R61     CG2R61      CLGR1
   16    14    15	5 ;     CG2R61     CG2R61      CLGR1
   17    16    14	5 ;     CG2R61     CG2R61     CG2R61
   17    16    48	5 ;     CG2R61     CG2R61      HGR62
   14    16    48	5 ;     CG2R61     CG2R61      HGR62
   13    17    16	5 ;     CG2R61     CG2R61     CG2R61
   13    17    49	5 ;     CG2R61     CG2R61      HGR61
   16    17    49	5 ;     CG2R61     CG2R61      HGR61
    1    18    19	5 ;      CG311      CG321     CG2R61
    1    18    50	5 ;      CG311      CG321       HGA2
    1    18    51	5 ;      CG311      CG321       HGA2
   19    18    50	5 ;     CG2R61      CG321       HGA2
   19    18    51	5 ;     CG2R61      CG321       HGA2
   50    18    51	5 ;       HGA2      CG321       HGA2
   18    19    24	5 ;      CG321     CG2R61     CG2R61
   18    19    20	5 ;      CG321     CG2R61     CG2R61
   24    19    20	5 ;     CG2R61     CG2R61     CG2R61
   19    20    21	5 ;     CG2R61     CG2R61     CG2R61
   19    20    52	5 ;     CG2R61     CG2R61      HGR61
   21    20    52	5 ;     CG2R61     CG2R61      HGR61
   22    21    20	5 ;     CG2R61     CG2R61     CG2R61
   22    21    53	5 ;     CG2R61     CG2R61      HGR61
   20    21    53	5 ;     CG2R61     CG2R61      HGR61
   23    22    21	5 ;     CG2R61     CG2R61     CG2R61
   23    22    54	5 ;     CG2R61     CG2R61      HGR61
   21    22    54	5 ;     CG2R61     CG2R61      HGR61
   24    23    22	5 ;     CG2R61     CG2R61     CG2R61
   24    23    55	5 ;     CG2R61     CG2R61      HGR61
   22    23    55	5 ;     CG2R61     CG2R61      HGR61
   23    24    19	5 ;     CG2R61     CG2R61     CG2R61
   23    24    56	5 ;     CG2R61     CG2R61      HGR61
   19    24    56	5 ;     CG2R61     CG2R61      HGR61
   26    25    33	5 ;      NG2S1      CG311      NG311
   26    25     1	5 ;      NG2S1      CG311      CG311
   26    25    57	5 ;      NG2S1      CG311       HGA1
   33    25     1	5 ;      NG311      CG311      CG311
   33    25    57	5 ;      NG311      CG311       HGA1
    1    25    57	5 ;      CG311      CG311       HGA1
   28    26    27	5 ;       HGP1      NG2S1      CG2O1
   28    26    25	5 ;       HGP1      NG2S1      CG311
   27    26    25	5 ;      CG2O1      NG2S1      CG311
   30    27    26	5 ;     CG2R61      CG2O1      NG2S1
   30    27    29	5 ;     CG2R61      CG2O1      OG2D1
   26    27    29	5 ;      NG2S1      CG2O1      OG2D1
   32    30    31	5 ;     CG2R61     CG2R61     CG2R61
   32    30    27	5 ;     CG2R61     CG2R61      CG2O1
   31    30    27	5 ;     CG2R61     CG2R61      CG2O1
   34    31    30	5 ;     CG2R61     CG2R61     CG2R61
   34    31    33	5 ;     CG2R61     CG2R61      NG311
   30    31    33	5 ;     CG2R61     CG2R61      NG311
   37    32    30	5 ;     CG2R61     CG2R61     CG2R61
   37    32    58	5 ;     CG2R61     CG2R61      HGR61
   30    32    58	5 ;     CG2R61     CG2R61      HGR61
   31    33    25	5 ;     CG2R61      NG311      CG311
   31    33    35	5 ;     CG2R61      NG311     HGPAM1
   25    33    35	5 ;      CG311      NG311     HGPAM1
   36    34    31	5 ;     CG2R61     CG2R61     CG2R61
   36    34    59	5 ;     CG2R61     CG2R61      HGR61
   31    34    59	5 ;     CG2R61     CG2R61      HGR61
   37    36    34	5 ;     CG2R61     CG2R61     CG2R61
   37    36    60	5 ;     CG2R61     CG2R61      HGR61
   34    36    60	5 ;     CG2R61     CG2R61      HGR61
   36    37    32	5 ;     CG2R61     CG2R61     CG2R61
   36    37    61	5 ;     CG2R61     CG2R61      HGR61
   32    37    61	5 ;     CG2R61     CG2R61      HGR61

[ dihedrals ]
;	ai	  aj	ak	  al funct			  c0			c1			  c2			c3			  c4			c5
    2     1    25    26	 9 ;      NG311      CG311      CG311      NG2S1
    2     1    25    33	 9 ;      NG311      CG311      CG311      NG311
    2     1    25    57	 9 ;      NG311      CG311      CG311       HGA1
   18     1    25    26	 9 ;      CG321      CG311      CG311      NG2S1
   18     1    25    33	 9 ;      CG321      CG311      CG311      NG311
   18     1    25    57	 9 ;      CG321      CG311      CG311       HGA1
   38     1    25    26	 9 ;       HGA1      CG311      CG311      NG2S1
   38     1    25    33	 9 ;       HGA1      CG311      CG311      NG311
   38     1    25    57	 9 ;       HGA1      CG311      CG311       HGA1
   25     1     2     3	 9 ;      CG311      CG311      NG311     HGPAM1
   25     1     2     4	 9 ;      CG311      CG311      NG311      CG311
   18     1     2     3	 9 ;      CG321      CG311      NG311     HGPAM1
   18     1     2     4	 9 ;      CG321      CG311      NG311      CG311
   38     1     2     3	 9 ;       HGA1      CG311      NG311     HGPAM1
   38     1     2     4	 9 ;       HGA1      CG311      NG311      CG311
   25     1    18    19	 9 ;      CG311      CG311      CG321     CG2R61
   25     1    18    50	 9 ;      CG311      CG311      CG321       HGA2
   25     1    18    51	 9 ;      CG311      CG311      CG321       HGA2
    2     1    18    19	 9 ;      NG311      CG311      CG321     CG2R61
    2     1    18    50	 9 ;      NG311      CG311      CG321       HGA2
    2     1    18    51	 9 ;      NG311      CG311      CG321       HGA2
   38     1    18    19	 9 ;       HGA1      CG311      CG321     CG2R61
   38     1    18    50	 9 ;       HGA1      CG311      CG321       HGA2
   38     1    18    51	 9 ;       HGA1      CG311      CG321       HGA2
    3     2     4     5	 9 ;     HGPAM1      NG311      CG311      NG311
    3     2     4    13	 9 ;     HGPAM1      NG311      CG311     CG2R61
    3     2     4    62	 9 ;     HGPAM1      NG311      CG311       HGA1
    1     2     4     5	 9 ;      CG311      NG311      CG311      NG311
    1     2     4    13	 9 ;      CG311      NG311      CG311     CG2R61
    1     2     4    62	 9 ;      CG311      NG311      CG311       HGA1
    2     4     5     7	 9 ;      NG311      CG311      NG311     HGPAM1
    2     4     5     6	 9 ;      NG311      CG311      NG311      CG301
   13     4     5     7	 9 ;     CG2R61      CG311      NG311     HGPAM1
   13     4     5     6	 9 ;     CG2R61      CG311      NG311      CG301
   62     4     5     7	 9 ;       HGA1      CG311      NG311     HGPAM1
   62     4     5     6	 9 ;       HGA1      CG311      NG311      CG301
    5     4    13    11	 9 ;      NG311      CG311     CG2R61     CG2R61
    5     4    13    17	 9 ;      NG311      CG311     CG2R61     CG2R61
    2     4    13    11	 9 ;      NG311      CG311     CG2R61     CG2R61
    2     4    13    17	 9 ;      NG311      CG311     CG2R61     CG2R61
   62     4    13    11	 9 ;       HGA1      CG311     CG2R61     CG2R61
   62     4    13    17	 9 ;       HGA1      CG311     CG2R61     CG2R61
    7     5     6     9	 9 ;     HGPAM1      NG311      CG301      CG331
    7     5     6    10	 9 ;     HGPAM1      NG311      CG301      CG331
    7     5     6     8	 9 ;     HGPAM1      NG311      CG301      CG321
    4     5     6     9	 9 ;      CG311      NG311      CG301      CG331
    4     5     6    10	 9 ;      CG311      NG311      CG301      CG331
    4     5     6     8	 9 ;      CG311      NG311      CG301      CG321
    5     6     9    41	 9 ;      NG311      CG301      CG331       HGA3
    5     6     9    42	 9 ;      NG311      CG301      CG331       HGA3
    5     6     9    43	 9 ;      NG311      CG301      CG331       HGA3
   10     6     9    41	 9 ;      CG331      CG301      CG331       HGA3
   10     6     9    42	 9 ;      CG331      CG301      CG331       HGA3
   10     6     9    43	 9 ;      CG331      CG301      CG331       HGA3
    8     6     9    41	 9 ;      CG321      CG301      CG331       HGA3
    8     6     9    42	 9 ;      CG321      CG301      CG331       HGA3
    8     6     9    43	 9 ;      CG321      CG301      CG331       HGA3
    9     6    10    44	 9 ;      CG331      CG301      CG331       HGA3
    9     6    10    45	 9 ;      CG331      CG301      CG331       HGA3
    9     6    10    46	 9 ;      CG331      CG301      CG331       HGA3
    5     6    10    44	 9 ;      NG311      CG301      CG331       HGA3
    5     6    10    45	 9 ;      NG311      CG301      CG331       HGA3
    5     6    10    46	 9 ;      NG311      CG301      CG331       HGA3
    8     6    10    44	 9 ;      CG321      CG301      CG331       HGA3
    8     6    10    45	 9 ;      CG321      CG301      CG331       HGA3
    8     6    10    46	 9 ;      CG321      CG301      CG331       HGA3
    9     6     8    11	 9 ;      CG331      CG301      CG321     CG2R61
    9     6     8    39	 9 ;      CG331      CG301      CG321       HGA2
    9     6     8    40	 9 ;      CG331      CG301      CG321       HGA2
    5     6     8    11	 9 ;      NG311      CG301      CG321     CG2R61
    5     6     8    39	 9 ;      NG311      CG301      CG321       HGA2
    5     6     8    40	 9 ;      NG311      CG301      CG321       HGA2
   10     6     8    11	 9 ;      CG331      CG301      CG321     CG2R61
   10     6     8    39	 9 ;      CG331      CG301      CG321       HGA2
   10     6     8    40	 9 ;      CG331      CG301      CG321       HGA2
    6     8    11    13	 9 ;      CG301      CG321     CG2R61     CG2R61
    6     8    11    12	 9 ;      CG301      CG321     CG2R61     CG2R61
   39     8    11    13	 9 ;       HGA2      CG321     CG2R61     CG2R61
   39     8    11    12	 9 ;       HGA2      CG321     CG2R61     CG2R61
   40     8    11    13	 9 ;       HGA2      CG321     CG2R61     CG2R61
   40     8    11    12	 9 ;       HGA2      CG321     CG2R61     CG2R61
    8    11    13     4	 9 ;      CG321     CG2R61     CG2R61      CG311
    8    11    13    17	 9 ;      CG321     CG2R61     CG2R61     CG2R61
   12    11    13     4	 9 ;     CG2R61     CG2R61     CG2R61      CG311
   12    11    13    17	 9 ;     CG2R61     CG2R61     CG2R61     CG2R61
    8    11    12    14	 9 ;      CG321     CG2R61     CG2R61     CG2R61
    8    11    12    47	 9 ;      CG321     CG2R61     CG2R61      HGR62
   13    11    12    14	 9 ;     CG2R61     CG2R61     CG2R61     CG2R61
   13    11    12    47	 9 ;     CG2R61     CG2R61     CG2R61      HGR62
   11    12    14    16	 9 ;     CG2R61     CG2R61     CG2R61     CG2R61
   11    12    14    15	 9 ;     CG2R61     CG2R61     CG2R61      CLGR1
   47    12    14    16	 9 ;      HGR62     CG2R61     CG2R61     CG2R61
   47    12    14    15	 9 ;      HGR62     CG2R61     CG2R61      CLGR1
    4    13    17    16	 9 ;      CG311     CG2R61     CG2R61     CG2R61
    4    13    17    49	 9 ;      CG311     CG2R61     CG2R61      HGR61
   11    13    17    16	 9 ;     CG2R61     CG2R61     CG2R61     CG2R61
   11    13    17    49	 9 ;     CG2R61     CG2R61     CG2R61      HGR61
   12    14    16    17	 9 ;     CG2R61     CG2R61     CG2R61     CG2R61
   12    14    16    48	 9 ;     CG2R61     CG2R61     CG2R61      HGR62
   15    14    16    17	 9 ;      CLGR1     CG2R61     CG2R61     CG2R61
   15    14    16    48	 9 ;      CLGR1     CG2R61     CG2R61      HGR62
   14    16    17    13	 9 ;     CG2R61     CG2R61     CG2R61     CG2R61
   14    16    17    49	 9 ;     CG2R61     CG2R61     CG2R61      HGR61
   48    16    17    13	 9 ;      HGR62     CG2R61     CG2R61     CG2R61
   48    16    17    49	 9 ;      HGR62     CG2R61     CG2R61      HGR61
    1    18    19    24	 9 ;      CG311      CG321     CG2R61     CG2R61
    1    18    19    20	 9 ;      CG311      CG321     CG2R61     CG2R61
   50    18    19    24	 9 ;       HGA2      CG321     CG2R61     CG2R61
   50    18    19    20	 9 ;       HGA2      CG321     CG2R61     CG2R61
   51    18    19    24	 9 ;       HGA2      CG321     CG2R61     CG2R61
   51    18    19    20	 9 ;       HGA2      CG321     CG2R61     CG2R61
   18    19    24    23	 9 ;      CG321     CG2R61     CG2R61     CG2R61
   18    19    24    56	 9 ;      CG321     CG2R61     CG2R61      HGR61
   20    19    24    23	 9 ;     CG2R61     CG2R61     CG2R61     CG2R61
   20    19    24    56	 9 ;     CG2R61     CG2R61     CG2R61      HGR61
   18    19    20    21	 9 ;      CG321     CG2R61     CG2R61     CG2R61
   18    19    20    52	 9 ;      CG321     CG2R61     CG2R61      HGR61
   24    19    20    21	 9 ;     CG2R61     CG2R61     CG2R61     CG2R61
   24    19    20    52	 9 ;     CG2R61     CG2R61     CG2R61      HGR61
   19    20    21    22	 9 ;     CG2R61     CG2R61     CG2R61     CG2R61
   19    20    21    53	 9 ;     CG2R61     CG2R61     CG2R61      HGR61
   52    20    21    22	 9 ;      HGR61     CG2R61     CG2R61     CG2R61
   52    20    21    53	 9 ;      HGR61     CG2R61     CG2R61      HGR61
   20    21    22    23	 9 ;     CG2R61     CG2R61     CG2R61     CG2R61
   20    21    22    54	 9 ;     CG2R61     CG2R61     CG2R61      HGR61
   53    21    22    23	 9 ;      HGR61     CG2R61     CG2R61     CG2R61
   53    21    22    54	 9 ;      HGR61     CG2R61     CG2R61      HGR61
   21    22    23    24	 9 ;     CG2R61     CG2R61     CG2R61     CG2R61
   21    22    23    55	 9 ;     CG2R61     CG2R61     CG2R61      HGR61
   54    22    23    24	 9 ;      HGR61     CG2R61     CG2R61     CG2R61
   54    22    23    55	 9 ;      HGR61     CG2R61     CG2R61      HGR61
   22    23    24    19	 9 ;     CG2R61     CG2R61     CG2R61     CG2R61
   22    23    24    56	 9 ;     CG2R61     CG2R61     CG2R61      HGR61
   55    23    24    19	 9 ;      HGR61     CG2R61     CG2R61     CG2R61
   55    23    24    56	 9 ;      HGR61     CG2R61     CG2R61      HGR61
   33    25    26    28	 9 ;      NG311      CG311      NG2S1       HGP1
   33    25    26    27	 9 ;      NG311      CG311      NG2S1      CG2O1
    1    25    26    28	 9 ;      CG311      CG311      NG2S1       HGP1
    1    25    26    27	 9 ;      CG311      CG311      NG2S1      CG2O1
   57    25    26    28	 9 ;       HGA1      CG311      NG2S1       HGP1
   57    25    26    27	 9 ;       HGA1      CG311      NG2S1      CG2O1
   26    25    33    31	 9 ;      NG2S1      CG311      NG311     CG2R61
   26    25    33    35	 9 ;      NG2S1      CG311      NG311     HGPAM1
    1    25    33    31	 9 ;      CG311      CG311      NG311     CG2R61
    1    25    33    35	 9 ;      CG311      CG311      NG311     HGPAM1
   57    25    33    31	 9 ;       HGA1      CG311      NG311     CG2R61
   57    25    33    35	 9 ;       HGA1      CG311      NG311     HGPAM1
   28    26    27    30	 9 ;       HGP1      NG2S1      CG2O1     CG2R61
   28    26    27    29	 9 ;       HGP1      NG2S1      CG2O1      OG2D1
   25    26    27    30	 9 ;      CG311      NG2S1      CG2O1     CG2R61
   25    26    27    29	 9 ;      CG311      NG2S1      CG2O1      OG2D1
   26    27    30    32	 9 ;      NG2S1      CG2O1     CG2R61     CG2R61
   26    27    30    31	 9 ;      NG2S1      CG2O1     CG2R61     CG2R61
   29    27    30    32	 9 ;      OG2D1      CG2O1     CG2R61     CG2R61
   29    27    30    31	 9 ;      OG2D1      CG2O1     CG2R61     CG2R61
   31    30    32    37	 9 ;     CG2R61     CG2R61     CG2R61     CG2R61
   31    30    32    58	 9 ;     CG2R61     CG2R61     CG2R61      HGR61
   27    30    32    37	 9 ;      CG2O1     CG2R61     CG2R61     CG2R61
   27    30    32    58	 9 ;      CG2O1     CG2R61     CG2R61      HGR61
   32    30    31    34	 9 ;     CG2R61     CG2R61     CG2R61     CG2R61
   32    30    31    33	 9 ;     CG2R61     CG2R61     CG2R61      NG311
   27    30    31    34	 9 ;      CG2O1     CG2R61     CG2R61     CG2R61
   27    30    31    33	 9 ;      CG2O1     CG2R61     CG2R61      NG311
   30    31    34    36	 9 ;     CG2R61     CG2R61     CG2R61     CG2R61
   30    31    34    59	 9 ;     CG2R61     CG2R61     CG2R61      HGR61
   33    31    34    36	 9 ;      NG311     CG2R61     CG2R61     CG2R61
   33    31    34    59	 9 ;      NG311     CG2R61     CG2R61      HGR61
   34    31    33    25	 9 ;     CG2R61     CG2R61      NG311      CG311
   34    31    33    35	 9 ;     CG2R61     CG2R61      NG311     HGPAM1
   30    31    33    25	 9 ;     CG2R61     CG2R61      NG311      CG311
   30    31    33    35	 9 ;     CG2R61     CG2R61      NG311     HGPAM1
   30    32    37    36	 9 ;     CG2R61     CG2R61     CG2R61     CG2R61
   30    32    37    61	 9 ;     CG2R61     CG2R61     CG2R61      HGR61
   58    32    37    36	 9 ;      HGR61     CG2R61     CG2R61     CG2R61
   58    32    37    61	 9 ;      HGR61     CG2R61     CG2R61      HGR61
   31    34    36    37	 9 ;     CG2R61     CG2R61     CG2R61     CG2R61
   31    34    36    60	 9 ;     CG2R61     CG2R61     CG2R61      HGR61
   59    34    36    37	 9 ;      HGR61     CG2R61     CG2R61     CG2R61
   59    34    36    60	 9 ;      HGR61     CG2R61     CG2R61      HGR61
   34    36    37    32	 9 ;     CG2R61     CG2R61     CG2R61     CG2R61
   34    36    37    61	 9 ;     CG2R61     CG2R61     CG2R61      HGR61
   60    36    37    32	 9 ;      HGR61     CG2R61     CG2R61     CG2R61
   60    36    37    61	 9 ;      HGR61     CG2R61     CG2R61      HGR61

[ dihedrals ]
;	ai	  aj	ak	  al funct			  c0			c1			  c2			c3
   27    30    26    29	 2

[ virtual_sites2 ]
; Site   from				funct a
   63    15    14     2   -0.164

[ exclusions ]
;	ai	  aj
   15    63
   63    14
   63    12
   63    16
   63    11
   63    47
   63    17
   63    48

