GROningen MAchine for Chemical Simulation
   63
    1LIG     C1    1  -1.537   0.335  -1.576
    1LIG     N1    2  -1.526   0.481  -1.589
    1LIG     H1    3  -1.430   0.508  -1.610
    1LIG     C2    4  -1.626   0.573  -1.602
    1LIG     N2    5  -1.612   0.683  -1.670
    1LIG     C3    6  -1.721   0.780  -1.676
    1LIG    HN1    7  -1.524   0.701  -1.720
    1LIG     C4    8  -1.855   0.707  -1.696
    1LIG     C5    9  -1.694   0.872  -1.795
    1LIG     C6   10  -1.721   0.868  -1.548
    1LIG     C7   11  -1.873   0.605  -1.587
    1LIG     C8   12  -1.999   0.574  -1.536
    1LIG     C9   13  -1.759   0.542  -1.535
    1LIG    C10   14  -2.010   0.485  -1.429
    1LIG     CL   15  -2.165   0.447  -1.365
    1LIG    C11   16  -1.896   0.428  -1.372
    1LIG    C12   17  -1.770   0.456  -1.425
    1LIG    C13   18  -1.578   0.259  -1.705
    1LIG    C14   19  -1.719   0.280  -1.759
    1LIG    C15   20  -1.835   0.241  -1.690
    1LIG    C16   21  -1.962   0.273  -1.737
    1LIG    C17   22  -1.975   0.341  -1.858
    1LIG    C18   23  -1.862   0.375  -1.931
    1LIG    C19   24  -1.734   0.345  -1.882
    1LIG    C20   25  -1.401   0.278  -1.527
    1LIG     N3   26  -1.324   0.364  -1.454
    1LIG    C21   27  -1.239   0.313  -1.359
    1LIG     H2   28  -1.272   0.426  -1.515
    1LIG      O   29  -1.217   0.368  -1.252
    1LIG    C22   30  -1.179   0.184  -1.393
    1LIG    C23   31  -1.246   0.110  -1.491
    1LIG    C24   32  -1.061   0.140  -1.333
    1LIG     N4   33  -1.365   0.155  -1.551
    1LIG    C25   34  -1.194  -0.015  -1.525
    1LIG    HN2   35  -1.420   0.094  -1.612
    1LIG    C26   36  -1.075  -0.061  -1.466
    1LIG    C27   37  -1.008   0.018  -1.372
    1LIG     HC   38  -1.612   0.313  -1.500
    1LIG    HC2   39  -1.937   0.779  -1.692
    1LIG    HC3   40  -1.855   0.657  -1.793
    1LIG    HC1   41  -1.694   0.813  -1.887
    1LIG    HC4   42  -1.772   0.948  -1.801
    1LIG    HC5   43  -1.597   0.920  -1.783
    1LIG    HC6   44  -1.740   0.805  -1.462
    1LIG    HC7   45  -1.798   0.943  -1.556
    1LIG    HC8   46  -1.624   0.916  -1.538
    1LIG    HC9   47  -2.088   0.618  -1.579
    1LIG   HC10   48  -1.905   0.362  -1.287
    1LIG   HC11   49  -1.682   0.412  -1.382
    1LIG   HC12   50  -1.509   0.289  -1.783
    1LIG   HC13   51  -1.565   0.153  -1.687
    1LIG   HC14   52  -1.825   0.184  -1.599
    1LIG   HC15   53  -2.049   0.245  -1.681
    1LIG   HC16   54  -2.073   0.367  -1.894
    1LIG   HC17   55  -1.872   0.425  -2.026
    1LIG   HC18   56  -1.647   0.373  -1.939
    1LIG   HC19   57  -1.352   0.311  -1.619
    1LIG   HC20   58  -1.012   0.201  -1.258
    1LIG   HC21   59  -1.246  -0.078  -1.596
    1LIG   HC22   60  -1.035  -0.157  -1.494
    1LIG   HC23   61  -0.915  -0.016  -1.329
    1LIG    H29   62  -1.592   0.624  -1.512
    1LIG    LP1   63  -2.313   0.411  -1.305
   0.00000   0.00000   0.00000
