Gallium Rubidium Oxygen Manganese Argon Carbon Silicon
   65
    1LIG     C1    1  -1.778   0.280  -0.970
    1LIG     C2    2  -1.861   0.219  -0.890
    1LIG     C3    3  -1.958   0.147  -0.797
    1LIG     C4    4  -1.685   0.347  -1.055
    1LIG     C5    5  -1.685   0.321  -1.191
    1LIG     C6    6  -1.593   0.385  -1.275
    1LIG     C7    7  -1.507   0.477  -1.215
    1LIG     N1    8  -1.503   0.505  -1.082
    1LIG     C8    9  -1.593   0.439  -1.006
    1LIG     HN   10  -1.437   0.572  -1.042
    1LIG     C9   11  -1.589   0.359  -1.419
    1LIG    C10   12  -1.467   0.349  -1.486
    1LIG    C11   13  -1.460   0.346  -1.626
    1LIG    C12   14  -1.581   0.349  -1.698
    1LIG    C13   15  -1.702   0.335  -1.633
    1LIG    C14   16  -1.707   0.343  -1.495
    1LIG    C15   17  -1.327   0.328  -1.698
    1LIG    C16   18  -1.267   0.192  -1.664
    1LIG    C17   19  -1.143   0.210  -1.605
    1LIG    C18   20  -1.317   0.065  -1.694
    1LIG    C19   21  -1.065   0.100  -1.573
    1LIG    C20   22  -1.120   0.352  -1.590
    1LIG      F   23  -0.946   0.117  -1.515
    1LIG    C21   24  -1.112  -0.028  -1.604
    1LIG    C22   25  -1.238  -0.045  -1.665
    1LIG     N2   26  -1.223   0.419  -1.640
    1LIG     N3   27  -1.014   0.405  -1.533
    1LIG     H1   28  -1.229   0.520  -1.637
    1LIG     H2   29  -0.939   0.345  -1.498
    1LIG     H3   30  -1.003   0.504  -1.523
    1LIG    C23   31  -1.329   0.356  -1.848
    1LIG    C24   32  -1.355   0.247  -1.940
    1LIG    C25   33  -1.360   0.266  -2.073
    1LIG    C26   34  -1.389   0.158  -2.171
    1LIG    C27   35  -1.337   0.404  -2.128
    1LIG      O   36  -1.344   0.424  -2.249
    1LIG     N4   37  -1.310   0.503  -2.035
    1LIG    C28   38  -1.306   0.479  -1.900
    1LIG    C29   39  -1.293   0.641  -2.081
    1LIG    C30   40  -1.154   0.693  -2.051
    1LIG     H4   41  -2.058   0.168  -0.828
    1LIG     H5   42  -1.944   0.183  -0.697
    1LIG     H6   43  -1.940   0.042  -0.801
    1LIG     H7   44  -1.752   0.253  -1.231
    1LIG     H8   45  -1.526   0.571  -1.263
    1LIG     H9   46  -1.413   0.427  -1.227
    1LIG    H10   47  -1.593   0.457  -0.905
    1LIG    H11   48  -1.380   0.344  -1.431
    1LIG    H12   49  -1.579   0.361  -1.801
    1LIG    H13   50  -1.788   0.318  -1.687
    1LIG    H14   51  -1.798   0.339  -1.446
    1LIG    H15   52  -1.411   0.054  -1.736
    1LIG    H16   53  -1.035   0.403  -1.551
    1LIG    H17   54  -1.055  -0.110  -1.581
    1LIG    H18   55  -1.271  -0.140  -1.688
    1LIG    H19   56  -1.371   0.152  -1.903
    1LIG    H20   57  -1.386   0.198  -2.270
    1LIG    H21   58  -1.485   0.117  -2.151
    1LIG    H22   59  -1.315   0.081  -2.162
    1LIG    H23   60  -1.286   0.557  -1.836
    1LIG    H24   61  -1.310   0.645  -2.187
    1LIG    H25   62  -1.364   0.703  -2.029
    1LIG    H26   63  -1.082   0.633  -2.102
    1LIG    H27   64  -1.136   0.689  -1.946
    1LIG    H28   65  -1.145   0.795  -2.085
   0.00000   0.00000   0.00000
