GROwing Monsters And Cloning Shrimps
   60
    1LIG     C1    1  -1.492   0.312  -1.568
    1LIG     C2    2  -1.612   0.366  -1.516
    1LIG     C3    3  -1.738   0.343  -1.575
    1LIG     C4    4  -1.741   0.266  -1.692
    1LIG     C5    5  -1.625   0.213  -1.747
    1LIG     C6    6  -1.502   0.234  -1.685
    1LIG     C7    7  -1.865   0.394  -1.510
    1LIG     C8    8  -1.879   0.392  -1.360
    1LIG     C9    9  -1.961   0.297  -1.443
    1LIG    C10   10  -2.112   0.307  -1.447
    1LIG     N1   11  -2.165   0.295  -1.583
    1LIG    C11   12  -2.228   0.389  -1.641
    1LIG     HN   13  -2.150   0.208  -1.634
    1LIG     N2   14  -2.247   0.515  -1.587
    1LIG    C12   15  -2.311   0.621  -1.664
    1LIG    C13   16  -2.204   0.546  -1.460
    1LIG     O1   17  -2.211   0.659  -1.412
    1LIG    C14   18  -2.157   0.433  -1.374
    1LIG    C15   19  -2.170   0.184  -1.372
    1LIG     N3   20  -2.280   0.360  -1.763
    1LIG     H1   21  -2.374   0.389  -1.786
    1LIG     H2   22  -2.214   0.373  -1.839
    1LIG    C16   23  -1.361   0.325  -1.498
    1LIG    C17   24  -1.290   0.213  -1.449
    1LIG    C18   25  -1.180   0.227  -1.363
    1LIG    C19   26  -1.132   0.354  -1.335
    1LIG    C20   27  -1.194   0.467  -1.390
    1LIG    C21   28  -1.309   0.452  -1.468
    1LIG     O2   29  -1.117   0.125  -1.295
    1LIG    C22   30  -1.008   0.060  -1.361
    1LIG    C23   31  -1.044  -0.085  -1.396
    1LIG    C24   32  -1.164  -0.142  -1.320
    1LIG     HC   33  -1.606   0.427  -1.428
    1LIG    HC1   34  -1.836   0.248  -1.741
    1LIG    HC2   35  -1.630   0.155  -1.839
    1LIG    HC3   36  -1.413   0.190  -1.728
    1LIG    HC4   37  -1.913   0.479  -1.560
    1LIG    HC5   38  -1.927   0.475  -1.308
    1LIG    HC6   39  -1.795   0.347  -1.307
    1LIG    HC7   40  -1.924   0.194  -1.441
    1LIG    HC8   41  -2.312   0.712  -1.606
    1LIG    HC9   42  -2.256   0.637  -1.757
    1LIG   HC10   43  -2.414   0.592  -1.688
    1LIG   HC11   44  -2.239   0.405  -1.307
    1LIG   HC12   45  -2.074   0.468  -1.313
    1LIG   HC13   46  -2.279   0.188  -1.374
    1LIG   HC14   47  -2.136   0.092  -1.421
    1LIG   HC15   48  -2.134   0.184  -1.269
    1LIG   HC16   49  -1.322   0.114  -1.478
    1LIG   HC17   50  -1.046   0.366  -1.271
    1LIG   HC18   51  -1.153   0.565  -1.371
    1LIG   HC19   52  -1.358   0.540  -1.506
    1LIG   HC20   53  -0.922   0.059  -1.294
    1LIG   HC21   54  -0.983   0.114  -1.452
    1LIG   HC22   55  -0.958  -0.148  -1.375
    1LIG   HC23   56  -1.066  -0.090  -1.503
    1LIG   HC24   57  -1.171  -0.249  -1.338
    1LIG   HC25   58  -1.150  -0.124  -1.213
    1LIG   HC26   59  -1.255  -0.093  -1.354
    1LIG    H31   60  -2.136   0.423  -1.688
   0.00000   0.00000   0.00000
