; Created by cgenff_charmm2gmx.py

[ moleculetype ]
; Name			   nrexcl
LIG				 3

[ atoms ]
;	 nr		  type	resnr residue  atom   cgnr	   charge		mass  typeB    chargeB		massB
; residue	 1 LIG rtp LIG q	qsum
     1     CG2R67      1    LIG     C1      1      0.003     12.011   ;
     2     CG2R61      1    LIG     C2      2     -0.114     12.011   ;
     3     CG2R61      1    LIG     C3      3     -0.043     12.011   ;
     4     CG2R61      1    LIG     C4      4     -0.107     12.011   ;
     5     CG2R61      1    LIG     C5      5     -0.119     12.011   ;
     6     CG2R61      1    LIG     C6      6     -0.119     12.011   ;
     7     CG3C31      1    LIG     C7      7     -0.058     12.011   ;
     8     CG3C31      1    LIG     C8      8     -0.180     12.011   ;
     9     CG3C31      1    LIG     C9      9     -0.003     12.011   ;
    10      CG301      1    LIG    C10     10      0.430     12.011   ;
    11      NG311      1    LIG     N1     11     -1.007     14.007   ;
    12      CG311      1    LIG    C11     12      0.501     12.011   ;
    13     HGPAM1      1    LIG     HN     13      0.358      1.008   ;
    14      NG2S0      1    LIG     N2     14     -0.076     14.007   ;
    15      CG331      1    LIG    C12     15     -0.218     12.011   ;
    16      CG2O1      1    LIG    C13     16      0.544     12.011   ;
    17      OG2D1      1    LIG     O1     17     -0.532     15.999   ;
    18      CG321      1    LIG    C14     18     -0.312     12.011   ;
    19      CG331      1    LIG    C15     19     -0.298     12.011   ;
    20      NG321      1    LIG     N3     20     -1.116     14.007   ;
    21     HGPAM2      1    LIG     H1     21      0.416      1.008   ;
    22     HGPAM2      1    LIG     H2     22      0.416      1.008   ;
    23     CG2R67      1    LIG    C16     23      0.006     12.011   ;
    24     CG2R61      1    LIG    C17     24     -0.120     12.011   ;
    25     CG2R61      1    LIG    C18     25      0.220     12.011   ;
    26     CG2R61      1    LIG    C19     26     -0.113     12.011   ;
    27     CG2R61      1    LIG    C20     27     -0.116     12.011   ;
    28     CG2R61      1    LIG    C21     28     -0.119     12.011   ;
    29      OG301      1    LIG     O2     29     -0.394     15.999   ;
    30      CG321      1    LIG    C22     30     -0.010     12.011   ;
    31      CG321      1    LIG    C23     31     -0.178     12.011   ;
    32      CG331      1    LIG    C24     32     -0.270     12.011   ;
    33      HGR61      1    LIG     HC     33      0.116      1.008   ;
    34      HGR61      1    LIG    HC1     34      0.116      1.008   ;
    35      HGR61      1    LIG    HC2     35      0.116      1.008   ;
    36      HGR61      1    LIG    HC3     36      0.116      1.008   ;
    37       HGA1      1    LIG    HC4     37      0.090      1.008   ;
    38       HGA2      1    LIG    HC5     38      0.090      1.008   ;
    39       HGA2      1    LIG    HC6     39      0.090      1.008   ;
    40       HGA1      1    LIG    HC7     40      0.090      1.008   ;
    41       HGA3      1    LIG    HC8     41      0.090      1.008   ;
    42       HGA3      1    LIG    HC9     42      0.090      1.008   ;
    43       HGA3      1    LIG   HC10     43      0.090      1.008   ;
    44       HGA2      1    LIG   HC11     44      0.090      1.008   ;
    45       HGA2      1    LIG   HC12     45      0.090      1.008   ;
    46       HGA3      1    LIG   HC13     46      0.090      1.008   ;
    47       HGA3      1    LIG   HC14     47      0.090      1.008   ;
    48       HGA3      1    LIG   HC15     48      0.090      1.008   ;
    49      HGR61      1    LIG   HC16     49      0.116      1.008   ;
    50      HGR61      1    LIG   HC17     50      0.116      1.008   ;
    51      HGR61      1    LIG   HC18     51      0.116      1.008   ;
    52      HGR61      1    LIG   HC19     52      0.116      1.008   ;
    53       HGA2      1    LIG   HC20     53      0.090      1.008   ;
    54       HGA2      1    LIG   HC21     54      0.090      1.008   ;
    55       HGA2      1    LIG   HC22     55      0.090      1.008   ;
    56       HGA2      1    LIG   HC23     56      0.090      1.008   ;
    57       HGA3      1    LIG   HC24     57      0.090      1.008   ;
    58       HGA3      1    LIG   HC25     58      0.090      1.008   ;
    59       HGA3      1    LIG   HC26     59      0.090      1.008   ;
    60       HGA1      1    LIG    H31     60      0.090      1.008   ;

[ bonds ]
;	ai	  aj funct			  c0			c1			  c2			c3
    1    23	 1 ;      CG2R67     CG2R67
    1     6	 1 ;      CG2R67     CG2R61
    1     2	 1 ;      CG2R67     CG2R61
    2     3	 1 ;      CG2R61     CG2R61
    2    33	 1 ;      CG2R61      HGR61
    3     4	 1 ;      CG2R61     CG2R61
    3     7	 1 ;      CG2R61     CG3C31
    4     5	 1 ;      CG2R61     CG2R61
    4    34	 1 ;      CG2R61      HGR61
    5     6	 1 ;      CG2R61     CG2R61
    5    35	 1 ;      CG2R61      HGR61
    6    36	 1 ;      CG2R61      HGR61
    7     8	 1 ;      CG3C31     CG3C31
    7     9	 1 ;      CG3C31     CG3C31
    7    37	 1 ;      CG3C31       HGA1
    8     9	 1 ;      CG3C31     CG3C31
    8    38	 1 ;      CG3C31       HGA2
    8    39	 1 ;      CG3C31       HGA2
    9    10	 1 ;      CG3C31      CG301
    9    40	 1 ;      CG3C31       HGA1
   10    11	 1 ;       CG301      NG311
   10    18	 1 ;       CG301      CG321
   10    19	 1 ;       CG301      CG331
   11    13	 1 ;       NG311     HGPAM1
   11    12	 1 ;       NG311      CG311
   12    20	 1 ;       CG311      NG321
   12    14	 1 ;       CG311      NG2S0
   12    60	 1 ;       CG311       HGA1
   14    15	 1 ;       NG2S0      CG331
   14    16	 1 ;       NG2S0      CG2O1
   15    41	 1 ;       CG331       HGA3
   15    42	 1 ;       CG331       HGA3
   15    43	 1 ;       CG331       HGA3
   16    17	 1 ;       CG2O1      OG2D1
   16    18	 1 ;       CG2O1      CG321
   18    44	 1 ;       CG321       HGA2
   18    45	 1 ;       CG321       HGA2
   19    46	 1 ;       CG331       HGA3
   19    47	 1 ;       CG331       HGA3
   19    48	 1 ;       CG331       HGA3
   20    22	 1 ;       NG321     HGPAM2
   20    21	 1 ;       NG321     HGPAM2
   23    28	 1 ;      CG2R67     CG2R61
   23    24	 1 ;      CG2R67     CG2R61
   24    25	 1 ;      CG2R61     CG2R61
   24    49	 1 ;      CG2R61      HGR61
   25    26	 1 ;      CG2R61     CG2R61
   25    29	 1 ;      CG2R61      OG301
   26    27	 1 ;      CG2R61     CG2R61
   26    50	 1 ;      CG2R61      HGR61
   27    28	 1 ;      CG2R61     CG2R61
   27    51	 1 ;      CG2R61      HGR61
   28    52	 1 ;      CG2R61      HGR61
   29    30	 1 ;       OG301      CG321
   30    31	 1 ;       CG321      CG321
   30    53	 1 ;       CG321       HGA2
   30    54	 1 ;       CG321       HGA2
   31    32	 1 ;       CG321      CG331
   31    55	 1 ;       CG321       HGA2
   31    56	 1 ;       CG321       HGA2
   32    57	 1 ;       CG331       HGA3
   32    58	 1 ;       CG331       HGA3
   32    59	 1 ;       CG331       HGA3

[ pairs ]
;	ai	  aj funct			  c0			c1			  c2			c3
    1     4	 1
    1     7	 1
    1    35	 1
    1    27	 1
    1    52	 1
    1    25	 1
    1    49	 1
    2    28	 1
    2    24	 1
    2     5	 1
    2    36	 1
    2    34	 1
    2     8	 1
    2     9	 1
    2    37	 1
    3    23	 1
    3     6	 1
    3    35	 1
    3    38	 1
    3    39	 1
    3    10	 1
    3    40	 1
    4    33	 1
    4     8	 1
    4     9	 1
    4    37	 1
    4    36	 1
    5    23	 1
    5     7	 1
    6    28	 1
    6    24	 1
    6    33	 1
    6    34	 1
    7    33	 1
    7    34	 1
    7    11	 1
    7    18	 1
    7    19	 1
    8    11	 1
    8    18	 1
    8    19	 1
    9    13	 1
    9    12	 1
    9    16	 1
    9    44	 1
    9    45	 1
    9    46	 1
    9    47	 1
    9    48	 1
   10    37	 1
   10    38	 1
   10    39	 1
   10    20	 1
   10    14	 1
   10    60	 1
   10    17	 1
   11    40	 1
   11    16	 1
   11    44	 1
   11    45	 1
   11    46	 1
   11    47	 1
   11    48	 1
   11    22	 1
   11    21	 1
   11    15	 1
   12    18	 1
   12    19	 1
   12    41	 1
   12    42	 1
   12    43	 1
   12    17	 1
   13    18	 1
   13    19	 1
   13    20	 1
   13    14	 1
   13    60	 1
   14    22	 1
   14    21	 1
   14    44	 1
   14    45	 1
   15    20	 1
   15    60	 1
   15    17	 1
   15    18	 1
   16    19	 1
   16    20	 1
   16    60	 1
   16    41	 1
   16    42	 1
   16    43	 1
   17    44	 1
   17    45	 1
   18    40	 1
   18    46	 1
   18    47	 1
   18    48	 1
   19    40	 1
   19    44	 1
   19    45	 1
   21    60	 1
   22    60	 1
   23    36	 1
   23    33	 1
   23    26	 1
   23    29	 1
   23    51	 1
   24    27	 1
   24    52	 1
   24    50	 1
   24    30	 1
   25    28	 1
   25    51	 1
   25    31	 1
   25    53	 1
   25    54	 1
   26    49	 1
   26    30	 1
   26    52	 1
   27    29	 1
   28    49	 1
   28    50	 1
   29    49	 1
   29    50	 1
   29    32	 1
   29    55	 1
   29    56	 1
   30    57	 1
   30    58	 1
   30    59	 1
   32    53	 1
   32    54	 1
   34    35	 1
   35    36	 1
   37    38	 1
   37    39	 1
   37    40	 1
   38    40	 1
   39    40	 1
   50    51	 1
   51    52	 1
   53    55	 1
   53    56	 1
   54    55	 1
   54    56	 1
   55    57	 1
   55    58	 1
   55    59	 1
   56    57	 1
   56    58	 1
   56    59	 1

[ angles ]
;	ai	  aj	ak funct			c0			  c1			c2			  c3
   23     1     6	5 ;     CG2R67     CG2R67     CG2R61
   23     1     2	5 ;     CG2R67     CG2R67     CG2R61
    6     1     2	5 ;     CG2R61     CG2R67     CG2R61
    1     2     3	5 ;     CG2R67     CG2R61     CG2R61
    1     2    33	5 ;     CG2R67     CG2R61      HGR61
    3     2    33	5 ;     CG2R61     CG2R61      HGR61
    2     3     4	5 ;     CG2R61     CG2R61     CG2R61
    2     3     7	5 ;     CG2R61     CG2R61     CG3C31
    4     3     7	5 ;     CG2R61     CG2R61     CG3C31
    5     4     3	5 ;     CG2R61     CG2R61     CG2R61
    5     4    34	5 ;     CG2R61     CG2R61      HGR61
    3     4    34	5 ;     CG2R61     CG2R61      HGR61
    6     5     4	5 ;     CG2R61     CG2R61     CG2R61
    6     5    35	5 ;     CG2R61     CG2R61      HGR61
    4     5    35	5 ;     CG2R61     CG2R61      HGR61
    1     6     5	5 ;     CG2R67     CG2R61     CG2R61
    1     6    36	5 ;     CG2R67     CG2R61      HGR61
    5     6    36	5 ;     CG2R61     CG2R61      HGR61
    3     7     8	5 ;     CG2R61     CG3C31     CG3C31
    3     7     9	5 ;     CG2R61     CG3C31     CG3C31
    3     7    37	5 ;     CG2R61     CG3C31       HGA1
    8     7     9	5 ;     CG3C31     CG3C31     CG3C31
    8     7    37	5 ;     CG3C31     CG3C31       HGA1
    9     7    37	5 ;     CG3C31     CG3C31       HGA1
    7     8     9	5 ;     CG3C31     CG3C31     CG3C31
    7     8    38	5 ;     CG3C31     CG3C31       HGA2
    7     8    39	5 ;     CG3C31     CG3C31       HGA2
    9     8    38	5 ;     CG3C31     CG3C31       HGA2
    9     8    39	5 ;     CG3C31     CG3C31       HGA2
   38     8    39	5 ;       HGA2     CG3C31       HGA2
    7     9     8	5 ;     CG3C31     CG3C31     CG3C31
    7     9    10	5 ;     CG3C31     CG3C31      CG301
    7     9    40	5 ;     CG3C31     CG3C31       HGA1
    8     9    10	5 ;     CG3C31     CG3C31      CG301
    8     9    40	5 ;     CG3C31     CG3C31       HGA1
   10     9    40	5 ;      CG301     CG3C31       HGA1
    9    10    11	5 ;     CG3C31      CG301      NG311
    9    10    18	5 ;     CG3C31      CG301      CG321
    9    10    19	5 ;     CG3C31      CG301      CG331
   11    10    18	5 ;      NG311      CG301      CG321
   11    10    19	5 ;      NG311      CG301      CG331
   18    10    19	5 ;      CG321      CG301      CG331
   13    11    12	5 ;     HGPAM1      NG311      CG311
   13    11    10	5 ;     HGPAM1      NG311      CG301
   12    11    10	5 ;      CG311      NG311      CG301
   20    12    11	5 ;      NG321      CG311      NG311
   20    12    14	5 ;      NG321      CG311      NG2S0
   20    12    60	5 ;      NG321      CG311       HGA1
   11    12    14	5 ;      NG311      CG311      NG2S0
   11    12    60	5 ;      NG311      CG311       HGA1
   14    12    60	5 ;      NG2S0      CG311       HGA1
   12    14    15	5 ;      CG311      NG2S0      CG331
   12    14    16	5 ;      CG311      NG2S0      CG2O1
   15    14    16	5 ;      CG331      NG2S0      CG2O1
   14    15    41	5 ;      NG2S0      CG331       HGA3
   14    15    42	5 ;      NG2S0      CG331       HGA3
   14    15    43	5 ;      NG2S0      CG331       HGA3
   41    15    42	5 ;       HGA3      CG331       HGA3
   41    15    43	5 ;       HGA3      CG331       HGA3
   42    15    43	5 ;       HGA3      CG331       HGA3
   14    16    17	5 ;      NG2S0      CG2O1      OG2D1
   14    16    18	5 ;      NG2S0      CG2O1      CG321
   17    16    18	5 ;      OG2D1      CG2O1      CG321
   10    18    16	5 ;      CG301      CG321      CG2O1
   10    18    44	5 ;      CG301      CG321       HGA2
   10    18    45	5 ;      CG301      CG321       HGA2
   16    18    44	5 ;      CG2O1      CG321       HGA2
   16    18    45	5 ;      CG2O1      CG321       HGA2
   44    18    45	5 ;       HGA2      CG321       HGA2
   10    19    46	5 ;      CG301      CG331       HGA3
   10    19    47	5 ;      CG301      CG331       HGA3
   10    19    48	5 ;      CG301      CG331       HGA3
   46    19    47	5 ;       HGA3      CG331       HGA3
   46    19    48	5 ;       HGA3      CG331       HGA3
   47    19    48	5 ;       HGA3      CG331       HGA3
   22    20    12	5 ;     HGPAM2      NG321      CG311
   22    20    21	5 ;     HGPAM2      NG321     HGPAM2
   12    20    21	5 ;      CG311      NG321     HGPAM2
   28    23    24	5 ;     CG2R61     CG2R67     CG2R61
   28    23     1	5 ;     CG2R61     CG2R67     CG2R67
   24    23     1	5 ;     CG2R61     CG2R67     CG2R67
   25    24    23	5 ;     CG2R61     CG2R61     CG2R67
   25    24    49	5 ;     CG2R61     CG2R61      HGR61
   23    24    49	5 ;     CG2R67     CG2R61      HGR61
   26    25    29	5 ;     CG2R61     CG2R61      OG301
   26    25    24	5 ;     CG2R61     CG2R61     CG2R61
   29    25    24	5 ;      OG301     CG2R61     CG2R61
   27    26    25	5 ;     CG2R61     CG2R61     CG2R61
   27    26    50	5 ;     CG2R61     CG2R61      HGR61
   25    26    50	5 ;     CG2R61     CG2R61      HGR61
   26    27    28	5 ;     CG2R61     CG2R61     CG2R61
   26    27    51	5 ;     CG2R61     CG2R61      HGR61
   28    27    51	5 ;     CG2R61     CG2R61      HGR61
   27    28    23	5 ;     CG2R61     CG2R61     CG2R67
   27    28    52	5 ;     CG2R61     CG2R61      HGR61
   23    28    52	5 ;     CG2R67     CG2R61      HGR61
   30    29    25	5 ;      CG321      OG301     CG2R61
   31    30    29	5 ;      CG321      CG321      OG301
   31    30    53	5 ;      CG321      CG321       HGA2
   31    30    54	5 ;      CG321      CG321       HGA2
   29    30    53	5 ;      OG301      CG321       HGA2
   29    30    54	5 ;      OG301      CG321       HGA2
   53    30    54	5 ;       HGA2      CG321       HGA2
   30    31    32	5 ;      CG321      CG321      CG331
   30    31    55	5 ;      CG321      CG321       HGA2
   30    31    56	5 ;      CG321      CG321       HGA2
   32    31    55	5 ;      CG331      CG321       HGA2
   32    31    56	5 ;      CG331      CG321       HGA2
   55    31    56	5 ;       HGA2      CG321       HGA2
   31    32    57	5 ;      CG321      CG331       HGA3
   31    32    58	5 ;      CG321      CG331       HGA3
   31    32    59	5 ;      CG321      CG331       HGA3
   57    32    58	5 ;       HGA3      CG331       HGA3
   57    32    59	5 ;       HGA3      CG331       HGA3
   58    32    59	5 ;       HGA3      CG331       HGA3

[ dihedrals ]
;	ai	  aj	ak	  al funct			  c0			c1			  c2			c3			  c4			c5
    6     1    23    28	 9 ;     CG2R61     CG2R67     CG2R67     CG2R61
    6     1    23    24	 9 ;     CG2R61     CG2R67     CG2R67     CG2R61
    2     1    23    28	 9 ;     CG2R61     CG2R67     CG2R67     CG2R61
    2     1    23    24	 9 ;     CG2R61     CG2R67     CG2R67     CG2R61
   23     1     6     5	 9 ;     CG2R67     CG2R67     CG2R61     CG2R61
   23     1     6    36	 9 ;     CG2R67     CG2R67     CG2R61      HGR61
    2     1     6     5	 9 ;     CG2R61     CG2R67     CG2R61     CG2R61
    2     1     6    36	 9 ;     CG2R61     CG2R67     CG2R61      HGR61
   23     1     2     3	 9 ;     CG2R67     CG2R67     CG2R61     CG2R61
   23     1     2    33	 9 ;     CG2R67     CG2R67     CG2R61      HGR61
    6     1     2     3	 9 ;     CG2R61     CG2R67     CG2R61     CG2R61
    6     1     2    33	 9 ;     CG2R61     CG2R67     CG2R61      HGR61
    1     2     3     4	 9 ;     CG2R67     CG2R61     CG2R61     CG2R61
    1     2     3     7	 9 ;     CG2R67     CG2R61     CG2R61     CG3C31
   33     2     3     4	 9 ;      HGR61     CG2R61     CG2R61     CG2R61
   33     2     3     7	 9 ;      HGR61     CG2R61     CG2R61     CG3C31
    2     3     4     5	 9 ;     CG2R61     CG2R61     CG2R61     CG2R61
    2     3     4    34	 9 ;     CG2R61     CG2R61     CG2R61      HGR61
    7     3     4     5	 9 ;     CG3C31     CG2R61     CG2R61     CG2R61
    7     3     4    34	 9 ;     CG3C31     CG2R61     CG2R61      HGR61
    2     3     7     8	 9 ;     CG2R61     CG2R61     CG3C31     CG3C31
    2     3     7     9	 9 ;     CG2R61     CG2R61     CG3C31     CG3C31
    2     3     7    37	 9 ;     CG2R61     CG2R61     CG3C31       HGA1
    4     3     7     8	 9 ;     CG2R61     CG2R61     CG3C31     CG3C31
    4     3     7     9	 9 ;     CG2R61     CG2R61     CG3C31     CG3C31
    4     3     7    37	 9 ;     CG2R61     CG2R61     CG3C31       HGA1
    3     4     5     6	 9 ;     CG2R61     CG2R61     CG2R61     CG2R61
    3     4     5    35	 9 ;     CG2R61     CG2R61     CG2R61      HGR61
   34     4     5     6	 9 ;      HGR61     CG2R61     CG2R61     CG2R61
   34     4     5    35	 9 ;      HGR61     CG2R61     CG2R61      HGR61
    4     5     6     1	 9 ;     CG2R61     CG2R61     CG2R61     CG2R67
    4     5     6    36	 9 ;     CG2R61     CG2R61     CG2R61      HGR61
   35     5     6     1	 9 ;      HGR61     CG2R61     CG2R61     CG2R67
   35     5     6    36	 9 ;      HGR61     CG2R61     CG2R61      HGR61
    3     7     8     9	 9 ;     CG2R61     CG3C31     CG3C31     CG3C31
    3     7     8    38	 9 ;     CG2R61     CG3C31     CG3C31       HGA2
    3     7     8    39	 9 ;     CG2R61     CG3C31     CG3C31       HGA2
    9     7     8    38	 9 ;     CG3C31     CG3C31     CG3C31       HGA2
    9     7     8    39	 9 ;     CG3C31     CG3C31     CG3C31       HGA2
   37     7     8     9	 9 ;       HGA1     CG3C31     CG3C31     CG3C31
   37     7     8    38	 9 ;       HGA1     CG3C31     CG3C31       HGA2
   37     7     8    39	 9 ;       HGA1     CG3C31     CG3C31       HGA2
    3     7     9     8	 9 ;     CG2R61     CG3C31     CG3C31     CG3C31
    3     7     9    10	 9 ;     CG2R61     CG3C31     CG3C31      CG301
    3     7     9    40	 9 ;     CG2R61     CG3C31     CG3C31       HGA1
    8     7     9    10	 9 ;     CG3C31     CG3C31     CG3C31      CG301
    8     7     9    40	 9 ;     CG3C31     CG3C31     CG3C31       HGA1
   37     7     9     8	 9 ;       HGA1     CG3C31     CG3C31     CG3C31
   37     7     9    10	 9 ;       HGA1     CG3C31     CG3C31      CG301
   37     7     9    40	 9 ;       HGA1     CG3C31     CG3C31       HGA1
    7     8     9    10	 9 ;     CG3C31     CG3C31     CG3C31      CG301
    7     8     9    40	 9 ;     CG3C31     CG3C31     CG3C31       HGA1
   38     8     9     7	 9 ;       HGA2     CG3C31     CG3C31     CG3C31
   38     8     9    10	 9 ;       HGA2     CG3C31     CG3C31      CG301
   38     8     9    40	 9 ;       HGA2     CG3C31     CG3C31       HGA1
   39     8     9     7	 9 ;       HGA2     CG3C31     CG3C31     CG3C31
   39     8     9    10	 9 ;       HGA2     CG3C31     CG3C31      CG301
   39     8     9    40	 9 ;       HGA2     CG3C31     CG3C31       HGA1
    7     9    10    11	 9 ;     CG3C31     CG3C31      CG301      NG311
    7     9    10    18	 9 ;     CG3C31     CG3C31      CG301      CG321
    7     9    10    19	 9 ;     CG3C31     CG3C31      CG301      CG331
    8     9    10    11	 9 ;     CG3C31     CG3C31      CG301      NG311
    8     9    10    18	 9 ;     CG3C31     CG3C31      CG301      CG321
    8     9    10    19	 9 ;     CG3C31     CG3C31      CG301      CG331
   40     9    10    11	 9 ;       HGA1     CG3C31      CG301      NG311
   40     9    10    18	 9 ;       HGA1     CG3C31      CG301      CG321
   40     9    10    19	 9 ;       HGA1     CG3C31      CG301      CG331
    9    10    11    13	 9 ;     CG3C31      CG301      NG311     HGPAM1
    9    10    11    12	 9 ;     CG3C31      CG301      NG311      CG311
   18    10    11    13	 9 ;      CG321      CG301      NG311     HGPAM1
   18    10    11    12	 9 ;      CG321      CG301      NG311      CG311
   19    10    11    13	 9 ;      CG331      CG301      NG311     HGPAM1
   19    10    11    12	 9 ;      CG331      CG301      NG311      CG311
    9    10    18    16	 9 ;     CG3C31      CG301      CG321      CG2O1
    9    10    18    44	 9 ;     CG3C31      CG301      CG321       HGA2
    9    10    18    45	 9 ;     CG3C31      CG301      CG321       HGA2
   11    10    18    16	 9 ;      NG311      CG301      CG321      CG2O1
   11    10    18    44	 9 ;      NG311      CG301      CG321       HGA2
   11    10    18    45	 9 ;      NG311      CG301      CG321       HGA2
   19    10    18    16	 9 ;      CG331      CG301      CG321      CG2O1
   19    10    18    44	 9 ;      CG331      CG301      CG321       HGA2
   19    10    18    45	 9 ;      CG331      CG301      CG321       HGA2
    9    10    19    46	 9 ;     CG3C31      CG301      CG331       HGA3
    9    10    19    47	 9 ;     CG3C31      CG301      CG331       HGA3
    9    10    19    48	 9 ;     CG3C31      CG301      CG331       HGA3
   11    10    19    46	 9 ;      NG311      CG301      CG331       HGA3
   11    10    19    47	 9 ;      NG311      CG301      CG331       HGA3
   11    10    19    48	 9 ;      NG311      CG301      CG331       HGA3
   18    10    19    46	 9 ;      CG321      CG301      CG331       HGA3
   18    10    19    47	 9 ;      CG321      CG301      CG331       HGA3
   18    10    19    48	 9 ;      CG321      CG301      CG331       HGA3
   13    11    12    20	 9 ;     HGPAM1      NG311      CG311      NG321
   13    11    12    14	 9 ;     HGPAM1      NG311      CG311      NG2S0
   13    11    12    60	 9 ;     HGPAM1      NG311      CG311       HGA1
   10    11    12    20	 9 ;      CG301      NG311      CG311      NG321
   10    11    12    14	 9 ;      CG301      NG311      CG311      NG2S0
   10    11    12    60	 9 ;      CG301      NG311      CG311       HGA1
   11    12    20    22	 9 ;      NG311      CG311      NG321     HGPAM2
   11    12    20    21	 9 ;      NG311      CG311      NG321     HGPAM2
   14    12    20    22	 9 ;      NG2S0      CG311      NG321     HGPAM2
   14    12    20    21	 9 ;      NG2S0      CG311      NG321     HGPAM2
   60    12    20    22	 9 ;       HGA1      CG311      NG321     HGPAM2
   60    12    20    21	 9 ;       HGA1      CG311      NG321     HGPAM2
   20    12    14    15	 9 ;      NG321      CG311      NG2S0      CG331
   20    12    14    16	 9 ;      NG321      CG311      NG2S0      CG2O1
   11    12    14    15	 9 ;      NG311      CG311      NG2S0      CG331
   11    12    14    16	 9 ;      NG311      CG311      NG2S0      CG2O1
   60    12    14    15	 9 ;       HGA1      CG311      NG2S0      CG331
   60    12    14    16	 9 ;       HGA1      CG311      NG2S0      CG2O1
   12    14    15    41	 9 ;      CG311      NG2S0      CG331       HGA3
   12    14    15    42	 9 ;      CG311      NG2S0      CG331       HGA3
   12    14    15    43	 9 ;      CG311      NG2S0      CG331       HGA3
   16    14    15    41	 9 ;      CG2O1      NG2S0      CG331       HGA3
   16    14    15    42	 9 ;      CG2O1      NG2S0      CG331       HGA3
   16    14    15    43	 9 ;      CG2O1      NG2S0      CG331       HGA3
   12    14    16    17	 9 ;      CG311      NG2S0      CG2O1      OG2D1
   12    14    16    18	 9 ;      CG311      NG2S0      CG2O1      CG321
   15    14    16    17	 9 ;      CG331      NG2S0      CG2O1      OG2D1
   15    14    16    18	 9 ;      CG331      NG2S0      CG2O1      CG321
   14    16    18    10	 9 ;      NG2S0      CG2O1      CG321      CG301
   14    16    18    44	 9 ;      NG2S0      CG2O1      CG321       HGA2
   14    16    18    45	 9 ;      NG2S0      CG2O1      CG321       HGA2
   17    16    18    10	 9 ;      OG2D1      CG2O1      CG321      CG301
   17    16    18    44	 9 ;      OG2D1      CG2O1      CG321       HGA2
   17    16    18    45	 9 ;      OG2D1      CG2O1      CG321       HGA2
   24    23    28    27	 9 ;     CG2R61     CG2R67     CG2R61     CG2R61
   24    23    28    52	 9 ;     CG2R61     CG2R67     CG2R61      HGR61
    1    23    28    27	 9 ;     CG2R67     CG2R67     CG2R61     CG2R61
    1    23    28    52	 9 ;     CG2R67     CG2R67     CG2R61      HGR61
   28    23    24    25	 9 ;     CG2R61     CG2R67     CG2R61     CG2R61
   28    23    24    49	 9 ;     CG2R61     CG2R67     CG2R61      HGR61
    1    23    24    25	 9 ;     CG2R67     CG2R67     CG2R61     CG2R61
    1    23    24    49	 9 ;     CG2R67     CG2R67     CG2R61      HGR61
   23    24    25    26	 9 ;     CG2R67     CG2R61     CG2R61     CG2R61
   23    24    25    29	 9 ;     CG2R67     CG2R61     CG2R61      OG301
   49    24    25    26	 9 ;      HGR61     CG2R61     CG2R61     CG2R61
   49    24    25    29	 9 ;      HGR61     CG2R61     CG2R61      OG301
   29    25    26    27	 9 ;      OG301     CG2R61     CG2R61     CG2R61
   29    25    26    50	 9 ;      OG301     CG2R61     CG2R61      HGR61
   24    25    26    27	 9 ;     CG2R61     CG2R61     CG2R61     CG2R61
   24    25    26    50	 9 ;     CG2R61     CG2R61     CG2R61      HGR61
   26    25    29    30	 9 ;     CG2R61     CG2R61      OG301      CG321
   24    25    29    30	 9 ;     CG2R61     CG2R61      OG301      CG321
   25    26    27    28	 9 ;     CG2R61     CG2R61     CG2R61     CG2R61
   25    26    27    51	 9 ;     CG2R61     CG2R61     CG2R61      HGR61
   50    26    27    28	 9 ;      HGR61     CG2R61     CG2R61     CG2R61
   50    26    27    51	 9 ;      HGR61     CG2R61     CG2R61      HGR61
   26    27    28    23	 9 ;     CG2R61     CG2R61     CG2R61     CG2R67
   26    27    28    52	 9 ;     CG2R61     CG2R61     CG2R61      HGR61
   51    27    28    23	 9 ;      HGR61     CG2R61     CG2R61     CG2R67
   51    27    28    52	 9 ;      HGR61     CG2R61     CG2R61      HGR61
   25    29    30    31	 9 ;     CG2R61      OG301      CG321      CG321
   25    29    30    53	 9 ;     CG2R61      OG301      CG321       HGA2
   25    29    30    54	 9 ;     CG2R61      OG301      CG321       HGA2
   29    30    31    32	 9 ;      OG301      CG321      CG321      CG331
   29    30    31    55	 9 ;      OG301      CG321      CG321       HGA2
   29    30    31    56	 9 ;      OG301      CG321      CG321       HGA2
   53    30    31    32	 9 ;       HGA2      CG321      CG321      CG331
   53    30    31    55	 9 ;       HGA2      CG321      CG321       HGA2
   53    30    31    56	 9 ;       HGA2      CG321      CG321       HGA2
   54    30    31    32	 9 ;       HGA2      CG321      CG321      CG331
   54    30    31    55	 9 ;       HGA2      CG321      CG321       HGA2
   54    30    31    56	 9 ;       HGA2      CG321      CG321       HGA2
   30    31    32    57	 9 ;      CG321      CG321      CG331       HGA3
   30    31    32    58	 9 ;      CG321      CG321      CG331       HGA3
   30    31    32    59	 9 ;      CG321      CG321      CG331       HGA3
   55    31    32    57	 9 ;       HGA2      CG321      CG331       HGA3
   55    31    32    58	 9 ;       HGA2      CG321      CG331       HGA3
   55    31    32    59	 9 ;       HGA2      CG321      CG331       HGA3
   56    31    32    57	 9 ;       HGA2      CG321      CG331       HGA3
   56    31    32    58	 9 ;       HGA2      CG321      CG331       HGA3
   56    31    32    59	 9 ;       HGA2      CG321      CG331       HGA3

[ dihedrals ]
;	ai	  aj	ak	  al funct			  c0			c1			  c2			c3
   16    18    14    17	 2

