GRoups of Organic Molecules in ACtion for Science
   89
    1LIG     C1    1  -1.881   0.424  -1.428
    1LIG     O1    2  -1.849   0.370  -1.323
    1LIG     N1    3  -2.014   0.448  -1.461
    1LIG     H1    4  -2.034   0.494  -1.549
    1LIG     C2    5  -1.770   0.463  -1.525
    1LIG     C3    6  -1.650   0.393  -1.532
    1LIG     C4    7  -1.541   0.447  -1.603
    1LIG     C5    8  -1.558   0.562  -1.682
    1LIG     C6    9  -1.679   0.631  -1.681
    1LIG     C7   10  -1.784   0.582  -1.599
    1LIG     C8   11  -1.401   0.400  -1.583
    1LIG     O2   12  -1.321   0.417  -1.674
    1LIG     N2   13  -1.367   0.348  -1.460
    1LIG     H2   14  -1.436   0.339  -1.388
    1LIG     C9   15  -1.230   0.325  -1.414
    1LIG    C10   16  -1.194   0.391  -1.281
    1LIG    C11   17  -1.195   0.177  -1.418
    1LIG    C12   18  -1.252   0.094  -1.516
    1LIG    C13   19  -1.217  -0.041  -1.525
    1LIG    C14   20  -1.125  -0.096  -1.434
    1LIG    C15   21  -1.070  -0.015  -1.335
    1LIG    C16   22  -1.105   0.120  -1.326
    1LIG     N3   23  -1.685   0.756  -1.754
    1LIG    C17   24  -1.782   0.761  -1.866
    1LIG      S   25  -1.680   0.898  -1.659
    1LIG     O3   26  -1.592   0.876  -1.546
    1LIG     O4   27  -1.815   0.946  -1.638
    1LIG    C18   28  -1.602   1.018  -1.768
    1LIG    C19   29  -2.140   0.396  -1.394
    1LIG    C20   30  -2.270   0.479  -1.416
    1LIG     O5   31  -2.235   0.617  -1.433
    1LIG     H3   32  -2.308   0.667  -1.389
    1LIG    C21   33  -2.360   0.445  -1.538
    1LIG    C22   34  -2.325   0.510  -1.674
    1LIG    C23   35  -2.232   0.419  -1.757
    1LIG     O6   36  -2.092   0.451  -1.745
    1LIG    C24   37  -2.016   0.340  -1.795
    1LIG    C25   38  -1.895   0.377  -1.876
    1LIG    C26   39  -1.777   0.315  -1.883
    1LIG     O7   40  -2.443   0.551  -1.745
    1LIG    C27   41  -2.534   0.451  -1.787
    1LIG    C28   42  -2.162   0.246  -1.431
    1LIG     O8   43  -2.107   0.158  -1.331
    1LIG    C29   44  -2.155   0.032  -1.320
    1LIG    C30   45  -2.131  -0.030  -1.197
    1LIG    C31   46  -2.162  -0.164  -1.178
    1LIG     F1   47  -2.130  -0.223  -1.062
    1LIG    C32   48  -2.222  -0.238  -1.279
    1LIG    C33   49  -2.255  -0.174  -1.397
    1LIG     F2   50  -2.318  -0.243  -1.494
    1LIG    C34   51  -2.224  -0.040  -1.419
    1LIG     HC   52  -1.640   0.297  -1.483
    1LIG    HC1   53  -1.477   0.598  -1.743
    1LIG    HC2   54  -1.876   0.638  -1.594
    1LIG    HC3   55  -1.166   0.372  -1.488
    1LIG    HC4   56  -1.234   0.492  -1.279
    1LIG    HC5   57  -1.237   0.333  -1.199
    1LIG    HC6   58  -1.086   0.394  -1.271
    1LIG    HC7   59  -1.323   0.134  -1.586
    1LIG    HC8   60  -1.260  -0.104  -1.601
    1LIG    HC9   61  -1.098  -0.200  -1.441
    1LIG   HC10   62  -1.000  -0.057  -1.264
    1LIG   HC11   63  -1.062   0.181  -1.249
    1LIG   HC12   64  -1.778   0.859  -1.913
    1LIG   HC13   65  -1.756   0.685  -1.940
    1LIG   HC14   66  -1.882   0.743  -1.828
    1LIG   HC15   67  -1.549   1.092  -1.708
    1LIG   HC16   68  -1.532   0.967  -1.833
    1LIG   HC17   69  -1.679   1.067  -1.828
    1LIG   HC18   70  -2.120   0.398  -1.287
    1LIG   HC19   71  -2.331   0.471  -1.326
    1LIG   HC20   72  -2.462   0.476  -1.513
    1LIG   HC21   73  -2.360   0.337  -1.551
    1LIG   HC22   74  -2.268   0.601  -1.652
    1LIG   HC23   75  -2.260   0.429  -1.862
    1LIG   HC24   76  -2.247   0.316  -1.726
    1LIG   HC25   77  -1.983   0.281  -1.709
    1LIG   HC26   78  -2.082   0.278  -1.856
    1LIG   HC27   79  -1.906   0.465  -1.937
    1LIG   HC28   80  -1.699   0.355  -1.947
    1LIG   HC29   81  -1.758   0.226  -1.825
    1LIG   HC30   82  -2.618   0.497  -1.839
    1LIG   HC31   83  -2.484   0.381  -1.854
    1LIG   HC32   84  -2.572   0.397  -1.700
    1LIG   HC33   85  -2.115   0.225  -1.527
    1LIG   HC34   86  -2.270   0.227  -1.439
    1LIG   HC35   87  -2.088   0.028  -1.116
    1LIG   HC36   88  -2.242  -0.343  -1.265
    1LIG   HC37   89  -2.251   0.009  -1.511
   0.00000   0.00000   0.00000
