; Created by cgenff_charmm2gmx.py

[ moleculetype ]
; Name			   nrexcl
LIG				 3

[ atoms ]
;	 nr		  type	resnr residue  atom   cgnr	   charge		mass  typeB    chargeB		massB
; residue	 1 LIG rtp LIG q	qsum
     1      CG2O1      1    LIG     C1      1      0.302     12.011   ;
     2      OG2D1      1    LIG     O1      2     -0.463     15.999   ;
     3      NG2S1      1    LIG     N1      3     -0.238     14.007   ;
     4       HGP1      1    LIG     H1      4      0.262      1.008   ;
     5     CG2R61      1    LIG     C2      5     -0.101     12.011   ;
     6     CG2R61      1    LIG     C3      6     -0.004     12.011   ;
     7     CG2R61      1    LIG     C4      7     -0.101     12.011   ;
     8     CG2R61      1    LIG     C5      8     -0.064     12.011   ;
     9     CG2R61      1    LIG     C6      9      0.138     12.011   ;
    10     CG2R61      1    LIG     C7     10     -0.064     12.011   ;
    11      CG2O1      1    LIG     C8     11      0.320     12.011   ;
    12      OG2D1      1    LIG     O2     12     -0.463     15.999   ;
    13      NG2S1      1    LIG     N2     13     -0.366     14.007   ;
    14       HGP1      1    LIG     H2     14      0.314      1.008   ;
    15      CG311      1    LIG     C9     15      0.138     12.011   ;
    16      CG331      1    LIG    C10     16     -0.265     12.011   ;
    17     CG2R61      1    LIG    C11     17     -0.111     12.011   ;
    18     CG2R61      1    LIG    C12     18     -0.086     12.011   ;
    19     CG2R61      1    LIG    C13     19     -0.114     12.011   ;
    20     CG2R61      1    LIG    C14     20     -0.116     12.011   ;
    21     CG2R61      1    LIG    C15     21     -0.114     12.011   ;
    22     CG2R61      1    LIG    C16     22     -0.086     12.011   ;
    23      NG301      1    LIG     N3     23     -0.228     14.007   ;
    24      CG331      1    LIG    C17     24     -0.103     12.011   ;
    25      SG3O2      1    LIG      S     25      0.397     32.060   ;
    26      OG2P1      1    LIG     O3     26     -0.388     15.999   ;
    27      OG2P1      1    LIG     O4     27     -0.388     15.999   ;
    28      CG331      1    LIG    C18     28      0.036     12.011   ;
    29      CG311      1    LIG    C19     29      0.001     12.011   ;
    30      CG311      1    LIG    C20     30      0.124     12.011   ;
    31      OG311      1    LIG     O5     31     -0.648     15.999   ;
    32       HGP1      1    LIG     H3     32      0.421      1.008   ;
    33      CG321      1    LIG    C21     33     -0.131     12.011   ;
    34      CG311      1    LIG    C22     34      0.097     12.011   ;
    35      CG321      1    LIG    C23     35     -0.034     12.011   ;
    36      OG301      1    LIG     O6     36     -0.295     15.999   ;
    37      CG321      1    LIG    C24     37      0.099     12.011   ;
    38      CG2D1      1    LIG    C25     38     -0.391     12.011   ;
    39      CG2D2      1    LIG    C26     39     -0.331     12.011   ;
    40      OG301      1    LIG     O7     40     -0.392     15.999   ;
    41      CG331      1    LIG    C27     41     -0.091     12.011   ;
    42      CG321      1    LIG    C28     42      0.009     12.011   ;
    43      OG301      1    LIG     O8     43     -0.177     15.999   ;
    44     CG2R61      1    LIG    C29     44      0.384     12.011   ;
    45     CG2R61      1    LIG    C30     45     -0.410     12.011   ;
    46     CG2R66      1    LIG    C31     46      0.283     12.011   ;
    47       FGR1      1    LIG     F1     47     -0.210     18.998   ;
    48     CG2R61      1    LIG    C32     48     -0.240     12.011   ;
    49     CG2R66      1    LIG    C33     49      0.283     12.011   ;
    50       FGR1      1    LIG     F2     50     -0.210     18.998   ;
    51     CG2R61      1    LIG    C34     51     -0.410     12.011   ;
    52      HGR61      1    LIG     HC     52      0.116      1.008   ;
    53      HGR61      1    LIG    HC1     53      0.116      1.008   ;
    54      HGR61      1    LIG    HC2     54      0.116      1.008   ;
    55       HGA1      1    LIG    HC3     55      0.090      1.008   ;
    56       HGA3      1    LIG    HC4     56      0.090      1.008   ;
    57       HGA3      1    LIG    HC5     57      0.090      1.008   ;
    58       HGA3      1    LIG    HC6     58      0.090      1.008   ;
    59      HGR61      1    LIG    HC7     59      0.116      1.008   ;
    60      HGR61      1    LIG    HC8     60      0.116      1.008   ;
    61      HGR61      1    LIG    HC9     61      0.116      1.008   ;
    62      HGR61      1    LIG   HC10     62      0.116      1.008   ;
    63      HGR61      1    LIG   HC11     63      0.116      1.008   ;
    64       HGA3      1    LIG   HC12     64      0.090      1.008   ;
    65       HGA3      1    LIG   HC13     65      0.090      1.008   ;
    66       HGA3      1    LIG   HC14     66      0.090      1.008   ;
    67       HGA3      1    LIG   HC15     67      0.090      1.008   ;
    68       HGA3      1    LIG   HC16     68      0.090      1.008   ;
    69       HGA3      1    LIG   HC17     69      0.090      1.008   ;
    70       HGA1      1    LIG   HC18     70      0.090      1.008   ;
    71       HGA1      1    LIG   HC19     71      0.090      1.008   ;
    72       HGA2      1    LIG   HC20     72      0.090      1.008   ;
    73       HGA2      1    LIG   HC21     73      0.090      1.008   ;
    74       HGA1      1    LIG   HC22     74      0.090      1.008   ;
    75       HGA2      1    LIG   HC23     75      0.090      1.008   ;
    76       HGA2      1    LIG   HC24     76      0.090      1.008   ;
    77       HGA2      1    LIG   HC25     77      0.090      1.008   ;
    78       HGA2      1    LIG   HC26     78      0.090      1.008   ;
    79       HGA4      1    LIG   HC27     79      0.173      1.008   ;
    80       HGA5      1    LIG   HC28     80      0.210      1.008   ;
    81       HGA5      1    LIG   HC29     81      0.210      1.008   ;
    82       HGA3      1    LIG   HC30     82      0.090      1.008   ;
    83       HGA3      1    LIG   HC31     83      0.090      1.008   ;
    84       HGA3      1    LIG   HC32     84      0.090      1.008   ;
    85       HGA2      1    LIG   HC33     85      0.090      1.008   ;
    86       HGA2      1    LIG   HC34     86      0.090      1.008   ;
    87      HGR62      1    LIG   HC35     87      0.179      1.008   ;
    88      HGR62      1    LIG   HC36     88      0.186      1.008   ;
    89      HGR62      1    LIG   HC37     89      0.179      1.008   ;

[ bonds ]
;	ai	  aj funct			  c0			c1			  c2			c3
    1     5	 1 ;       CG2O1     CG2R61
    1     2	 1 ;       CG2O1      OG2D1
    1     3	 1 ;       CG2O1      NG2S1
    3     4	 1 ;       NG2S1       HGP1
    3    29	 1 ;       NG2S1      CG311
    5     6	 1 ;      CG2R61     CG2R61
    5    10	 1 ;      CG2R61     CG2R61
    6     7	 1 ;      CG2R61     CG2R61
    6    52	 1 ;      CG2R61      HGR61
    7    11	 1 ;      CG2R61      CG2O1
    7     8	 1 ;      CG2R61     CG2R61
    8     9	 1 ;      CG2R61     CG2R61
    8    53	 1 ;      CG2R61      HGR61
    9    23	 1 ;      CG2R61      NG301
    9    10	 1 ;      CG2R61     CG2R61
   10    54	 1 ;      CG2R61      HGR61
   11    12	 1 ;       CG2O1      OG2D1
   11    13	 1 ;       CG2O1      NG2S1
   13    15	 1 ;       NG2S1      CG311
   13    14	 1 ;       NG2S1       HGP1
   15    17	 1 ;       CG311     CG2R61
   15    16	 1 ;       CG311      CG331
   15    55	 1 ;       CG311       HGA1
   16    56	 1 ;       CG331       HGA3
   16    57	 1 ;       CG331       HGA3
   16    58	 1 ;       CG331       HGA3
   17    22	 1 ;      CG2R61     CG2R61
   17    18	 1 ;      CG2R61     CG2R61
   18    19	 1 ;      CG2R61     CG2R61
   18    59	 1 ;      CG2R61      HGR61
   19    20	 1 ;      CG2R61     CG2R61
   19    60	 1 ;      CG2R61      HGR61
   20    21	 1 ;      CG2R61     CG2R61
   20    61	 1 ;      CG2R61      HGR61
   21    22	 1 ;      CG2R61     CG2R61
   21    62	 1 ;      CG2R61      HGR61
   22    63	 1 ;      CG2R61      HGR61
   23    24	 1 ;       NG301      CG331
   23    25	 1 ;       NG301      SG3O2
   24    64	 1 ;       CG331       HGA3
   24    65	 1 ;       CG331       HGA3
   24    66	 1 ;       CG331       HGA3
   25    28	 1 ;       SG3O2      CG331
   25    26	 1 ;       SG3O2      OG2P1
   25    27	 1 ;       SG3O2      OG2P1
   28    67	 1 ;       CG331       HGA3
   28    68	 1 ;       CG331       HGA3
   28    69	 1 ;       CG331       HGA3
   29    42	 1 ;       CG311      CG321
   29    30	 1 ;       CG311      CG311
   29    70	 1 ;       CG311       HGA1
   30    31	 1 ;       CG311      OG311
   30    33	 1 ;       CG311      CG321
   30    71	 1 ;       CG311       HGA1
   31    32	 1 ;       OG311       HGP1
   33    34	 1 ;       CG321      CG311
   33    72	 1 ;       CG321       HGA2
   33    73	 1 ;       CG321       HGA2
   34    35	 1 ;       CG311      CG321
   34    40	 1 ;       CG311      OG301
   34    74	 1 ;       CG311       HGA1
   35    36	 1 ;       CG321      OG301
   35    75	 1 ;       CG321       HGA2
   35    76	 1 ;       CG321       HGA2
   36    37	 1 ;       OG301      CG321
   37    38	 1 ;       CG321      CG2D1
   37    77	 1 ;       CG321       HGA2
   37    78	 1 ;       CG321       HGA2
   38    39	 1 ;       CG2D1      CG2D2
   38    79	 1 ;       CG2D1       HGA4
   39    80	 1 ;       CG2D2       HGA5
   39    81	 1 ;       CG2D2       HGA5
   40    41	 1 ;       OG301      CG331
   41    82	 1 ;       CG331       HGA3
   41    83	 1 ;       CG331       HGA3
   41    84	 1 ;       CG331       HGA3
   42    43	 1 ;       CG321      OG301
   42    85	 1 ;       CG321       HGA2
   42    86	 1 ;       CG321       HGA2
   43    44	 1 ;       OG301     CG2R61
   44    51	 1 ;      CG2R61     CG2R61
   44    45	 1 ;      CG2R61     CG2R61
   45    46	 1 ;      CG2R61     CG2R66
   45    87	 1 ;      CG2R61      HGR62
   46    48	 1 ;      CG2R66     CG2R61
   46    47	 1 ;      CG2R66       FGR1
   48    49	 1 ;      CG2R61     CG2R66
   48    88	 1 ;      CG2R61      HGR62
   49    51	 1 ;      CG2R66     CG2R61
   49    50	 1 ;      CG2R66       FGR1
   51    89	 1 ;      CG2R61      HGR62

[ pairs ]
;	ai	  aj funct			  c0			c1			  c2			c3
    1    42	 1
    1    30	 1
    1    70	 1
    1     7	 1
    1    52	 1
    1     9	 1
    1    54	 1
    2     6	 1
    2    10	 1
    2     4	 1
    2    29	 1
    3     6	 1
    3    10	 1
    3    43	 1
    3    85	 1
    3    86	 1
    3    31	 1
    3    33	 1
    3    71	 1
    4     5	 1
    4    42	 1
    4    30	 1
    4    70	 1
    5    29	 1
    5    11	 1
    5     8	 1
    5    23	 1
    6     9	 1
    6    54	 1
    6    12	 1
    6    13	 1
    6    53	 1
    7    10	 1
    7    23	 1
    7    15	 1
    7    14	 1
    8    52	 1
    8    12	 1
    8    13	 1
    8    24	 1
    8    25	 1
    8    54	 1
    9    11	 1
    9    64	 1
    9    65	 1
    9    66	 1
    9    28	 1
    9    26	 1
    9    27	 1
   10    52	 1
   10    53	 1
   10    24	 1
   10    25	 1
   11    52	 1
   11    53	 1
   11    17	 1
   11    16	 1
   11    55	 1
   12    15	 1
   12    14	 1
   13    22	 1
   13    18	 1
   13    56	 1
   13    57	 1
   13    58	 1
   14    17	 1
   14    16	 1
   14    55	 1
   15    21	 1
   15    63	 1
   15    19	 1
   15    59	 1
   16    22	 1
   16    18	 1
   17    56	 1
   17    57	 1
   17    58	 1
   17    20	 1
   17    60	 1
   17    62	 1
   18    55	 1
   18    21	 1
   18    63	 1
   18    61	 1
   19    22	 1
   19    62	 1
   20    59	 1
   20    63	 1
   21    60	 1
   22    55	 1
   22    59	 1
   22    61	 1
   23    53	 1
   23    54	 1
   23    67	 1
   23    68	 1
   23    69	 1
   24    28	 1
   24    26	 1
   24    27	 1
   25    64	 1
   25    65	 1
   25    66	 1
   26    67	 1
   26    68	 1
   26    69	 1
   27    67	 1
   27    68	 1
   27    69	 1
   29    32	 1
   29    34	 1
   29    72	 1
   29    73	 1
   29    44	 1
   30    43	 1
   30    85	 1
   30    86	 1
   30    35	 1
   30    40	 1
   30    74	 1
   31    42	 1
   31    70	 1
   31    34	 1
   31    72	 1
   31    73	 1
   32    33	 1
   32    71	 1
   33    42	 1
   33    70	 1
   33    36	 1
   33    75	 1
   33    76	 1
   33    41	 1
   34    71	 1
   34    37	 1
   34    82	 1
   34    83	 1
   34    84	 1
   35    72	 1
   35    73	 1
   35    41	 1
   35    38	 1
   35    77	 1
   35    78	 1
   36    40	 1
   36    74	 1
   36    39	 1
   36    79	 1
   37    75	 1
   37    76	 1
   37    80	 1
   37    81	 1
   39    77	 1
   39    78	 1
   40    72	 1
   40    73	 1
   40    75	 1
   40    76	 1
   41    74	 1
   42    71	 1
   42    51	 1
   42    45	 1
   43    70	 1
   43    49	 1
   43    89	 1
   43    46	 1
   43    87	 1
   44    85	 1
   44    86	 1
   44    48	 1
   44    47	 1
   44    50	 1
   45    49	 1
   45    89	 1
   45    88	 1
   46    51	 1
   46    50	 1
   47    87	 1
   47    49	 1
   47    88	 1
   48    87	 1
   48    89	 1
   50    88	 1
   50    89	 1
   51    87	 1
   51    88	 1
   55    56	 1
   55    57	 1
   55    58	 1
   59    60	 1
   60    61	 1
   61    62	 1
   62    63	 1
   70    85	 1
   70    86	 1
   70    71	 1
   71    72	 1
   71    73	 1
   72    74	 1
   73    74	 1
   74    75	 1
   74    76	 1
   77    79	 1
   78    79	 1
   79    80	 1
   79    81	 1

[ angles ]
;	ai	  aj	ak funct			c0			  c1			c2			  c3
    5     1     2	5 ;     CG2R61      CG2O1      OG2D1
    5     1     3	5 ;     CG2R61      CG2O1      NG2S1
    2     1     3	5 ;      OG2D1      CG2O1      NG2S1
    1     3     4	5 ;      CG2O1      NG2S1       HGP1
    1     3    29	5 ;      CG2O1      NG2S1      CG311
    4     3    29	5 ;       HGP1      NG2S1      CG311
    6     5    10	5 ;     CG2R61     CG2R61     CG2R61
    6     5     1	5 ;     CG2R61     CG2R61      CG2O1
   10     5     1	5 ;     CG2R61     CG2R61      CG2O1
    7     6     5	5 ;     CG2R61     CG2R61     CG2R61
    7     6    52	5 ;     CG2R61     CG2R61      HGR61
    5     6    52	5 ;     CG2R61     CG2R61      HGR61
   11     7     8	5 ;      CG2O1     CG2R61     CG2R61
   11     7     6	5 ;      CG2O1     CG2R61     CG2R61
    8     7     6	5 ;     CG2R61     CG2R61     CG2R61
    7     8     9	5 ;     CG2R61     CG2R61     CG2R61
    7     8    53	5 ;     CG2R61     CG2R61      HGR61
    9     8    53	5 ;     CG2R61     CG2R61      HGR61
    8     9    23	5 ;     CG2R61     CG2R61      NG301
    8     9    10	5 ;     CG2R61     CG2R61     CG2R61
   23     9    10	5 ;      NG301     CG2R61     CG2R61
    9    10     5	5 ;     CG2R61     CG2R61     CG2R61
    9    10    54	5 ;     CG2R61     CG2R61      HGR61
    5    10    54	5 ;     CG2R61     CG2R61      HGR61
   12    11    13	5 ;      OG2D1      CG2O1      NG2S1
   12    11     7	5 ;      OG2D1      CG2O1     CG2R61
   13    11     7	5 ;      NG2S1      CG2O1     CG2R61
   15    13    11	5 ;      CG311      NG2S1      CG2O1
   15    13    14	5 ;      CG311      NG2S1       HGP1
   11    13    14	5 ;      CG2O1      NG2S1       HGP1
   17    15    16	5 ;     CG2R61      CG311      CG331
   17    15    13	5 ;     CG2R61      CG311      NG2S1
   17    15    55	5 ;     CG2R61      CG311       HGA1
   16    15    13	5 ;      CG331      CG311      NG2S1
   16    15    55	5 ;      CG331      CG311       HGA1
   13    15    55	5 ;      NG2S1      CG311       HGA1
   15    16    56	5 ;      CG311      CG331       HGA3
   15    16    57	5 ;      CG311      CG331       HGA3
   15    16    58	5 ;      CG311      CG331       HGA3
   56    16    57	5 ;       HGA3      CG331       HGA3
   56    16    58	5 ;       HGA3      CG331       HGA3
   57    16    58	5 ;       HGA3      CG331       HGA3
   22    17    15	5 ;     CG2R61     CG2R61      CG311
   22    17    18	5 ;     CG2R61     CG2R61     CG2R61
   15    17    18	5 ;      CG311     CG2R61     CG2R61
   17    18    19	5 ;     CG2R61     CG2R61     CG2R61
   17    18    59	5 ;     CG2R61     CG2R61      HGR61
   19    18    59	5 ;     CG2R61     CG2R61      HGR61
   20    19    18	5 ;     CG2R61     CG2R61     CG2R61
   20    19    60	5 ;     CG2R61     CG2R61      HGR61
   18    19    60	5 ;     CG2R61     CG2R61      HGR61
   21    20    19	5 ;     CG2R61     CG2R61     CG2R61
   21    20    61	5 ;     CG2R61     CG2R61      HGR61
   19    20    61	5 ;     CG2R61     CG2R61      HGR61
   20    21    22	5 ;     CG2R61     CG2R61     CG2R61
   20    21    62	5 ;     CG2R61     CG2R61      HGR61
   22    21    62	5 ;     CG2R61     CG2R61      HGR61
   21    22    17	5 ;     CG2R61     CG2R61     CG2R61
   21    22    63	5 ;     CG2R61     CG2R61      HGR61
   17    22    63	5 ;     CG2R61     CG2R61      HGR61
   24    23    25	5 ;      CG331      NG301      SG3O2
   24    23     9	5 ;      CG331      NG301     CG2R61
   25    23     9	5 ;      SG3O2      NG301     CG2R61
   23    24    64	5 ;      NG301      CG331       HGA3
   23    24    65	5 ;      NG301      CG331       HGA3
   23    24    66	5 ;      NG301      CG331       HGA3
   64    24    65	5 ;       HGA3      CG331       HGA3
   64    24    66	5 ;       HGA3      CG331       HGA3
   65    24    66	5 ;       HGA3      CG331       HGA3
   28    25    23	5 ;      CG331      SG3O2      NG301
   28    25    26	5 ;      CG331      SG3O2      OG2P1
   28    25    27	5 ;      CG331      SG3O2      OG2P1
   23    25    26	5 ;      NG301      SG3O2      OG2P1
   23    25    27	5 ;      NG301      SG3O2      OG2P1
   26    25    27	5 ;      OG2P1      SG3O2      OG2P1
   25    28    67	5 ;      SG3O2      CG331       HGA3
   25    28    68	5 ;      SG3O2      CG331       HGA3
   25    28    69	5 ;      SG3O2      CG331       HGA3
   67    28    68	5 ;       HGA3      CG331       HGA3
   67    28    69	5 ;       HGA3      CG331       HGA3
   68    28    69	5 ;       HGA3      CG331       HGA3
    3    29    42	5 ;      NG2S1      CG311      CG321
    3    29    30	5 ;      NG2S1      CG311      CG311
    3    29    70	5 ;      NG2S1      CG311       HGA1
   42    29    30	5 ;      CG321      CG311      CG311
   42    29    70	5 ;      CG321      CG311       HGA1
   30    29    70	5 ;      CG311      CG311       HGA1
   29    30    31	5 ;      CG311      CG311      OG311
   29    30    33	5 ;      CG311      CG311      CG321
   29    30    71	5 ;      CG311      CG311       HGA1
   31    30    33	5 ;      OG311      CG311      CG321
   31    30    71	5 ;      OG311      CG311       HGA1
   33    30    71	5 ;      CG321      CG311       HGA1
   30    31    32	5 ;      CG311      OG311       HGP1
   34    33    30	5 ;      CG311      CG321      CG311
   34    33    72	5 ;      CG311      CG321       HGA2
   34    33    73	5 ;      CG311      CG321       HGA2
   30    33    72	5 ;      CG311      CG321       HGA2
   30    33    73	5 ;      CG311      CG321       HGA2
   72    33    73	5 ;       HGA2      CG321       HGA2
   35    34    40	5 ;      CG321      CG311      OG301
   35    34    33	5 ;      CG321      CG311      CG321
   35    34    74	5 ;      CG321      CG311       HGA1
   40    34    33	5 ;      OG301      CG311      CG321
   40    34    74	5 ;      OG301      CG311       HGA1
   33    34    74	5 ;      CG321      CG311       HGA1
   36    35    34	5 ;      OG301      CG321      CG311
   36    35    75	5 ;      OG301      CG321       HGA2
   36    35    76	5 ;      OG301      CG321       HGA2
   34    35    75	5 ;      CG311      CG321       HGA2
   34    35    76	5 ;      CG311      CG321       HGA2
   75    35    76	5 ;       HGA2      CG321       HGA2
   37    36    35	5 ;      CG321      OG301      CG321
   38    37    36	5 ;      CG2D1      CG321      OG301
   38    37    77	5 ;      CG2D1      CG321       HGA2
   38    37    78	5 ;      CG2D1      CG321       HGA2
   36    37    77	5 ;      OG301      CG321       HGA2
   36    37    78	5 ;      OG301      CG321       HGA2
   77    37    78	5 ;       HGA2      CG321       HGA2
   39    38    37	5 ;      CG2D2      CG2D1      CG321
   39    38    79	5 ;      CG2D2      CG2D1       HGA4
   37    38    79	5 ;      CG321      CG2D1       HGA4
   38    39    80	5 ;      CG2D1      CG2D2       HGA5
   38    39    81	5 ;      CG2D1      CG2D2       HGA5
   80    39    81	5 ;       HGA5      CG2D2       HGA5
   34    40    41	5 ;      CG311      OG301      CG331
   40    41    82	5 ;      OG301      CG331       HGA3
   40    41    83	5 ;      OG301      CG331       HGA3
   40    41    84	5 ;      OG301      CG331       HGA3
   82    41    83	5 ;       HGA3      CG331       HGA3
   82    41    84	5 ;       HGA3      CG331       HGA3
   83    41    84	5 ;       HGA3      CG331       HGA3
   29    42    43	5 ;      CG311      CG321      OG301
   29    42    85	5 ;      CG311      CG321       HGA2
   29    42    86	5 ;      CG311      CG321       HGA2
   43    42    85	5 ;      OG301      CG321       HGA2
   43    42    86	5 ;      OG301      CG321       HGA2
   85    42    86	5 ;       HGA2      CG321       HGA2
   42    43    44	5 ;      CG321      OG301     CG2R61
   43    44    51	5 ;      OG301     CG2R61     CG2R61
   43    44    45	5 ;      OG301     CG2R61     CG2R61
   51    44    45	5 ;     CG2R61     CG2R61     CG2R61
   44    45    46	5 ;     CG2R61     CG2R61     CG2R66
   44    45    87	5 ;     CG2R61     CG2R61      HGR62
   46    45    87	5 ;     CG2R66     CG2R61      HGR62
   45    46    48	5 ;     CG2R61     CG2R66     CG2R61
   45    46    47	5 ;     CG2R61     CG2R66       FGR1
   48    46    47	5 ;     CG2R61     CG2R66       FGR1
   49    48    46	5 ;     CG2R66     CG2R61     CG2R66
   49    48    88	5 ;     CG2R66     CG2R61      HGR62
   46    48    88	5 ;     CG2R66     CG2R61      HGR62
   51    49    50	5 ;     CG2R61     CG2R66       FGR1
   51    49    48	5 ;     CG2R61     CG2R66     CG2R61
   50    49    48	5 ;       FGR1     CG2R66     CG2R61
   44    51    49	5 ;     CG2R61     CG2R61     CG2R66
   44    51    89	5 ;     CG2R61     CG2R61      HGR62
   49    51    89	5 ;     CG2R66     CG2R61      HGR62

[ dihedrals ]
;	ai	  aj	ak	  al funct			  c0			c1			  c2			c3			  c4			c5
    2     1     5     6	 9 ;      OG2D1      CG2O1     CG2R61     CG2R61
    2     1     5    10	 9 ;      OG2D1      CG2O1     CG2R61     CG2R61
    3     1     5     6	 9 ;      NG2S1      CG2O1     CG2R61     CG2R61
    3     1     5    10	 9 ;      NG2S1      CG2O1     CG2R61     CG2R61
    5     1     3     4	 9 ;     CG2R61      CG2O1      NG2S1       HGP1
    5     1     3    29	 9 ;     CG2R61      CG2O1      NG2S1      CG311
    2     1     3     4	 9 ;      OG2D1      CG2O1      NG2S1       HGP1
    2     1     3    29	 9 ;      OG2D1      CG2O1      NG2S1      CG311
    1     3    29    42	 9 ;      CG2O1      NG2S1      CG311      CG321
    1     3    29    30	 9 ;      CG2O1      NG2S1      CG311      CG311
    1     3    29    70	 9 ;      CG2O1      NG2S1      CG311       HGA1
    4     3    29    42	 9 ;       HGP1      NG2S1      CG311      CG321
    4     3    29    30	 9 ;       HGP1      NG2S1      CG311      CG311
    4     3    29    70	 9 ;       HGP1      NG2S1      CG311       HGA1
   10     5     6     7	 9 ;     CG2R61     CG2R61     CG2R61     CG2R61
   10     5     6    52	 9 ;     CG2R61     CG2R61     CG2R61      HGR61
    1     5     6     7	 9 ;      CG2O1     CG2R61     CG2R61     CG2R61
    1     5     6    52	 9 ;      CG2O1     CG2R61     CG2R61      HGR61
    6     5    10     9	 9 ;     CG2R61     CG2R61     CG2R61     CG2R61
    6     5    10    54	 9 ;     CG2R61     CG2R61     CG2R61      HGR61
    1     5    10     9	 9 ;      CG2O1     CG2R61     CG2R61     CG2R61
    1     5    10    54	 9 ;      CG2O1     CG2R61     CG2R61      HGR61
    5     6     7    11	 9 ;     CG2R61     CG2R61     CG2R61      CG2O1
    5     6     7     8	 9 ;     CG2R61     CG2R61     CG2R61     CG2R61
   52     6     7    11	 9 ;      HGR61     CG2R61     CG2R61      CG2O1
   52     6     7     8	 9 ;      HGR61     CG2R61     CG2R61     CG2R61
    8     7    11    12	 9 ;     CG2R61     CG2R61      CG2O1      OG2D1
    8     7    11    13	 9 ;     CG2R61     CG2R61      CG2O1      NG2S1
    6     7    11    12	 9 ;     CG2R61     CG2R61      CG2O1      OG2D1
    6     7    11    13	 9 ;     CG2R61     CG2R61      CG2O1      NG2S1
   11     7     8     9	 9 ;      CG2O1     CG2R61     CG2R61     CG2R61
   11     7     8    53	 9 ;      CG2O1     CG2R61     CG2R61      HGR61
    6     7     8     9	 9 ;     CG2R61     CG2R61     CG2R61     CG2R61
    6     7     8    53	 9 ;     CG2R61     CG2R61     CG2R61      HGR61
    7     8     9    23	 9 ;     CG2R61     CG2R61     CG2R61      NG301
    7     8     9    10	 9 ;     CG2R61     CG2R61     CG2R61     CG2R61
   53     8     9    23	 9 ;      HGR61     CG2R61     CG2R61      NG301
   53     8     9    10	 9 ;      HGR61     CG2R61     CG2R61     CG2R61
    8     9    23    24	 9 ;     CG2R61     CG2R61      NG301      CG331
    8     9    23    25	 9 ;     CG2R61     CG2R61      NG301      SG3O2
   10     9    23    24	 9 ;     CG2R61     CG2R61      NG301      CG331
   10     9    23    25	 9 ;     CG2R61     CG2R61      NG301      SG3O2
    8     9    10     5	 9 ;     CG2R61     CG2R61     CG2R61     CG2R61
    8     9    10    54	 9 ;     CG2R61     CG2R61     CG2R61      HGR61
   23     9    10     5	 9 ;      NG301     CG2R61     CG2R61     CG2R61
   23     9    10    54	 9 ;      NG301     CG2R61     CG2R61      HGR61
   12    11    13    15	 9 ;      OG2D1      CG2O1      NG2S1      CG311
   12    11    13    14	 9 ;      OG2D1      CG2O1      NG2S1       HGP1
    7    11    13    15	 9 ;     CG2R61      CG2O1      NG2S1      CG311
    7    11    13    14	 9 ;     CG2R61      CG2O1      NG2S1       HGP1
   11    13    15    17	 9 ;      CG2O1      NG2S1      CG311     CG2R61
   11    13    15    16	 9 ;      CG2O1      NG2S1      CG311      CG331
   11    13    15    55	 9 ;      CG2O1      NG2S1      CG311       HGA1
   14    13    15    17	 9 ;       HGP1      NG2S1      CG311     CG2R61
   14    13    15    16	 9 ;       HGP1      NG2S1      CG311      CG331
   14    13    15    55	 9 ;       HGP1      NG2S1      CG311       HGA1
   16    15    17    22	 9 ;      CG331      CG311     CG2R61     CG2R61
   16    15    17    18	 9 ;      CG331      CG311     CG2R61     CG2R61
   13    15    17    22	 9 ;      NG2S1      CG311     CG2R61     CG2R61
   13    15    17    18	 9 ;      NG2S1      CG311     CG2R61     CG2R61
   55    15    17    22	 9 ;       HGA1      CG311     CG2R61     CG2R61
   55    15    17    18	 9 ;       HGA1      CG311     CG2R61     CG2R61
   17    15    16    56	 9 ;     CG2R61      CG311      CG331       HGA3
   17    15    16    57	 9 ;     CG2R61      CG311      CG331       HGA3
   17    15    16    58	 9 ;     CG2R61      CG311      CG331       HGA3
   13    15    16    56	 9 ;      NG2S1      CG311      CG331       HGA3
   13    15    16    57	 9 ;      NG2S1      CG311      CG331       HGA3
   13    15    16    58	 9 ;      NG2S1      CG311      CG331       HGA3
   55    15    16    56	 9 ;       HGA1      CG311      CG331       HGA3
   55    15    16    57	 9 ;       HGA1      CG311      CG331       HGA3
   55    15    16    58	 9 ;       HGA1      CG311      CG331       HGA3
   15    17    22    21	 9 ;      CG311     CG2R61     CG2R61     CG2R61
   15    17    22    63	 9 ;      CG311     CG2R61     CG2R61      HGR61
   18    17    22    21	 9 ;     CG2R61     CG2R61     CG2R61     CG2R61
   18    17    22    63	 9 ;     CG2R61     CG2R61     CG2R61      HGR61
   22    17    18    19	 9 ;     CG2R61     CG2R61     CG2R61     CG2R61
   22    17    18    59	 9 ;     CG2R61     CG2R61     CG2R61      HGR61
   15    17    18    19	 9 ;      CG311     CG2R61     CG2R61     CG2R61
   15    17    18    59	 9 ;      CG311     CG2R61     CG2R61      HGR61
   17    18    19    20	 9 ;     CG2R61     CG2R61     CG2R61     CG2R61
   17    18    19    60	 9 ;     CG2R61     CG2R61     CG2R61      HGR61
   59    18    19    20	 9 ;      HGR61     CG2R61     CG2R61     CG2R61
   59    18    19    60	 9 ;      HGR61     CG2R61     CG2R61      HGR61
   18    19    20    21	 9 ;     CG2R61     CG2R61     CG2R61     CG2R61
   18    19    20    61	 9 ;     CG2R61     CG2R61     CG2R61      HGR61
   60    19    20    21	 9 ;      HGR61     CG2R61     CG2R61     CG2R61
   60    19    20    61	 9 ;      HGR61     CG2R61     CG2R61      HGR61
   19    20    21    22	 9 ;     CG2R61     CG2R61     CG2R61     CG2R61
   19    20    21    62	 9 ;     CG2R61     CG2R61     CG2R61      HGR61
   61    20    21    22	 9 ;      HGR61     CG2R61     CG2R61     CG2R61
   61    20    21    62	 9 ;      HGR61     CG2R61     CG2R61      HGR61
   20    21    22    17	 9 ;     CG2R61     CG2R61     CG2R61     CG2R61
   20    21    22    63	 9 ;     CG2R61     CG2R61     CG2R61      HGR61
   62    21    22    17	 9 ;      HGR61     CG2R61     CG2R61     CG2R61
   62    21    22    63	 9 ;      HGR61     CG2R61     CG2R61      HGR61
   25    23    24    64	 9 ;      SG3O2      NG301      CG331       HGA3
   25    23    24    65	 9 ;      SG3O2      NG301      CG331       HGA3
   25    23    24    66	 9 ;      SG3O2      NG301      CG331       HGA3
    9    23    24    64	 9 ;     CG2R61      NG301      CG331       HGA3
    9    23    24    65	 9 ;     CG2R61      NG301      CG331       HGA3
    9    23    24    66	 9 ;     CG2R61      NG301      CG331       HGA3
   24    23    25    28	 9 ;      CG331      NG301      SG3O2      CG331
   24    23    25    26	 9 ;      CG331      NG301      SG3O2      OG2P1
   24    23    25    27	 9 ;      CG331      NG301      SG3O2      OG2P1
    9    23    25    28	 9 ;     CG2R61      NG301      SG3O2      CG331
    9    23    25    26	 9 ;     CG2R61      NG301      SG3O2      OG2P1
    9    23    25    27	 9 ;     CG2R61      NG301      SG3O2      OG2P1
   23    25    28    67	 9 ;      NG301      SG3O2      CG331       HGA3
   23    25    28    68	 9 ;      NG301      SG3O2      CG331       HGA3
   23    25    28    69	 9 ;      NG301      SG3O2      CG331       HGA3
   26    25    28    67	 9 ;      OG2P1      SG3O2      CG331       HGA3
   26    25    28    68	 9 ;      OG2P1      SG3O2      CG331       HGA3
   26    25    28    69	 9 ;      OG2P1      SG3O2      CG331       HGA3
   27    25    28    67	 9 ;      OG2P1      SG3O2      CG331       HGA3
   27    25    28    68	 9 ;      OG2P1      SG3O2      CG331       HGA3
   27    25    28    69	 9 ;      OG2P1      SG3O2      CG331       HGA3
    3    29    42    43	 9 ;      NG2S1      CG311      CG321      OG301
    3    29    42    85	 9 ;      NG2S1      CG311      CG321       HGA2
    3    29    42    86	 9 ;      NG2S1      CG311      CG321       HGA2
   30    29    42    43	 9 ;      CG311      CG311      CG321      OG301
   30    29    42    85	 9 ;      CG311      CG311      CG321       HGA2
   30    29    42    86	 9 ;      CG311      CG311      CG321       HGA2
   70    29    42    43	 9 ;       HGA1      CG311      CG321      OG301
   70    29    42    85	 9 ;       HGA1      CG311      CG321       HGA2
   70    29    42    86	 9 ;       HGA1      CG311      CG321       HGA2
    3    29    30    31	 9 ;      NG2S1      CG311      CG311      OG311
    3    29    30    33	 9 ;      NG2S1      CG311      CG311      CG321
    3    29    30    71	 9 ;      NG2S1      CG311      CG311       HGA1
   42    29    30    31	 9 ;      CG321      CG311      CG311      OG311
   42    29    30    33	 9 ;      CG321      CG311      CG311      CG321
   42    29    30    71	 9 ;      CG321      CG311      CG311       HGA1
   70    29    30    31	 9 ;       HGA1      CG311      CG311      OG311
   70    29    30    33	 9 ;       HGA1      CG311      CG311      CG321
   70    29    30    71	 9 ;       HGA1      CG311      CG311       HGA1
   29    30    31    32	 9 ;      CG311      CG311      OG311       HGP1
   33    30    31    32	 9 ;      CG321      CG311      OG311       HGP1
   71    30    31    32	 9 ;       HGA1      CG311      OG311       HGP1
   29    30    33    34	 9 ;      CG311      CG311      CG321      CG311
   29    30    33    72	 9 ;      CG311      CG311      CG321       HGA2
   29    30    33    73	 9 ;      CG311      CG311      CG321       HGA2
   31    30    33    34	 9 ;      OG311      CG311      CG321      CG311
   31    30    33    72	 9 ;      OG311      CG311      CG321       HGA2
   31    30    33    73	 9 ;      OG311      CG311      CG321       HGA2
   71    30    33    34	 9 ;       HGA1      CG311      CG321      CG311
   71    30    33    72	 9 ;       HGA1      CG311      CG321       HGA2
   71    30    33    73	 9 ;       HGA1      CG311      CG321       HGA2
   30    33    34    35	 9 ;      CG311      CG321      CG311      CG321
   30    33    34    40	 9 ;      CG311      CG321      CG311      OG301
   30    33    34    74	 9 ;      CG311      CG321      CG311       HGA1
   72    33    34    35	 9 ;       HGA2      CG321      CG311      CG321
   72    33    34    40	 9 ;       HGA2      CG321      CG311      OG301
   72    33    34    74	 9 ;       HGA2      CG321      CG311       HGA1
   73    33    34    35	 9 ;       HGA2      CG321      CG311      CG321
   73    33    34    40	 9 ;       HGA2      CG321      CG311      OG301
   73    33    34    74	 9 ;       HGA2      CG321      CG311       HGA1
   40    34    35    36	 9 ;      OG301      CG311      CG321      OG301
   40    34    35    75	 9 ;      OG301      CG311      CG321       HGA2
   40    34    35    76	 9 ;      OG301      CG311      CG321       HGA2
   33    34    35    36	 9 ;      CG321      CG311      CG321      OG301
   33    34    35    75	 9 ;      CG321      CG311      CG321       HGA2
   33    34    35    76	 9 ;      CG321      CG311      CG321       HGA2
   74    34    35    36	 9 ;       HGA1      CG311      CG321      OG301
   74    34    35    75	 9 ;       HGA1      CG311      CG321       HGA2
   74    34    35    76	 9 ;       HGA1      CG311      CG321       HGA2
   35    34    40    41	 9 ;      CG321      CG311      OG301      CG331
   33    34    40    41	 9 ;      CG321      CG311      OG301      CG331
   74    34    40    41	 9 ;       HGA1      CG311      OG301      CG331
   34    35    36    37	 9 ;      CG311      CG321      OG301      CG321
   75    35    36    37	 9 ;       HGA2      CG321      OG301      CG321
   76    35    36    37	 9 ;       HGA2      CG321      OG301      CG321
   35    36    37    38	 9 ;      CG321      OG301      CG321      CG2D1
   35    36    37    77	 9 ;      CG321      OG301      CG321       HGA2
   35    36    37    78	 9 ;      CG321      OG301      CG321       HGA2
   36    37    38    39	 9 ;      OG301      CG321      CG2D1      CG2D2
   36    37    38    79	 9 ;      OG301      CG321      CG2D1       HGA4
   77    37    38    39	 9 ;       HGA2      CG321      CG2D1      CG2D2
   77    37    38    79	 9 ;       HGA2      CG321      CG2D1       HGA4
   78    37    38    39	 9 ;       HGA2      CG321      CG2D1      CG2D2
   78    37    38    79	 9 ;       HGA2      CG321      CG2D1       HGA4
   37    38    39    80	 9 ;      CG321      CG2D1      CG2D2       HGA5
   37    38    39    81	 9 ;      CG321      CG2D1      CG2D2       HGA5
   79    38    39    80	 9 ;       HGA4      CG2D1      CG2D2       HGA5
   79    38    39    81	 9 ;       HGA4      CG2D1      CG2D2       HGA5
   34    40    41    82	 9 ;      CG311      OG301      CG331       HGA3
   34    40    41    83	 9 ;      CG311      OG301      CG331       HGA3
   34    40    41    84	 9 ;      CG311      OG301      CG331       HGA3
   29    42    43    44	 9 ;      CG311      CG321      OG301     CG2R61
   85    42    43    44	 9 ;       HGA2      CG321      OG301     CG2R61
   86    42    43    44	 9 ;       HGA2      CG321      OG301     CG2R61
   42    43    44    51	 9 ;      CG321      OG301     CG2R61     CG2R61
   42    43    44    45	 9 ;      CG321      OG301     CG2R61     CG2R61
   43    44    51    49	 9 ;      OG301     CG2R61     CG2R61     CG2R66
   43    44    51    89	 9 ;      OG301     CG2R61     CG2R61      HGR62
   45    44    51    49	 9 ;     CG2R61     CG2R61     CG2R61     CG2R66
   45    44    51    89	 9 ;     CG2R61     CG2R61     CG2R61      HGR62
   43    44    45    46	 9 ;      OG301     CG2R61     CG2R61     CG2R66
   43    44    45    87	 9 ;      OG301     CG2R61     CG2R61      HGR62
   51    44    45    46	 9 ;     CG2R61     CG2R61     CG2R61     CG2R66
   51    44    45    87	 9 ;     CG2R61     CG2R61     CG2R61      HGR62
   44    45    46    48	 9 ;     CG2R61     CG2R61     CG2R66     CG2R61
   44    45    46    47	 9 ;     CG2R61     CG2R61     CG2R66       FGR1
   87    45    46    48	 9 ;      HGR62     CG2R61     CG2R66     CG2R61
   87    45    46    47	 9 ;      HGR62     CG2R61     CG2R66       FGR1
   45    46    48    49	 9 ;     CG2R61     CG2R66     CG2R61     CG2R66
   45    46    48    88	 9 ;     CG2R61     CG2R66     CG2R61      HGR62
   47    46    48    49	 9 ;       FGR1     CG2R66     CG2R61     CG2R66
   47    46    48    88	 9 ;       FGR1     CG2R66     CG2R61      HGR62
   46    48    49    51	 9 ;     CG2R66     CG2R61     CG2R66     CG2R61
   46    48    49    50	 9 ;     CG2R66     CG2R61     CG2R66       FGR1
   88    48    49    51	 9 ;      HGR62     CG2R61     CG2R66     CG2R61
   88    48    49    50	 9 ;      HGR62     CG2R61     CG2R66       FGR1
   50    49    51    44	 9 ;       FGR1     CG2R66     CG2R61     CG2R61
   50    49    51    89	 9 ;       FGR1     CG2R66     CG2R61      HGR62
   48    49    51    44	 9 ;     CG2R61     CG2R66     CG2R61     CG2R61
   48    49    51    89	 9 ;     CG2R61     CG2R66     CG2R61      HGR62

[ dihedrals ]
;	ai	  aj	ak	  al funct			  c0			c1			  c2			c3
    1     5     3     2	 2
   11     7    13    12	 2

