GROningen Mixture of Alchemy and Childrens' Stories
   54
    1LIG     N1    1  -1.220   0.357  -1.829
    1LIG      H    2  -1.219   0.320  -1.925
    1LIG     C1    3  -1.316   0.446  -1.788
    1LIG     N2    4  -1.290   0.573  -1.778
    1LIG     C2    5  -1.396   0.664  -1.734
    1LIG     HN    6  -1.197   0.608  -1.800
    1LIG     C3    7  -1.531   0.624  -1.799
    1LIG     C4    8  -1.357   0.805  -1.781
    1LIG     C5    9  -1.403   0.665  -1.580
    1LIG     C6   10  -1.561   0.481  -1.768
    1LIG     C7   11  -1.692   0.435  -1.748
    1LIG     C8   12  -1.453   0.393  -1.756
    1LIG     C9   13  -1.713   0.302  -1.710
    1LIG     CL   14  -1.874   0.245  -1.686
    1LIG    C10   15  -1.605   0.216  -1.689
    1LIG    C11   16  -1.474   0.262  -1.711
    1LIG     CA   17  -1.087   0.333  -1.768
    1LIG    C12   18  -1.083   0.216  -1.668
    1LIG    C13   19  -1.156   0.236  -1.537
    1LIG    C14   20  -1.166   0.358  -1.473
    1LIG      S   21  -1.256   0.353  -1.329
    1LIG    C15   22  -1.282   0.186  -1.347
    1LIG    C16   23  -1.222   0.132  -1.459
    1LIG    C17   24  -1.229  -0.014  -1.495
    1LIG    C18   25  -1.154  -0.107  -1.399
    1LIG    C19   26  -1.008  -0.070  -1.375
    1LIG    C20   27  -0.982   0.312  -1.883
    1LIG      O   28  -0.876   0.251  -1.850
    1LIG    OXT   29  -1.013   0.367  -1.994
    1LIG    HC2   30  -1.610   0.688  -1.760
    1LIG    HC3   31  -1.524   0.637  -1.907
    1LIG    HC1   32  -1.352   0.807  -1.890
    1LIG    HC4   33  -1.260   0.831  -1.739
    1LIG    HC5   34  -1.432   0.876  -1.747
    1LIG    HC6   35  -1.431   0.566  -1.544
    1LIG    HC7   36  -1.477   0.737  -1.547
    1LIG    HC8   37  -1.306   0.692  -1.539
    1LIG     HC   38  -1.776   0.502  -1.761
    1LIG    HC9   39  -1.622   0.115  -1.656
    1LIG   HC10   40  -1.390   0.196  -1.694
    1LIG   HC11   41  -1.059   0.423  -1.714
    1LIG   HC12   42  -1.126   0.129  -1.717
    1LIG   HC13   43  -0.979   0.195  -1.646
    1LIG   HC14   44  -1.119   0.449  -1.510
    1LIG   HC15   45  -1.341   0.127  -1.278
    1LIG   HC16   46  -1.334  -0.043  -1.495
    1LIG   HC17   47  -1.189  -0.028  -1.595
    1LIG   HC18   48  -1.157  -0.208  -1.440
    1LIG   HC19   49  -1.206  -0.107  -1.303
    1LIG   HC20   50  -0.963  -0.141  -1.306
    1LIG   HC21   51  -0.955  -0.072  -1.470
    1LIG   HC22   52  -1.003   0.031  -1.333
    1LIG    H26   53  -1.285   0.431  -1.685
    1LIG    LP1   54  -2.027   0.191  -1.664
   0.00000   0.00000   0.00000
