; Created by cgenff_charmm2gmx.py

[ moleculetype ]
; Name			   nrexcl
LIG				 3

[ atoms ]
;	 nr		  type	resnr residue  atom   cgnr	   charge		mass  typeB    chargeB		massB
; residue	 1 LIG rtp LIG q	qsum
     1      NG311      1    LIG     N1      1     -0.806     14.007   ;
     2     HGPAM1      1    LIG      H      2      0.362      1.008   ;
     3      CG311      1    LIG     C1      3      0.346     12.011   ;
     4      NG311      1    LIG     N2      4     -0.864     14.007   ;
     5      CG301      1    LIG     C2      5      0.375     12.011   ;
     6     HGPAM1      1    LIG     HN      6      0.350      1.008   ;
     7      CG321      1    LIG     C3      7     -0.230     12.011   ;
     8      CG331      1    LIG     C4      8     -0.295     12.011   ;
     9      CG331      1    LIG     C5      9     -0.295     12.011   ;
    10     CG2R61      1    LIG     C6     10      0.075     12.011   ;
    11     CG2R61      1    LIG     C7     11     -0.121     12.011   ;
    12     CG2R61      1    LIG     C8     12     -0.052     12.011   ;
    13     CG2R61      1    LIG     C9     13      0.048     12.011   ;
    14      CLGR1      1    LIG     CL     14     -0.200     35.453   ;
    15     CG2R61      1    LIG    C10     15     -0.099     12.011   ;
    16     CG2R61      1    LIG    C11     16     -0.108     12.011   ;
    17      CG311      1    LIG     CA     17     -0.001     12.011   ;
    18      CG321      1    LIG    C12     18     -0.207     12.011   ;
    19     CG2R51      1    LIG    C13     19      0.010     12.011   ;
    20     CG2R51      1    LIG    C14     20     -0.173     12.011   ;
    21     SG2R50      1    LIG      S     21     -0.168     32.060   ;
    22     CG2R51      1    LIG    C15     22     -0.172     12.011   ;
    23     CG2R51      1    LIG    C16     23      0.049     12.011   ;
    24      CG321      1    LIG    C17     24     -0.170     12.011   ;
    25      CG321      1    LIG    C18     25     -0.171     12.011   ;
    26      CG331      1    LIG    C19     26     -0.278     12.011   ;
    27      CG2O3      1    LIG    C20     27      0.898     12.011   ;
    28      OG2D2      1    LIG      O     28     -0.832     15.999   ;
    29      OG2D2      1    LIG    OXT     29     -0.832     15.999   ;
    30       HGA2      1    LIG    HC2     30      0.090      1.008   ;
    31       HGA2      1    LIG    HC3     31      0.090      1.008   ;
    32       HGA3      1    LIG    HC1     32      0.090      1.008   ;
    33       HGA3      1    LIG    HC4     33      0.090      1.008   ;
    34       HGA3      1    LIG    HC5     34      0.090      1.008   ;
    35       HGA3      1    LIG    HC6     35      0.090      1.008   ;
    36       HGA3      1    LIG    HC7     36      0.090      1.008   ;
    37       HGA3      1    LIG    HC8     37      0.090      1.008   ;
    38      HGR62      1    LIG     HC     38      0.145      1.008   ;
    39      HGR62      1    LIG    HC9     39      0.150      1.008   ;
    40      HGR61      1    LIG   HC10     40      0.116      1.008   ;
    41       HGA1      1    LIG   HC11     41      0.090      1.008   ;
    42       HGA2      1    LIG   HC12     42      0.090      1.008   ;
    43       HGA2      1    LIG   HC13     43      0.090      1.008   ;
    44      HGR52      1    LIG   HC14     44      0.195      1.008   ;
    45      HGR52      1    LIG   HC15     45      0.195      1.008   ;
    46       HGA2      1    LIG   HC16     46      0.090      1.008   ;
    47       HGA2      1    LIG   HC17     47      0.090      1.008   ;
    48       HGA2      1    LIG   HC18     48      0.090      1.008   ;
    49       HGA2      1    LIG   HC19     49      0.090      1.008   ;
    50       HGA3      1    LIG   HC20     50      0.090      1.008   ;
    51       HGA3      1    LIG   HC21     51      0.090      1.008   ;
    52       HGA3      1    LIG   HC22     52      0.090      1.008   ;
    53       HGA1      1    LIG    H26     53      0.090      1.008   ;
    54        LPH      1    LIG    LP1     54      0.050      0.000   ;

[ bonds ]
;	ai	  aj funct			  c0			c1			  c2			c3
    1    17	 1 ;       NG311      CG311
    1     2	 1 ;       NG311     HGPAM1
    1     3	 1 ;       NG311      CG311
    3     4	 1 ;       CG311      NG311
    3    12	 1 ;       CG311     CG2R61
    3    53	 1 ;       CG311       HGA1
    4     6	 1 ;       NG311     HGPAM1
    4     5	 1 ;       NG311      CG301
    5     8	 1 ;       CG301      CG331
    5     7	 1 ;       CG301      CG321
    5     9	 1 ;       CG301      CG331
    7    10	 1 ;       CG321     CG2R61
    7    30	 1 ;       CG321       HGA2
    7    31	 1 ;       CG321       HGA2
    8    32	 1 ;       CG331       HGA3
    8    33	 1 ;       CG331       HGA3
    8    34	 1 ;       CG331       HGA3
    9    35	 1 ;       CG331       HGA3
    9    36	 1 ;       CG331       HGA3
    9    37	 1 ;       CG331       HGA3
   10    12	 1 ;      CG2R61     CG2R61
   10    11	 1 ;      CG2R61     CG2R61
   11    13	 1 ;      CG2R61     CG2R61
   11    38	 1 ;      CG2R61      HGR62
   12    16	 1 ;      CG2R61     CG2R61
   13    15	 1 ;      CG2R61     CG2R61
   13    14	 1 ;      CG2R61      CLGR1
   15    16	 1 ;      CG2R61     CG2R61
   15    39	 1 ;      CG2R61      HGR62
   16    40	 1 ;      CG2R61      HGR61
   17    27	 1 ;       CG311      CG2O3
   17    18	 1 ;       CG311      CG321
   17    41	 1 ;       CG311       HGA1
   18    19	 1 ;       CG321     CG2R51
   18    42	 1 ;       CG321       HGA2
   18    43	 1 ;       CG321       HGA2
   19    20	 1 ;      CG2R51     CG2R51
   19    23	 1 ;      CG2R51     CG2R51
   20    21	 1 ;      CG2R51     SG2R50
   20    44	 1 ;      CG2R51      HGR52
   21    22	 1 ;      SG2R50     CG2R51
   22    23	 1 ;      CG2R51     CG2R51
   22    45	 1 ;      CG2R51      HGR52
   23    24	 1 ;      CG2R51      CG321
   24    25	 1 ;       CG321      CG321
   24    46	 1 ;       CG321       HGA2
   24    47	 1 ;       CG321       HGA2
   25    26	 1 ;       CG321      CG331
   25    48	 1 ;       CG321       HGA2
   25    49	 1 ;       CG321       HGA2
   26    50	 1 ;       CG331       HGA3
   26    51	 1 ;       CG331       HGA3
   26    52	 1 ;       CG331       HGA3
   27    28	 1 ;       CG2O3      OG2D2
   27    29	 1 ;       CG2O3      OG2D2

[ pairs ]
;	ai	  aj funct			  c0			c1			  c2			c3
    1     6	 1
    1     5	 1
    1    10	 1
    1    16	 1
    1    28	 1
    1    29	 1
    1    19	 1
    1    42	 1
    1    43	 1
    2    27	 1
    2    18	 1
    2    41	 1
    2     4	 1
    2    12	 1
    2    53	 1
    3    27	 1
    3    18	 1
    3    41	 1
    3     8	 1
    3     7	 1
    3     9	 1
    3    11	 1
    3    15	 1
    3    40	 1
    4    17	 1
    4    10	 1
    4    16	 1
    4    32	 1
    4    33	 1
    4    34	 1
    4    30	 1
    4    31	 1
    4    35	 1
    4    36	 1
    4    37	 1
    5    12	 1
    5    53	 1
    5    11	 1
    6    12	 1
    6    53	 1
    6     8	 1
    6     7	 1
    6     9	 1
    7    32	 1
    7    33	 1
    7    34	 1
    7    35	 1
    7    36	 1
    7    37	 1
    7    16	 1
    7    13	 1
    7    38	 1
    8    10	 1
    8    30	 1
    8    31	 1
    8    35	 1
    8    36	 1
    8    37	 1
    9    32	 1
    9    33	 1
    9    34	 1
    9    10	 1
    9    30	 1
    9    31	 1
   10    53	 1
   10    15	 1
   10    14	 1
   54    10	 1
   10    40	 1
   11    30	 1
   11    31	 1
   11    16	 1
   11    39	 1
   12    17	 1
   12    30	 1
   12    31	 1
   12    13	 1
   12    38	 1
   12    39	 1
   13    40	 1
   14    38	 1
   54    38	 1
   14    16	 1
   54    16	 1
   14    39	 1
   54    39	 1
   15    38	 1
   16    53	 1
   17    53	 1
   17    20	 1
   17    23	 1
   18    28	 1
   18    29	 1
   18    21	 1
   18    44	 1
   18    24	 1
   18    22	 1
   19    27	 1
   19    41	 1
   19    45	 1
   19    25	 1
   19    46	 1
   19    47	 1
   20    42	 1
   20    43	 1
   20    24	 1
   20    45	 1
   21    24	 1
   22    44	 1
   22    25	 1
   22    46	 1
   22    47	 1
   23    42	 1
   23    43	 1
   23    44	 1
   23    26	 1
   23    48	 1
   23    49	 1
   24    45	 1
   24    50	 1
   24    51	 1
   24    52	 1
   26    46	 1
   26    47	 1
   27    42	 1
   27    43	 1
   28    41	 1
   29    41	 1
   39    40	 1
   41    42	 1
   41    43	 1
   46    48	 1
   46    49	 1
   47    48	 1
   47    49	 1
   48    50	 1
   48    51	 1
   48    52	 1
   49    50	 1
   49    51	 1
   49    52	 1

[ angles ]
;	ai	  aj	ak funct			c0			  c1			c2			  c3
   17     1     2	5 ;      CG311      NG311     HGPAM1
   17     1     3	5 ;      CG311      NG311      CG311
    2     1     3	5 ;     HGPAM1      NG311      CG311
    1     3     4	5 ;      NG311      CG311      NG311
    1     3    12	5 ;      NG311      CG311     CG2R61
    1     3    53	5 ;      NG311      CG311       HGA1
    4     3    12	5 ;      NG311      CG311     CG2R61
    4     3    53	5 ;      NG311      CG311       HGA1
   12     3    53	5 ;     CG2R61      CG311       HGA1
    6     4     3	5 ;     HGPAM1      NG311      CG311
    6     4     5	5 ;     HGPAM1      NG311      CG301
    3     4     5	5 ;      CG311      NG311      CG301
    4     5     8	5 ;      NG311      CG301      CG331
    4     5     7	5 ;      NG311      CG301      CG321
    4     5     9	5 ;      NG311      CG301      CG331
    8     5     7	5 ;      CG331      CG301      CG321
    8     5     9	5 ;      CG331      CG301      CG331
    7     5     9	5 ;      CG321      CG301      CG331
    5     7    10	5 ;      CG301      CG321     CG2R61
    5     7    30	5 ;      CG301      CG321       HGA2
    5     7    31	5 ;      CG301      CG321       HGA2
   10     7    30	5 ;     CG2R61      CG321       HGA2
   10     7    31	5 ;     CG2R61      CG321       HGA2
   30     7    31	5 ;       HGA2      CG321       HGA2
    5     8    32	5 ;      CG301      CG331       HGA3
    5     8    33	5 ;      CG301      CG331       HGA3
    5     8    34	5 ;      CG301      CG331       HGA3
   32     8    33	5 ;       HGA3      CG331       HGA3
   32     8    34	5 ;       HGA3      CG331       HGA3
   33     8    34	5 ;       HGA3      CG331       HGA3
    5     9    35	5 ;      CG301      CG331       HGA3
    5     9    36	5 ;      CG301      CG331       HGA3
    5     9    37	5 ;      CG301      CG331       HGA3
   35     9    36	5 ;       HGA3      CG331       HGA3
   35     9    37	5 ;       HGA3      CG331       HGA3
   36     9    37	5 ;       HGA3      CG331       HGA3
    7    10    12	5 ;      CG321     CG2R61     CG2R61
    7    10    11	5 ;      CG321     CG2R61     CG2R61
   12    10    11	5 ;     CG2R61     CG2R61     CG2R61
   10    11    13	5 ;     CG2R61     CG2R61     CG2R61
   10    11    38	5 ;     CG2R61     CG2R61      HGR62
   13    11    38	5 ;     CG2R61     CG2R61      HGR62
    3    12    10	5 ;      CG311     CG2R61     CG2R61
    3    12    16	5 ;      CG311     CG2R61     CG2R61
   10    12    16	5 ;     CG2R61     CG2R61     CG2R61
   11    13    15	5 ;     CG2R61     CG2R61     CG2R61
   11    13    14	5 ;     CG2R61     CG2R61      CLGR1
   15    13    14	5 ;     CG2R61     CG2R61      CLGR1
   16    15    13	5 ;     CG2R61     CG2R61     CG2R61
   16    15    39	5 ;     CG2R61     CG2R61      HGR62
   13    15    39	5 ;     CG2R61     CG2R61      HGR62
   12    16    15	5 ;     CG2R61     CG2R61     CG2R61
   12    16    40	5 ;     CG2R61     CG2R61      HGR61
   15    16    40	5 ;     CG2R61     CG2R61      HGR61
   27    17     1	5 ;      CG2O3      CG311      NG311
   27    17    18	5 ;      CG2O3      CG311      CG321
   27    17    41	5 ;      CG2O3      CG311       HGA1
    1    17    18	5 ;      NG311      CG311      CG321
    1    17    41	5 ;      NG311      CG311       HGA1
   18    17    41	5 ;      CG321      CG311       HGA1
   17    18    19	5 ;      CG311      CG321     CG2R51
   17    18    42	5 ;      CG311      CG321       HGA2
   17    18    43	5 ;      CG311      CG321       HGA2
   19    18    42	5 ;     CG2R51      CG321       HGA2
   19    18    43	5 ;     CG2R51      CG321       HGA2
   42    18    43	5 ;       HGA2      CG321       HGA2
   18    19    20	5 ;      CG321     CG2R51     CG2R51
   18    19    23	5 ;      CG321     CG2R51     CG2R51
   20    19    23	5 ;     CG2R51     CG2R51     CG2R51
   19    20    21	5 ;     CG2R51     CG2R51     SG2R50
   19    20    44	5 ;     CG2R51     CG2R51      HGR52
   21    20    44	5 ;     SG2R50     CG2R51      HGR52
   20    21    22	5 ;     CG2R51     SG2R50     CG2R51
   23    22    21	5 ;     CG2R51     CG2R51     SG2R50
   23    22    45	5 ;     CG2R51     CG2R51      HGR52
   21    22    45	5 ;     SG2R50     CG2R51      HGR52
   19    23    24	5 ;     CG2R51     CG2R51      CG321
   19    23    22	5 ;     CG2R51     CG2R51     CG2R51
   24    23    22	5 ;      CG321     CG2R51     CG2R51
   23    24    25	5 ;     CG2R51      CG321      CG321
   23    24    46	5 ;     CG2R51      CG321       HGA2
   23    24    47	5 ;     CG2R51      CG321       HGA2
   25    24    46	5 ;      CG321      CG321       HGA2
   25    24    47	5 ;      CG321      CG321       HGA2
   46    24    47	5 ;       HGA2      CG321       HGA2
   26    25    24	5 ;      CG331      CG321      CG321
   26    25    48	5 ;      CG331      CG321       HGA2
   26    25    49	5 ;      CG331      CG321       HGA2
   24    25    48	5 ;      CG321      CG321       HGA2
   24    25    49	5 ;      CG321      CG321       HGA2
   48    25    49	5 ;       HGA2      CG321       HGA2
   25    26    50	5 ;      CG321      CG331       HGA3
   25    26    51	5 ;      CG321      CG331       HGA3
   25    26    52	5 ;      CG321      CG331       HGA3
   50    26    51	5 ;       HGA3      CG331       HGA3
   50    26    52	5 ;       HGA3      CG331       HGA3
   51    26    52	5 ;       HGA3      CG331       HGA3
   28    27    29	5 ;      OG2D2      CG2O3      OG2D2
   28    27    17	5 ;      OG2D2      CG2O3      CG311
   29    27    17	5 ;      OG2D2      CG2O3      CG311

[ dihedrals ]
;	ai	  aj	ak	  al funct			  c0			c1			  c2			c3			  c4			c5
    2     1    17    27	 9 ;     HGPAM1      NG311      CG311      CG2O3
    2     1    17    18	 9 ;     HGPAM1      NG311      CG311      CG321
    2     1    17    41	 9 ;     HGPAM1      NG311      CG311       HGA1
    3     1    17    27	 9 ;      CG311      NG311      CG311      CG2O3
    3     1    17    18	 9 ;      CG311      NG311      CG311      CG321
    3     1    17    41	 9 ;      CG311      NG311      CG311       HGA1
   17     1     3     4	 9 ;      CG311      NG311      CG311      NG311
   17     1     3    12	 9 ;      CG311      NG311      CG311     CG2R61
   17     1     3    53	 9 ;      CG311      NG311      CG311       HGA1
    2     1     3     4	 9 ;     HGPAM1      NG311      CG311      NG311
    2     1     3    12	 9 ;     HGPAM1      NG311      CG311     CG2R61
    2     1     3    53	 9 ;     HGPAM1      NG311      CG311       HGA1
    1     3     4     6	 9 ;      NG311      CG311      NG311     HGPAM1
    1     3     4     5	 9 ;      NG311      CG311      NG311      CG301
   12     3     4     6	 9 ;     CG2R61      CG311      NG311     HGPAM1
   12     3     4     5	 9 ;     CG2R61      CG311      NG311      CG301
   53     3     4     6	 9 ;       HGA1      CG311      NG311     HGPAM1
   53     3     4     5	 9 ;       HGA1      CG311      NG311      CG301
    1     3    12    10	 9 ;      NG311      CG311     CG2R61     CG2R61
    1     3    12    16	 9 ;      NG311      CG311     CG2R61     CG2R61
    4     3    12    10	 9 ;      NG311      CG311     CG2R61     CG2R61
    4     3    12    16	 9 ;      NG311      CG311     CG2R61     CG2R61
   53     3    12    10	 9 ;       HGA1      CG311     CG2R61     CG2R61
   53     3    12    16	 9 ;       HGA1      CG311     CG2R61     CG2R61
    6     4     5     8	 9 ;     HGPAM1      NG311      CG301      CG331
    6     4     5     7	 9 ;     HGPAM1      NG311      CG301      CG321
    6     4     5     9	 9 ;     HGPAM1      NG311      CG301      CG331
    3     4     5     8	 9 ;      CG311      NG311      CG301      CG331
    3     4     5     7	 9 ;      CG311      NG311      CG301      CG321
    3     4     5     9	 9 ;      CG311      NG311      CG301      CG331
    4     5     8    32	 9 ;      NG311      CG301      CG331       HGA3
    4     5     8    33	 9 ;      NG311      CG301      CG331       HGA3
    4     5     8    34	 9 ;      NG311      CG301      CG331       HGA3
    7     5     8    32	 9 ;      CG321      CG301      CG331       HGA3
    7     5     8    33	 9 ;      CG321      CG301      CG331       HGA3
    7     5     8    34	 9 ;      CG321      CG301      CG331       HGA3
    9     5     8    32	 9 ;      CG331      CG301      CG331       HGA3
    9     5     8    33	 9 ;      CG331      CG301      CG331       HGA3
    9     5     8    34	 9 ;      CG331      CG301      CG331       HGA3
    4     5     7    10	 9 ;      NG311      CG301      CG321     CG2R61
    4     5     7    30	 9 ;      NG311      CG301      CG321       HGA2
    4     5     7    31	 9 ;      NG311      CG301      CG321       HGA2
    8     5     7    10	 9 ;      CG331      CG301      CG321     CG2R61
    8     5     7    30	 9 ;      CG331      CG301      CG321       HGA2
    8     5     7    31	 9 ;      CG331      CG301      CG321       HGA2
    9     5     7    10	 9 ;      CG331      CG301      CG321     CG2R61
    9     5     7    30	 9 ;      CG331      CG301      CG321       HGA2
    9     5     7    31	 9 ;      CG331      CG301      CG321       HGA2
    4     5     9    35	 9 ;      NG311      CG301      CG331       HGA3
    4     5     9    36	 9 ;      NG311      CG301      CG331       HGA3
    4     5     9    37	 9 ;      NG311      CG301      CG331       HGA3
    8     5     9    35	 9 ;      CG331      CG301      CG331       HGA3
    8     5     9    36	 9 ;      CG331      CG301      CG331       HGA3
    8     5     9    37	 9 ;      CG331      CG301      CG331       HGA3
    7     5     9    35	 9 ;      CG321      CG301      CG331       HGA3
    7     5     9    36	 9 ;      CG321      CG301      CG331       HGA3
    7     5     9    37	 9 ;      CG321      CG301      CG331       HGA3
    5     7    10    12	 9 ;      CG301      CG321     CG2R61     CG2R61
    5     7    10    11	 9 ;      CG301      CG321     CG2R61     CG2R61
   30     7    10    12	 9 ;       HGA2      CG321     CG2R61     CG2R61
   30     7    10    11	 9 ;       HGA2      CG321     CG2R61     CG2R61
   31     7    10    12	 9 ;       HGA2      CG321     CG2R61     CG2R61
   31     7    10    11	 9 ;       HGA2      CG321     CG2R61     CG2R61
    7    10    12     3	 9 ;      CG321     CG2R61     CG2R61      CG311
    7    10    12    16	 9 ;      CG321     CG2R61     CG2R61     CG2R61
   11    10    12     3	 9 ;     CG2R61     CG2R61     CG2R61      CG311
   11    10    12    16	 9 ;     CG2R61     CG2R61     CG2R61     CG2R61
    7    10    11    13	 9 ;      CG321     CG2R61     CG2R61     CG2R61
    7    10    11    38	 9 ;      CG321     CG2R61     CG2R61      HGR62
   12    10    11    13	 9 ;     CG2R61     CG2R61     CG2R61     CG2R61
   12    10    11    38	 9 ;     CG2R61     CG2R61     CG2R61      HGR62
   10    11    13    15	 9 ;     CG2R61     CG2R61     CG2R61     CG2R61
   10    11    13    14	 9 ;     CG2R61     CG2R61     CG2R61      CLGR1
   38    11    13    15	 9 ;      HGR62     CG2R61     CG2R61     CG2R61
   38    11    13    14	 9 ;      HGR62     CG2R61     CG2R61      CLGR1
    3    12    16    15	 9 ;      CG311     CG2R61     CG2R61     CG2R61
    3    12    16    40	 9 ;      CG311     CG2R61     CG2R61      HGR61
   10    12    16    15	 9 ;     CG2R61     CG2R61     CG2R61     CG2R61
   10    12    16    40	 9 ;     CG2R61     CG2R61     CG2R61      HGR61
   11    13    15    16	 9 ;     CG2R61     CG2R61     CG2R61     CG2R61
   11    13    15    39	 9 ;     CG2R61     CG2R61     CG2R61      HGR62
   14    13    15    16	 9 ;      CLGR1     CG2R61     CG2R61     CG2R61
   14    13    15    39	 9 ;      CLGR1     CG2R61     CG2R61      HGR62
   13    15    16    12	 9 ;     CG2R61     CG2R61     CG2R61     CG2R61
   13    15    16    40	 9 ;     CG2R61     CG2R61     CG2R61      HGR61
   39    15    16    12	 9 ;      HGR62     CG2R61     CG2R61     CG2R61
   39    15    16    40	 9 ;      HGR62     CG2R61     CG2R61      HGR61
    1    17    27    28	 9 ;      NG311      CG311      CG2O3      OG2D2
    1    17    27    29	 9 ;      NG311      CG311      CG2O3      OG2D2
   18    17    27    28	 9 ;      CG321      CG311      CG2O3      OG2D2
   18    17    27    29	 9 ;      CG321      CG311      CG2O3      OG2D2
   41    17    27    28	 9 ;       HGA1      CG311      CG2O3      OG2D2
   41    17    27    29	 9 ;       HGA1      CG311      CG2O3      OG2D2
   27    17    18    19	 9 ;      CG2O3      CG311      CG321     CG2R51
   27    17    18    42	 9 ;      CG2O3      CG311      CG321       HGA2
   27    17    18    43	 9 ;      CG2O3      CG311      CG321       HGA2
    1    17    18    19	 9 ;      NG311      CG311      CG321     CG2R51
    1    17    18    42	 9 ;      NG311      CG311      CG321       HGA2
    1    17    18    43	 9 ;      NG311      CG311      CG321       HGA2
   41    17    18    19	 9 ;       HGA1      CG311      CG321     CG2R51
   41    17    18    42	 9 ;       HGA1      CG311      CG321       HGA2
   41    17    18    43	 9 ;       HGA1      CG311      CG321       HGA2
   17    18    19    20	 9 ;      CG311      CG321     CG2R51     CG2R51
   17    18    19    23	 9 ;      CG311      CG321     CG2R51     CG2R51
   42    18    19    20	 9 ;       HGA2      CG321     CG2R51     CG2R51
   42    18    19    23	 9 ;       HGA2      CG321     CG2R51     CG2R51
   43    18    19    20	 9 ;       HGA2      CG321     CG2R51     CG2R51
   43    18    19    23	 9 ;       HGA2      CG321     CG2R51     CG2R51
   18    19    20    21	 9 ;      CG321     CG2R51     CG2R51     SG2R50
   18    19    20    44	 9 ;      CG321     CG2R51     CG2R51      HGR52
   23    19    20    21	 9 ;     CG2R51     CG2R51     CG2R51     SG2R50
   23    19    20    44	 9 ;     CG2R51     CG2R51     CG2R51      HGR52
   18    19    23    24	 9 ;      CG321     CG2R51     CG2R51      CG321
   18    19    23    22	 9 ;      CG321     CG2R51     CG2R51     CG2R51
   20    19    23    24	 9 ;     CG2R51     CG2R51     CG2R51      CG321
   20    19    23    22	 9 ;     CG2R51     CG2R51     CG2R51     CG2R51
   19    20    21    22	 9 ;     CG2R51     CG2R51     SG2R50     CG2R51
   44    20    21    22	 9 ;      HGR52     CG2R51     SG2R50     CG2R51
   20    21    22    23	 9 ;     CG2R51     SG2R50     CG2R51     CG2R51
   20    21    22    45	 9 ;     CG2R51     SG2R50     CG2R51      HGR52
   21    22    23    19	 9 ;     SG2R50     CG2R51     CG2R51     CG2R51
   21    22    23    24	 9 ;     SG2R50     CG2R51     CG2R51      CG321
   45    22    23    19	 9 ;      HGR52     CG2R51     CG2R51     CG2R51
   45    22    23    24	 9 ;      HGR52     CG2R51     CG2R51      CG321
   19    23    24    25	 9 ;     CG2R51     CG2R51      CG321      CG321
   19    23    24    46	 9 ;     CG2R51     CG2R51      CG321       HGA2
   19    23    24    47	 9 ;     CG2R51     CG2R51      CG321       HGA2
   22    23    24    25	 9 ;     CG2R51     CG2R51      CG321      CG321
   22    23    24    46	 9 ;     CG2R51     CG2R51      CG321       HGA2
   22    23    24    47	 9 ;     CG2R51     CG2R51      CG321       HGA2
   23    24    25    26	 9 ;     CG2R51      CG321      CG321      CG331
   23    24    25    48	 9 ;     CG2R51      CG321      CG321       HGA2
   23    24    25    49	 9 ;     CG2R51      CG321      CG321       HGA2
   46    24    25    26	 9 ;       HGA2      CG321      CG321      CG331
   46    24    25    48	 9 ;       HGA2      CG321      CG321       HGA2
   46    24    25    49	 9 ;       HGA2      CG321      CG321       HGA2
   47    24    25    26	 9 ;       HGA2      CG321      CG321      CG331
   47    24    25    48	 9 ;       HGA2      CG321      CG321       HGA2
   47    24    25    49	 9 ;       HGA2      CG321      CG321       HGA2
   24    25    26    50	 9 ;      CG321      CG321      CG331       HGA3
   24    25    26    51	 9 ;      CG321      CG321      CG331       HGA3
   24    25    26    52	 9 ;      CG321      CG321      CG331       HGA3
   48    25    26    50	 9 ;       HGA2      CG321      CG331       HGA3
   48    25    26    51	 9 ;       HGA2      CG321      CG331       HGA3
   48    25    26    52	 9 ;       HGA2      CG321      CG331       HGA3
   49    25    26    50	 9 ;       HGA2      CG321      CG331       HGA3
   49    25    26    51	 9 ;       HGA2      CG321      CG331       HGA3
   49    25    26    52	 9 ;       HGA2      CG321      CG331       HGA3

[ dihedrals ]
;	ai	  aj	ak	  al funct			  c0			c1			  c2			c3
   27    28    29    17	 2

[ virtual_sites2 ]
; Site   from				funct a
   54    14    13     2   -0.164

[ exclusions ]
;	ai	  aj
   14    54
   54    13
   54    11
   54    15
   54    10
   54    38
   54    16
   54    39

