Gravel Rubs Often Many Awfully Cauterized Sores
   70
    1LIG      S    1  -1.793   0.679  -1.619
    1LIG     O1    2  -1.788   0.642  -1.479
    1LIG     O2    3  -1.835   0.809  -1.663
    1LIG     C1    4  -1.635   0.641  -1.692
    1LIG     C2    5  -1.596   0.493  -1.672
    1LIG     C3    6  -1.705   0.396  -1.723
    1LIG     C4    7  -1.848   0.420  -1.665
    1LIG     C5    8  -1.898   0.560  -1.699
    1LIG     C6    9  -1.456   0.461  -1.735
    1LIG     C7   10  -1.350   0.444  -1.628
    1LIG     C8   11  -1.327   0.316  -1.576
    1LIG     C9   12  -1.266   0.298  -1.451
    1LIG    C10   13  -1.221   0.410  -1.378
    1LIG    C11   14  -1.236   0.536  -1.439
    1LIG     F1   15  -1.204   0.646  -1.369
    1LIG    C12   16  -1.295   0.554  -1.564
    1LIG     O3   17  -1.280   0.169  -1.407
    1LIG    C13   18  -1.160   0.090  -1.399
    1LIG    C14   19  -1.182  -0.034  -1.314
    1LIG     F2   20  -1.239  -0.133  -1.387
    1LIG     F3   21  -1.074  -0.087  -1.256
    1LIG     F4   22  -1.271  -0.005  -1.215
    1LIG    C15   23  -1.107   0.053  -1.536
    1LIG     F5   24  -1.017  -0.048  -1.527
    1LIG     F6   25  -1.209   0.005  -1.613
    1LIG     F7   26  -1.048   0.152  -1.604
    1LIG     N1   27  -1.186   0.408  -1.242
    1LIG     H1   28  -1.245   0.345  -1.188
    1LIG     H2   29  -1.178   0.496  -1.193
    1LIG     O4   30  -1.663   0.262  -1.698
    1LIG     H3   31  -1.724   0.219  -1.635
    1LIG     N2   32  -1.947   0.320  -1.725
    1LIG     H4   33  -1.992   0.363  -1.807
    1LIG     H5   34  -1.898   0.236  -1.760
    1LIG    C16   35  -2.059   0.270  -1.638
    1LIG    C17   36  -2.019   0.237  -1.498
    1LIG    C18   37  -2.041   0.331  -1.383
    1LIG    C19   38  -2.125   0.208  -1.397
    1LIG     O5   39  -2.094   0.101  -1.305
    1LIG    C20   40  -2.191  -0.005  -1.295
    1LIG    C21   41  -2.333   0.052  -1.288
    1LIG    C22   42  -2.178  -0.088  -1.424
    1LIG    C23   43  -2.161  -0.096  -1.176
    1LIG    HC2   44  -1.559   0.703  -1.646
    1LIG    HC3   45  -1.639   0.662  -1.799
    1LIG     HC   46  -1.587   0.477  -1.565
    1LIG    HC1   47  -1.712   0.408  -1.831
    1LIG    HC4   48  -1.845   0.408  -1.557
    1LIG    HC5   49  -2.000   0.571  -1.663
    1LIG    HC6   50  -1.895   0.575  -1.806
    1LIG    HC7   51  -1.463   0.370  -1.793
    1LIG    HC8   52  -1.426   0.543  -1.801
    1LIG    HC9   53  -1.355   0.229  -1.634
    1LIG   HC10   54  -1.297   0.651  -1.610
    1LIG   HC11   55  -1.084   0.150  -1.349
    1LIG   HC12   56  -2.101   0.180  -1.683
    1LIG   HC13   57  -2.137   0.346  -1.634
    1LIG   HC14   58  -1.929   0.175  -1.490
    1LIG   HC15   59  -1.967   0.339  -1.304
    1LIG   HC16   60  -2.091   0.425  -1.409
    1LIG   HC17   61  -2.230   0.220  -1.427
    1LIG   HC18   62  -2.400  -0.021  -1.243
    1LIG   HC19   63  -2.368   0.077  -1.388
    1LIG   HC20   64  -2.333   0.143  -1.227
    1LIG   HC21   65  -2.199  -0.025  -1.510
    1LIG   HC22   66  -2.076  -0.127  -1.431
    1LIG   HC23   67  -2.249  -0.171  -1.422
    1LIG   HC24   68  -2.171  -0.039  -1.083
    1LIG   HC25   69  -2.232  -0.179  -1.174
    1LIG   HC26   70  -2.060  -0.135  -1.184
   0.00000   0.00000   0.00000
