; Created by cgenff_charmm2gmx.py

[ moleculetype ]
; Name			   nrexcl
LIG				 3

[ atoms ]
;	 nr		  type	resnr residue  atom   cgnr	   charge		mass  typeB    chargeB		massB
; residue	 1 LIG rtp LIG q	qsum
     1      SG3O2      1    LIG      S      1      0.113     32.060   ;
     2      OG2P1      1    LIG     O1      2     -0.300     15.999   ;
     3      OG2P1      1    LIG     O2      3     -0.300     15.999   ;
     4      CG321      1    LIG     C1      4      0.180     12.011   ;
     5      CG311      1    LIG     C2      5     -0.145     12.011   ;
     6      CG311      1    LIG     C3      6      0.100     12.011   ;
     7      CG314      1    LIG     C4      7     -0.043     12.011   ;
     8      CG321      1    LIG     C5      8      0.224     12.011   ;
     9      CG321      1    LIG     C6      9     -0.108     12.011   ;
    10     CG2R61      1    LIG     C7     10      0.006     12.011   ;
    11     CG2R61      1    LIG     C8     11     -0.111     12.011   ;
    12     CG2R61      1    LIG     C9     12      0.227     12.011   ;
    13     CG2R61      1    LIG    C10     13     -0.028     12.011   ;
    14     CG2R66      1    LIG    C11     14      0.028     12.011   ;
    15       FGR1      1    LIG     F1     15     -0.230     18.998   ;
    16     CG2R61      1    LIG    C12     16     -0.121     12.011   ;
    17      OG301      1    LIG     O3     17     -0.321     15.999   ;
    18      CG311      1    LIG    C13     18      0.477     12.011   ;
    19      CG302      1    LIG    C14     19      0.190     12.011   ;
    20       FGA3      1    LIG     F2     20     -0.115     18.998   ;
    21       FGA3      1    LIG     F3     21     -0.115     18.998   ;
    22       FGA3      1    LIG     F4     22     -0.115     18.998   ;
    23      CG302      1    LIG    C15     23      0.190     12.011   ;
    24       FGA3      1    LIG     F5     24     -0.115     18.998   ;
    25       FGA3      1    LIG     F6     25     -0.115     18.998   ;
    26       FGA3      1    LIG     F7     26     -0.115     18.998   ;
    27      NG2S3      1    LIG     N1     27     -0.731     14.007   ;
    28       HGP4      1    LIG     H1     28      0.357      1.008   ;
    29       HGP4      1    LIG     H2     29      0.357      1.008   ;
    30      OG311      1    LIG     O4     30     -0.595     15.999   ;
    31       HGP1      1    LIG     H3     31      0.422      1.008   ;
    32      NG3P2      1    LIG     N2     32     -0.335     14.007   ;
    33       HGP2      1    LIG     H4     33      0.306      1.008   ;
    34       HGP2      1    LIG     H5     34      0.306      1.008   ;
    35      CG324      1    LIG    C16     35      0.156     12.011   ;
    36     CG3C31      1    LIG    C17     36     -0.135     12.011   ;
    37     CG3C31      1    LIG    C18     37     -0.170     12.011   ;
    38     CG3C31      1    LIG    C19     38      0.063     12.011   ;
    39      OG301      1    LIG     O5     39     -0.322     15.999   ;
    40      CG301      1    LIG    C20     40      0.198     12.011   ;
    41      CG331      1    LIG    C21     41     -0.258     12.011   ;
    42      CG331      1    LIG    C22     42     -0.258     12.011   ;
    43      CG331      1    LIG    C23     43     -0.258     12.011   ;
    44       HGA2      1    LIG    HC2     44      0.090      1.008   ;
    45       HGA2      1    LIG    HC3     45      0.090      1.008   ;
    46       HGA1      1    LIG     HC     46      0.090      1.008   ;
    47       HGA1      1    LIG    HC1     47      0.090      1.008   ;
    48       HGA1      1    LIG    HC4     48      0.109      1.008   ;
    49       HGA2      1    LIG    HC5     49      0.090      1.008   ;
    50       HGA2      1    LIG    HC6     50      0.090      1.008   ;
    51       HGA2      1    LIG    HC7     51      0.090      1.008   ;
    52       HGA2      1    LIG    HC8     52      0.090      1.008   ;
    53      HGR61      1    LIG    HC9     53      0.116      1.008   ;
    54      HGR62      1    LIG   HC10     54      0.174      1.008   ;
    55       HGA1      1    LIG   HC11     55      0.090      1.008   ;
    56       HGA2      1    LIG   HC12     56      0.090      1.008   ;
    57       HGA2      1    LIG   HC13     57      0.090      1.008   ;
    58       HGA1      1    LIG   HC14     58      0.090      1.008   ;
    59       HGA2      1    LIG   HC15     59      0.090      1.008   ;
    60       HGA2      1    LIG   HC16     60      0.090      1.008   ;
    61       HGA1      1    LIG   HC17     61      0.090      1.008   ;
    62       HGA3      1    LIG   HC18     62      0.090      1.008   ;
    63       HGA3      1    LIG   HC19     63      0.090      1.008   ;
    64       HGA3      1    LIG   HC20     64      0.090      1.008   ;
    65       HGA3      1    LIG   HC21     65      0.090      1.008   ;
    66       HGA3      1    LIG   HC22     66      0.090      1.008   ;
    67       HGA3      1    LIG   HC23     67      0.090      1.008   ;
    68       HGA3      1    LIG   HC24     68      0.090      1.008   ;
    69       HGA3      1    LIG   HC25     69      0.090      1.008   ;
    70       HGA3      1    LIG   HC26     70      0.090      1.008   ;

[ bonds ]
;	ai	  aj funct			  c0			c1			  c2			c3
    1     4	 1 ;       SG3O2      CG321
    1     3	 1 ;       SG3O2      OG2P1
    1     8	 1 ;       SG3O2      CG321
    1     2	 1 ;       SG3O2      OG2P1
    4     5	 1 ;       CG321      CG311
    4    44	 1 ;       CG321       HGA2
    4    45	 1 ;       CG321       HGA2
    5     9	 1 ;       CG311      CG321
    5     6	 1 ;       CG311      CG311
    5    46	 1 ;       CG311       HGA1
    6    30	 1 ;       CG311      OG311
    6     7	 1 ;       CG311      CG314
    6    47	 1 ;       CG311       HGA1
    7     8	 1 ;       CG314      CG321
    7    32	 1 ;       CG314      NG3P2
    7    48	 1 ;       CG314       HGA1
    8    49	 1 ;       CG321       HGA2
    8    50	 1 ;       CG321       HGA2
    9    10	 1 ;       CG321     CG2R61
    9    51	 1 ;       CG321       HGA2
    9    52	 1 ;       CG321       HGA2
   10    16	 1 ;      CG2R61     CG2R61
   10    11	 1 ;      CG2R61     CG2R61
   11    12	 1 ;      CG2R61     CG2R61
   11    53	 1 ;      CG2R61      HGR61
   12    13	 1 ;      CG2R61     CG2R61
   12    17	 1 ;      CG2R61      OG301
   13    14	 1 ;      CG2R61     CG2R66
   13    27	 1 ;      CG2R61      NG2S3
   14    16	 1 ;      CG2R66     CG2R61
   14    15	 1 ;      CG2R66       FGR1
   16    54	 1 ;      CG2R61      HGR62
   17    18	 1 ;       OG301      CG311
   18    23	 1 ;       CG311      CG302
   18    19	 1 ;       CG311      CG302
   18    55	 1 ;       CG311       HGA1
   19    21	 1 ;       CG302       FGA3
   19    20	 1 ;       CG302       FGA3
   19    22	 1 ;       CG302       FGA3
   23    26	 1 ;       CG302       FGA3
   23    24	 1 ;       CG302       FGA3
   23    25	 1 ;       CG302       FGA3
   27    29	 1 ;       NG2S3       HGP4
   27    28	 1 ;       NG2S3       HGP4
   30    31	 1 ;       OG311       HGP1
   32    34	 1 ;       NG3P2       HGP2
   32    33	 1 ;       NG3P2       HGP2
   32    35	 1 ;       NG3P2      CG324
   35    36	 1 ;       CG324     CG3C31
   35    56	 1 ;       CG324       HGA2
   35    57	 1 ;       CG324       HGA2
   36    37	 1 ;      CG3C31     CG3C31
   36    38	 1 ;      CG3C31     CG3C31
   36    58	 1 ;      CG3C31       HGA1
   37    38	 1 ;      CG3C31     CG3C31
   37    59	 1 ;      CG3C31       HGA2
   37    60	 1 ;      CG3C31       HGA2
   38    39	 1 ;      CG3C31      OG301
   38    61	 1 ;      CG3C31       HGA1
   39    40	 1 ;       OG301      CG301
   40    42	 1 ;       CG301      CG331
   40    43	 1 ;       CG301      CG331
   40    41	 1 ;       CG301      CG331
   41    62	 1 ;       CG331       HGA3
   41    63	 1 ;       CG331       HGA3
   41    64	 1 ;       CG331       HGA3
   42    65	 1 ;       CG331       HGA3
   42    66	 1 ;       CG331       HGA3
   42    67	 1 ;       CG331       HGA3
   43    68	 1 ;       CG331       HGA3
   43    69	 1 ;       CG331       HGA3
   43    70	 1 ;       CG331       HGA3

[ pairs ]
;	ai	  aj funct			  c0			c1			  c2			c3
    1     9	 1
    1     6	 1
    1    46	 1
    1    32	 1
    1    48	 1
    2     5	 1
    2    44	 1
    2    45	 1
    2     7	 1
    2    49	 1
    2    50	 1
    3     5	 1
    3    44	 1
    3    45	 1
    3     7	 1
    3    49	 1
    3    50	 1
    4     7	 1
    4    49	 1
    4    50	 1
    4    10	 1
    4    51	 1
    4    52	 1
    4    30	 1
    4    47	 1
    5     8	 1
    5    31	 1
    5    32	 1
    5    48	 1
    5    16	 1
    5    11	 1
    6    44	 1
    6    45	 1
    6    10	 1
    6    51	 1
    6    52	 1
    6    49	 1
    6    50	 1
    6    34	 1
    6    33	 1
    6    35	 1
    7     9	 1
    7    46	 1
    7    31	 1
    7    36	 1
    7    56	 1
    7    57	 1
    8    44	 1
    8    45	 1
    8    30	 1
    8    47	 1
    8    34	 1
    8    33	 1
    8    35	 1
    9    44	 1
    9    45	 1
    9    30	 1
    9    47	 1
    9    14	 1
    9    54	 1
    9    12	 1
    9    53	 1
   10    46	 1
   10    13	 1
   10    17	 1
   10    15	 1
   11    51	 1
   11    52	 1
   11    14	 1
   11    54	 1
   11    27	 1
   11    18	 1
   12    16	 1
   12    15	 1
   12    29	 1
   12    28	 1
   12    23	 1
   12    19	 1
   12    55	 1
   13    53	 1
   13    18	 1
   13    54	 1
   14    17	 1
   14    29	 1
   14    28	 1
   15    27	 1
   15    54	 1
   16    51	 1
   16    52	 1
   16    53	 1
   16    27	 1
   17    53	 1
   17    27	 1
   17    26	 1
   17    24	 1
   17    25	 1
   17    21	 1
   17    20	 1
   17    22	 1
   19    26	 1
   19    24	 1
   19    25	 1
   20    23	 1
   20    55	 1
   21    23	 1
   21    55	 1
   22    23	 1
   22    55	 1
   24    55	 1
   25    55	 1
   26    55	 1
   30    46	 1
   30    32	 1
   30    48	 1
   31    47	 1
   32    47	 1
   32    49	 1
   32    50	 1
   32    37	 1
   32    38	 1
   32    58	 1
   33    48	 1
   33    36	 1
   33    56	 1
   33    57	 1
   34    48	 1
   34    36	 1
   34    56	 1
   34    57	 1
   35    48	 1
   35    59	 1
   35    60	 1
   35    39	 1
   35    61	 1
   36    40	 1
   37    56	 1
   37    57	 1
   37    40	 1
   38    56	 1
   38    57	 1
   38    42	 1
   38    43	 1
   38    41	 1
   39    58	 1
   39    59	 1
   39    60	 1
   39    65	 1
   39    66	 1
   39    67	 1
   39    68	 1
   39    69	 1
   39    70	 1
   39    62	 1
   39    63	 1
   39    64	 1
   40    61	 1
   41    65	 1
   41    66	 1
   41    67	 1
   41    68	 1
   41    69	 1
   41    70	 1
   42    68	 1
   42    69	 1
   42    70	 1
   42    62	 1
   42    63	 1
   42    64	 1
   43    65	 1
   43    66	 1
   43    67	 1
   43    62	 1
   43    63	 1
   43    64	 1
   44    46	 1
   45    46	 1
   46    51	 1
   46    52	 1
   46    47	 1
   47    48	 1
   48    49	 1
   48    50	 1
   56    58	 1
   57    58	 1
   58    59	 1
   58    60	 1
   58    61	 1
   59    61	 1
   60    61	 1

[ angles ]
;	ai	  aj	ak funct			c0			  c1			c2			  c3
    4     1     3	5 ;      CG321      SG3O2      OG2P1
    4     1     8	5 ;      CG321      SG3O2      CG321
    4     1     2	5 ;      CG321      SG3O2      OG2P1
    3     1     8	5 ;      OG2P1      SG3O2      CG321
    3     1     2	5 ;      OG2P1      SG3O2      OG2P1
    8     1     2	5 ;      CG321      SG3O2      OG2P1
    5     4     1	5 ;      CG311      CG321      SG3O2
    5     4    44	5 ;      CG311      CG321       HGA2
    5     4    45	5 ;      CG311      CG321       HGA2
    1     4    44	5 ;      SG3O2      CG321       HGA2
    1     4    45	5 ;      SG3O2      CG321       HGA2
   44     4    45	5 ;       HGA2      CG321       HGA2
    9     5     4	5 ;      CG321      CG311      CG321
    9     5     6	5 ;      CG321      CG311      CG311
    9     5    46	5 ;      CG321      CG311       HGA1
    4     5     6	5 ;      CG321      CG311      CG311
    4     5    46	5 ;      CG321      CG311       HGA1
    6     5    46	5 ;      CG311      CG311       HGA1
    5     6    30	5 ;      CG311      CG311      OG311
    5     6     7	5 ;      CG311      CG311      CG314
    5     6    47	5 ;      CG311      CG311       HGA1
   30     6     7	5 ;      OG311      CG311      CG314
   30     6    47	5 ;      OG311      CG311       HGA1
    7     6    47	5 ;      CG314      CG311       HGA1
    6     7     8	5 ;      CG311      CG314      CG321
    6     7    32	5 ;      CG311      CG314      NG3P2
    6     7    48	5 ;      CG311      CG314       HGA1
    8     7    32	5 ;      CG321      CG314      NG3P2
    8     7    48	5 ;      CG321      CG314       HGA1
   32     7    48	5 ;      NG3P2      CG314       HGA1
    1     8     7	5 ;      SG3O2      CG321      CG314
    1     8    49	5 ;      SG3O2      CG321       HGA2
    1     8    50	5 ;      SG3O2      CG321       HGA2
    7     8    49	5 ;      CG314      CG321       HGA2
    7     8    50	5 ;      CG314      CG321       HGA2
   49     8    50	5 ;       HGA2      CG321       HGA2
   10     9     5	5 ;     CG2R61      CG321      CG311
   10     9    51	5 ;     CG2R61      CG321       HGA2
   10     9    52	5 ;     CG2R61      CG321       HGA2
    5     9    51	5 ;      CG311      CG321       HGA2
    5     9    52	5 ;      CG311      CG321       HGA2
   51     9    52	5 ;       HGA2      CG321       HGA2
   16    10     9	5 ;     CG2R61     CG2R61      CG321
   16    10    11	5 ;     CG2R61     CG2R61     CG2R61
    9    10    11	5 ;      CG321     CG2R61     CG2R61
   10    11    12	5 ;     CG2R61     CG2R61     CG2R61
   10    11    53	5 ;     CG2R61     CG2R61      HGR61
   12    11    53	5 ;     CG2R61     CG2R61      HGR61
   11    12    13	5 ;     CG2R61     CG2R61     CG2R61
   11    12    17	5 ;     CG2R61     CG2R61      OG301
   13    12    17	5 ;     CG2R61     CG2R61      OG301
   14    13    12	5 ;     CG2R66     CG2R61     CG2R61
   14    13    27	5 ;     CG2R66     CG2R61      NG2S3
   12    13    27	5 ;     CG2R61     CG2R61      NG2S3
   16    14    15	5 ;     CG2R61     CG2R66       FGR1
   16    14    13	5 ;     CG2R61     CG2R66     CG2R61
   15    14    13	5 ;       FGR1     CG2R66     CG2R61
   14    16    10	5 ;     CG2R66     CG2R61     CG2R61
   14    16    54	5 ;     CG2R66     CG2R61      HGR62
   10    16    54	5 ;     CG2R61     CG2R61      HGR62
   18    17    12	5 ;      CG311      OG301     CG2R61
   23    18    17	5 ;      CG302      CG311      OG301
   23    18    19	5 ;      CG302      CG311      CG302
   23    18    55	5 ;      CG302      CG311       HGA1
   17    18    19	5 ;      OG301      CG311      CG302
   17    18    55	5 ;      OG301      CG311       HGA1
   19    18    55	5 ;      CG302      CG311       HGA1
   18    19    21	5 ;      CG311      CG302       FGA3
   18    19    20	5 ;      CG311      CG302       FGA3
   18    19    22	5 ;      CG311      CG302       FGA3
   21    19    20	5 ;       FGA3      CG302       FGA3
   21    19    22	5 ;       FGA3      CG302       FGA3
   20    19    22	5 ;       FGA3      CG302       FGA3
   26    23    24	5 ;       FGA3      CG302       FGA3
   26    23    25	5 ;       FGA3      CG302       FGA3
   26    23    18	5 ;       FGA3      CG302      CG311
   24    23    25	5 ;       FGA3      CG302       FGA3
   24    23    18	5 ;       FGA3      CG302      CG311
   25    23    18	5 ;       FGA3      CG302      CG311
   13    27    29	5 ;     CG2R61      NG2S3       HGP4
   13    27    28	5 ;     CG2R61      NG2S3       HGP4
   29    27    28	5 ;       HGP4      NG2S3       HGP4
    6    30    31	5 ;      CG311      OG311       HGP1
    7    32    34	5 ;      CG314      NG3P2       HGP2
    7    32    33	5 ;      CG314      NG3P2       HGP2
    7    32    35	5 ;      CG314      NG3P2      CG324
   34    32    33	5 ;       HGP2      NG3P2       HGP2
   34    32    35	5 ;       HGP2      NG3P2      CG324
   33    32    35	5 ;       HGP2      NG3P2      CG324
   32    35    36	5 ;      NG3P2      CG324     CG3C31
   32    35    56	5 ;      NG3P2      CG324       HGA2
   32    35    57	5 ;      NG3P2      CG324       HGA2
   36    35    56	5 ;     CG3C31      CG324       HGA2
   36    35    57	5 ;     CG3C31      CG324       HGA2
   56    35    57	5 ;       HGA2      CG324       HGA2
   35    36    37	5 ;      CG324     CG3C31     CG3C31
   35    36    38	5 ;      CG324     CG3C31     CG3C31
   35    36    58	5 ;      CG324     CG3C31       HGA1
   37    36    38	5 ;     CG3C31     CG3C31     CG3C31
   37    36    58	5 ;     CG3C31     CG3C31       HGA1
   38    36    58	5 ;     CG3C31     CG3C31       HGA1
   36    37    38	5 ;     CG3C31     CG3C31     CG3C31
   36    37    59	5 ;     CG3C31     CG3C31       HGA2
   36    37    60	5 ;     CG3C31     CG3C31       HGA2
   38    37    59	5 ;     CG3C31     CG3C31       HGA2
   38    37    60	5 ;     CG3C31     CG3C31       HGA2
   59    37    60	5 ;       HGA2     CG3C31       HGA2
   36    38    37	5 ;     CG3C31     CG3C31     CG3C31
   36    38    39	5 ;     CG3C31     CG3C31      OG301
   36    38    61	5 ;     CG3C31     CG3C31       HGA1
   37    38    39	5 ;     CG3C31     CG3C31      OG301
   37    38    61	5 ;     CG3C31     CG3C31       HGA1
   39    38    61	5 ;      OG301     CG3C31       HGA1
   38    39    40	5 ;     CG3C31      OG301      CG301
   39    40    42	5 ;      OG301      CG301      CG331
   39    40    43	5 ;      OG301      CG301      CG331
   39    40    41	5 ;      OG301      CG301      CG331
   42    40    43	5 ;      CG331      CG301      CG331
   42    40    41	5 ;      CG331      CG301      CG331
   43    40    41	5 ;      CG331      CG301      CG331
   40    41    62	5 ;      CG301      CG331       HGA3
   40    41    63	5 ;      CG301      CG331       HGA3
   40    41    64	5 ;      CG301      CG331       HGA3
   62    41    63	5 ;       HGA3      CG331       HGA3
   62    41    64	5 ;       HGA3      CG331       HGA3
   63    41    64	5 ;       HGA3      CG331       HGA3
   40    42    65	5 ;      CG301      CG331       HGA3
   40    42    66	5 ;      CG301      CG331       HGA3
   40    42    67	5 ;      CG301      CG331       HGA3
   65    42    66	5 ;       HGA3      CG331       HGA3
   65    42    67	5 ;       HGA3      CG331       HGA3
   66    42    67	5 ;       HGA3      CG331       HGA3
   40    43    68	5 ;      CG301      CG331       HGA3
   40    43    69	5 ;      CG301      CG331       HGA3
   40    43    70	5 ;      CG301      CG331       HGA3
   68    43    69	5 ;       HGA3      CG331       HGA3
   68    43    70	5 ;       HGA3      CG331       HGA3
   69    43    70	5 ;       HGA3      CG331       HGA3

[ dihedrals ]
;	ai	  aj	ak	  al funct			  c0			c1			  c2			c3			  c4			c5
    3     1     4     5	 9 ;      OG2P1      SG3O2      CG321      CG311
    3     1     4    44	 9 ;      OG2P1      SG3O2      CG321       HGA2
    3     1     4    45	 9 ;      OG2P1      SG3O2      CG321       HGA2
    8     1     4     5	 9 ;      CG321      SG3O2      CG321      CG311
    8     1     4    44	 9 ;      CG321      SG3O2      CG321       HGA2
    8     1     4    45	 9 ;      CG321      SG3O2      CG321       HGA2
    2     1     4     5	 9 ;      OG2P1      SG3O2      CG321      CG311
    2     1     4    44	 9 ;      OG2P1      SG3O2      CG321       HGA2
    2     1     4    45	 9 ;      OG2P1      SG3O2      CG321       HGA2
    4     1     8     7	 9 ;      CG321      SG3O2      CG321      CG314
    4     1     8    49	 9 ;      CG321      SG3O2      CG321       HGA2
    4     1     8    50	 9 ;      CG321      SG3O2      CG321       HGA2
    3     1     8     7	 9 ;      OG2P1      SG3O2      CG321      CG314
    3     1     8    49	 9 ;      OG2P1      SG3O2      CG321       HGA2
    3     1     8    50	 9 ;      OG2P1      SG3O2      CG321       HGA2
    2     1     8     7	 9 ;      OG2P1      SG3O2      CG321      CG314
    2     1     8    49	 9 ;      OG2P1      SG3O2      CG321       HGA2
    2     1     8    50	 9 ;      OG2P1      SG3O2      CG321       HGA2
    1     4     5     9	 9 ;      SG3O2      CG321      CG311      CG321
    1     4     5     6	 9 ;      SG3O2      CG321      CG311      CG311
    1     4     5    46	 9 ;      SG3O2      CG321      CG311       HGA1
   44     4     5     9	 9 ;       HGA2      CG321      CG311      CG321
   44     4     5     6	 9 ;       HGA2      CG321      CG311      CG311
   44     4     5    46	 9 ;       HGA2      CG321      CG311       HGA1
   45     4     5     9	 9 ;       HGA2      CG321      CG311      CG321
   45     4     5     6	 9 ;       HGA2      CG321      CG311      CG311
   45     4     5    46	 9 ;       HGA2      CG321      CG311       HGA1
    4     5     9    10	 9 ;      CG321      CG311      CG321     CG2R61
    4     5     9    51	 9 ;      CG321      CG311      CG321       HGA2
    4     5     9    52	 9 ;      CG321      CG311      CG321       HGA2
    6     5     9    10	 9 ;      CG311      CG311      CG321     CG2R61
    6     5     9    51	 9 ;      CG311      CG311      CG321       HGA2
    6     5     9    52	 9 ;      CG311      CG311      CG321       HGA2
   46     5     9    10	 9 ;       HGA1      CG311      CG321     CG2R61
   46     5     9    51	 9 ;       HGA1      CG311      CG321       HGA2
   46     5     9    52	 9 ;       HGA1      CG311      CG321       HGA2
    9     5     6    30	 9 ;      CG321      CG311      CG311      OG311
    9     5     6     7	 9 ;      CG321      CG311      CG311      CG314
    9     5     6    47	 9 ;      CG321      CG311      CG311       HGA1
    4     5     6    30	 9 ;      CG321      CG311      CG311      OG311
    4     5     6     7	 9 ;      CG321      CG311      CG311      CG314
    4     5     6    47	 9 ;      CG321      CG311      CG311       HGA1
   46     5     6    30	 9 ;       HGA1      CG311      CG311      OG311
   46     5     6     7	 9 ;       HGA1      CG311      CG311      CG314
   46     5     6    47	 9 ;       HGA1      CG311      CG311       HGA1
    5     6    30    31	 9 ;      CG311      CG311      OG311       HGP1
    7     6    30    31	 9 ;      CG314      CG311      OG311       HGP1
   47     6    30    31	 9 ;       HGA1      CG311      OG311       HGP1
    5     6     7     8	 9 ;      CG311      CG311      CG314      CG321
    5     6     7    32	 9 ;      CG311      CG311      CG314      NG3P2
    5     6     7    48	 9 ;      CG311      CG311      CG314       HGA1
   30     6     7     8	 9 ;      OG311      CG311      CG314      CG321
   30     6     7    32	 9 ;      OG311      CG311      CG314      NG3P2
   30     6     7    48	 9 ;      OG311      CG311      CG314       HGA1
   47     6     7     8	 9 ;       HGA1      CG311      CG314      CG321
   47     6     7    32	 9 ;       HGA1      CG311      CG314      NG3P2
   47     6     7    48	 9 ;       HGA1      CG311      CG314       HGA1
    6     7     8     1	 9 ;      CG311      CG314      CG321      SG3O2
    6     7     8    49	 9 ;      CG311      CG314      CG321       HGA2
    6     7     8    50	 9 ;      CG311      CG314      CG321       HGA2
   32     7     8     1	 9 ;      NG3P2      CG314      CG321      SG3O2
   32     7     8    49	 9 ;      NG3P2      CG314      CG321       HGA2
   32     7     8    50	 9 ;      NG3P2      CG314      CG321       HGA2
   48     7     8     1	 9 ;       HGA1      CG314      CG321      SG3O2
   48     7     8    49	 9 ;       HGA1      CG314      CG321       HGA2
   48     7     8    50	 9 ;       HGA1      CG314      CG321       HGA2
    6     7    32    34	 9 ;      CG311      CG314      NG3P2       HGP2
    6     7    32    33	 9 ;      CG311      CG314      NG3P2       HGP2
    6     7    32    35	 9 ;      CG311      CG314      NG3P2      CG324
    8     7    32    34	 9 ;      CG321      CG314      NG3P2       HGP2
    8     7    32    33	 9 ;      CG321      CG314      NG3P2       HGP2
    8     7    32    35	 9 ;      CG321      CG314      NG3P2      CG324
   48     7    32    34	 9 ;       HGA1      CG314      NG3P2       HGP2
   48     7    32    33	 9 ;       HGA1      CG314      NG3P2       HGP2
   48     7    32    35	 9 ;       HGA1      CG314      NG3P2      CG324
    5     9    10    16	 9 ;      CG311      CG321     CG2R61     CG2R61
    5     9    10    11	 9 ;      CG311      CG321     CG2R61     CG2R61
   51     9    10    16	 9 ;       HGA2      CG321     CG2R61     CG2R61
   51     9    10    11	 9 ;       HGA2      CG321     CG2R61     CG2R61
   52     9    10    16	 9 ;       HGA2      CG321     CG2R61     CG2R61
   52     9    10    11	 9 ;       HGA2      CG321     CG2R61     CG2R61
    9    10    16    14	 9 ;      CG321     CG2R61     CG2R61     CG2R66
    9    10    16    54	 9 ;      CG321     CG2R61     CG2R61      HGR62
   11    10    16    14	 9 ;     CG2R61     CG2R61     CG2R61     CG2R66
   11    10    16    54	 9 ;     CG2R61     CG2R61     CG2R61      HGR62
   16    10    11    12	 9 ;     CG2R61     CG2R61     CG2R61     CG2R61
   16    10    11    53	 9 ;     CG2R61     CG2R61     CG2R61      HGR61
    9    10    11    12	 9 ;      CG321     CG2R61     CG2R61     CG2R61
    9    10    11    53	 9 ;      CG321     CG2R61     CG2R61      HGR61
   10    11    12    13	 9 ;     CG2R61     CG2R61     CG2R61     CG2R61
   10    11    12    17	 9 ;     CG2R61     CG2R61     CG2R61      OG301
   53    11    12    13	 9 ;      HGR61     CG2R61     CG2R61     CG2R61
   53    11    12    17	 9 ;      HGR61     CG2R61     CG2R61      OG301
   11    12    13    14	 9 ;     CG2R61     CG2R61     CG2R61     CG2R66
   11    12    13    27	 9 ;     CG2R61     CG2R61     CG2R61      NG2S3
   17    12    13    14	 9 ;      OG301     CG2R61     CG2R61     CG2R66
   17    12    13    27	 9 ;      OG301     CG2R61     CG2R61      NG2S3
   11    12    17    18	 9 ;     CG2R61     CG2R61      OG301      CG311
   13    12    17    18	 9 ;     CG2R61     CG2R61      OG301      CG311
   12    13    14    16	 9 ;     CG2R61     CG2R61     CG2R66     CG2R61
   12    13    14    15	 9 ;     CG2R61     CG2R61     CG2R66       FGR1
   27    13    14    16	 9 ;      NG2S3     CG2R61     CG2R66     CG2R61
   27    13    14    15	 9 ;      NG2S3     CG2R61     CG2R66       FGR1
   14    13    27    29	 9 ;     CG2R66     CG2R61      NG2S3       HGP4
   14    13    27    28	 9 ;     CG2R66     CG2R61      NG2S3       HGP4
   12    13    27    29	 9 ;     CG2R61     CG2R61      NG2S3       HGP4
   12    13    27    28	 9 ;     CG2R61     CG2R61      NG2S3       HGP4
   15    14    16    10	 9 ;       FGR1     CG2R66     CG2R61     CG2R61
   15    14    16    54	 9 ;       FGR1     CG2R66     CG2R61      HGR62
   13    14    16    10	 9 ;     CG2R61     CG2R66     CG2R61     CG2R61
   13    14    16    54	 9 ;     CG2R61     CG2R66     CG2R61      HGR62
   12    17    18    23	 9 ;     CG2R61      OG301      CG311      CG302
   12    17    18    19	 9 ;     CG2R61      OG301      CG311      CG302
   12    17    18    55	 9 ;     CG2R61      OG301      CG311       HGA1
   17    18    23    26	 9 ;      OG301      CG311      CG302       FGA3
   17    18    23    24	 9 ;      OG301      CG311      CG302       FGA3
   17    18    23    25	 9 ;      OG301      CG311      CG302       FGA3
   19    18    23    26	 9 ;      CG302      CG311      CG302       FGA3
   19    18    23    24	 9 ;      CG302      CG311      CG302       FGA3
   19    18    23    25	 9 ;      CG302      CG311      CG302       FGA3
   55    18    23    26	 9 ;       HGA1      CG311      CG302       FGA3
   55    18    23    24	 9 ;       HGA1      CG311      CG302       FGA3
   55    18    23    25	 9 ;       HGA1      CG311      CG302       FGA3
   23    18    19    21	 9 ;      CG302      CG311      CG302       FGA3
   23    18    19    20	 9 ;      CG302      CG311      CG302       FGA3
   23    18    19    22	 9 ;      CG302      CG311      CG302       FGA3
   17    18    19    21	 9 ;      OG301      CG311      CG302       FGA3
   17    18    19    20	 9 ;      OG301      CG311      CG302       FGA3
   17    18    19    22	 9 ;      OG301      CG311      CG302       FGA3
   55    18    19    21	 9 ;       HGA1      CG311      CG302       FGA3
   55    18    19    20	 9 ;       HGA1      CG311      CG302       FGA3
   55    18    19    22	 9 ;       HGA1      CG311      CG302       FGA3
    7    32    35    36	 9 ;      CG314      NG3P2      CG324     CG3C31
    7    32    35    56	 9 ;      CG314      NG3P2      CG324       HGA2
    7    32    35    57	 9 ;      CG314      NG3P2      CG324       HGA2
   34    32    35    36	 9 ;       HGP2      NG3P2      CG324     CG3C31
   34    32    35    56	 9 ;       HGP2      NG3P2      CG324       HGA2
   34    32    35    57	 9 ;       HGP2      NG3P2      CG324       HGA2
   33    32    35    36	 9 ;       HGP2      NG3P2      CG324     CG3C31
   33    32    35    56	 9 ;       HGP2      NG3P2      CG324       HGA2
   33    32    35    57	 9 ;       HGP2      NG3P2      CG324       HGA2
   32    35    36    37	 9 ;      NG3P2      CG324     CG3C31     CG3C31
   32    35    36    38	 9 ;      NG3P2      CG324     CG3C31     CG3C31
   32    35    36    58	 9 ;      NG3P2      CG324     CG3C31       HGA1
   56    35    36    37	 9 ;       HGA2      CG324     CG3C31     CG3C31
   56    35    36    38	 9 ;       HGA2      CG324     CG3C31     CG3C31
   56    35    36    58	 9 ;       HGA2      CG324     CG3C31       HGA1
   57    35    36    37	 9 ;       HGA2      CG324     CG3C31     CG3C31
   57    35    36    38	 9 ;       HGA2      CG324     CG3C31     CG3C31
   57    35    36    58	 9 ;       HGA2      CG324     CG3C31       HGA1
   35    36    37    38	 9 ;      CG324     CG3C31     CG3C31     CG3C31
   35    36    37    59	 9 ;      CG324     CG3C31     CG3C31       HGA2
   35    36    37    60	 9 ;      CG324     CG3C31     CG3C31       HGA2
   38    36    37    59	 9 ;     CG3C31     CG3C31     CG3C31       HGA2
   38    36    37    60	 9 ;     CG3C31     CG3C31     CG3C31       HGA2
   58    36    37    38	 9 ;       HGA1     CG3C31     CG3C31     CG3C31
   58    36    37    59	 9 ;       HGA1     CG3C31     CG3C31       HGA2
   58    36    37    60	 9 ;       HGA1     CG3C31     CG3C31       HGA2
   35    36    38    37	 9 ;      CG324     CG3C31     CG3C31     CG3C31
   35    36    38    39	 9 ;      CG324     CG3C31     CG3C31      OG301
   35    36    38    61	 9 ;      CG324     CG3C31     CG3C31       HGA1
   37    36    38    39	 9 ;     CG3C31     CG3C31     CG3C31      OG301
   37    36    38    61	 9 ;     CG3C31     CG3C31     CG3C31       HGA1
   58    36    38    37	 9 ;       HGA1     CG3C31     CG3C31     CG3C31
   58    36    38    39	 9 ;       HGA1     CG3C31     CG3C31      OG301
   58    36    38    61	 9 ;       HGA1     CG3C31     CG3C31       HGA1
   36    37    38    39	 9 ;     CG3C31     CG3C31     CG3C31      OG301
   36    37    38    61	 9 ;     CG3C31     CG3C31     CG3C31       HGA1
   59    37    38    36	 9 ;       HGA2     CG3C31     CG3C31     CG3C31
   59    37    38    39	 9 ;       HGA2     CG3C31     CG3C31      OG301
   59    37    38    61	 9 ;       HGA2     CG3C31     CG3C31       HGA1
   60    37    38    36	 9 ;       HGA2     CG3C31     CG3C31     CG3C31
   60    37    38    39	 9 ;       HGA2     CG3C31     CG3C31      OG301
   60    37    38    61	 9 ;       HGA2     CG3C31     CG3C31       HGA1
   36    38    39    40	 9 ;     CG3C31     CG3C31      OG301      CG301
   37    38    39    40	 9 ;     CG3C31     CG3C31      OG301      CG301
   61    38    39    40	 9 ;       HGA1     CG3C31      OG301      CG301
   38    39    40    42	 9 ;     CG3C31      OG301      CG301      CG331
   38    39    40    43	 9 ;     CG3C31      OG301      CG301      CG331
   38    39    40    41	 9 ;     CG3C31      OG301      CG301      CG331
   39    40    42    65	 9 ;      OG301      CG301      CG331       HGA3
   39    40    42    66	 9 ;      OG301      CG301      CG331       HGA3
   39    40    42    67	 9 ;      OG301      CG301      CG331       HGA3
   43    40    42    65	 9 ;      CG331      CG301      CG331       HGA3
   43    40    42    66	 9 ;      CG331      CG301      CG331       HGA3
   43    40    42    67	 9 ;      CG331      CG301      CG331       HGA3
   41    40    42    65	 9 ;      CG331      CG301      CG331       HGA3
   41    40    42    66	 9 ;      CG331      CG301      CG331       HGA3
   41    40    42    67	 9 ;      CG331      CG301      CG331       HGA3
   39    40    43    68	 9 ;      OG301      CG301      CG331       HGA3
   39    40    43    69	 9 ;      OG301      CG301      CG331       HGA3
   39    40    43    70	 9 ;      OG301      CG301      CG331       HGA3
   42    40    43    68	 9 ;      CG331      CG301      CG331       HGA3
   42    40    43    69	 9 ;      CG331      CG301      CG331       HGA3
   42    40    43    70	 9 ;      CG331      CG301      CG331       HGA3
   41    40    43    68	 9 ;      CG331      CG301      CG331       HGA3
   41    40    43    69	 9 ;      CG331      CG301      CG331       HGA3
   41    40    43    70	 9 ;      CG331      CG301      CG331       HGA3
   39    40    41    62	 9 ;      OG301      CG301      CG331       HGA3
   39    40    41    63	 9 ;      OG301      CG301      CG331       HGA3
   39    40    41    64	 9 ;      OG301      CG301      CG331       HGA3
   42    40    41    62	 9 ;      CG331      CG301      CG331       HGA3
   42    40    41    63	 9 ;      CG331      CG301      CG331       HGA3
   42    40    41    64	 9 ;      CG331      CG301      CG331       HGA3
   43    40    41    62	 9 ;      CG331      CG301      CG331       HGA3
   43    40    41    63	 9 ;      CG331      CG301      CG331       HGA3
   43    40    41    64	 9 ;      CG331      CG301      CG331       HGA3

[ dihedrals ]
;	ai	  aj	ak	  al funct			  c0			c1			  c2			c3
   27    28    29    13	 2

