; Created by cgenff_charmm2gmx.py

[ moleculetype ]
; Name			   nrexcl
LIG				 3

[ atoms ]
;	 nr		  type	resnr residue  atom   cgnr	   charge		mass  typeB    chargeB		massB
; residue	 1 LIG rtp LIG q	qsum
     1      CLGR1      1    LIG     CL      1     -0.200     35.453   ;
     2     CG2R61      1    LIG     C1      2      0.048     12.011   ;
     3     CG2R61      1    LIG     C2      3     -0.121     12.011   ;
     4     CG2R61      1    LIG     C3      4      0.075     12.011   ;
     5      CG321      1    LIG     C4      5     -0.230     12.011   ;
     6      CG301      1    LIG     C5      6      0.375     12.011   ;
     7      NG311      1    LIG     N1      7     -0.864     14.007   ;
     8      CG311      1    LIG     C6      8      0.346     12.011   ;
     9      NG311      1    LIG     N2      9     -0.806     14.007   ;
    10     CG2R61      1    LIG     C7     10     -0.052     12.011   ;
    11     CG2R61      1    LIG     C8     11     -0.108     12.011   ;
    12     CG2R61      1    LIG     C9     12     -0.099     12.011   ;
    13      CG331      1    LIG    C10     13     -0.295     12.011   ;
    14      CG331      1    LIG    C11     14     -0.295     12.011   ;
    15     HGPAM1      1    LIG     H1     15      0.350      1.008   ;
    16     HGPAM1      1    LIG     H2     16      0.362      1.008   ;
    17      CG311      1    LIG     CA     17     -0.001     12.011   ;
    18      CG321      1    LIG    C12     18     -0.207     12.011   ;
    19     CG2R51      1    LIG    C13     19      0.010     12.011   ;
    20     CG2R51      1    LIG    C14     20     -0.173     12.011   ;
    21     SG2R50      1    LIG      S     21     -0.168     32.060   ;
    22     CG2R51      1    LIG    C15     22     -0.172     12.011   ;
    23     CG2R51      1    LIG    C16     23      0.049     12.011   ;
    24      CG321      1    LIG    C17     24     -0.170     12.011   ;
    25      CG321      1    LIG    C18     25     -0.171     12.011   ;
    26      CG331      1    LIG    C19     26     -0.278     12.011   ;
    27      CG2O3      1    LIG    C20     27      0.898     12.011   ;
    28      OG2D2      1    LIG      O     28     -0.832     15.999   ;
    29      OG2D2      1    LIG    OXT     29     -0.832     15.999   ;
    30      HGR62      1    LIG     HC     30      0.145      1.008   ;
    31       HGA2      1    LIG    HC2     31      0.090      1.008   ;
    32       HGA2      1    LIG    HC3     32      0.090      1.008   ;
    33      HGR61      1    LIG    HC1     33      0.116      1.008   ;
    34      HGR62      1    LIG    HC4     34      0.150      1.008   ;
    35       HGA3      1    LIG    HC5     35      0.090      1.008   ;
    36       HGA3      1    LIG    HC6     36      0.090      1.008   ;
    37       HGA3      1    LIG    HC7     37      0.090      1.008   ;
    38       HGA3      1    LIG    HC8     38      0.090      1.008   ;
    39       HGA3      1    LIG    HC9     39      0.090      1.008   ;
    40       HGA3      1    LIG   HC10     40      0.090      1.008   ;
    41       HGA1      1    LIG   HC11     41      0.090      1.008   ;
    42       HGA2      1    LIG   HC12     42      0.090      1.008   ;
    43       HGA2      1    LIG   HC13     43      0.090      1.008   ;
    44      HGR52      1    LIG   HC14     44      0.195      1.008   ;
    45      HGR52      1    LIG   HC15     45      0.195      1.008   ;
    46       HGA2      1    LIG   HC16     46      0.090      1.008   ;
    47       HGA2      1    LIG   HC17     47      0.090      1.008   ;
    48       HGA2      1    LIG   HC18     48      0.090      1.008   ;
    49       HGA2      1    LIG   HC19     49      0.090      1.008   ;
    50       HGA3      1    LIG   HC20     50      0.090      1.008   ;
    51       HGA3      1    LIG   HC21     51      0.090      1.008   ;
    52       HGA3      1    LIG   HC22     52      0.090      1.008   ;
    53       HGA1      1    LIG    H26     53      0.090      1.008   ;
    54        LPH      1    LIG    LP1     54      0.050      0.000   ;

[ bonds ]
;	ai	  aj funct			  c0			c1			  c2			c3
    1     2	 1 ;       CLGR1     CG2R61
    2     3	 1 ;      CG2R61     CG2R61
    2    12	 1 ;      CG2R61     CG2R61
    3     4	 1 ;      CG2R61     CG2R61
    3    30	 1 ;      CG2R61      HGR62
    4     5	 1 ;      CG2R61      CG321
    4    10	 1 ;      CG2R61     CG2R61
    5     6	 1 ;       CG321      CG301
    5    31	 1 ;       CG321       HGA2
    5    32	 1 ;       CG321       HGA2
    6    14	 1 ;       CG301      CG331
    6    13	 1 ;       CG301      CG331
    6     7	 1 ;       CG301      NG311
    7    15	 1 ;       NG311     HGPAM1
    7     8	 1 ;       NG311      CG311
    8    10	 1 ;       CG311     CG2R61
    8     9	 1 ;       CG311      NG311
    8    53	 1 ;       CG311       HGA1
    9    16	 1 ;       NG311     HGPAM1
    9    17	 1 ;       NG311      CG311
   10    11	 1 ;      CG2R61     CG2R61
   11    12	 1 ;      CG2R61     CG2R61
   11    33	 1 ;      CG2R61      HGR61
   12    34	 1 ;      CG2R61      HGR62
   13    35	 1 ;       CG331       HGA3
   13    36	 1 ;       CG331       HGA3
   13    37	 1 ;       CG331       HGA3
   14    38	 1 ;       CG331       HGA3
   14    39	 1 ;       CG331       HGA3
   14    40	 1 ;       CG331       HGA3
   17    18	 1 ;       CG311      CG321
   17    27	 1 ;       CG311      CG2O3
   17    41	 1 ;       CG311       HGA1
   18    19	 1 ;       CG321     CG2R51
   18    42	 1 ;       CG321       HGA2
   18    43	 1 ;       CG321       HGA2
   19    20	 1 ;      CG2R51     CG2R51
   19    23	 1 ;      CG2R51     CG2R51
   20    21	 1 ;      CG2R51     SG2R50
   20    44	 1 ;      CG2R51      HGR52
   21    22	 1 ;      SG2R50     CG2R51
   22    23	 1 ;      CG2R51     CG2R51
   22    45	 1 ;      CG2R51      HGR52
   23    24	 1 ;      CG2R51      CG321
   24    25	 1 ;       CG321      CG321
   24    46	 1 ;       CG321       HGA2
   24    47	 1 ;       CG321       HGA2
   25    26	 1 ;       CG321      CG331
   25    48	 1 ;       CG321       HGA2
   25    49	 1 ;       CG321       HGA2
   26    50	 1 ;       CG331       HGA3
   26    51	 1 ;       CG331       HGA3
   26    52	 1 ;       CG331       HGA3
   27    29	 1 ;       CG2O3      OG2D2
   27    28	 1 ;       CG2O3      OG2D2

[ pairs ]
;	ai	  aj funct			  c0			c1			  c2			c3
    1     4	 1
   54     4	 1
    1    30	 1
   54    30	 1
    1    11	 1
   54    11	 1
    1    34	 1
   54    34	 1
    2     5	 1
    2    10	 1
    2    33	 1
    3    11	 1
    3    34	 1
    3     6	 1
    3    31	 1
    3    32	 1
    3     8	 1
    4    12	 1
    4    14	 1
    4    13	 1
    4     7	 1
    4     9	 1
    4    53	 1
    4    33	 1
    5    30	 1
    5    11	 1
    5     8	 1
    5    38	 1
    5    39	 1
    5    40	 1
    5    35	 1
    5    36	 1
    5    37	 1
    5    15	 1
    6    10	 1
    6     9	 1
    6    53	 1
    7    31	 1
    7    32	 1
    7    38	 1
    7    39	 1
    7    40	 1
    7    35	 1
    7    36	 1
    7    37	 1
    7    11	 1
    7    16	 1
    7    17	 1
    8    14	 1
    8    13	 1
    8    18	 1
    8    27	 1
    8    41	 1
    8    12	 1
    8    33	 1
    9    15	 1
    9    11	 1
    9    19	 1
    9    42	 1
    9    43	 1
    9    29	 1
    9    28	 1
   10    30	 1
   10    31	 1
   10    32	 1
   10    15	 1
   10    16	 1
   10    17	 1
   10    34	 1
   11    53	 1
   12    30	 1
   13    31	 1
   13    32	 1
   13    38	 1
   13    39	 1
   13    40	 1
   13    15	 1
   14    31	 1
   14    32	 1
   14    35	 1
   14    36	 1
   14    37	 1
   14    15	 1
   15    53	 1
   16    53	 1
   16    18	 1
   16    27	 1
   16    41	 1
   17    53	 1
   17    20	 1
   17    23	 1
   18    29	 1
   18    28	 1
   18    21	 1
   18    44	 1
   18    22	 1
   18    24	 1
   19    27	 1
   19    41	 1
   19    45	 1
   19    25	 1
   19    46	 1
   19    47	 1
   20    42	 1
   20    43	 1
   20    24	 1
   20    45	 1
   21    24	 1
   22    44	 1
   22    25	 1
   22    46	 1
   22    47	 1
   23    42	 1
   23    43	 1
   23    44	 1
   23    26	 1
   23    48	 1
   23    49	 1
   24    45	 1
   24    50	 1
   24    51	 1
   24    52	 1
   26    46	 1
   26    47	 1
   27    42	 1
   27    43	 1
   28    41	 1
   29    41	 1
   33    34	 1
   41    42	 1
   41    43	 1
   46    48	 1
   46    49	 1
   47    48	 1
   47    49	 1
   48    50	 1
   48    51	 1
   48    52	 1
   49    50	 1
   49    51	 1
   49    52	 1

[ angles ]
;	ai	  aj	ak funct			c0			  c1			c2			  c3
    1     2     3	5 ;      CLGR1     CG2R61     CG2R61
    1     2    12	5 ;      CLGR1     CG2R61     CG2R61
    3     2    12	5 ;     CG2R61     CG2R61     CG2R61
    2     3     4	5 ;     CG2R61     CG2R61     CG2R61
    2     3    30	5 ;     CG2R61     CG2R61      HGR62
    4     3    30	5 ;     CG2R61     CG2R61      HGR62
    3     4     5	5 ;     CG2R61     CG2R61      CG321
    3     4    10	5 ;     CG2R61     CG2R61     CG2R61
    5     4    10	5 ;      CG321     CG2R61     CG2R61
    6     5     4	5 ;      CG301      CG321     CG2R61
    6     5    31	5 ;      CG301      CG321       HGA2
    6     5    32	5 ;      CG301      CG321       HGA2
    4     5    31	5 ;     CG2R61      CG321       HGA2
    4     5    32	5 ;     CG2R61      CG321       HGA2
   31     5    32	5 ;       HGA2      CG321       HGA2
   14     6    13	5 ;      CG331      CG301      CG331
   14     6     5	5 ;      CG331      CG301      CG321
   14     6     7	5 ;      CG331      CG301      NG311
   13     6     5	5 ;      CG331      CG301      CG321
   13     6     7	5 ;      CG331      CG301      NG311
    5     6     7	5 ;      CG321      CG301      NG311
    6     7    15	5 ;      CG301      NG311     HGPAM1
    6     7     8	5 ;      CG301      NG311      CG311
   15     7     8	5 ;     HGPAM1      NG311      CG311
    7     8    10	5 ;      NG311      CG311     CG2R61
    7     8     9	5 ;      NG311      CG311      NG311
    7     8    53	5 ;      NG311      CG311       HGA1
   10     8     9	5 ;     CG2R61      CG311      NG311
   10     8    53	5 ;     CG2R61      CG311       HGA1
    9     8    53	5 ;      NG311      CG311       HGA1
    8     9    16	5 ;      CG311      NG311     HGPAM1
    8     9    17	5 ;      CG311      NG311      CG311
   16     9    17	5 ;     HGPAM1      NG311      CG311
    4    10    11	5 ;     CG2R61     CG2R61     CG2R61
    4    10     8	5 ;     CG2R61     CG2R61      CG311
   11    10     8	5 ;     CG2R61     CG2R61      CG311
   12    11    10	5 ;     CG2R61     CG2R61     CG2R61
   12    11    33	5 ;     CG2R61     CG2R61      HGR61
   10    11    33	5 ;     CG2R61     CG2R61      HGR61
    2    12    11	5 ;     CG2R61     CG2R61     CG2R61
    2    12    34	5 ;     CG2R61     CG2R61      HGR62
   11    12    34	5 ;     CG2R61     CG2R61      HGR62
    6    13    35	5 ;      CG301      CG331       HGA3
    6    13    36	5 ;      CG301      CG331       HGA3
    6    13    37	5 ;      CG301      CG331       HGA3
   35    13    36	5 ;       HGA3      CG331       HGA3
   35    13    37	5 ;       HGA3      CG331       HGA3
   36    13    37	5 ;       HGA3      CG331       HGA3
    6    14    38	5 ;      CG301      CG331       HGA3
    6    14    39	5 ;      CG301      CG331       HGA3
    6    14    40	5 ;      CG301      CG331       HGA3
   38    14    39	5 ;       HGA3      CG331       HGA3
   38    14    40	5 ;       HGA3      CG331       HGA3
   39    14    40	5 ;       HGA3      CG331       HGA3
    9    17    18	5 ;      NG311      CG311      CG321
    9    17    27	5 ;      NG311      CG311      CG2O3
    9    17    41	5 ;      NG311      CG311       HGA1
   18    17    27	5 ;      CG321      CG311      CG2O3
   18    17    41	5 ;      CG321      CG311       HGA1
   27    17    41	5 ;      CG2O3      CG311       HGA1
   17    18    19	5 ;      CG311      CG321     CG2R51
   17    18    42	5 ;      CG311      CG321       HGA2
   17    18    43	5 ;      CG311      CG321       HGA2
   19    18    42	5 ;     CG2R51      CG321       HGA2
   19    18    43	5 ;     CG2R51      CG321       HGA2
   42    18    43	5 ;       HGA2      CG321       HGA2
   20    19    18	5 ;     CG2R51     CG2R51      CG321
   20    19    23	5 ;     CG2R51     CG2R51     CG2R51
   18    19    23	5 ;      CG321     CG2R51     CG2R51
   19    20    21	5 ;     CG2R51     CG2R51     SG2R50
   19    20    44	5 ;     CG2R51     CG2R51      HGR52
   21    20    44	5 ;     SG2R50     CG2R51      HGR52
   20    21    22	5 ;     CG2R51     SG2R50     CG2R51
   21    22    23	5 ;     SG2R50     CG2R51     CG2R51
   21    22    45	5 ;     SG2R50     CG2R51      HGR52
   23    22    45	5 ;     CG2R51     CG2R51      HGR52
   19    23    22	5 ;     CG2R51     CG2R51     CG2R51
   19    23    24	5 ;     CG2R51     CG2R51      CG321
   22    23    24	5 ;     CG2R51     CG2R51      CG321
   23    24    25	5 ;     CG2R51      CG321      CG321
   23    24    46	5 ;     CG2R51      CG321       HGA2
   23    24    47	5 ;     CG2R51      CG321       HGA2
   25    24    46	5 ;      CG321      CG321       HGA2
   25    24    47	5 ;      CG321      CG321       HGA2
   46    24    47	5 ;       HGA2      CG321       HGA2
   24    25    26	5 ;      CG321      CG321      CG331
   24    25    48	5 ;      CG321      CG321       HGA2
   24    25    49	5 ;      CG321      CG321       HGA2
   26    25    48	5 ;      CG331      CG321       HGA2
   26    25    49	5 ;      CG331      CG321       HGA2
   48    25    49	5 ;       HGA2      CG321       HGA2
   25    26    50	5 ;      CG321      CG331       HGA3
   25    26    51	5 ;      CG321      CG331       HGA3
   25    26    52	5 ;      CG321      CG331       HGA3
   50    26    51	5 ;       HGA3      CG331       HGA3
   50    26    52	5 ;       HGA3      CG331       HGA3
   51    26    52	5 ;       HGA3      CG331       HGA3
   17    27    29	5 ;      CG311      CG2O3      OG2D2
   17    27    28	5 ;      CG311      CG2O3      OG2D2
   29    27    28	5 ;      OG2D2      CG2O3      OG2D2

[ dihedrals ]
;	ai	  aj	ak	  al funct			  c0			c1			  c2			c3			  c4			c5
    1     2     3     4	 9 ;      CLGR1     CG2R61     CG2R61     CG2R61
    1     2     3    30	 9 ;      CLGR1     CG2R61     CG2R61      HGR62
   12     2     3     4	 9 ;     CG2R61     CG2R61     CG2R61     CG2R61
   12     2     3    30	 9 ;     CG2R61     CG2R61     CG2R61      HGR62
    1     2    12    11	 9 ;      CLGR1     CG2R61     CG2R61     CG2R61
    1     2    12    34	 9 ;      CLGR1     CG2R61     CG2R61      HGR62
    3     2    12    11	 9 ;     CG2R61     CG2R61     CG2R61     CG2R61
    3     2    12    34	 9 ;     CG2R61     CG2R61     CG2R61      HGR62
    2     3     4     5	 9 ;     CG2R61     CG2R61     CG2R61      CG321
    2     3     4    10	 9 ;     CG2R61     CG2R61     CG2R61     CG2R61
   30     3     4     5	 9 ;      HGR62     CG2R61     CG2R61      CG321
   30     3     4    10	 9 ;      HGR62     CG2R61     CG2R61     CG2R61
    3     4     5     6	 9 ;     CG2R61     CG2R61      CG321      CG301
    3     4     5    31	 9 ;     CG2R61     CG2R61      CG321       HGA2
    3     4     5    32	 9 ;     CG2R61     CG2R61      CG321       HGA2
   10     4     5     6	 9 ;     CG2R61     CG2R61      CG321      CG301
   10     4     5    31	 9 ;     CG2R61     CG2R61      CG321       HGA2
   10     4     5    32	 9 ;     CG2R61     CG2R61      CG321       HGA2
    3     4    10    11	 9 ;     CG2R61     CG2R61     CG2R61     CG2R61
    3     4    10     8	 9 ;     CG2R61     CG2R61     CG2R61      CG311
    5     4    10    11	 9 ;      CG321     CG2R61     CG2R61     CG2R61
    5     4    10     8	 9 ;      CG321     CG2R61     CG2R61      CG311
    4     5     6    14	 9 ;     CG2R61      CG321      CG301      CG331
    4     5     6    13	 9 ;     CG2R61      CG321      CG301      CG331
    4     5     6     7	 9 ;     CG2R61      CG321      CG301      NG311
   31     5     6    14	 9 ;       HGA2      CG321      CG301      CG331
   31     5     6    13	 9 ;       HGA2      CG321      CG301      CG331
   31     5     6     7	 9 ;       HGA2      CG321      CG301      NG311
   32     5     6    14	 9 ;       HGA2      CG321      CG301      CG331
   32     5     6    13	 9 ;       HGA2      CG321      CG301      CG331
   32     5     6     7	 9 ;       HGA2      CG321      CG301      NG311
   13     6    14    38	 9 ;      CG331      CG301      CG331       HGA3
   13     6    14    39	 9 ;      CG331      CG301      CG331       HGA3
   13     6    14    40	 9 ;      CG331      CG301      CG331       HGA3
    5     6    14    38	 9 ;      CG321      CG301      CG331       HGA3
    5     6    14    39	 9 ;      CG321      CG301      CG331       HGA3
    5     6    14    40	 9 ;      CG321      CG301      CG331       HGA3
    7     6    14    38	 9 ;      NG311      CG301      CG331       HGA3
    7     6    14    39	 9 ;      NG311      CG301      CG331       HGA3
    7     6    14    40	 9 ;      NG311      CG301      CG331       HGA3
   14     6    13    35	 9 ;      CG331      CG301      CG331       HGA3
   14     6    13    36	 9 ;      CG331      CG301      CG331       HGA3
   14     6    13    37	 9 ;      CG331      CG301      CG331       HGA3
    5     6    13    35	 9 ;      CG321      CG301      CG331       HGA3
    5     6    13    36	 9 ;      CG321      CG301      CG331       HGA3
    5     6    13    37	 9 ;      CG321      CG301      CG331       HGA3
    7     6    13    35	 9 ;      NG311      CG301      CG331       HGA3
    7     6    13    36	 9 ;      NG311      CG301      CG331       HGA3
    7     6    13    37	 9 ;      NG311      CG301      CG331       HGA3
   14     6     7    15	 9 ;      CG331      CG301      NG311     HGPAM1
   14     6     7     8	 9 ;      CG331      CG301      NG311      CG311
   13     6     7    15	 9 ;      CG331      CG301      NG311     HGPAM1
   13     6     7     8	 9 ;      CG331      CG301      NG311      CG311
    5     6     7    15	 9 ;      CG321      CG301      NG311     HGPAM1
    5     6     7     8	 9 ;      CG321      CG301      NG311      CG311
    6     7     8    10	 9 ;      CG301      NG311      CG311     CG2R61
    6     7     8     9	 9 ;      CG301      NG311      CG311      NG311
    6     7     8    53	 9 ;      CG301      NG311      CG311       HGA1
   15     7     8    10	 9 ;     HGPAM1      NG311      CG311     CG2R61
   15     7     8     9	 9 ;     HGPAM1      NG311      CG311      NG311
   15     7     8    53	 9 ;     HGPAM1      NG311      CG311       HGA1
    7     8    10     4	 9 ;      NG311      CG311     CG2R61     CG2R61
    7     8    10    11	 9 ;      NG311      CG311     CG2R61     CG2R61
    9     8    10     4	 9 ;      NG311      CG311     CG2R61     CG2R61
    9     8    10    11	 9 ;      NG311      CG311     CG2R61     CG2R61
   53     8    10     4	 9 ;       HGA1      CG311     CG2R61     CG2R61
   53     8    10    11	 9 ;       HGA1      CG311     CG2R61     CG2R61
    7     8     9    16	 9 ;      NG311      CG311      NG311     HGPAM1
    7     8     9    17	 9 ;      NG311      CG311      NG311      CG311
   10     8     9    16	 9 ;     CG2R61      CG311      NG311     HGPAM1
   10     8     9    17	 9 ;     CG2R61      CG311      NG311      CG311
   53     8     9    16	 9 ;       HGA1      CG311      NG311     HGPAM1
   53     8     9    17	 9 ;       HGA1      CG311      NG311      CG311
    8     9    17    18	 9 ;      CG311      NG311      CG311      CG321
    8     9    17    27	 9 ;      CG311      NG311      CG311      CG2O3
    8     9    17    41	 9 ;      CG311      NG311      CG311       HGA1
   16     9    17    18	 9 ;     HGPAM1      NG311      CG311      CG321
   16     9    17    27	 9 ;     HGPAM1      NG311      CG311      CG2O3
   16     9    17    41	 9 ;     HGPAM1      NG311      CG311       HGA1
    4    10    11    12	 9 ;     CG2R61     CG2R61     CG2R61     CG2R61
    4    10    11    33	 9 ;     CG2R61     CG2R61     CG2R61      HGR61
    8    10    11    12	 9 ;      CG311     CG2R61     CG2R61     CG2R61
    8    10    11    33	 9 ;      CG311     CG2R61     CG2R61      HGR61
   10    11    12     2	 9 ;     CG2R61     CG2R61     CG2R61     CG2R61
   10    11    12    34	 9 ;     CG2R61     CG2R61     CG2R61      HGR62
   33    11    12     2	 9 ;      HGR61     CG2R61     CG2R61     CG2R61
   33    11    12    34	 9 ;      HGR61     CG2R61     CG2R61      HGR62
    9    17    18    19	 9 ;      NG311      CG311      CG321     CG2R51
    9    17    18    42	 9 ;      NG311      CG311      CG321       HGA2
    9    17    18    43	 9 ;      NG311      CG311      CG321       HGA2
   27    17    18    19	 9 ;      CG2O3      CG311      CG321     CG2R51
   27    17    18    42	 9 ;      CG2O3      CG311      CG321       HGA2
   27    17    18    43	 9 ;      CG2O3      CG311      CG321       HGA2
   41    17    18    19	 9 ;       HGA1      CG311      CG321     CG2R51
   41    17    18    42	 9 ;       HGA1      CG311      CG321       HGA2
   41    17    18    43	 9 ;       HGA1      CG311      CG321       HGA2
    9    17    27    29	 9 ;      NG311      CG311      CG2O3      OG2D2
    9    17    27    28	 9 ;      NG311      CG311      CG2O3      OG2D2
   18    17    27    29	 9 ;      CG321      CG311      CG2O3      OG2D2
   18    17    27    28	 9 ;      CG321      CG311      CG2O3      OG2D2
   41    17    27    29	 9 ;       HGA1      CG311      CG2O3      OG2D2
   41    17    27    28	 9 ;       HGA1      CG311      CG2O3      OG2D2
   17    18    19    20	 9 ;      CG311      CG321     CG2R51     CG2R51
   17    18    19    23	 9 ;      CG311      CG321     CG2R51     CG2R51
   42    18    19    20	 9 ;       HGA2      CG321     CG2R51     CG2R51
   42    18    19    23	 9 ;       HGA2      CG321     CG2R51     CG2R51
   43    18    19    20	 9 ;       HGA2      CG321     CG2R51     CG2R51
   43    18    19    23	 9 ;       HGA2      CG321     CG2R51     CG2R51
   18    19    20    21	 9 ;      CG321     CG2R51     CG2R51     SG2R50
   18    19    20    44	 9 ;      CG321     CG2R51     CG2R51      HGR52
   23    19    20    21	 9 ;     CG2R51     CG2R51     CG2R51     SG2R50
   23    19    20    44	 9 ;     CG2R51     CG2R51     CG2R51      HGR52
   20    19    23    22	 9 ;     CG2R51     CG2R51     CG2R51     CG2R51
   20    19    23    24	 9 ;     CG2R51     CG2R51     CG2R51      CG321
   18    19    23    22	 9 ;      CG321     CG2R51     CG2R51     CG2R51
   18    19    23    24	 9 ;      CG321     CG2R51     CG2R51      CG321
   19    20    21    22	 9 ;     CG2R51     CG2R51     SG2R50     CG2R51
   44    20    21    22	 9 ;      HGR52     CG2R51     SG2R50     CG2R51
   20    21    22    23	 9 ;     CG2R51     SG2R50     CG2R51     CG2R51
   20    21    22    45	 9 ;     CG2R51     SG2R50     CG2R51      HGR52
   21    22    23    19	 9 ;     SG2R50     CG2R51     CG2R51     CG2R51
   21    22    23    24	 9 ;     SG2R50     CG2R51     CG2R51      CG321
   45    22    23    19	 9 ;      HGR52     CG2R51     CG2R51     CG2R51
   45    22    23    24	 9 ;      HGR52     CG2R51     CG2R51      CG321
   19    23    24    25	 9 ;     CG2R51     CG2R51      CG321      CG321
   19    23    24    46	 9 ;     CG2R51     CG2R51      CG321       HGA2
   19    23    24    47	 9 ;     CG2R51     CG2R51      CG321       HGA2
   22    23    24    25	 9 ;     CG2R51     CG2R51      CG321      CG321
   22    23    24    46	 9 ;     CG2R51     CG2R51      CG321       HGA2
   22    23    24    47	 9 ;     CG2R51     CG2R51      CG321       HGA2
   23    24    25    26	 9 ;     CG2R51      CG321      CG321      CG331
   23    24    25    48	 9 ;     CG2R51      CG321      CG321       HGA2
   23    24    25    49	 9 ;     CG2R51      CG321      CG321       HGA2
   46    24    25    26	 9 ;       HGA2      CG321      CG321      CG331
   46    24    25    48	 9 ;       HGA2      CG321      CG321       HGA2
   46    24    25    49	 9 ;       HGA2      CG321      CG321       HGA2
   47    24    25    26	 9 ;       HGA2      CG321      CG321      CG331
   47    24    25    48	 9 ;       HGA2      CG321      CG321       HGA2
   47    24    25    49	 9 ;       HGA2      CG321      CG321       HGA2
   24    25    26    50	 9 ;      CG321      CG321      CG331       HGA3
   24    25    26    51	 9 ;      CG321      CG321      CG331       HGA3
   24    25    26    52	 9 ;      CG321      CG321      CG331       HGA3
   48    25    26    50	 9 ;       HGA2      CG321      CG331       HGA3
   48    25    26    51	 9 ;       HGA2      CG321      CG331       HGA3
   48    25    26    52	 9 ;       HGA2      CG321      CG331       HGA3
   49    25    26    50	 9 ;       HGA2      CG321      CG331       HGA3
   49    25    26    51	 9 ;       HGA2      CG321      CG331       HGA3
   49    25    26    52	 9 ;       HGA2      CG321      CG331       HGA3

[ dihedrals ]
;	ai	  aj	ak	  al funct			  c0			c1			  c2			c3
   27    28    29    17	 2

[ virtual_sites2 ]
; Site   from				funct a
   54     1     2     2   -0.164

[ exclusions ]
;	ai	  aj
    1    54
   54     2
   54     3
   54    12
   54     4
   54    30
   54    11
   54    34

