GRoups of Organic Molecules in ACtion for Science
   54
    1LIG     CL    1  -0.961  -0.029  -1.313
    1LIG     C1    2  -1.079   0.069  -1.390
    1LIG     C2    3  -1.082   0.206  -1.365
    1LIG     C3    4  -1.178   0.286  -1.428
    1LIG     C4    5  -1.180   0.435  -1.407
    1LIG     C5    6  -1.231   0.508  -1.533
    1LIG     N1    7  -1.358   0.446  -1.576
    1LIG     C6    8  -1.381   0.316  -1.568
    1LIG     N2    9  -1.495   0.266  -1.609
    1LIG     C7   10  -1.277   0.228  -1.511
    1LIG     C8   11  -1.269   0.090  -1.538
    1LIG     C9   12  -1.170   0.011  -1.478
    1LIG    C10   13  -1.263   0.655  -1.501
    1LIG    C11   14  -1.132   0.502  -1.650
    1LIG     H1   15  -1.433   0.504  -1.613
    1LIG     H2   16  -1.520   0.167  -1.592
    1LIG     CA   17  -1.618   0.332  -1.665
    1LIG    C12   18  -1.726   0.234  -1.710
    1LIG    C13   19  -1.855   0.293  -1.762
    1LIG    C14   20  -1.867   0.362  -1.881
    1LIG      S   21  -2.026   0.415  -1.914
    1LIG    C15   22  -2.081   0.351  -1.766
    1LIG    C16   23  -1.981   0.292  -1.691
    1LIG    C17   24  -2.007   0.234  -1.554
    1LIG    C18   25  -2.147   0.173  -1.538
    1LIG    C19   26  -2.153   0.060  -1.436
    1LIG    C20   27  -1.665   0.429  -1.553
    1LIG      O   28  -1.712   0.376  -1.450
    1LIG    OXT   29  -1.652   0.551  -1.588
    1LIG     HC   30  -1.011   0.250  -1.297
    1LIG    HC2   31  -1.079   0.469  -1.384
    1LIG    HC3   32  -1.246   0.459  -1.323
    1LIG    HC1   33  -1.340   0.045  -1.605
    1LIG    HC4   34  -1.165  -0.094  -1.500
    1LIG    HC5   35  -1.333   0.659  -1.418
    1LIG    HC6   36  -1.306   0.703  -1.589
    1LIG    HC7   37  -1.171   0.706  -1.473
    1LIG    HC8   38  -1.110   0.397  -1.673
    1LIG    HC9   39  -1.176   0.550  -1.738
    1LIG   HC10   40  -1.040   0.553  -1.622
    1LIG   HC11   41  -1.587   0.392  -1.752
    1LIG   HC12   42  -1.750   0.171  -1.625
    1LIG   HC13   43  -1.684   0.171  -1.789
    1LIG   HC14   44  -1.784   0.380  -1.948
    1LIG   HC15   45  -2.184   0.356  -1.734
    1LIG   HC16   46  -1.995   0.313  -1.480
    1LIG   HC17   47  -1.932   0.156  -1.535
    1LIG   HC18   48  -2.215   0.251  -1.506
    1LIG   HC19   49  -2.180   0.134  -1.634
    1LIG   HC20   50  -2.255   0.022  -1.430
    1LIG   HC21   51  -2.123   0.097  -1.338
    1LIG   HC22   52  -2.086  -0.021  -1.466
    1LIG    H26   53  -1.339   0.302  -1.668
    1LIG    LP1   54  -0.848  -0.123  -1.239
   0.00000   0.00000   0.00000
