Great Red Oystrich Makes All Chemists Sane
   52
    1LIG     O1    1  -1.792   0.250  -1.422
    1LIG     C1    2  -1.756   0.321  -1.541
    1LIG     C2    3  -1.690   0.451  -1.492
    1LIG     N1    4  -1.701   0.444  -1.344
    1LIG     HN    5  -1.671   0.515  -1.276
    1LIG     C3    6  -1.756   0.331  -1.320
    1LIG     C4    7  -1.544   0.455  -1.534
    1LIG     C5    8  -1.451   0.359  -1.488
    1LIG     C6    9  -1.319   0.351  -1.536
    1LIG     C7   10  -1.282   0.444  -1.633
    1LIG     C8   11  -1.370   0.546  -1.674
    1LIG     C9   12  -1.500   0.551  -1.625
    1LIG     O2   13  -1.577   0.653  -1.673
    1LIG    C10   14  -1.706   0.664  -1.628
    1LIG    C11   15  -1.767   0.572  -1.543
    1LIG    C12   16  -1.902   0.593  -1.507
    1LIG    C13   17  -1.973   0.703  -1.554
    1LIG    C14   18  -1.910   0.795  -1.637
    1LIG    C15   19  -1.777   0.776  -1.675
    1LIG     N2   20  -1.787   0.281  -1.199
    1LIG     H1   21  -1.709   0.244  -1.147
    1LIG     H2   22  -1.871   0.224  -1.199
    1LIG    C16   23  -1.225   0.245  -1.487
    1LIG    C17   24  -1.209   0.127  -1.563
    1LIG    C18   25  -1.126   0.022  -1.524
    1LIG    C19   26  -1.053   0.033  -1.407
    1LIG    C20   27  -1.064   0.148  -1.329
    1LIG    C21   28  -1.151   0.253  -1.366
    1LIG    C22   29  -1.159   0.369  -1.270
    1LIG     O3   30  -2.104   0.732  -1.525
    1LIG    C23   31  -2.194   0.622  -1.521
    1LIG    HC2   32  -1.686   0.262  -1.600
    1LIG    HC3   33  -1.845   0.343  -1.599
    1LIG    HN2   34  -1.610   0.401  -1.339
    1LIG     HC   35  -1.658   0.283  -1.316
    1LIG    HC1   36  -1.483   0.289  -1.412
    1LIG    HC4   37  -1.184   0.438  -1.679
    1LIG    HC5   38  -1.336   0.621  -1.745
    1LIG    HC6   39  -1.950   0.522  -1.442
    1LIG    HC7   40  -1.963   0.881  -1.673
    1LIG    HC8   41  -1.728   0.847  -1.740
    1LIG    HN1   42  -1.815   0.363  -1.146
    1LIG    HC9   43  -1.263   0.118  -1.656
    1LIG   HC10   44  -1.119  -0.067  -1.584
    1LIG   HC11   45  -0.987  -0.047  -1.376
    1LIG   HC12   46  -1.006   0.156  -1.239
    1LIG   HC13   47  -1.228   0.444  -1.309
    1LIG   HC14   48  -1.194   0.334  -1.173
    1LIG   HC15   49  -1.060   0.414  -1.259
    1LIG   HC16   50  -2.296   0.659  -1.528
    1LIG   HC17   51  -2.173   0.555  -1.605
    1LIG   HC18   52  -2.181   0.568  -1.428
   0.00000   0.00000   0.00000
