; Created by cgenff_charmm2gmx.py

[ moleculetype ]
; Name			   nrexcl
LIG				 3

[ atoms ]
;	 nr		  type	resnr residue  atom   cgnr	   charge		mass  typeB    chargeB		massB
; residue	 1 LIG rtp LIG q	qsum
     1     OG3C51      1    LIG     O1      1     -0.243     15.999   ;
     2     CG3C52      1    LIG     C1      2     -0.015     12.011   ;
     3     CG3C50      1    LIG     C2      3      1.306     12.011   ;
     4      NG3P2      1    LIG     N1      4     -1.541     14.007   ;
     5       HGP2      1    LIG     HN      5      0.500      1.008   ;
     6     CG3C53      1    LIG     C3      6      1.711     12.011   ;
     7     CG2R61      1    LIG     C4      7     -0.329     12.011   ;
     8     CG2R61      1    LIG     C5      8     -0.127     12.011   ;
     9     CG2R67      1    LIG     C6      9      0.021     12.011   ;
    10     CG2R61      1    LIG     C7     10     -0.115     12.011   ;
    11     CG2R61      1    LIG     C8     11     -0.112     12.011   ;
    12     CG2R61      1    LIG     C9     12      0.153     12.011   ;
    13     OG3R60      1    LIG     O2     13     -0.292     15.999   ;
    14     CG2R61      1    LIG    C10     14      0.147     12.011   ;
    15     CG2R61      1    LIG    C11     15     -0.324     12.011   ;
    16     CG2R61      1    LIG    C12     16     -0.131     12.011   ;
    17     CG2R61      1    LIG    C13     17      0.222     12.011   ;
    18     CG2R61      1    LIG    C14     18     -0.117     12.011   ;
    19     CG2R61      1    LIG    C15     19     -0.106     12.011   ;
    20      NG3P3      1    LIG     N2     20     -0.781     14.007   ;
    21       HGP2      1    LIG     H1     21      0.307      1.008   ;
    22       HGP2      1    LIG     H2     22      0.307      1.008   ;
    23     CG2R67      1    LIG    C16     23     -0.025     12.011   ;
    24     CG2R61      1    LIG    C17     24     -0.120     12.011   ;
    25     CG2R61      1    LIG    C18     25     -0.119     12.011   ;
    26     CG2R61      1    LIG    C19     26     -0.125     12.011   ;
    27     CG2R61      1    LIG    C20     27     -0.124     12.011   ;
    28     CG2R61      1    LIG    C21     28      0.056     12.011   ;
    29      CG331      1    LIG    C22     29     -0.284     12.011   ;
    30      OG301      1    LIG     O3     30     -0.383     15.999   ;
    31      CG331      1    LIG    C23     31     -0.094     12.011   ;
    32       HGA2      1    LIG    HC2     32      0.090      1.008   ;
    33       HGA2      1    LIG    HC3     33      0.090      1.008   ;
    34       HGP2      1    LIG    HN2     34      0.500      1.008   ;
    35       HGA1      1    LIG     HC     35      0.090      1.008   ;
    36      HGR61      1    LIG    HC1     36      0.116      1.008   ;
    37      HGR61      1    LIG    HC4     37      0.116      1.008   ;
    38      HGR61      1    LIG    HC5     38      0.116      1.008   ;
    39      HGR61      1    LIG    HC6     39      0.116      1.008   ;
    40      HGR61      1    LIG    HC7     40      0.116      1.008   ;
    41      HGR61      1    LIG    HC8     41      0.116      1.008   ;
    42       HGP2      1    LIG    HN1     42      0.307      1.008   ;
    43      HGR61      1    LIG    HC9     43      0.116      1.008   ;
    44      HGR61      1    LIG   HC10     44      0.116      1.008   ;
    45      HGR61      1    LIG   HC11     45      0.116      1.008   ;
    46      HGR61      1    LIG   HC12     46      0.116      1.008   ;
    47       HGA3      1    LIG   HC13     47      0.090      1.008   ;
    48       HGA3      1    LIG   HC14     48      0.090      1.008   ;
    49       HGA3      1    LIG   HC15     49      0.090      1.008   ;
    50       HGA3      1    LIG   HC16     50      0.090      1.008   ;
    51       HGA3      1    LIG   HC17     51      0.090      1.008   ;
    52       HGA3      1    LIG   HC18     52      0.090      1.008   ;

[ bonds ]
;	ai	  aj funct			  c0			c1			  c2			c3
    1     2	 1 ;      OG3C51     CG3C52
    1     6	 1 ;      OG3C51     CG3C53
    2     3	 1 ;      CG3C52     CG3C50
    2    32	 1 ;      CG3C52       HGA2
    2    33	 1 ;      CG3C52       HGA2
    3     7	 1 ;      CG3C50     CG2R61
    3    15	 1 ;      CG3C50     CG2R61
    3     4	 1 ;      CG3C50      NG3P2
    4     5	 1 ;       NG3P2       HGP2
    4     6	 1 ;       NG3P2     CG3C53
    4    34	 1 ;       NG3P2       HGP2
    6    20	 1 ;      CG3C53      NG3P3
    6    35	 1 ;      CG3C53       HGA1
    7    12	 1 ;      CG2R61     CG2R61
    7     8	 1 ;      CG2R61     CG2R61
    8     9	 1 ;      CG2R61     CG2R67
    8    36	 1 ;      CG2R61      HGR61
    9    10	 1 ;      CG2R67     CG2R61
    9    23	 1 ;      CG2R67     CG2R67
   10    11	 1 ;      CG2R61     CG2R61
   10    37	 1 ;      CG2R61      HGR61
   11    12	 1 ;      CG2R61     CG2R61
   11    38	 1 ;      CG2R61      HGR61
   12    13	 1 ;      CG2R61     OG3R60
   13    14	 1 ;      OG3R60     CG2R61
   14    19	 1 ;      CG2R61     CG2R61
   14    15	 1 ;      CG2R61     CG2R61
   15    16	 1 ;      CG2R61     CG2R61
   16    17	 1 ;      CG2R61     CG2R61
   16    39	 1 ;      CG2R61      HGR61
   17    18	 1 ;      CG2R61     CG2R61
   17    30	 1 ;      CG2R61      OG301
   18    19	 1 ;      CG2R61     CG2R61
   18    40	 1 ;      CG2R61      HGR61
   19    41	 1 ;      CG2R61      HGR61
   20    21	 1 ;       NG3P3       HGP2
   20    22	 1 ;       NG3P3       HGP2
   20    42	 1 ;       NG3P3       HGP2
   23    24	 1 ;      CG2R67     CG2R61
   23    28	 1 ;      CG2R67     CG2R61
   24    25	 1 ;      CG2R61     CG2R61
   24    43	 1 ;      CG2R61      HGR61
   25    26	 1 ;      CG2R61     CG2R61
   25    44	 1 ;      CG2R61      HGR61
   26    27	 1 ;      CG2R61     CG2R61
   26    45	 1 ;      CG2R61      HGR61
   27    28	 1 ;      CG2R61     CG2R61
   27    46	 1 ;      CG2R61      HGR61
   28    29	 1 ;      CG2R61      CG331
   29    47	 1 ;       CG331       HGA3
   29    48	 1 ;       CG331       HGA3
   29    49	 1 ;       CG331       HGA3
   30    31	 1 ;       OG301      CG331
   31    50	 1 ;       CG331       HGA3
   31    51	 1 ;       CG331       HGA3
   31    52	 1 ;       CG331       HGA3

[ pairs ]
;	ai	  aj funct			  c0			c1			  c2			c3
    1     7	 1
    1    15	 1
    1     5	 1
    1    34	 1
    1    21	 1
    1    22	 1
    1    42	 1
    2    20	 1
    2    35	 1
    2    12	 1
    2     8	 1
    2    14	 1
    2    16	 1
    2     5	 1
    2    34	 1
    3    20	 1
    3    35	 1
    3    11	 1
    3    13	 1
    3     9	 1
    3    36	 1
    3    19	 1
    3    17	 1
    3    39	 1
    4    32	 1
    4    33	 1
    4    12	 1
    4     8	 1
    4    14	 1
    4    16	 1
    4    21	 1
    4    22	 1
    4    42	 1
    5     7	 1
    5    15	 1
    5    20	 1
    5    35	 1
    6    32	 1
    6    33	 1
    6     7	 1
    6    15	 1
    7    32	 1
    7    33	 1
    7    14	 1
    7    16	 1
    7    34	 1
    7    10	 1
    7    23	 1
    7    38	 1
    8    15	 1
    8    11	 1
    8    13	 1
    8    37	 1
    8    24	 1
    8    28	 1
    9    12	 1
    9    38	 1
    9    25	 1
    9    43	 1
    9    27	 1
    9    29	 1
   10    36	 1
   10    24	 1
   10    28	 1
   10    13	 1
   11    23	 1
   11    14	 1
   12    15	 1
   12    36	 1
   12    37	 1
   12    19	 1
   13    38	 1
   13    18	 1
   13    41	 1
   13    16	 1
   14    17	 1
   14    39	 1
   14    40	 1
   15    32	 1
   15    33	 1
   15    34	 1
   15    18	 1
   15    41	 1
   15    30	 1
   16    19	 1
   16    40	 1
   16    31	 1
   17    41	 1
   17    50	 1
   17    51	 1
   17    52	 1
   18    39	 1
   18    31	 1
   19    30	 1
   20    34	 1
   21    35	 1
   22    35	 1
   23    36	 1
   23    37	 1
   23    26	 1
   23    44	 1
   23    46	 1
   23    47	 1
   23    48	 1
   23    49	 1
   24    27	 1
   24    29	 1
   24    45	 1
   25    28	 1
   25    46	 1
   26    43	 1
   26    29	 1
   27    44	 1
   27    47	 1
   27    48	 1
   27    49	 1
   28    43	 1
   28    45	 1
   29    46	 1
   30    39	 1
   30    40	 1
   34    35	 1
   35    42	 1
   37    38	 1
   40    41	 1
   43    44	 1
   44    45	 1
   45    46	 1

[ angles ]
;	ai	  aj	ak funct			c0			  c1			c2			  c3
    2     1     6	5 ;     CG3C52     OG3C51     CG3C53
    3     2     1	5 ;     CG3C50     CG3C52     OG3C51
    3     2    32	5 ;     CG3C50     CG3C52       HGA2
    3     2    33	5 ;     CG3C50     CG3C52       HGA2
    1     2    32	5 ;     OG3C51     CG3C52       HGA2
    1     2    33	5 ;     OG3C51     CG3C52       HGA2
   32     2    33	5 ;       HGA2     CG3C52       HGA2
    7     3    15	5 ;     CG2R61     CG3C50     CG2R61
    7     3     2	5 ;     CG2R61     CG3C50     CG3C52
    7     3     4	5 ;     CG2R61     CG3C50      NG3P2
   15     3     2	5 ;     CG2R61     CG3C50     CG3C52
   15     3     4	5 ;     CG2R61     CG3C50      NG3P2
    2     3     4	5 ;     CG3C52     CG3C50      NG3P2
    3     4     5	5 ;     CG3C50      NG3P2       HGP2
    3     4     6	5 ;     CG3C50      NG3P2     CG3C53
    3     4    34	5 ;     CG3C50      NG3P2       HGP2
    5     4     6	5 ;       HGP2      NG3P2     CG3C53
    5     4    34	5 ;       HGP2      NG3P2       HGP2
    6     4    34	5 ;     CG3C53      NG3P2       HGP2
    4     6     1	5 ;      NG3P2     CG3C53     OG3C51
    4     6    20	5 ;      NG3P2     CG3C53      NG3P3
    4     6    35	5 ;      NG3P2     CG3C53       HGA1
    1     6    20	5 ;     OG3C51     CG3C53      NG3P3
    1     6    35	5 ;     OG3C51     CG3C53       HGA1
   20     6    35	5 ;      NG3P3     CG3C53       HGA1
   12     7     8	5 ;     CG2R61     CG2R61     CG2R61
   12     7     3	5 ;     CG2R61     CG2R61     CG3C50
    8     7     3	5 ;     CG2R61     CG2R61     CG3C50
    9     8     7	5 ;     CG2R67     CG2R61     CG2R61
    9     8    36	5 ;     CG2R67     CG2R61      HGR61
    7     8    36	5 ;     CG2R61     CG2R61      HGR61
   10     9    23	5 ;     CG2R61     CG2R67     CG2R67
   10     9     8	5 ;     CG2R61     CG2R67     CG2R61
   23     9     8	5 ;     CG2R67     CG2R67     CG2R61
   11    10     9	5 ;     CG2R61     CG2R61     CG2R67
   11    10    37	5 ;     CG2R61     CG2R61      HGR61
    9    10    37	5 ;     CG2R67     CG2R61      HGR61
   10    11    12	5 ;     CG2R61     CG2R61     CG2R61
   10    11    38	5 ;     CG2R61     CG2R61      HGR61
   12    11    38	5 ;     CG2R61     CG2R61      HGR61
   11    12    13	5 ;     CG2R61     CG2R61     OG3R60
   11    12     7	5 ;     CG2R61     CG2R61     CG2R61
   13    12     7	5 ;     OG3R60     CG2R61     CG2R61
   12    13    14	5 ;     CG2R61     OG3R60     CG2R61
   13    14    19	5 ;     OG3R60     CG2R61     CG2R61
   13    14    15	5 ;     OG3R60     CG2R61     CG2R61
   19    14    15	5 ;     CG2R61     CG2R61     CG2R61
   14    15     3	5 ;     CG2R61     CG2R61     CG3C50
   14    15    16	5 ;     CG2R61     CG2R61     CG2R61
    3    15    16	5 ;     CG3C50     CG2R61     CG2R61
   15    16    17	5 ;     CG2R61     CG2R61     CG2R61
   15    16    39	5 ;     CG2R61     CG2R61      HGR61
   17    16    39	5 ;     CG2R61     CG2R61      HGR61
   18    17    16	5 ;     CG2R61     CG2R61     CG2R61
   18    17    30	5 ;     CG2R61     CG2R61      OG301
   16    17    30	5 ;     CG2R61     CG2R61      OG301
   19    18    17	5 ;     CG2R61     CG2R61     CG2R61
   19    18    40	5 ;     CG2R61     CG2R61      HGR61
   17    18    40	5 ;     CG2R61     CG2R61      HGR61
   14    19    18	5 ;     CG2R61     CG2R61     CG2R61
   14    19    41	5 ;     CG2R61     CG2R61      HGR61
   18    19    41	5 ;     CG2R61     CG2R61      HGR61
    6    20    21	5 ;     CG3C53      NG3P3       HGP2
    6    20    22	5 ;     CG3C53      NG3P3       HGP2
    6    20    42	5 ;     CG3C53      NG3P3       HGP2
   21    20    22	5 ;       HGP2      NG3P3       HGP2
   21    20    42	5 ;       HGP2      NG3P3       HGP2
   22    20    42	5 ;       HGP2      NG3P3       HGP2
   24    23     9	5 ;     CG2R61     CG2R67     CG2R67
   24    23    28	5 ;     CG2R61     CG2R67     CG2R61
    9    23    28	5 ;     CG2R67     CG2R67     CG2R61
   25    24    23	5 ;     CG2R61     CG2R61     CG2R67
   25    24    43	5 ;     CG2R61     CG2R61      HGR61
   23    24    43	5 ;     CG2R67     CG2R61      HGR61
   24    25    26	5 ;     CG2R61     CG2R61     CG2R61
   24    25    44	5 ;     CG2R61     CG2R61      HGR61
   26    25    44	5 ;     CG2R61     CG2R61      HGR61
   25    26    27	5 ;     CG2R61     CG2R61     CG2R61
   25    26    45	5 ;     CG2R61     CG2R61      HGR61
   27    26    45	5 ;     CG2R61     CG2R61      HGR61
   26    27    28	5 ;     CG2R61     CG2R61     CG2R61
   26    27    46	5 ;     CG2R61     CG2R61      HGR61
   28    27    46	5 ;     CG2R61     CG2R61      HGR61
   23    28    27	5 ;     CG2R67     CG2R61     CG2R61
   23    28    29	5 ;     CG2R67     CG2R61      CG331
   27    28    29	5 ;     CG2R61     CG2R61      CG331
   28    29    47	5 ;     CG2R61      CG331       HGA3
   28    29    48	5 ;     CG2R61      CG331       HGA3
   28    29    49	5 ;     CG2R61      CG331       HGA3
   47    29    48	5 ;       HGA3      CG331       HGA3
   47    29    49	5 ;       HGA3      CG331       HGA3
   48    29    49	5 ;       HGA3      CG331       HGA3
   17    30    31	5 ;     CG2R61      OG301      CG331
   30    31    50	5 ;      OG301      CG331       HGA3
   30    31    51	5 ;      OG301      CG331       HGA3
   30    31    52	5 ;      OG301      CG331       HGA3
   50    31    51	5 ;       HGA3      CG331       HGA3
   50    31    52	5 ;       HGA3      CG331       HGA3
   51    31    52	5 ;       HGA3      CG331       HGA3

[ dihedrals ]
;	ai	  aj	ak	  al funct			  c0			c1			  c2			c3			  c4			c5
    6     1     2     3	 9 ;     CG3C53     OG3C51     CG3C52     CG3C50
    6     1     2    32	 9 ;     CG3C53     OG3C51     CG3C52       HGA2
    6     1     2    33	 9 ;     CG3C53     OG3C51     CG3C52       HGA2
    2     1     6     4	 9 ;     CG3C52     OG3C51     CG3C53      NG3P2
    2     1     6    20	 9 ;     CG3C52     OG3C51     CG3C53      NG3P3
    2     1     6    35	 9 ;     CG3C52     OG3C51     CG3C53       HGA1
    1     2     3     7	 9 ;     OG3C51     CG3C52     CG3C50     CG2R61
    1     2     3    15	 9 ;     OG3C51     CG3C52     CG3C50     CG2R61
    1     2     3     4	 9 ;     OG3C51     CG3C52     CG3C50      NG3P2
   32     2     3     7	 9 ;       HGA2     CG3C52     CG3C50     CG2R61
   32     2     3    15	 9 ;       HGA2     CG3C52     CG3C50     CG2R61
   32     2     3     4	 9 ;       HGA2     CG3C52     CG3C50      NG3P2
   33     2     3     7	 9 ;       HGA2     CG3C52     CG3C50     CG2R61
   33     2     3    15	 9 ;       HGA2     CG3C52     CG3C50     CG2R61
   33     2     3     4	 9 ;       HGA2     CG3C52     CG3C50      NG3P2
   15     3     7    12	 9 ;     CG2R61     CG3C50     CG2R61     CG2R61
   15     3     7     8	 9 ;     CG2R61     CG3C50     CG2R61     CG2R61
    2     3     7    12	 9 ;     CG3C52     CG3C50     CG2R61     CG2R61
    2     3     7     8	 9 ;     CG3C52     CG3C50     CG2R61     CG2R61
    4     3     7    12	 9 ;      NG3P2     CG3C50     CG2R61     CG2R61
    4     3     7     8	 9 ;      NG3P2     CG3C50     CG2R61     CG2R61
    7     3    15    14	 9 ;     CG2R61     CG3C50     CG2R61     CG2R61
    7     3    15    16	 9 ;     CG2R61     CG3C50     CG2R61     CG2R61
    2     3    15    14	 9 ;     CG3C52     CG3C50     CG2R61     CG2R61
    2     3    15    16	 9 ;     CG3C52     CG3C50     CG2R61     CG2R61
    4     3    15    14	 9 ;      NG3P2     CG3C50     CG2R61     CG2R61
    4     3    15    16	 9 ;      NG3P2     CG3C50     CG2R61     CG2R61
    7     3     4     5	 9 ;     CG2R61     CG3C50      NG3P2       HGP2
    7     3     4     6	 9 ;     CG2R61     CG3C50      NG3P2     CG3C53
    7     3     4    34	 9 ;     CG2R61     CG3C50      NG3P2       HGP2
   15     3     4     5	 9 ;     CG2R61     CG3C50      NG3P2       HGP2
   15     3     4     6	 9 ;     CG2R61     CG3C50      NG3P2     CG3C53
   15     3     4    34	 9 ;     CG2R61     CG3C50      NG3P2       HGP2
    2     3     4     5	 9 ;     CG3C52     CG3C50      NG3P2       HGP2
    2     3     4     6	 9 ;     CG3C52     CG3C50      NG3P2     CG3C53
    2     3     4    34	 9 ;     CG3C52     CG3C50      NG3P2       HGP2
    3     4     6     1	 9 ;     CG3C50      NG3P2     CG3C53     OG3C51
    3     4     6    20	 9 ;     CG3C50      NG3P2     CG3C53      NG3P3
    3     4     6    35	 9 ;     CG3C50      NG3P2     CG3C53       HGA1
    5     4     6     1	 9 ;       HGP2      NG3P2     CG3C53     OG3C51
    5     4     6    20	 9 ;       HGP2      NG3P2     CG3C53      NG3P3
    5     4     6    35	 9 ;       HGP2      NG3P2     CG3C53       HGA1
   34     4     6     1	 9 ;       HGP2      NG3P2     CG3C53     OG3C51
   34     4     6    20	 9 ;       HGP2      NG3P2     CG3C53      NG3P3
   34     4     6    35	 9 ;       HGP2      NG3P2     CG3C53       HGA1
    4     6    20    21	 9 ;      NG3P2     CG3C53      NG3P3       HGP2
    4     6    20    22	 9 ;      NG3P2     CG3C53      NG3P3       HGP2
    4     6    20    42	 9 ;      NG3P2     CG3C53      NG3P3       HGP2
    1     6    20    21	 9 ;     OG3C51     CG3C53      NG3P3       HGP2
    1     6    20    22	 9 ;     OG3C51     CG3C53      NG3P3       HGP2
    1     6    20    42	 9 ;     OG3C51     CG3C53      NG3P3       HGP2
   35     6    20    21	 9 ;       HGA1     CG3C53      NG3P3       HGP2
   35     6    20    22	 9 ;       HGA1     CG3C53      NG3P3       HGP2
   35     6    20    42	 9 ;       HGA1     CG3C53      NG3P3       HGP2
    8     7    12    11	 9 ;     CG2R61     CG2R61     CG2R61     CG2R61
    8     7    12    13	 9 ;     CG2R61     CG2R61     CG2R61     OG3R60
    3     7    12    11	 9 ;     CG3C50     CG2R61     CG2R61     CG2R61
    3     7    12    13	 9 ;     CG3C50     CG2R61     CG2R61     OG3R60
   12     7     8     9	 9 ;     CG2R61     CG2R61     CG2R61     CG2R67
   12     7     8    36	 9 ;     CG2R61     CG2R61     CG2R61      HGR61
    3     7     8     9	 9 ;     CG3C50     CG2R61     CG2R61     CG2R67
    3     7     8    36	 9 ;     CG3C50     CG2R61     CG2R61      HGR61
    7     8     9    10	 9 ;     CG2R61     CG2R61     CG2R67     CG2R61
    7     8     9    23	 9 ;     CG2R61     CG2R61     CG2R67     CG2R67
   36     8     9    10	 9 ;      HGR61     CG2R61     CG2R67     CG2R61
   36     8     9    23	 9 ;      HGR61     CG2R61     CG2R67     CG2R67
   23     9    10    11	 9 ;     CG2R67     CG2R67     CG2R61     CG2R61
   23     9    10    37	 9 ;     CG2R67     CG2R67     CG2R61      HGR61
    8     9    10    11	 9 ;     CG2R61     CG2R67     CG2R61     CG2R61
    8     9    10    37	 9 ;     CG2R61     CG2R67     CG2R61      HGR61
   10     9    23    24	 9 ;     CG2R61     CG2R67     CG2R67     CG2R61
   10     9    23    28	 9 ;     CG2R61     CG2R67     CG2R67     CG2R61
    8     9    23    24	 9 ;     CG2R61     CG2R67     CG2R67     CG2R61
    8     9    23    28	 9 ;     CG2R61     CG2R67     CG2R67     CG2R61
    9    10    11    12	 9 ;     CG2R67     CG2R61     CG2R61     CG2R61
    9    10    11    38	 9 ;     CG2R67     CG2R61     CG2R61      HGR61
   37    10    11    12	 9 ;      HGR61     CG2R61     CG2R61     CG2R61
   37    10    11    38	 9 ;      HGR61     CG2R61     CG2R61      HGR61
   10    11    12    13	 9 ;     CG2R61     CG2R61     CG2R61     OG3R60
   10    11    12     7	 9 ;     CG2R61     CG2R61     CG2R61     CG2R61
   38    11    12    13	 9 ;      HGR61     CG2R61     CG2R61     OG3R60
   38    11    12     7	 9 ;      HGR61     CG2R61     CG2R61     CG2R61
   11    12    13    14	 9 ;     CG2R61     CG2R61     OG3R60     CG2R61
    7    12    13    14	 9 ;     CG2R61     CG2R61     OG3R60     CG2R61
   12    13    14    19	 9 ;     CG2R61     OG3R60     CG2R61     CG2R61
   12    13    14    15	 9 ;     CG2R61     OG3R60     CG2R61     CG2R61
   13    14    19    18	 9 ;     OG3R60     CG2R61     CG2R61     CG2R61
   13    14    19    41	 9 ;     OG3R60     CG2R61     CG2R61      HGR61
   15    14    19    18	 9 ;     CG2R61     CG2R61     CG2R61     CG2R61
   15    14    19    41	 9 ;     CG2R61     CG2R61     CG2R61      HGR61
   13    14    15     3	 9 ;     OG3R60     CG2R61     CG2R61     CG3C50
   13    14    15    16	 9 ;     OG3R60     CG2R61     CG2R61     CG2R61
   19    14    15     3	 9 ;     CG2R61     CG2R61     CG2R61     CG3C50
   19    14    15    16	 9 ;     CG2R61     CG2R61     CG2R61     CG2R61
   14    15    16    17	 9 ;     CG2R61     CG2R61     CG2R61     CG2R61
   14    15    16    39	 9 ;     CG2R61     CG2R61     CG2R61      HGR61
    3    15    16    17	 9 ;     CG3C50     CG2R61     CG2R61     CG2R61
    3    15    16    39	 9 ;     CG3C50     CG2R61     CG2R61      HGR61
   15    16    17    18	 9 ;     CG2R61     CG2R61     CG2R61     CG2R61
   15    16    17    30	 9 ;     CG2R61     CG2R61     CG2R61      OG301
   39    16    17    18	 9 ;      HGR61     CG2R61     CG2R61     CG2R61
   39    16    17    30	 9 ;      HGR61     CG2R61     CG2R61      OG301
   16    17    18    19	 9 ;     CG2R61     CG2R61     CG2R61     CG2R61
   16    17    18    40	 9 ;     CG2R61     CG2R61     CG2R61      HGR61
   30    17    18    19	 9 ;      OG301     CG2R61     CG2R61     CG2R61
   30    17    18    40	 9 ;      OG301     CG2R61     CG2R61      HGR61
   18    17    30    31	 9 ;     CG2R61     CG2R61      OG301      CG331
   16    17    30    31	 9 ;     CG2R61     CG2R61      OG301      CG331
   17    18    19    14	 9 ;     CG2R61     CG2R61     CG2R61     CG2R61
   17    18    19    41	 9 ;     CG2R61     CG2R61     CG2R61      HGR61
   40    18    19    14	 9 ;      HGR61     CG2R61     CG2R61     CG2R61
   40    18    19    41	 9 ;      HGR61     CG2R61     CG2R61      HGR61
    9    23    24    25	 9 ;     CG2R67     CG2R67     CG2R61     CG2R61
    9    23    24    43	 9 ;     CG2R67     CG2R67     CG2R61      HGR61
   28    23    24    25	 9 ;     CG2R61     CG2R67     CG2R61     CG2R61
   28    23    24    43	 9 ;     CG2R61     CG2R67     CG2R61      HGR61
   24    23    28    27	 9 ;     CG2R61     CG2R67     CG2R61     CG2R61
   24    23    28    29	 9 ;     CG2R61     CG2R67     CG2R61      CG331
    9    23    28    27	 9 ;     CG2R67     CG2R67     CG2R61     CG2R61
    9    23    28    29	 9 ;     CG2R67     CG2R67     CG2R61      CG331
   23    24    25    26	 9 ;     CG2R67     CG2R61     CG2R61     CG2R61
   23    24    25    44	 9 ;     CG2R67     CG2R61     CG2R61      HGR61
   43    24    25    26	 9 ;      HGR61     CG2R61     CG2R61     CG2R61
   43    24    25    44	 9 ;      HGR61     CG2R61     CG2R61      HGR61
   24    25    26    27	 9 ;     CG2R61     CG2R61     CG2R61     CG2R61
   24    25    26    45	 9 ;     CG2R61     CG2R61     CG2R61      HGR61
   44    25    26    27	 9 ;      HGR61     CG2R61     CG2R61     CG2R61
   44    25    26    45	 9 ;      HGR61     CG2R61     CG2R61      HGR61
   25    26    27    28	 9 ;     CG2R61     CG2R61     CG2R61     CG2R61
   25    26    27    46	 9 ;     CG2R61     CG2R61     CG2R61      HGR61
   45    26    27    28	 9 ;      HGR61     CG2R61     CG2R61     CG2R61
   45    26    27    46	 9 ;      HGR61     CG2R61     CG2R61      HGR61
   26    27    28    23	 9 ;     CG2R61     CG2R61     CG2R61     CG2R67
   26    27    28    29	 9 ;     CG2R61     CG2R61     CG2R61      CG331
   46    27    28    23	 9 ;      HGR61     CG2R61     CG2R61     CG2R67
   46    27    28    29	 9 ;      HGR61     CG2R61     CG2R61      CG331
   23    28    29    47	 9 ;     CG2R67     CG2R61      CG331       HGA3
   23    28    29    48	 9 ;     CG2R67     CG2R61      CG331       HGA3
   23    28    29    49	 9 ;     CG2R67     CG2R61      CG331       HGA3
   27    28    29    47	 9 ;     CG2R61     CG2R61      CG331       HGA3
   27    28    29    48	 9 ;     CG2R61     CG2R61      CG331       HGA3
   27    28    29    49	 9 ;     CG2R61     CG2R61      CG331       HGA3
   17    30    31    50	 9 ;     CG2R61      OG301      CG331       HGA3
   17    30    31    51	 9 ;     CG2R61      OG301      CG331       HGA3
   17    30    31    52	 9 ;     CG2R61      OG301      CG331       HGA3

