Glycine aRginine prOline Methionine Alanine Cystine Serine
   49
    1LIG      S    1  -1.665   0.617  -1.730
    1LIG     C1    2  -1.589   0.586  -1.888
    1LIG     C2    3  -1.589   0.435  -1.900
    1LIG     N1    4  -1.603   0.360  -1.796
    1LIG    HN1    5  -1.601   0.258  -1.797
    1LIG     C3    6  -1.623   0.444  -1.673
    1LIG     C4    7  -1.494   0.441  -1.588
    1LIG     C5    8  -1.448   0.321  -1.531
    1LIG     C6    9  -1.320   0.307  -1.477
    1LIG     C7   10  -1.238   0.420  -1.473
    1LIG     C8   11  -1.284   0.543  -1.521
    1LIG     C9   12  -1.410   0.553  -1.579
    1LIG    C10   13  -1.271   0.173  -1.438
    1LIG    C11   14  -1.233   0.078  -1.533
    1LIG    C12   15  -1.186  -0.047  -1.494
    1LIG    C13   16  -1.176  -0.072  -1.358
    1LIG     N2   17  -1.211   0.016  -1.263
    1LIG    C14   18  -1.258   0.135  -1.304
    1LIG    HN2   19  -1.202  -0.007  -1.163
    1LIG    C15   20  -1.743   0.390  -1.590
    1LIG    C16   21  -1.832   0.298  -1.646
    1LIG    C17   22  -1.945   0.252  -1.577
    1LIG    C18   23  -1.972   0.298  -1.448
    1LIG    C19   24  -1.883   0.387  -1.388
    1LIG    C20   25  -1.769   0.432  -1.457
    1LIG      O   26  -2.080   0.264  -1.372
    1LIG    C21   27  -2.117   0.126  -1.373
    1LIG     N3   28  -1.570   0.378  -2.023
    1LIG     H1   29  -1.533   0.440  -2.094
    1LIG     H2   30  -1.544   0.280  -2.031
    1LIG    HC2   31  -1.648   0.631  -1.968
    1LIG    HC3   32  -1.487   0.625  -1.890
    1LIG     HC   33  -1.515   0.236  -1.527
    1LIG    HC1   34  -1.139   0.413  -1.431
    1LIG    HC4   35  -1.221   0.631  -1.513
    1LIG    HC5   36  -1.444   0.648  -1.618
    1LIG    HC6   37  -1.241   0.101  -1.638
    1LIG    HC7   38  -1.157  -0.121  -1.567
    1LIG    HC8   39  -1.138  -0.169  -1.327
    1LIG    HC9   40  -1.287   0.207  -1.229
    1LIG   HC10   41  -1.814   0.261  -1.746
    1LIG   HC11   42  -2.011   0.180  -1.623
    1LIG   HC12   43  -1.901   0.421  -1.288
    1LIG   HC13   44  -1.701   0.500  -1.409
    1LIG   HC14   45  -2.181   0.105  -1.287
    1LIG   HC15   46  -2.027   0.064  -1.368
    1LIG   HC16   47  -2.171   0.104  -1.465
    1LIG    H22   48  -1.696   0.435  -1.916
    1LIG    H23   49  -1.278  -0.112  -1.359
   0.00000   0.00000   0.00000
