GRoups of Organic Molecules in ACtion for Science
   74
    1LIG     C1    1  -1.920   0.342  -1.847
    1LIG     C2    2  -1.781   0.349  -1.839
    1LIG     C3    3  -1.717   0.315  -1.719
    1LIG     C4    4  -1.794   0.278  -1.609
    1LIG     C5    5  -1.934   0.283  -1.613
    1LIG     C6    6  -1.997   0.312  -1.734
    1LIG     C7    7  -1.573   0.324  -1.705
    1LIG     N1    8  -1.512   0.319  -1.582
    1LIG     C8    9  -1.387   0.345  -1.610
    1LIG    HN1   10  -1.554   0.301  -1.491
    1LIG     O1   11  -1.363   0.350  -1.744
    1LIG     N2   12  -1.487   0.339  -1.807
    1LIG    HN2   13  -1.507   0.342  -1.907
    1LIG     C9   14  -1.270   0.356  -1.517
    1LIG    C10   15  -1.227   0.503  -1.504
    1LIG     N3   16  -1.313   0.315  -1.376
    1LIG     H1   17  -1.297   0.215  -1.360
    1LIG     H2   18  -1.264   0.369  -1.304
    1LIG     H3   19  -1.414   0.332  -1.364
    1LIG    C11   20  -1.153   0.263  -1.558
    1LIG    C12   21  -1.139   0.134  -1.482
    1LIG    C13   22  -1.215   0.021  -1.516
    1LIG    C14   23  -1.193  -0.101  -1.454
    1LIG    C15   24  -1.094  -0.113  -1.356
    1LIG    C16   25  -1.021  -0.002  -1.317
    1LIG    C17   26  -1.043   0.121  -1.379
    1LIG     N4   27  -1.984   0.367  -1.972
    1LIG    C18   28  -1.913   0.334  -2.097
    1LIG      S   29  -2.146   0.415  -1.973
    1LIG     O2   30  -2.160   0.523  -1.879
    1LIG     O3   31  -2.229   0.297  -1.965
    1LIG    C19   32  -2.167   0.484  -2.137
    1LIG    C20   33  -2.006   0.270  -1.483
    1LIG     O4   34  -1.964   0.331  -1.385
    1LIG     N5   35  -2.118   0.189  -1.480
    1LIG     H4   36  -2.136   0.127  -1.558
    1LIG    C21   37  -2.198   0.169  -1.359
    1LIG    C22   38  -2.341   0.218  -1.381
    1LIG    C23   39  -2.190   0.023  -1.317
    1LIG    C24   40  -2.198  -0.078  -1.415
    1LIG    C25   41  -2.193  -0.213  -1.379
    1LIG    C26   42  -2.181  -0.248  -1.245
    1LIG      F   43  -2.177  -0.378  -1.211
    1LIG    C27   44  -2.173  -0.151  -1.147
    1LIG    C28   45  -2.178  -0.016  -1.182
    1LIG     HC   46  -1.723   0.381  -1.924
    1LIG    HC1   47  -1.745   0.245  -1.518
    1LIG    HC2   48  -2.105   0.313  -1.741
    1LIG    HC3   49  -1.313   0.564  -1.475
    1LIG    HC4   50  -1.149   0.511  -1.428
    1LIG    HC5   51  -1.188   0.538  -1.599
    1LIG    HC6   52  -1.167   0.238  -1.663
    1LIG    HC7   53  -1.061   0.319  -1.548
    1LIG    HC8   54  -1.292   0.030  -1.592
    1LIG    HC9   55  -1.252  -0.188  -1.481
    1LIG   HC10   56  -1.075  -0.209  -1.310
    1LIG   HC11   57  -0.947  -0.010  -1.240
    1LIG   HC12   58  -0.987   0.208  -1.348
    1LIG   HC13   59  -1.822   0.280  -2.073
    1LIG   HC14   60  -1.888   0.426  -2.149
    1LIG   HC15   61  -1.977   0.272  -2.160
    1LIG   HC16   62  -2.263   0.536  -2.142
    1LIG   HC17   63  -2.166   0.403  -2.210
    1LIG   HC18   64  -2.086   0.553  -2.158
    1LIG   HC19   65  -2.154   0.229  -1.280
    1LIG   HC20   66  -2.399   0.202  -1.290
    1LIG   HC21   67  -2.340   0.324  -1.405
    1LIG   HC22   68  -2.387   0.162  -1.463
    1LIG   HC23   69  -2.208  -0.051  -1.519
    1LIG   HC24   70  -2.199  -0.289  -1.455
    1LIG   HC25   71  -2.164  -0.180  -1.043
    1LIG   HC26   72  -2.173   0.060  -1.105
    1LIG    H34   73  -1.565   0.215  -1.714
    1LIG    H35   74  -1.405   0.452  -1.606
   0.00000   0.00000   0.00000
