GROwing Monsters And Cloning Shrimps
   91
    1LIG     C1    1  -1.520   0.758  -1.548
    1LIG     O1    2  -1.521   0.876  -1.512
    1LIG     N1    3  -1.407   0.678  -1.542
    1LIG     H1    4  -1.414   0.584  -1.577
    1LIG     C2    5  -1.270   0.722  -1.488
    1LIG     C3    6  -1.200   0.592  -1.421
    1LIG     O2    7  -1.108   0.514  -1.498
    1LIG     C4    8  -1.148   0.388  -1.558
    1LIG     C5    9  -1.098   0.251  -1.510
    1LIG     C6   10  -1.168   0.133  -1.546
    1LIG     C7   11  -1.115   0.005  -1.523
    1LIG     F1   12  -1.184  -0.103  -1.562
    1LIG     C8   13  -0.992  -0.011  -1.463
    1LIG     C9   14  -0.922   0.103  -1.426
    1LIG     F2   15  -0.801   0.090  -1.371
    1LIG    C10   16  -0.973   0.232  -1.449
    1LIG    C11   17  -1.196   0.795  -1.608
    1LIG     O3   18  -1.055   0.762  -1.602
    1LIG     H2   19  -1.048   0.667  -1.583
    1LIG    C12   20  -1.235   0.768  -1.756
    1LIG    C13   21  -1.276   0.890  -1.838
    1LIG    C14   22  -1.181   0.908  -1.957
    1LIG    C15   23  -1.423   0.890  -1.884
    1LIG     O4   24  -1.464   0.815  -1.972
    1LIG     N2   25  -1.504   0.982  -1.818
    1LIG     H3   26  -1.459   1.054  -1.763
    1LIG    C16   27  -1.647   0.981  -1.833
    1LIG    C17   28  -1.788   1.019  -1.793
    1LIG    C18   29  -1.686   1.082  -1.715
    1LIG    C19   30  -1.651   0.695  -1.593
    1LIG    C20   31  -1.750   0.675  -1.495
    1LIG    C21   32  -1.868   0.603  -1.522
    1LIG    C22   33  -1.892   0.558  -1.652
    1LIG    C23   34  -1.802   0.589  -1.754
    1LIG    C24   35  -1.679   0.652  -1.724
    1LIG    C25   36  -1.959   0.562  -1.411
    1LIG     O5   37  -2.066   0.621  -1.395
    1LIG     N3   38  -1.918   0.468  -1.317
    1LIG     H4   39  -1.983   0.471  -1.239
    1LIG    C26   40  -1.884   0.330  -1.354
    1LIG    C27   41  -1.882   0.244  -1.227
    1LIG    C28   42  -1.752   0.315  -1.429
    1LIG    C29   43  -1.753   0.244  -1.551
    1LIG    C30   44  -1.636   0.222  -1.624
    1LIG    C31   45  -1.515   0.273  -1.578
    1LIG    C32   46  -1.512   0.346  -1.459
    1LIG    C33   47  -1.629   0.367  -1.385
    1LIG     N4   48  -1.842   0.549  -1.886
    1LIG    C34   49  -1.872   0.658  -1.981
    1LIG      S   50  -1.777   0.404  -1.945
    1LIG     O6   51  -1.855   0.296  -1.890
    1LIG     O7   52  -1.635   0.412  -1.929
    1LIG    C35   53  -1.815   0.412  -2.120
    1LIG     HC   54  -1.287   0.795  -1.409
    1LIG    HC2   55  -1.146   0.628  -1.333
    1LIG    HC3   56  -1.279   0.526  -1.386
    1LIG    HC4   57  -1.121   0.395  -1.663
    1LIG    HC5   58  -1.257   0.385  -1.554
    1LIG    HC1   59  -1.265   0.142  -1.592
    1LIG    HC6   60  -0.950  -0.110  -1.446
    1LIG    HC7   61  -0.915   0.318  -1.419
    1LIG    HC8   62  -1.205   0.903  -1.592
    1LIG    HC9   63  -1.318   0.698  -1.756
    1LIG   HC10   64  -1.150   0.720  -1.806
    1LIG   HC11   65  -1.263   0.977  -1.774
    1LIG   HC12   66  -1.211   0.995  -2.015
    1LIG   HC13   67  -1.079   0.922  -1.919
    1LIG   HC14   68  -1.184   0.819  -2.020
    1LIG   HC15   69  -1.643   1.062  -1.906
    1LIG   HC16   70  -1.847   1.080  -1.861
    1LIG   HC17   71  -1.843   0.941  -1.741
    1LIG   HC18   72  -1.668   1.189  -1.726
    1LIG   HC19   73  -1.674   1.043  -1.614
    1LIG   HC20   74  -1.736   0.717  -1.396
    1LIG   HC21   75  -1.980   0.500  -1.674
    1LIG   HC22   76  -1.606   0.668  -1.803
    1LIG   HC23   77  -1.963   0.292  -1.418
    1LIG   HC24   78  -1.977   0.256  -1.174
    1LIG   HC25   79  -1.868   0.139  -1.254
    1LIG   HC26   80  -1.801   0.276  -1.162
    1LIG   HC27   81  -1.846   0.204  -1.588
    1LIG   HC28   82  -1.639   0.166  -1.717
    1LIG   HC29   83  -1.424   0.257  -1.634
    1LIG   HC30   84  -1.418   0.386  -1.424
    1LIG   HC31   85  -1.625   0.424  -1.293
    1LIG   HC32   86  -1.894   0.750  -1.926
    1LIG   HC33   87  -1.787   0.674  -2.046
    1LIG   HC34   88  -1.959   0.630  -2.041
    1LIG   HC35   89  -1.791   0.317  -2.167
    1LIG   HC36   90  -1.755   0.491  -2.167
    1LIG   HC37   91  -1.921   0.434  -2.134
   0.00000   0.00000   0.00000
