; Created by cgenff_charmm2gmx.py

[ moleculetype ]
; Name			   nrexcl
LIG				 3

[ atoms ]
;	 nr		  type	resnr residue  atom   cgnr	   charge		mass  typeB    chargeB		massB
; residue	 1 LIG rtp LIG q	qsum
     1      CG2O1      1    LIG     C1      1      0.302     12.011   ;
     2      OG2D1      1    LIG     O1      2     -0.463     15.999   ;
     3      NG2S1      1    LIG     N1      3     -0.238     14.007   ;
     4       HGP1      1    LIG     H1      4      0.262      1.008   ;
     5      CG311      1    LIG     C2      5     -0.001     12.011   ;
     6      CG321      1    LIG     C3      6      0.012     12.011   ;
     7      OG301      1    LIG     O2      7     -0.393     15.999   ;
     8      CG321      1    LIG     C4      8      0.021     12.011   ;
     9     CG2R61      1    LIG     C5      9      0.068     12.011   ;
    10     CG2R61      1    LIG     C6     10     -0.218     12.011   ;
    11     CG2R66      1    LIG     C7     11      0.261     12.011   ;
    12       FGR1      1    LIG     F1     12     -0.210     18.998   ;
    13     CG2R61      1    LIG     C8     13     -0.240     12.011   ;
    14     CG2R66      1    LIG     C9     14      0.261     12.011   ;
    15       FGR1      1    LIG     F2     15     -0.210     18.998   ;
    16     CG2R61      1    LIG    C10     16     -0.218     12.011   ;
    17      CG311      1    LIG    C11     17      0.123     12.011   ;
    18      OG311      1    LIG     O3     18     -0.648     15.999   ;
    19       HGP1      1    LIG     H2     19      0.421      1.008   ;
    20      CG321      1    LIG    C12     20     -0.187     12.011   ;
    21      CG311      1    LIG    C13     21     -0.030     12.011   ;
    22      CG331      1    LIG    C14     22     -0.266     12.011   ;
    23      CG2O1      1    LIG    C15     23      0.527     12.011   ;
    24      OG2D1      1    LIG     O4     24     -0.493     15.999   ;
    25      NG2S1      1    LIG     N2     25     -0.687     14.007   ;
    26       HGP1      1    LIG     H3     26      0.308      1.008   ;
    27     CG3C31      1    LIG    C16     27      0.207     12.011   ;
    28     CG3C31      1    LIG    C17     28     -0.172     12.011   ;
    29     CG3C31      1    LIG    C18     29     -0.172     12.011   ;
    30     CG2R61      1    LIG    C19     30     -0.101     12.011   ;
    31     CG2R61      1    LIG    C20     31     -0.004     12.011   ;
    32     CG2R61      1    LIG    C21     32     -0.101     12.011   ;
    33     CG2R61      1    LIG    C22     33     -0.064     12.011   ;
    34     CG2R61      1    LIG    C23     34      0.138     12.011   ;
    35     CG2R61      1    LIG    C24     35     -0.064     12.011   ;
    36      CG2O1      1    LIG    C25     36      0.320     12.011   ;
    37      OG2D1      1    LIG     O5     37     -0.463     15.999   ;
    38      NG2S1      1    LIG     N3     38     -0.366     14.007   ;
    39       HGP1      1    LIG     H4     39      0.314      1.008   ;
    40      CG311      1    LIG    C26     40      0.138     12.011   ;
    41      CG331      1    LIG    C27     41     -0.265     12.011   ;
    42     CG2R61      1    LIG    C28     42     -0.111     12.011   ;
    43     CG2R61      1    LIG    C29     43     -0.086     12.011   ;
    44     CG2R61      1    LIG    C30     44     -0.114     12.011   ;
    45     CG2R61      1    LIG    C31     45     -0.116     12.011   ;
    46     CG2R61      1    LIG    C32     46     -0.114     12.011   ;
    47     CG2R61      1    LIG    C33     47     -0.086     12.011   ;
    48      NG301      1    LIG     N4     48     -0.228     14.007   ;
    49      CG331      1    LIG    C34     49     -0.103     12.011   ;
    50      SG3O2      1    LIG      S     50      0.397     32.060   ;
    51      OG2P1      1    LIG     O6     51     -0.388     15.999   ;
    52      OG2P1      1    LIG     O7     52     -0.388     15.999   ;
    53      CG331      1    LIG    C35     53      0.036     12.011   ;
    54       HGA1      1    LIG     HC     54      0.090      1.008   ;
    55       HGA2      1    LIG    HC2     55      0.090      1.008   ;
    56       HGA2      1    LIG    HC3     56      0.090      1.008   ;
    57       HGA2      1    LIG    HC4     57      0.090      1.008   ;
    58       HGA2      1    LIG    HC5     58      0.090      1.008   ;
    59      HGR62      1    LIG    HC1     59      0.174      1.008   ;
    60      HGR62      1    LIG    HC6     60      0.186      1.008   ;
    61      HGR62      1    LIG    HC7     61      0.174      1.008   ;
    62       HGA1      1    LIG    HC8     62      0.090      1.008   ;
    63       HGA2      1    LIG    HC9     63      0.090      1.008   ;
    64       HGA2      1    LIG   HC10     64      0.090      1.008   ;
    65       HGA1      1    LIG   HC11     65      0.090      1.008   ;
    66       HGA3      1    LIG   HC12     66      0.090      1.008   ;
    67       HGA3      1    LIG   HC13     67      0.090      1.008   ;
    68       HGA3      1    LIG   HC14     68      0.090      1.008   ;
    69       HGA1      1    LIG   HC15     69      0.090      1.008   ;
    70       HGA2      1    LIG   HC16     70      0.090      1.008   ;
    71       HGA2      1    LIG   HC17     71      0.090      1.008   ;
    72       HGA2      1    LIG   HC18     72      0.090      1.008   ;
    73       HGA2      1    LIG   HC19     73      0.090      1.008   ;
    74      HGR61      1    LIG   HC20     74      0.116      1.008   ;
    75      HGR61      1    LIG   HC21     75      0.116      1.008   ;
    76      HGR61      1    LIG   HC22     76      0.116      1.008   ;
    77       HGA1      1    LIG   HC23     77      0.090      1.008   ;
    78       HGA3      1    LIG   HC24     78      0.090      1.008   ;
    79       HGA3      1    LIG   HC25     79      0.090      1.008   ;
    80       HGA3      1    LIG   HC26     80      0.090      1.008   ;
    81      HGR61      1    LIG   HC27     81      0.116      1.008   ;
    82      HGR61      1    LIG   HC28     82      0.116      1.008   ;
    83      HGR61      1    LIG   HC29     83      0.116      1.008   ;
    84      HGR61      1    LIG   HC30     84      0.116      1.008   ;
    85      HGR61      1    LIG   HC31     85      0.116      1.008   ;
    86       HGA3      1    LIG   HC32     86      0.090      1.008   ;
    87       HGA3      1    LIG   HC33     87      0.090      1.008   ;
    88       HGA3      1    LIG   HC34     88      0.090      1.008   ;
    89       HGA3      1    LIG   HC35     89      0.090      1.008   ;
    90       HGA3      1    LIG   HC36     90      0.090      1.008   ;
    91       HGA3      1    LIG   HC37     91      0.090      1.008   ;

[ bonds ]
;	ai	  aj funct			  c0			c1			  c2			c3
    1     3	 1 ;       CG2O1      NG2S1
    1     2	 1 ;       CG2O1      OG2D1
    1    30	 1 ;       CG2O1     CG2R61
    3     5	 1 ;       NG2S1      CG311
    3     4	 1 ;       NG2S1       HGP1
    5    17	 1 ;       CG311      CG311
    5     6	 1 ;       CG311      CG321
    5    54	 1 ;       CG311       HGA1
    6     7	 1 ;       CG321      OG301
    6    55	 1 ;       CG321       HGA2
    6    56	 1 ;       CG321       HGA2
    7     8	 1 ;       OG301      CG321
    8     9	 1 ;       CG321     CG2R61
    8    57	 1 ;       CG321       HGA2
    8    58	 1 ;       CG321       HGA2
    9    16	 1 ;      CG2R61     CG2R61
    9    10	 1 ;      CG2R61     CG2R61
   10    11	 1 ;      CG2R61     CG2R66
   10    59	 1 ;      CG2R61      HGR62
   11    13	 1 ;      CG2R66     CG2R61
   11    12	 1 ;      CG2R66       FGR1
   13    14	 1 ;      CG2R61     CG2R66
   13    60	 1 ;      CG2R61      HGR62
   14    15	 1 ;      CG2R66       FGR1
   14    16	 1 ;      CG2R66     CG2R61
   16    61	 1 ;      CG2R61      HGR62
   17    20	 1 ;       CG311      CG321
   17    18	 1 ;       CG311      OG311
   17    62	 1 ;       CG311       HGA1
   18    19	 1 ;       OG311       HGP1
   20    21	 1 ;       CG321      CG311
   20    63	 1 ;       CG321       HGA2
   20    64	 1 ;       CG321       HGA2
   21    22	 1 ;       CG311      CG331
   21    23	 1 ;       CG311      CG2O1
   21    65	 1 ;       CG311       HGA1
   22    66	 1 ;       CG331       HGA3
   22    67	 1 ;       CG331       HGA3
   22    68	 1 ;       CG331       HGA3
   23    24	 1 ;       CG2O1      OG2D1
   23    25	 1 ;       CG2O1      NG2S1
   25    26	 1 ;       NG2S1       HGP1
   25    27	 1 ;       NG2S1     CG3C31
   27    29	 1 ;      CG3C31     CG3C31
   27    28	 1 ;      CG3C31     CG3C31
   27    69	 1 ;      CG3C31       HGA1
   28    29	 1 ;      CG3C31     CG3C31
   28    70	 1 ;      CG3C31       HGA2
   28    71	 1 ;      CG3C31       HGA2
   29    72	 1 ;      CG3C31       HGA2
   29    73	 1 ;      CG3C31       HGA2
   30    35	 1 ;      CG2R61     CG2R61
   30    31	 1 ;      CG2R61     CG2R61
   31    32	 1 ;      CG2R61     CG2R61
   31    74	 1 ;      CG2R61      HGR61
   32    33	 1 ;      CG2R61     CG2R61
   32    36	 1 ;      CG2R61      CG2O1
   33    34	 1 ;      CG2R61     CG2R61
   33    75	 1 ;      CG2R61      HGR61
   34    35	 1 ;      CG2R61     CG2R61
   34    48	 1 ;      CG2R61      NG301
   35    76	 1 ;      CG2R61      HGR61
   36    37	 1 ;       CG2O1      OG2D1
   36    38	 1 ;       CG2O1      NG2S1
   38    40	 1 ;       NG2S1      CG311
   38    39	 1 ;       NG2S1       HGP1
   40    42	 1 ;       CG311     CG2R61
   40    41	 1 ;       CG311      CG331
   40    77	 1 ;       CG311       HGA1
   41    78	 1 ;       CG331       HGA3
   41    79	 1 ;       CG331       HGA3
   41    80	 1 ;       CG331       HGA3
   42    43	 1 ;      CG2R61     CG2R61
   42    47	 1 ;      CG2R61     CG2R61
   43    44	 1 ;      CG2R61     CG2R61
   43    81	 1 ;      CG2R61      HGR61
   44    45	 1 ;      CG2R61     CG2R61
   44    82	 1 ;      CG2R61      HGR61
   45    46	 1 ;      CG2R61     CG2R61
   45    83	 1 ;      CG2R61      HGR61
   46    47	 1 ;      CG2R61     CG2R61
   46    84	 1 ;      CG2R61      HGR61
   47    85	 1 ;      CG2R61      HGR61
   48    49	 1 ;       NG301      CG331
   48    50	 1 ;       NG301      SG3O2
   49    86	 1 ;       CG331       HGA3
   49    87	 1 ;       CG331       HGA3
   49    88	 1 ;       CG331       HGA3
   50    53	 1 ;       SG3O2      CG331
   50    52	 1 ;       SG3O2      OG2P1
   50    51	 1 ;       SG3O2      OG2P1
   53    89	 1 ;       CG331       HGA3
   53    90	 1 ;       CG331       HGA3
   53    91	 1 ;       CG331       HGA3

[ pairs ]
;	ai	  aj funct			  c0			c1			  c2			c3
    1    17	 1
    1     6	 1
    1    54	 1
    1    34	 1
    1    76	 1
    1    32	 1
    1    74	 1
    2     5	 1
    2     4	 1
    2    35	 1
    2    31	 1
    3    35	 1
    3    31	 1
    3    20	 1
    3    18	 1
    3    62	 1
    3     7	 1
    3    55	 1
    3    56	 1
    4    30	 1
    4    17	 1
    4     6	 1
    4    54	 1
    5    30	 1
    5     8	 1
    5    21	 1
    5    63	 1
    5    64	 1
    5    19	 1
    6    20	 1
    6    18	 1
    6    62	 1
    6     9	 1
    6    57	 1
    6    58	 1
    7    17	 1
    7    54	 1
    7    16	 1
    7    10	 1
    8    55	 1
    8    56	 1
    8    14	 1
    8    61	 1
    8    11	 1
    8    59	 1
    9    13	 1
    9    12	 1
    9    15	 1
   10    57	 1
   10    58	 1
   10    14	 1
   10    61	 1
   10    60	 1
   11    16	 1
   11    15	 1
   12    59	 1
   12    14	 1
   12    60	 1
   13    59	 1
   13    61	 1
   15    60	 1
   15    61	 1
   16    57	 1
   16    58	 1
   16    59	 1
   16    60	 1
   17    55	 1
   17    56	 1
   17    22	 1
   17    23	 1
   17    65	 1
   18    54	 1
   18    21	 1
   18    63	 1
   18    64	 1
   19    20	 1
   19    62	 1
   20    54	 1
   20    66	 1
   20    67	 1
   20    68	 1
   20    24	 1
   20    25	 1
   21    62	 1
   21    26	 1
   21    27	 1
   22    63	 1
   22    64	 1
   22    24	 1
   22    25	 1
   23    63	 1
   23    64	 1
   23    66	 1
   23    67	 1
   23    68	 1
   23    29	 1
   23    28	 1
   23    69	 1
   24    65	 1
   24    26	 1
   24    27	 1
   25    65	 1
   25    72	 1
   25    73	 1
   25    70	 1
   25    71	 1
   26    29	 1
   26    28	 1
   26    69	 1
   30    33	 1
   30    36	 1
   30    48	 1
   31    34	 1
   31    76	 1
   31    75	 1
   31    37	 1
   31    38	 1
   32    35	 1
   32    48	 1
   32    40	 1
   32    39	 1
   33    74	 1
   33    37	 1
   33    38	 1
   33    76	 1
   33    49	 1
   33    50	 1
   34    36	 1
   34    86	 1
   34    87	 1
   34    88	 1
   34    53	 1
   34    52	 1
   34    51	 1
   35    74	 1
   35    75	 1
   35    49	 1
   35    50	 1
   36    74	 1
   36    75	 1
   36    42	 1
   36    41	 1
   36    77	 1
   37    40	 1
   37    39	 1
   38    43	 1
   38    47	 1
   38    78	 1
   38    79	 1
   38    80	 1
   39    42	 1
   39    41	 1
   39    77	 1
   40    44	 1
   40    81	 1
   40    46	 1
   40    85	 1
   41    43	 1
   41    47	 1
   42    78	 1
   42    79	 1
   42    80	 1
   42    45	 1
   42    82	 1
   42    84	 1
   43    77	 1
   43    46	 1
   43    85	 1
   43    83	 1
   44    47	 1
   44    84	 1
   45    81	 1
   45    85	 1
   46    82	 1
   47    77	 1
   47    81	 1
   47    83	 1
   48    75	 1
   48    76	 1
   48    89	 1
   48    90	 1
   48    91	 1
   49    53	 1
   49    52	 1
   49    51	 1
   50    86	 1
   50    87	 1
   50    88	 1
   51    89	 1
   51    90	 1
   51    91	 1
   52    89	 1
   52    90	 1
   52    91	 1
   54    62	 1
   54    55	 1
   54    56	 1
   62    63	 1
   62    64	 1
   63    65	 1
   64    65	 1
   65    66	 1
   65    67	 1
   65    68	 1
   69    72	 1
   69    73	 1
   69    70	 1
   69    71	 1
   70    72	 1
   70    73	 1
   71    72	 1
   71    73	 1
   77    78	 1
   77    79	 1
   77    80	 1
   81    82	 1
   82    83	 1
   83    84	 1
   84    85	 1

[ angles ]
;	ai	  aj	ak funct			c0			  c1			c2			  c3
    3     1     2	5 ;      NG2S1      CG2O1      OG2D1
    3     1    30	5 ;      NG2S1      CG2O1     CG2R61
    2     1    30	5 ;      OG2D1      CG2O1     CG2R61
    5     3     4	5 ;      CG311      NG2S1       HGP1
    5     3     1	5 ;      CG311      NG2S1      CG2O1
    4     3     1	5 ;       HGP1      NG2S1      CG2O1
   17     5     6	5 ;      CG311      CG311      CG321
   17     5     3	5 ;      CG311      CG311      NG2S1
   17     5    54	5 ;      CG311      CG311       HGA1
    6     5     3	5 ;      CG321      CG311      NG2S1
    6     5    54	5 ;      CG321      CG311       HGA1
    3     5    54	5 ;      NG2S1      CG311       HGA1
    7     6     5	5 ;      OG301      CG321      CG311
    7     6    55	5 ;      OG301      CG321       HGA2
    7     6    56	5 ;      OG301      CG321       HGA2
    5     6    55	5 ;      CG311      CG321       HGA2
    5     6    56	5 ;      CG311      CG321       HGA2
   55     6    56	5 ;       HGA2      CG321       HGA2
    8     7     6	5 ;      CG321      OG301      CG321
    7     8     9	5 ;      OG301      CG321     CG2R61
    7     8    57	5 ;      OG301      CG321       HGA2
    7     8    58	5 ;      OG301      CG321       HGA2
    9     8    57	5 ;     CG2R61      CG321       HGA2
    9     8    58	5 ;     CG2R61      CG321       HGA2
   57     8    58	5 ;       HGA2      CG321       HGA2
    8     9    16	5 ;      CG321     CG2R61     CG2R61
    8     9    10	5 ;      CG321     CG2R61     CG2R61
   16     9    10	5 ;     CG2R61     CG2R61     CG2R61
    9    10    11	5 ;     CG2R61     CG2R61     CG2R66
    9    10    59	5 ;     CG2R61     CG2R61      HGR62
   11    10    59	5 ;     CG2R66     CG2R61      HGR62
   13    11    10	5 ;     CG2R61     CG2R66     CG2R61
   13    11    12	5 ;     CG2R61     CG2R66       FGR1
   10    11    12	5 ;     CG2R61     CG2R66       FGR1
   14    13    11	5 ;     CG2R66     CG2R61     CG2R66
   14    13    60	5 ;     CG2R66     CG2R61      HGR62
   11    13    60	5 ;     CG2R66     CG2R61      HGR62
   15    14    16	5 ;       FGR1     CG2R66     CG2R61
   15    14    13	5 ;       FGR1     CG2R66     CG2R61
   16    14    13	5 ;     CG2R61     CG2R66     CG2R61
    9    16    14	5 ;     CG2R61     CG2R61     CG2R66
    9    16    61	5 ;     CG2R61     CG2R61      HGR62
   14    16    61	5 ;     CG2R66     CG2R61      HGR62
   20    17    18	5 ;      CG321      CG311      OG311
   20    17     5	5 ;      CG321      CG311      CG311
   20    17    62	5 ;      CG321      CG311       HGA1
   18    17     5	5 ;      OG311      CG311      CG311
   18    17    62	5 ;      OG311      CG311       HGA1
    5    17    62	5 ;      CG311      CG311       HGA1
   19    18    17	5 ;       HGP1      OG311      CG311
   21    20    17	5 ;      CG311      CG321      CG311
   21    20    63	5 ;      CG311      CG321       HGA2
   21    20    64	5 ;      CG311      CG321       HGA2
   17    20    63	5 ;      CG311      CG321       HGA2
   17    20    64	5 ;      CG311      CG321       HGA2
   63    20    64	5 ;       HGA2      CG321       HGA2
   22    21    23	5 ;      CG331      CG311      CG2O1
   22    21    20	5 ;      CG331      CG311      CG321
   22    21    65	5 ;      CG331      CG311       HGA1
   23    21    20	5 ;      CG2O1      CG311      CG321
   23    21    65	5 ;      CG2O1      CG311       HGA1
   20    21    65	5 ;      CG321      CG311       HGA1
   21    22    66	5 ;      CG311      CG331       HGA3
   21    22    67	5 ;      CG311      CG331       HGA3
   21    22    68	5 ;      CG311      CG331       HGA3
   66    22    67	5 ;       HGA3      CG331       HGA3
   66    22    68	5 ;       HGA3      CG331       HGA3
   67    22    68	5 ;       HGA3      CG331       HGA3
   21    23    24	5 ;      CG311      CG2O1      OG2D1
   21    23    25	5 ;      CG311      CG2O1      NG2S1
   24    23    25	5 ;      OG2D1      CG2O1      NG2S1
   23    25    26	5 ;      CG2O1      NG2S1       HGP1
   23    25    27	5 ;      CG2O1      NG2S1     CG3C31
   26    25    27	5 ;       HGP1      NG2S1     CG3C31
   25    27    29	5 ;      NG2S1     CG3C31     CG3C31
   25    27    28	5 ;      NG2S1     CG3C31     CG3C31
   25    27    69	5 ;      NG2S1     CG3C31       HGA1
   29    27    28	5 ;     CG3C31     CG3C31     CG3C31
   29    27    69	5 ;     CG3C31     CG3C31       HGA1
   28    27    69	5 ;     CG3C31     CG3C31       HGA1
   27    28    29	5 ;     CG3C31     CG3C31     CG3C31
   27    28    70	5 ;     CG3C31     CG3C31       HGA2
   27    28    71	5 ;     CG3C31     CG3C31       HGA2
   29    28    70	5 ;     CG3C31     CG3C31       HGA2
   29    28    71	5 ;     CG3C31     CG3C31       HGA2
   70    28    71	5 ;       HGA2     CG3C31       HGA2
   27    29    28	5 ;     CG3C31     CG3C31     CG3C31
   27    29    72	5 ;     CG3C31     CG3C31       HGA2
   27    29    73	5 ;     CG3C31     CG3C31       HGA2
   28    29    72	5 ;     CG3C31     CG3C31       HGA2
   28    29    73	5 ;     CG3C31     CG3C31       HGA2
   72    29    73	5 ;       HGA2     CG3C31       HGA2
    1    30    35	5 ;      CG2O1     CG2R61     CG2R61
    1    30    31	5 ;      CG2O1     CG2R61     CG2R61
   35    30    31	5 ;     CG2R61     CG2R61     CG2R61
   30    31    32	5 ;     CG2R61     CG2R61     CG2R61
   30    31    74	5 ;     CG2R61     CG2R61      HGR61
   32    31    74	5 ;     CG2R61     CG2R61      HGR61
   31    32    33	5 ;     CG2R61     CG2R61     CG2R61
   31    32    36	5 ;     CG2R61     CG2R61      CG2O1
   33    32    36	5 ;     CG2R61     CG2R61      CG2O1
   34    33    32	5 ;     CG2R61     CG2R61     CG2R61
   34    33    75	5 ;     CG2R61     CG2R61      HGR61
   32    33    75	5 ;     CG2R61     CG2R61      HGR61
   35    34    48	5 ;     CG2R61     CG2R61      NG301
   35    34    33	5 ;     CG2R61     CG2R61     CG2R61
   48    34    33	5 ;      NG301     CG2R61     CG2R61
   30    35    34	5 ;     CG2R61     CG2R61     CG2R61
   30    35    76	5 ;     CG2R61     CG2R61      HGR61
   34    35    76	5 ;     CG2R61     CG2R61      HGR61
   32    36    37	5 ;     CG2R61      CG2O1      OG2D1
   32    36    38	5 ;     CG2R61      CG2O1      NG2S1
   37    36    38	5 ;      OG2D1      CG2O1      NG2S1
   36    38    40	5 ;      CG2O1      NG2S1      CG311
   36    38    39	5 ;      CG2O1      NG2S1       HGP1
   40    38    39	5 ;      CG311      NG2S1       HGP1
   42    40    38	5 ;     CG2R61      CG311      NG2S1
   42    40    41	5 ;     CG2R61      CG311      CG331
   42    40    77	5 ;     CG2R61      CG311       HGA1
   38    40    41	5 ;      NG2S1      CG311      CG331
   38    40    77	5 ;      NG2S1      CG311       HGA1
   41    40    77	5 ;      CG331      CG311       HGA1
   40    41    78	5 ;      CG311      CG331       HGA3
   40    41    79	5 ;      CG311      CG331       HGA3
   40    41    80	5 ;      CG311      CG331       HGA3
   78    41    79	5 ;       HGA3      CG331       HGA3
   78    41    80	5 ;       HGA3      CG331       HGA3
   79    41    80	5 ;       HGA3      CG331       HGA3
   43    42    47	5 ;     CG2R61     CG2R61     CG2R61
   43    42    40	5 ;     CG2R61     CG2R61      CG311
   47    42    40	5 ;     CG2R61     CG2R61      CG311
   44    43    42	5 ;     CG2R61     CG2R61     CG2R61
   44    43    81	5 ;     CG2R61     CG2R61      HGR61
   42    43    81	5 ;     CG2R61     CG2R61      HGR61
   45    44    43	5 ;     CG2R61     CG2R61     CG2R61
   45    44    82	5 ;     CG2R61     CG2R61      HGR61
   43    44    82	5 ;     CG2R61     CG2R61      HGR61
   44    45    46	5 ;     CG2R61     CG2R61     CG2R61
   44    45    83	5 ;     CG2R61     CG2R61      HGR61
   46    45    83	5 ;     CG2R61     CG2R61      HGR61
   45    46    47	5 ;     CG2R61     CG2R61     CG2R61
   45    46    84	5 ;     CG2R61     CG2R61      HGR61
   47    46    84	5 ;     CG2R61     CG2R61      HGR61
   46    47    42	5 ;     CG2R61     CG2R61     CG2R61
   46    47    85	5 ;     CG2R61     CG2R61      HGR61
   42    47    85	5 ;     CG2R61     CG2R61      HGR61
   49    48    50	5 ;      CG331      NG301      SG3O2
   49    48    34	5 ;      CG331      NG301     CG2R61
   50    48    34	5 ;      SG3O2      NG301     CG2R61
   48    49    86	5 ;      NG301      CG331       HGA3
   48    49    87	5 ;      NG301      CG331       HGA3
   48    49    88	5 ;      NG301      CG331       HGA3
   86    49    87	5 ;       HGA3      CG331       HGA3
   86    49    88	5 ;       HGA3      CG331       HGA3
   87    49    88	5 ;       HGA3      CG331       HGA3
   53    50    52	5 ;      CG331      SG3O2      OG2P1
   53    50    48	5 ;      CG331      SG3O2      NG301
   53    50    51	5 ;      CG331      SG3O2      OG2P1
   52    50    48	5 ;      OG2P1      SG3O2      NG301
   52    50    51	5 ;      OG2P1      SG3O2      OG2P1
   48    50    51	5 ;      NG301      SG3O2      OG2P1
   50    53    89	5 ;      SG3O2      CG331       HGA3
   50    53    90	5 ;      SG3O2      CG331       HGA3
   50    53    91	5 ;      SG3O2      CG331       HGA3
   89    53    90	5 ;       HGA3      CG331       HGA3
   89    53    91	5 ;       HGA3      CG331       HGA3
   90    53    91	5 ;       HGA3      CG331       HGA3

[ dihedrals ]
;	ai	  aj	ak	  al funct			  c0			c1			  c2			c3			  c4			c5
    2     1     3     5	 9 ;      OG2D1      CG2O1      NG2S1      CG311
    2     1     3     4	 9 ;      OG2D1      CG2O1      NG2S1       HGP1
   30     1     3     5	 9 ;     CG2R61      CG2O1      NG2S1      CG311
   30     1     3     4	 9 ;     CG2R61      CG2O1      NG2S1       HGP1
    3     1    30    35	 9 ;      NG2S1      CG2O1     CG2R61     CG2R61
    3     1    30    31	 9 ;      NG2S1      CG2O1     CG2R61     CG2R61
    2     1    30    35	 9 ;      OG2D1      CG2O1     CG2R61     CG2R61
    2     1    30    31	 9 ;      OG2D1      CG2O1     CG2R61     CG2R61
    4     3     5    17	 9 ;       HGP1      NG2S1      CG311      CG311
    4     3     5     6	 9 ;       HGP1      NG2S1      CG311      CG321
    4     3     5    54	 9 ;       HGP1      NG2S1      CG311       HGA1
    1     3     5    17	 9 ;      CG2O1      NG2S1      CG311      CG311
    1     3     5     6	 9 ;      CG2O1      NG2S1      CG311      CG321
    1     3     5    54	 9 ;      CG2O1      NG2S1      CG311       HGA1
    6     5    17    20	 9 ;      CG321      CG311      CG311      CG321
    6     5    17    18	 9 ;      CG321      CG311      CG311      OG311
    6     5    17    62	 9 ;      CG321      CG311      CG311       HGA1
    3     5    17    20	 9 ;      NG2S1      CG311      CG311      CG321
    3     5    17    18	 9 ;      NG2S1      CG311      CG311      OG311
    3     5    17    62	 9 ;      NG2S1      CG311      CG311       HGA1
   54     5    17    20	 9 ;       HGA1      CG311      CG311      CG321
   54     5    17    18	 9 ;       HGA1      CG311      CG311      OG311
   54     5    17    62	 9 ;       HGA1      CG311      CG311       HGA1
   17     5     6     7	 9 ;      CG311      CG311      CG321      OG301
   17     5     6    55	 9 ;      CG311      CG311      CG321       HGA2
   17     5     6    56	 9 ;      CG311      CG311      CG321       HGA2
    3     5     6     7	 9 ;      NG2S1      CG311      CG321      OG301
    3     5     6    55	 9 ;      NG2S1      CG311      CG321       HGA2
    3     5     6    56	 9 ;      NG2S1      CG311      CG321       HGA2
   54     5     6     7	 9 ;       HGA1      CG311      CG321      OG301
   54     5     6    55	 9 ;       HGA1      CG311      CG321       HGA2
   54     5     6    56	 9 ;       HGA1      CG311      CG321       HGA2
    5     6     7     8	 9 ;      CG311      CG321      OG301      CG321
   55     6     7     8	 9 ;       HGA2      CG321      OG301      CG321
   56     6     7     8	 9 ;       HGA2      CG321      OG301      CG321
    6     7     8     9	 9 ;      CG321      OG301      CG321     CG2R61
    6     7     8    57	 9 ;      CG321      OG301      CG321       HGA2
    6     7     8    58	 9 ;      CG321      OG301      CG321       HGA2
    7     8     9    16	 9 ;      OG301      CG321     CG2R61     CG2R61
    7     8     9    10	 9 ;      OG301      CG321     CG2R61     CG2R61
   57     8     9    16	 9 ;       HGA2      CG321     CG2R61     CG2R61
   57     8     9    10	 9 ;       HGA2      CG321     CG2R61     CG2R61
   58     8     9    16	 9 ;       HGA2      CG321     CG2R61     CG2R61
   58     8     9    10	 9 ;       HGA2      CG321     CG2R61     CG2R61
    8     9    16    14	 9 ;      CG321     CG2R61     CG2R61     CG2R66
    8     9    16    61	 9 ;      CG321     CG2R61     CG2R61      HGR62
   10     9    16    14	 9 ;     CG2R61     CG2R61     CG2R61     CG2R66
   10     9    16    61	 9 ;     CG2R61     CG2R61     CG2R61      HGR62
    8     9    10    11	 9 ;      CG321     CG2R61     CG2R61     CG2R66
    8     9    10    59	 9 ;      CG321     CG2R61     CG2R61      HGR62
   16     9    10    11	 9 ;     CG2R61     CG2R61     CG2R61     CG2R66
   16     9    10    59	 9 ;     CG2R61     CG2R61     CG2R61      HGR62
    9    10    11    13	 9 ;     CG2R61     CG2R61     CG2R66     CG2R61
    9    10    11    12	 9 ;     CG2R61     CG2R61     CG2R66       FGR1
   59    10    11    13	 9 ;      HGR62     CG2R61     CG2R66     CG2R61
   59    10    11    12	 9 ;      HGR62     CG2R61     CG2R66       FGR1
   10    11    13    14	 9 ;     CG2R61     CG2R66     CG2R61     CG2R66
   10    11    13    60	 9 ;     CG2R61     CG2R66     CG2R61      HGR62
   12    11    13    14	 9 ;       FGR1     CG2R66     CG2R61     CG2R66
   12    11    13    60	 9 ;       FGR1     CG2R66     CG2R61      HGR62
   11    13    14    15	 9 ;     CG2R66     CG2R61     CG2R66       FGR1
   11    13    14    16	 9 ;     CG2R66     CG2R61     CG2R66     CG2R61
   60    13    14    15	 9 ;      HGR62     CG2R61     CG2R66       FGR1
   60    13    14    16	 9 ;      HGR62     CG2R61     CG2R66     CG2R61
   15    14    16     9	 9 ;       FGR1     CG2R66     CG2R61     CG2R61
   15    14    16    61	 9 ;       FGR1     CG2R66     CG2R61      HGR62
   13    14    16     9	 9 ;     CG2R61     CG2R66     CG2R61     CG2R61
   13    14    16    61	 9 ;     CG2R61     CG2R66     CG2R61      HGR62
   18    17    20    21	 9 ;      OG311      CG311      CG321      CG311
   18    17    20    63	 9 ;      OG311      CG311      CG321       HGA2
   18    17    20    64	 9 ;      OG311      CG311      CG321       HGA2
    5    17    20    21	 9 ;      CG311      CG311      CG321      CG311
    5    17    20    63	 9 ;      CG311      CG311      CG321       HGA2
    5    17    20    64	 9 ;      CG311      CG311      CG321       HGA2
   62    17    20    21	 9 ;       HGA1      CG311      CG321      CG311
   62    17    20    63	 9 ;       HGA1      CG311      CG321       HGA2
   62    17    20    64	 9 ;       HGA1      CG311      CG321       HGA2
   20    17    18    19	 9 ;      CG321      CG311      OG311       HGP1
    5    17    18    19	 9 ;      CG311      CG311      OG311       HGP1
   62    17    18    19	 9 ;       HGA1      CG311      OG311       HGP1
   17    20    21    22	 9 ;      CG311      CG321      CG311      CG331
   17    20    21    23	 9 ;      CG311      CG321      CG311      CG2O1
   17    20    21    65	 9 ;      CG311      CG321      CG311       HGA1
   63    20    21    22	 9 ;       HGA2      CG321      CG311      CG331
   63    20    21    23	 9 ;       HGA2      CG321      CG311      CG2O1
   63    20    21    65	 9 ;       HGA2      CG321      CG311       HGA1
   64    20    21    22	 9 ;       HGA2      CG321      CG311      CG331
   64    20    21    23	 9 ;       HGA2      CG321      CG311      CG2O1
   64    20    21    65	 9 ;       HGA2      CG321      CG311       HGA1
   23    21    22    66	 9 ;      CG2O1      CG311      CG331       HGA3
   23    21    22    67	 9 ;      CG2O1      CG311      CG331       HGA3
   23    21    22    68	 9 ;      CG2O1      CG311      CG331       HGA3
   20    21    22    66	 9 ;      CG321      CG311      CG331       HGA3
   20    21    22    67	 9 ;      CG321      CG311      CG331       HGA3
   20    21    22    68	 9 ;      CG321      CG311      CG331       HGA3
   65    21    22    66	 9 ;       HGA1      CG311      CG331       HGA3
   65    21    22    67	 9 ;       HGA1      CG311      CG331       HGA3
   65    21    22    68	 9 ;       HGA1      CG311      CG331       HGA3
   22    21    23    24	 9 ;      CG331      CG311      CG2O1      OG2D1
   22    21    23    25	 9 ;      CG331      CG311      CG2O1      NG2S1
   20    21    23    24	 9 ;      CG321      CG311      CG2O1      OG2D1
   20    21    23    25	 9 ;      CG321      CG311      CG2O1      NG2S1
   65    21    23    24	 9 ;       HGA1      CG311      CG2O1      OG2D1
   65    21    23    25	 9 ;       HGA1      CG311      CG2O1      NG2S1
   21    23    25    26	 9 ;      CG311      CG2O1      NG2S1       HGP1
   21    23    25    27	 9 ;      CG311      CG2O1      NG2S1     CG3C31
   24    23    25    26	 9 ;      OG2D1      CG2O1      NG2S1       HGP1
   24    23    25    27	 9 ;      OG2D1      CG2O1      NG2S1     CG3C31
   23    25    27    29	 9 ;      CG2O1      NG2S1     CG3C31     CG3C31
   23    25    27    28	 9 ;      CG2O1      NG2S1     CG3C31     CG3C31
   23    25    27    69	 9 ;      CG2O1      NG2S1     CG3C31       HGA1
   26    25    27    29	 9 ;       HGP1      NG2S1     CG3C31     CG3C31
   26    25    27    28	 9 ;       HGP1      NG2S1     CG3C31     CG3C31
   26    25    27    69	 9 ;       HGP1      NG2S1     CG3C31       HGA1
   25    27    29    28	 9 ;      NG2S1     CG3C31     CG3C31     CG3C31
   25    27    29    72	 9 ;      NG2S1     CG3C31     CG3C31       HGA2
   25    27    29    73	 9 ;      NG2S1     CG3C31     CG3C31       HGA2
   28    27    29    72	 9 ;     CG3C31     CG3C31     CG3C31       HGA2
   28    27    29    73	 9 ;     CG3C31     CG3C31     CG3C31       HGA2
   69    27    29    28	 9 ;       HGA1     CG3C31     CG3C31     CG3C31
   69    27    29    72	 9 ;       HGA1     CG3C31     CG3C31       HGA2
   69    27    29    73	 9 ;       HGA1     CG3C31     CG3C31       HGA2
   25    27    28    29	 9 ;      NG2S1     CG3C31     CG3C31     CG3C31
   25    27    28    70	 9 ;      NG2S1     CG3C31     CG3C31       HGA2
   25    27    28    71	 9 ;      NG2S1     CG3C31     CG3C31       HGA2
   29    27    28    70	 9 ;     CG3C31     CG3C31     CG3C31       HGA2
   29    27    28    71	 9 ;     CG3C31     CG3C31     CG3C31       HGA2
   69    27    28    29	 9 ;       HGA1     CG3C31     CG3C31     CG3C31
   69    27    28    70	 9 ;       HGA1     CG3C31     CG3C31       HGA2
   69    27    28    71	 9 ;       HGA1     CG3C31     CG3C31       HGA2
   27    28    29    72	 9 ;     CG3C31     CG3C31     CG3C31       HGA2
   27    28    29    73	 9 ;     CG3C31     CG3C31     CG3C31       HGA2
   70    28    29    27	 9 ;       HGA2     CG3C31     CG3C31     CG3C31
   70    28    29    72	 9 ;       HGA2     CG3C31     CG3C31       HGA2
   70    28    29    73	 9 ;       HGA2     CG3C31     CG3C31       HGA2
   71    28    29    27	 9 ;       HGA2     CG3C31     CG3C31     CG3C31
   71    28    29    72	 9 ;       HGA2     CG3C31     CG3C31       HGA2
   71    28    29    73	 9 ;       HGA2     CG3C31     CG3C31       HGA2
    1    30    35    34	 9 ;      CG2O1     CG2R61     CG2R61     CG2R61
    1    30    35    76	 9 ;      CG2O1     CG2R61     CG2R61      HGR61
   31    30    35    34	 9 ;     CG2R61     CG2R61     CG2R61     CG2R61
   31    30    35    76	 9 ;     CG2R61     CG2R61     CG2R61      HGR61
    1    30    31    32	 9 ;      CG2O1     CG2R61     CG2R61     CG2R61
    1    30    31    74	 9 ;      CG2O1     CG2R61     CG2R61      HGR61
   35    30    31    32	 9 ;     CG2R61     CG2R61     CG2R61     CG2R61
   35    30    31    74	 9 ;     CG2R61     CG2R61     CG2R61      HGR61
   30    31    32    33	 9 ;     CG2R61     CG2R61     CG2R61     CG2R61
   30    31    32    36	 9 ;     CG2R61     CG2R61     CG2R61      CG2O1
   74    31    32    33	 9 ;      HGR61     CG2R61     CG2R61     CG2R61
   74    31    32    36	 9 ;      HGR61     CG2R61     CG2R61      CG2O1
   31    32    33    34	 9 ;     CG2R61     CG2R61     CG2R61     CG2R61
   31    32    33    75	 9 ;     CG2R61     CG2R61     CG2R61      HGR61
   36    32    33    34	 9 ;      CG2O1     CG2R61     CG2R61     CG2R61
   36    32    33    75	 9 ;      CG2O1     CG2R61     CG2R61      HGR61
   31    32    36    37	 9 ;     CG2R61     CG2R61      CG2O1      OG2D1
   31    32    36    38	 9 ;     CG2R61     CG2R61      CG2O1      NG2S1
   33    32    36    37	 9 ;     CG2R61     CG2R61      CG2O1      OG2D1
   33    32    36    38	 9 ;     CG2R61     CG2R61      CG2O1      NG2S1
   32    33    34    35	 9 ;     CG2R61     CG2R61     CG2R61     CG2R61
   32    33    34    48	 9 ;     CG2R61     CG2R61     CG2R61      NG301
   75    33    34    35	 9 ;      HGR61     CG2R61     CG2R61     CG2R61
   75    33    34    48	 9 ;      HGR61     CG2R61     CG2R61      NG301
   48    34    35    30	 9 ;      NG301     CG2R61     CG2R61     CG2R61
   48    34    35    76	 9 ;      NG301     CG2R61     CG2R61      HGR61
   33    34    35    30	 9 ;     CG2R61     CG2R61     CG2R61     CG2R61
   33    34    35    76	 9 ;     CG2R61     CG2R61     CG2R61      HGR61
   35    34    48    49	 9 ;     CG2R61     CG2R61      NG301      CG331
   35    34    48    50	 9 ;     CG2R61     CG2R61      NG301      SG3O2
   33    34    48    49	 9 ;     CG2R61     CG2R61      NG301      CG331
   33    34    48    50	 9 ;     CG2R61     CG2R61      NG301      SG3O2
   32    36    38    40	 9 ;     CG2R61      CG2O1      NG2S1      CG311
   32    36    38    39	 9 ;     CG2R61      CG2O1      NG2S1       HGP1
   37    36    38    40	 9 ;      OG2D1      CG2O1      NG2S1      CG311
   37    36    38    39	 9 ;      OG2D1      CG2O1      NG2S1       HGP1
   36    38    40    42	 9 ;      CG2O1      NG2S1      CG311     CG2R61
   36    38    40    41	 9 ;      CG2O1      NG2S1      CG311      CG331
   36    38    40    77	 9 ;      CG2O1      NG2S1      CG311       HGA1
   39    38    40    42	 9 ;       HGP1      NG2S1      CG311     CG2R61
   39    38    40    41	 9 ;       HGP1      NG2S1      CG311      CG331
   39    38    40    77	 9 ;       HGP1      NG2S1      CG311       HGA1
   38    40    42    43	 9 ;      NG2S1      CG311     CG2R61     CG2R61
   38    40    42    47	 9 ;      NG2S1      CG311     CG2R61     CG2R61
   41    40    42    43	 9 ;      CG331      CG311     CG2R61     CG2R61
   41    40    42    47	 9 ;      CG331      CG311     CG2R61     CG2R61
   77    40    42    43	 9 ;       HGA1      CG311     CG2R61     CG2R61
   77    40    42    47	 9 ;       HGA1      CG311     CG2R61     CG2R61
   42    40    41    78	 9 ;     CG2R61      CG311      CG331       HGA3
   42    40    41    79	 9 ;     CG2R61      CG311      CG331       HGA3
   42    40    41    80	 9 ;     CG2R61      CG311      CG331       HGA3
   38    40    41    78	 9 ;      NG2S1      CG311      CG331       HGA3
   38    40    41    79	 9 ;      NG2S1      CG311      CG331       HGA3
   38    40    41    80	 9 ;      NG2S1      CG311      CG331       HGA3
   77    40    41    78	 9 ;       HGA1      CG311      CG331       HGA3
   77    40    41    79	 9 ;       HGA1      CG311      CG331       HGA3
   77    40    41    80	 9 ;       HGA1      CG311      CG331       HGA3
   47    42    43    44	 9 ;     CG2R61     CG2R61     CG2R61     CG2R61
   47    42    43    81	 9 ;     CG2R61     CG2R61     CG2R61      HGR61
   40    42    43    44	 9 ;      CG311     CG2R61     CG2R61     CG2R61
   40    42    43    81	 9 ;      CG311     CG2R61     CG2R61      HGR61
   43    42    47    46	 9 ;     CG2R61     CG2R61     CG2R61     CG2R61
   43    42    47    85	 9 ;     CG2R61     CG2R61     CG2R61      HGR61
   40    42    47    46	 9 ;      CG311     CG2R61     CG2R61     CG2R61
   40    42    47    85	 9 ;      CG311     CG2R61     CG2R61      HGR61
   42    43    44    45	 9 ;     CG2R61     CG2R61     CG2R61     CG2R61
   42    43    44    82	 9 ;     CG2R61     CG2R61     CG2R61      HGR61
   81    43    44    45	 9 ;      HGR61     CG2R61     CG2R61     CG2R61
   81    43    44    82	 9 ;      HGR61     CG2R61     CG2R61      HGR61
   43    44    45    46	 9 ;     CG2R61     CG2R61     CG2R61     CG2R61
   43    44    45    83	 9 ;     CG2R61     CG2R61     CG2R61      HGR61
   82    44    45    46	 9 ;      HGR61     CG2R61     CG2R61     CG2R61
   82    44    45    83	 9 ;      HGR61     CG2R61     CG2R61      HGR61
   44    45    46    47	 9 ;     CG2R61     CG2R61     CG2R61     CG2R61
   44    45    46    84	 9 ;     CG2R61     CG2R61     CG2R61      HGR61
   83    45    46    47	 9 ;      HGR61     CG2R61     CG2R61     CG2R61
   83    45    46    84	 9 ;      HGR61     CG2R61     CG2R61      HGR61
   45    46    47    42	 9 ;     CG2R61     CG2R61     CG2R61     CG2R61
   45    46    47    85	 9 ;     CG2R61     CG2R61     CG2R61      HGR61
   84    46    47    42	 9 ;      HGR61     CG2R61     CG2R61     CG2R61
   84    46    47    85	 9 ;      HGR61     CG2R61     CG2R61      HGR61
   50    48    49    86	 9 ;      SG3O2      NG301      CG331       HGA3
   50    48    49    87	 9 ;      SG3O2      NG301      CG331       HGA3
   50    48    49    88	 9 ;      SG3O2      NG301      CG331       HGA3
   34    48    49    86	 9 ;     CG2R61      NG301      CG331       HGA3
   34    48    49    87	 9 ;     CG2R61      NG301      CG331       HGA3
   34    48    49    88	 9 ;     CG2R61      NG301      CG331       HGA3
   49    48    50    53	 9 ;      CG331      NG301      SG3O2      CG331
   49    48    50    52	 9 ;      CG331      NG301      SG3O2      OG2P1
   49    48    50    51	 9 ;      CG331      NG301      SG3O2      OG2P1
   34    48    50    53	 9 ;     CG2R61      NG301      SG3O2      CG331
   34    48    50    52	 9 ;     CG2R61      NG301      SG3O2      OG2P1
   34    48    50    51	 9 ;     CG2R61      NG301      SG3O2      OG2P1
   52    50    53    89	 9 ;      OG2P1      SG3O2      CG331       HGA3
   52    50    53    90	 9 ;      OG2P1      SG3O2      CG331       HGA3
   52    50    53    91	 9 ;      OG2P1      SG3O2      CG331       HGA3
   48    50    53    89	 9 ;      NG301      SG3O2      CG331       HGA3
   48    50    53    90	 9 ;      NG301      SG3O2      CG331       HGA3
   48    50    53    91	 9 ;      NG301      SG3O2      CG331       HGA3
   51    50    53    89	 9 ;      OG2P1      SG3O2      CG331       HGA3
   51    50    53    90	 9 ;      OG2P1      SG3O2      CG331       HGA3
   51    50    53    91	 9 ;      OG2P1      SG3O2      CG331       HGA3

[ dihedrals ]
;	ai	  aj	ak	  al funct			  c0			c1			  c2			c3
    1    30     3     2	 2
   23    21    25    24	 2
   36    32    38    37	 2

