; Created by cgenff_charmm2gmx.py

[ moleculetype ]
; Name			   nrexcl
LIG				 3

[ atoms ]
;	 nr		  type	resnr residue  atom   cgnr	   charge		mass  typeB    chargeB		massB
; residue	 1 LIG rtp LIG q	qsum
     1      NG3P2      1    LIG     N1      1     -0.450     14.007   ;
     2       HGP2      1    LIG     H1      2      0.341      1.008   ;
     3       HGP2      1    LIG     H2      3      0.341      1.008   ;
     4      CG324      1    LIG     C1      4      0.208     12.011   ;
     5      CG311      1    LIG     C2      5      0.089     12.011   ;
     6      CG311      1    LIG     C3      6     -0.007     12.011   ;
     7      CG321      1    LIG     C4      7     -0.153     12.011   ;
     8     CG2R61      1    LIG     C5      8      0.057     12.011   ;
     9     CG2R61      1    LIG     C6      9     -0.218     12.011   ;
    10     CG2R66      1    LIG     C7     10      0.261     12.011   ;
    11       FGR1      1    LIG     F1     11     -0.210     18.998   ;
    12     CG2R61      1    LIG     C8     12     -0.240     12.011   ;
    13     CG2R66      1    LIG     C9     13      0.261     12.011   ;
    14     CG2R61      1    LIG    C10     14     -0.218     12.011   ;
    15       FGR1      1    LIG     F2     15     -0.210     18.998   ;
    16      NG2S1      1    LIG     N2     16     -0.339     14.007   ;
    17      CG2O1      1    LIG    C11     17      0.488     12.011   ;
    18      OG2D1      1    LIG     O1     18     -0.509     15.999   ;
    19      CG331      1    LIG    C12     19     -0.270     12.011   ;
    20       HGP1      1    LIG     H3     20      0.261      1.008   ;
    21      OG311      1    LIG     O2     21     -0.625     15.999   ;
    22       HGP1      1    LIG     H4     22      0.415      1.008   ;
    23      CG301      1    LIG    C13     23      0.289     12.011   ;
    24      CG321      1    LIG    C14     24     -0.142     12.011   ;
    25      CG321      1    LIG    C15     25     -0.195     12.011   ;
    26      CG311      1    LIG    C16     26      0.135     12.011   ;
    27      CG321      1    LIG    C17     27     -0.195     12.011   ;
    28      CG321      1    LIG    C18     28     -0.142     12.011   ;
    29      OG301      1    LIG     O3     29     -0.418     15.999   ;
    30      CG331      1    LIG    C19     30     -0.091     12.011   ;
    31     CG2R61      1    LIG    C20     31      0.085     12.011   ;
    32     CG2R61      1    LIG    C21     32     -0.134     12.011   ;
    33     CG2R61      1    LIG    C22     33      0.082     12.011   ;
    34     CG2R61      1    LIG    C23     34     -0.121     12.011   ;
    35     CG2R61      1    LIG    C24     35     -0.110     12.011   ;
    36     CG2R61      1    LIG    C25     36     -0.129     12.011   ;
    37      CG301      1    LIG    C26     37     -0.018     12.011   ;
    38      CG331      1    LIG    C27     38     -0.289     12.011   ;
    39      CG331      1    LIG    C28     39     -0.289     12.011   ;
    40      CG331      1    LIG    C29     40     -0.289     12.011   ;
    41       HGA2      1    LIG    HC2     41      0.090      1.008   ;
    42       HGA2      1    LIG    HC3     42      0.090      1.008   ;
    43       HGA1      1    LIG     HC     43      0.090      1.008   ;
    44       HGA1      1    LIG    HC1     44      0.090      1.008   ;
    45       HGA2      1    LIG    HC4     45      0.090      1.008   ;
    46       HGA2      1    LIG    HC5     46      0.090      1.008   ;
    47      HGR62      1    LIG    HC6     47      0.174      1.008   ;
    48      HGR62      1    LIG    HC7     48      0.186      1.008   ;
    49      HGR62      1    LIG    HC8     49      0.174      1.008   ;
    50       HGA2      1    LIG    HC9     50      0.090      1.008   ;
    51       HGA2      1    LIG   HC10     51      0.090      1.008   ;
    52       HGA2      1    LIG   HC11     52      0.090      1.008   ;
    53       HGA2      1    LIG   HC12     53      0.090      1.008   ;
    54       HGA1      1    LIG   HC13     54      0.090      1.008   ;
    55       HGA2      1    LIG   HC14     55      0.090      1.008   ;
    56       HGA2      1    LIG   HC15     56      0.090      1.008   ;
    57       HGA2      1    LIG   HC16     57      0.090      1.008   ;
    58       HGA2      1    LIG   HC17     58      0.090      1.008   ;
    59      HGR61      1    LIG   HC18     59      0.116      1.008   ;
    60      HGR61      1    LIG   HC19     60      0.116      1.008   ;
    61      HGR61      1    LIG   HC20     61      0.116      1.008   ;
    62      HGR61      1    LIG   HC21     62      0.116      1.008   ;
    63       HGA3      1    LIG   HC22     63      0.090      1.008   ;
    64       HGA3      1    LIG   HC23     64      0.090      1.008   ;
    65       HGA3      1    LIG   HC24     65      0.090      1.008   ;
    66       HGA3      1    LIG   HC25     66      0.090      1.008   ;
    67       HGA3      1    LIG   HC26     67      0.090      1.008   ;
    68       HGA3      1    LIG   HC27     68      0.090      1.008   ;
    69       HGA3      1    LIG   HC28     69      0.090      1.008   ;
    70       HGA3      1    LIG   HC29     70      0.090      1.008   ;
    71       HGA3      1    LIG   HC30     71      0.090      1.008   ;
    72       HGA3      1    LIG   HC31     72      0.090      1.008   ;
    73       HGA3      1    LIG   HC32     73      0.090      1.008   ;
    74       HGA3      1    LIG   HC33     74      0.090      1.008   ;
    75       HGA3      1    LIG   HC34     75      0.090      1.008   ;
    76       HGA3      1    LIG   HC35     76      0.090      1.008   ;
    77       HGA3      1    LIG   HC36     77      0.090      1.008   ;

[ bonds ]
;	ai	  aj funct			  c0			c1			  c2			c3
    1     3	 1 ;       NG3P2       HGP2
    1     4	 1 ;       NG3P2      CG324
    1     2	 1 ;       NG3P2       HGP2
    1    23	 1 ;       NG3P2      CG301
    4     5	 1 ;       CG324      CG311
    4    41	 1 ;       CG324       HGA2
    4    42	 1 ;       CG324       HGA2
    5     6	 1 ;       CG311      CG311
    5    21	 1 ;       CG311      OG311
    5    43	 1 ;       CG311       HGA1
    6    16	 1 ;       CG311      NG2S1
    6     7	 1 ;       CG311      CG321
    6    44	 1 ;       CG311       HGA1
    7     8	 1 ;       CG321     CG2R61
    7    45	 1 ;       CG321       HGA2
    7    46	 1 ;       CG321       HGA2
    8    14	 1 ;      CG2R61     CG2R61
    8     9	 1 ;      CG2R61     CG2R61
    9    10	 1 ;      CG2R61     CG2R66
    9    47	 1 ;      CG2R61      HGR62
   10    12	 1 ;      CG2R66     CG2R61
   10    11	 1 ;      CG2R66       FGR1
   12    13	 1 ;      CG2R61     CG2R66
   12    48	 1 ;      CG2R61      HGR62
   13    14	 1 ;      CG2R66     CG2R61
   13    15	 1 ;      CG2R66       FGR1
   14    49	 1 ;      CG2R61      HGR62
   16    17	 1 ;       NG2S1      CG2O1
   16    20	 1 ;       NG2S1       HGP1
   17    18	 1 ;       CG2O1      OG2D1
   17    19	 1 ;       CG2O1      CG331
   19    69	 1 ;       CG331       HGA3
   19    70	 1 ;       CG331       HGA3
   19    71	 1 ;       CG331       HGA3
   21    22	 1 ;       OG311       HGP1
   23    28	 1 ;       CG301      CG321
   23    24	 1 ;       CG301      CG321
   23    31	 1 ;       CG301     CG2R61
   24    25	 1 ;       CG321      CG321
   24    50	 1 ;       CG321       HGA2
   24    51	 1 ;       CG321       HGA2
   25    26	 1 ;       CG321      CG311
   25    52	 1 ;       CG321       HGA2
   25    53	 1 ;       CG321       HGA2
   26    29	 1 ;       CG311      OG301
   26    27	 1 ;       CG311      CG321
   26    54	 1 ;       CG311       HGA1
   27    28	 1 ;       CG321      CG321
   27    55	 1 ;       CG321       HGA2
   27    56	 1 ;       CG321       HGA2
   28    57	 1 ;       CG321       HGA2
   28    58	 1 ;       CG321       HGA2
   29    30	 1 ;       OG301      CG331
   30    72	 1 ;       CG331       HGA3
   30    73	 1 ;       CG331       HGA3
   30    74	 1 ;       CG331       HGA3
   31    36	 1 ;      CG2R61     CG2R61
   31    32	 1 ;      CG2R61     CG2R61
   32    33	 1 ;      CG2R61     CG2R61
   32    59	 1 ;      CG2R61      HGR61
   33    34	 1 ;      CG2R61     CG2R61
   33    37	 1 ;      CG2R61      CG301
   34    35	 1 ;      CG2R61     CG2R61
   34    60	 1 ;      CG2R61      HGR61
   35    36	 1 ;      CG2R61     CG2R61
   35    61	 1 ;      CG2R61      HGR61
   36    62	 1 ;      CG2R61      HGR61
   37    38	 1 ;       CG301      CG331
   37    39	 1 ;       CG301      CG331
   37    40	 1 ;       CG301      CG331
   38    63	 1 ;       CG331       HGA3
   38    64	 1 ;       CG331       HGA3
   38    65	 1 ;       CG331       HGA3
   39    66	 1 ;       CG331       HGA3
   39    67	 1 ;       CG331       HGA3
   39    68	 1 ;       CG331       HGA3
   40    75	 1 ;       CG331       HGA3
   40    76	 1 ;       CG331       HGA3
   40    77	 1 ;       CG331       HGA3

[ pairs ]
;	ai	  aj funct			  c0			c1			  c2			c3
    1     6	 1
    1    21	 1
    1    43	 1
    1    27	 1
    1    57	 1
    1    58	 1
    1    25	 1
    1    50	 1
    1    51	 1
    1    36	 1
    1    32	 1
    2     5	 1
    2    41	 1
    2    42	 1
    2    28	 1
    2    24	 1
    2    31	 1
    3     5	 1
    3    41	 1
    3    42	 1
    3    28	 1
    3    24	 1
    3    31	 1
    4    28	 1
    4    24	 1
    4    31	 1
    4    16	 1
    4     7	 1
    4    44	 1
    4    22	 1
    5    23	 1
    5    17	 1
    5    20	 1
    5     8	 1
    5    45	 1
    5    46	 1
    6    41	 1
    6    42	 1
    6    22	 1
    6    14	 1
    6     9	 1
    6    18	 1
    6    19	 1
    7    21	 1
    7    43	 1
    7    17	 1
    7    20	 1
    7    13	 1
    7    49	 1
    7    10	 1
    7    47	 1
    8    16	 1
    8    44	 1
    8    12	 1
    8    11	 1
    8    15	 1
    9    45	 1
    9    46	 1
    9    13	 1
    9    49	 1
    9    48	 1
   10    14	 1
   10    15	 1
   11    47	 1
   11    13	 1
   11    48	 1
   12    47	 1
   12    49	 1
   14    45	 1
   14    46	 1
   14    47	 1
   14    48	 1
   15    48	 1
   15    49	 1
   16    21	 1
   16    43	 1
   16    45	 1
   16    46	 1
   16    69	 1
   16    70	 1
   16    71	 1
   17    44	 1
   18    20	 1
   18    69	 1
   18    70	 1
   18    71	 1
   19    20	 1
   20    44	 1
   21    41	 1
   21    42	 1
   21    44	 1
   22    43	 1
   23    41	 1
   23    42	 1
   23    26	 1
   23    52	 1
   23    53	 1
   23    55	 1
   23    56	 1
   23    35	 1
   23    62	 1
   23    33	 1
   23    59	 1
   24    27	 1
   24    57	 1
   24    58	 1
   24    36	 1
   24    32	 1
   24    29	 1
   24    54	 1
   25    28	 1
   25    31	 1
   25    30	 1
   25    55	 1
   25    56	 1
   26    50	 1
   26    51	 1
   26    57	 1
   26    58	 1
   26    72	 1
   26    73	 1
   26    74	 1
   27    31	 1
   27    52	 1
   27    53	 1
   27    30	 1
   28    50	 1
   28    51	 1
   28    36	 1
   28    32	 1
   28    29	 1
   28    54	 1
   29    52	 1
   29    53	 1
   29    55	 1
   29    56	 1
   30    54	 1
   31    57	 1
   31    58	 1
   31    50	 1
   31    51	 1
   31    34	 1
   31    37	 1
   31    61	 1
   32    35	 1
   32    62	 1
   32    60	 1
   32    38	 1
   32    39	 1
   32    40	 1
   33    36	 1
   33    61	 1
   33    63	 1
   33    64	 1
   33    65	 1
   33    66	 1
   33    67	 1
   33    68	 1
   33    75	 1
   33    76	 1
   33    77	 1
   34    59	 1
   34    38	 1
   34    39	 1
   34    40	 1
   34    62	 1
   35    37	 1
   36    59	 1
   36    60	 1
   37    59	 1
   37    60	 1
   38    66	 1
   38    67	 1
   38    68	 1
   38    75	 1
   38    76	 1
   38    77	 1
   39    63	 1
   39    64	 1
   39    65	 1
   39    75	 1
   39    76	 1
   39    77	 1
   40    63	 1
   40    64	 1
   40    65	 1
   40    66	 1
   40    67	 1
   40    68	 1
   41    43	 1
   42    43	 1
   43    44	 1
   44    45	 1
   44    46	 1
   50    52	 1
   50    53	 1
   51    52	 1
   51    53	 1
   52    54	 1
   53    54	 1
   54    55	 1
   54    56	 1
   55    57	 1
   55    58	 1
   56    57	 1
   56    58	 1
   60    61	 1
   61    62	 1

[ angles ]
;	ai	  aj	ak funct			c0			  c1			c2			  c3
    3     1     4	5 ;       HGP2      NG3P2      CG324
    3     1     2	5 ;       HGP2      NG3P2       HGP2
    3     1    23	5 ;       HGP2      NG3P2      CG301
    4     1     2	5 ;      CG324      NG3P2       HGP2
    4     1    23	5 ;      CG324      NG3P2      CG301
    2     1    23	5 ;       HGP2      NG3P2      CG301
    5     4     1	5 ;      CG311      CG324      NG3P2
    5     4    41	5 ;      CG311      CG324       HGA2
    5     4    42	5 ;      CG311      CG324       HGA2
    1     4    41	5 ;      NG3P2      CG324       HGA2
    1     4    42	5 ;      NG3P2      CG324       HGA2
   41     4    42	5 ;       HGA2      CG324       HGA2
    6     5     4	5 ;      CG311      CG311      CG324
    6     5    21	5 ;      CG311      CG311      OG311
    6     5    43	5 ;      CG311      CG311       HGA1
    4     5    21	5 ;      CG324      CG311      OG311
    4     5    43	5 ;      CG324      CG311       HGA1
   21     5    43	5 ;      OG311      CG311       HGA1
   16     6     5	5 ;      NG2S1      CG311      CG311
   16     6     7	5 ;      NG2S1      CG311      CG321
   16     6    44	5 ;      NG2S1      CG311       HGA1
    5     6     7	5 ;      CG311      CG311      CG321
    5     6    44	5 ;      CG311      CG311       HGA1
    7     6    44	5 ;      CG321      CG311       HGA1
    6     7     8	5 ;      CG311      CG321     CG2R61
    6     7    45	5 ;      CG311      CG321       HGA2
    6     7    46	5 ;      CG311      CG321       HGA2
    8     7    45	5 ;     CG2R61      CG321       HGA2
    8     7    46	5 ;     CG2R61      CG321       HGA2
   45     7    46	5 ;       HGA2      CG321       HGA2
    7     8    14	5 ;      CG321     CG2R61     CG2R61
    7     8     9	5 ;      CG321     CG2R61     CG2R61
   14     8     9	5 ;     CG2R61     CG2R61     CG2R61
    8     9    10	5 ;     CG2R61     CG2R61     CG2R66
    8     9    47	5 ;     CG2R61     CG2R61      HGR62
   10     9    47	5 ;     CG2R66     CG2R61      HGR62
    9    10    12	5 ;     CG2R61     CG2R66     CG2R61
    9    10    11	5 ;     CG2R61     CG2R66       FGR1
   12    10    11	5 ;     CG2R61     CG2R66       FGR1
   13    12    10	5 ;     CG2R66     CG2R61     CG2R66
   13    12    48	5 ;     CG2R66     CG2R61      HGR62
   10    12    48	5 ;     CG2R66     CG2R61      HGR62
   14    13    15	5 ;     CG2R61     CG2R66       FGR1
   14    13    12	5 ;     CG2R61     CG2R66     CG2R61
   15    13    12	5 ;       FGR1     CG2R66     CG2R61
    8    14    13	5 ;     CG2R61     CG2R61     CG2R66
    8    14    49	5 ;     CG2R61     CG2R61      HGR62
   13    14    49	5 ;     CG2R66     CG2R61      HGR62
   17    16    20	5 ;      CG2O1      NG2S1       HGP1
   17    16     6	5 ;      CG2O1      NG2S1      CG311
   20    16     6	5 ;       HGP1      NG2S1      CG311
   18    17    19	5 ;      OG2D1      CG2O1      CG331
   18    17    16	5 ;      OG2D1      CG2O1      NG2S1
   19    17    16	5 ;      CG331      CG2O1      NG2S1
   17    19    69	5 ;      CG2O1      CG331       HGA3
   17    19    70	5 ;      CG2O1      CG331       HGA3
   17    19    71	5 ;      CG2O1      CG331       HGA3
   69    19    70	5 ;       HGA3      CG331       HGA3
   69    19    71	5 ;       HGA3      CG331       HGA3
   70    19    71	5 ;       HGA3      CG331       HGA3
    5    21    22	5 ;      CG311      OG311       HGP1
    1    23    28	5 ;      NG3P2      CG301      CG321
    1    23    24	5 ;      NG3P2      CG301      CG321
    1    23    31	5 ;      NG3P2      CG301     CG2R61
   28    23    24	5 ;      CG321      CG301      CG321
   28    23    31	5 ;      CG321      CG301     CG2R61
   24    23    31	5 ;      CG321      CG301     CG2R61
   23    24    25	5 ;      CG301      CG321      CG321
   23    24    50	5 ;      CG301      CG321       HGA2
   23    24    51	5 ;      CG301      CG321       HGA2
   25    24    50	5 ;      CG321      CG321       HGA2
   25    24    51	5 ;      CG321      CG321       HGA2
   50    24    51	5 ;       HGA2      CG321       HGA2
   24    25    26	5 ;      CG321      CG321      CG311
   24    25    52	5 ;      CG321      CG321       HGA2
   24    25    53	5 ;      CG321      CG321       HGA2
   26    25    52	5 ;      CG311      CG321       HGA2
   26    25    53	5 ;      CG311      CG321       HGA2
   52    25    53	5 ;       HGA2      CG321       HGA2
   29    26    27	5 ;      OG301      CG311      CG321
   29    26    25	5 ;      OG301      CG311      CG321
   29    26    54	5 ;      OG301      CG311       HGA1
   27    26    25	5 ;      CG321      CG311      CG321
   27    26    54	5 ;      CG321      CG311       HGA1
   25    26    54	5 ;      CG321      CG311       HGA1
   28    27    26	5 ;      CG321      CG321      CG311
   28    27    55	5 ;      CG321      CG321       HGA2
   28    27    56	5 ;      CG321      CG321       HGA2
   26    27    55	5 ;      CG311      CG321       HGA2
   26    27    56	5 ;      CG311      CG321       HGA2
   55    27    56	5 ;       HGA2      CG321       HGA2
   23    28    27	5 ;      CG301      CG321      CG321
   23    28    57	5 ;      CG301      CG321       HGA2
   23    28    58	5 ;      CG301      CG321       HGA2
   27    28    57	5 ;      CG321      CG321       HGA2
   27    28    58	5 ;      CG321      CG321       HGA2
   57    28    58	5 ;       HGA2      CG321       HGA2
   30    29    26	5 ;      CG331      OG301      CG311
   29    30    72	5 ;      OG301      CG331       HGA3
   29    30    73	5 ;      OG301      CG331       HGA3
   29    30    74	5 ;      OG301      CG331       HGA3
   72    30    73	5 ;       HGA3      CG331       HGA3
   72    30    74	5 ;       HGA3      CG331       HGA3
   73    30    74	5 ;       HGA3      CG331       HGA3
   23    31    36	5 ;      CG301     CG2R61     CG2R61
   23    31    32	5 ;      CG301     CG2R61     CG2R61
   36    31    32	5 ;     CG2R61     CG2R61     CG2R61
   31    32    33	5 ;     CG2R61     CG2R61     CG2R61
   31    32    59	5 ;     CG2R61     CG2R61      HGR61
   33    32    59	5 ;     CG2R61     CG2R61      HGR61
   32    33    34	5 ;     CG2R61     CG2R61     CG2R61
   32    33    37	5 ;     CG2R61     CG2R61      CG301
   34    33    37	5 ;     CG2R61     CG2R61      CG301
   35    34    33	5 ;     CG2R61     CG2R61     CG2R61
   35    34    60	5 ;     CG2R61     CG2R61      HGR61
   33    34    60	5 ;     CG2R61     CG2R61      HGR61
   36    35    34	5 ;     CG2R61     CG2R61     CG2R61
   36    35    61	5 ;     CG2R61     CG2R61      HGR61
   34    35    61	5 ;     CG2R61     CG2R61      HGR61
   31    36    35	5 ;     CG2R61     CG2R61     CG2R61
   31    36    62	5 ;     CG2R61     CG2R61      HGR61
   35    36    62	5 ;     CG2R61     CG2R61      HGR61
   33    37    38	5 ;     CG2R61      CG301      CG331
   33    37    39	5 ;     CG2R61      CG301      CG331
   33    37    40	5 ;     CG2R61      CG301      CG331
   38    37    39	5 ;      CG331      CG301      CG331
   38    37    40	5 ;      CG331      CG301      CG331
   39    37    40	5 ;      CG331      CG301      CG331
   37    38    63	5 ;      CG301      CG331       HGA3
   37    38    64	5 ;      CG301      CG331       HGA3
   37    38    65	5 ;      CG301      CG331       HGA3
   63    38    64	5 ;       HGA3      CG331       HGA3
   63    38    65	5 ;       HGA3      CG331       HGA3
   64    38    65	5 ;       HGA3      CG331       HGA3
   37    39    66	5 ;      CG301      CG331       HGA3
   37    39    67	5 ;      CG301      CG331       HGA3
   37    39    68	5 ;      CG301      CG331       HGA3
   66    39    67	5 ;       HGA3      CG331       HGA3
   66    39    68	5 ;       HGA3      CG331       HGA3
   67    39    68	5 ;       HGA3      CG331       HGA3
   37    40    75	5 ;      CG301      CG331       HGA3
   37    40    76	5 ;      CG301      CG331       HGA3
   37    40    77	5 ;      CG301      CG331       HGA3
   75    40    76	5 ;       HGA3      CG331       HGA3
   75    40    77	5 ;       HGA3      CG331       HGA3
   76    40    77	5 ;       HGA3      CG331       HGA3

[ dihedrals ]
;	ai	  aj	ak	  al funct			  c0			c1			  c2			c3			  c4			c5
    3     1     4     5	 9 ;       HGP2      NG3P2      CG324      CG311
    3     1     4    41	 9 ;       HGP2      NG3P2      CG324       HGA2
    3     1     4    42	 9 ;       HGP2      NG3P2      CG324       HGA2
    2     1     4     5	 9 ;       HGP2      NG3P2      CG324      CG311
    2     1     4    41	 9 ;       HGP2      NG3P2      CG324       HGA2
    2     1     4    42	 9 ;       HGP2      NG3P2      CG324       HGA2
   23     1     4     5	 9 ;      CG301      NG3P2      CG324      CG311
   23     1     4    41	 9 ;      CG301      NG3P2      CG324       HGA2
   23     1     4    42	 9 ;      CG301      NG3P2      CG324       HGA2
    3     1    23    28	 9 ;       HGP2      NG3P2      CG301      CG321
    3     1    23    24	 9 ;       HGP2      NG3P2      CG301      CG321
    3     1    23    31	 9 ;       HGP2      NG3P2      CG301     CG2R61
    4     1    23    28	 9 ;      CG324      NG3P2      CG301      CG321
    4     1    23    24	 9 ;      CG324      NG3P2      CG301      CG321
    4     1    23    31	 9 ;      CG324      NG3P2      CG301     CG2R61
    2     1    23    28	 9 ;       HGP2      NG3P2      CG301      CG321
    2     1    23    24	 9 ;       HGP2      NG3P2      CG301      CG321
    2     1    23    31	 9 ;       HGP2      NG3P2      CG301     CG2R61
    1     4     5     6	 9 ;      NG3P2      CG324      CG311      CG311
    1     4     5    21	 9 ;      NG3P2      CG324      CG311      OG311
    1     4     5    43	 9 ;      NG3P2      CG324      CG311       HGA1
   41     4     5     6	 9 ;       HGA2      CG324      CG311      CG311
   41     4     5    21	 9 ;       HGA2      CG324      CG311      OG311
   41     4     5    43	 9 ;       HGA2      CG324      CG311       HGA1
   42     4     5     6	 9 ;       HGA2      CG324      CG311      CG311
   42     4     5    21	 9 ;       HGA2      CG324      CG311      OG311
   42     4     5    43	 9 ;       HGA2      CG324      CG311       HGA1
    4     5     6    16	 9 ;      CG324      CG311      CG311      NG2S1
    4     5     6     7	 9 ;      CG324      CG311      CG311      CG321
    4     5     6    44	 9 ;      CG324      CG311      CG311       HGA1
   21     5     6    16	 9 ;      OG311      CG311      CG311      NG2S1
   21     5     6     7	 9 ;      OG311      CG311      CG311      CG321
   21     5     6    44	 9 ;      OG311      CG311      CG311       HGA1
   43     5     6    16	 9 ;       HGA1      CG311      CG311      NG2S1
   43     5     6     7	 9 ;       HGA1      CG311      CG311      CG321
   43     5     6    44	 9 ;       HGA1      CG311      CG311       HGA1
    6     5    21    22	 9 ;      CG311      CG311      OG311       HGP1
    4     5    21    22	 9 ;      CG324      CG311      OG311       HGP1
   43     5    21    22	 9 ;       HGA1      CG311      OG311       HGP1
    5     6    16    17	 9 ;      CG311      CG311      NG2S1      CG2O1
    5     6    16    20	 9 ;      CG311      CG311      NG2S1       HGP1
    7     6    16    17	 9 ;      CG321      CG311      NG2S1      CG2O1
    7     6    16    20	 9 ;      CG321      CG311      NG2S1       HGP1
   44     6    16    17	 9 ;       HGA1      CG311      NG2S1      CG2O1
   44     6    16    20	 9 ;       HGA1      CG311      NG2S1       HGP1
   16     6     7     8	 9 ;      NG2S1      CG311      CG321     CG2R61
   16     6     7    45	 9 ;      NG2S1      CG311      CG321       HGA2
   16     6     7    46	 9 ;      NG2S1      CG311      CG321       HGA2
    5     6     7     8	 9 ;      CG311      CG311      CG321     CG2R61
    5     6     7    45	 9 ;      CG311      CG311      CG321       HGA2
    5     6     7    46	 9 ;      CG311      CG311      CG321       HGA2
   44     6     7     8	 9 ;       HGA1      CG311      CG321     CG2R61
   44     6     7    45	 9 ;       HGA1      CG311      CG321       HGA2
   44     6     7    46	 9 ;       HGA1      CG311      CG321       HGA2
    6     7     8    14	 9 ;      CG311      CG321     CG2R61     CG2R61
    6     7     8     9	 9 ;      CG311      CG321     CG2R61     CG2R61
   45     7     8    14	 9 ;       HGA2      CG321     CG2R61     CG2R61
   45     7     8     9	 9 ;       HGA2      CG321     CG2R61     CG2R61
   46     7     8    14	 9 ;       HGA2      CG321     CG2R61     CG2R61
   46     7     8     9	 9 ;       HGA2      CG321     CG2R61     CG2R61
    7     8    14    13	 9 ;      CG321     CG2R61     CG2R61     CG2R66
    7     8    14    49	 9 ;      CG321     CG2R61     CG2R61      HGR62
    9     8    14    13	 9 ;     CG2R61     CG2R61     CG2R61     CG2R66
    9     8    14    49	 9 ;     CG2R61     CG2R61     CG2R61      HGR62
    7     8     9    10	 9 ;      CG321     CG2R61     CG2R61     CG2R66
    7     8     9    47	 9 ;      CG321     CG2R61     CG2R61      HGR62
   14     8     9    10	 9 ;     CG2R61     CG2R61     CG2R61     CG2R66
   14     8     9    47	 9 ;     CG2R61     CG2R61     CG2R61      HGR62
    8     9    10    12	 9 ;     CG2R61     CG2R61     CG2R66     CG2R61
    8     9    10    11	 9 ;     CG2R61     CG2R61     CG2R66       FGR1
   47     9    10    12	 9 ;      HGR62     CG2R61     CG2R66     CG2R61
   47     9    10    11	 9 ;      HGR62     CG2R61     CG2R66       FGR1
    9    10    12    13	 9 ;     CG2R61     CG2R66     CG2R61     CG2R66
    9    10    12    48	 9 ;     CG2R61     CG2R66     CG2R61      HGR62
   11    10    12    13	 9 ;       FGR1     CG2R66     CG2R61     CG2R66
   11    10    12    48	 9 ;       FGR1     CG2R66     CG2R61      HGR62
   10    12    13    14	 9 ;     CG2R66     CG2R61     CG2R66     CG2R61
   10    12    13    15	 9 ;     CG2R66     CG2R61     CG2R66       FGR1
   48    12    13    14	 9 ;      HGR62     CG2R61     CG2R66     CG2R61
   48    12    13    15	 9 ;      HGR62     CG2R61     CG2R66       FGR1
   15    13    14     8	 9 ;       FGR1     CG2R66     CG2R61     CG2R61
   15    13    14    49	 9 ;       FGR1     CG2R66     CG2R61      HGR62
   12    13    14     8	 9 ;     CG2R61     CG2R66     CG2R61     CG2R61
   12    13    14    49	 9 ;     CG2R61     CG2R66     CG2R61      HGR62
   20    16    17    18	 9 ;       HGP1      NG2S1      CG2O1      OG2D1
   20    16    17    19	 9 ;       HGP1      NG2S1      CG2O1      CG331
    6    16    17    18	 9 ;      CG311      NG2S1      CG2O1      OG2D1
    6    16    17    19	 9 ;      CG311      NG2S1      CG2O1      CG331
   18    17    19    69	 9 ;      OG2D1      CG2O1      CG331       HGA3
   18    17    19    70	 9 ;      OG2D1      CG2O1      CG331       HGA3
   18    17    19    71	 9 ;      OG2D1      CG2O1      CG331       HGA3
   16    17    19    69	 9 ;      NG2S1      CG2O1      CG331       HGA3
   16    17    19    70	 9 ;      NG2S1      CG2O1      CG331       HGA3
   16    17    19    71	 9 ;      NG2S1      CG2O1      CG331       HGA3
    1    23    28    27	 9 ;      NG3P2      CG301      CG321      CG321
    1    23    28    57	 9 ;      NG3P2      CG301      CG321       HGA2
    1    23    28    58	 9 ;      NG3P2      CG301      CG321       HGA2
   24    23    28    27	 9 ;      CG321      CG301      CG321      CG321
   24    23    28    57	 9 ;      CG321      CG301      CG321       HGA2
   24    23    28    58	 9 ;      CG321      CG301      CG321       HGA2
   31    23    28    27	 9 ;     CG2R61      CG301      CG321      CG321
   31    23    28    57	 9 ;     CG2R61      CG301      CG321       HGA2
   31    23    28    58	 9 ;     CG2R61      CG301      CG321       HGA2
    1    23    24    25	 9 ;      NG3P2      CG301      CG321      CG321
    1    23    24    50	 9 ;      NG3P2      CG301      CG321       HGA2
    1    23    24    51	 9 ;      NG3P2      CG301      CG321       HGA2
   28    23    24    25	 9 ;      CG321      CG301      CG321      CG321
   28    23    24    50	 9 ;      CG321      CG301      CG321       HGA2
   28    23    24    51	 9 ;      CG321      CG301      CG321       HGA2
   31    23    24    25	 9 ;     CG2R61      CG301      CG321      CG321
   31    23    24    50	 9 ;     CG2R61      CG301      CG321       HGA2
   31    23    24    51	 9 ;     CG2R61      CG301      CG321       HGA2
    1    23    31    36	 9 ;      NG3P2      CG301     CG2R61     CG2R61
    1    23    31    32	 9 ;      NG3P2      CG301     CG2R61     CG2R61
   28    23    31    36	 9 ;      CG321      CG301     CG2R61     CG2R61
   28    23    31    32	 9 ;      CG321      CG301     CG2R61     CG2R61
   24    23    31    36	 9 ;      CG321      CG301     CG2R61     CG2R61
   24    23    31    32	 9 ;      CG321      CG301     CG2R61     CG2R61
   23    24    25    26	 9 ;      CG301      CG321      CG321      CG311
   23    24    25    52	 9 ;      CG301      CG321      CG321       HGA2
   23    24    25    53	 9 ;      CG301      CG321      CG321       HGA2
   50    24    25    26	 9 ;       HGA2      CG321      CG321      CG311
   50    24    25    52	 9 ;       HGA2      CG321      CG321       HGA2
   50    24    25    53	 9 ;       HGA2      CG321      CG321       HGA2
   51    24    25    26	 9 ;       HGA2      CG321      CG321      CG311
   51    24    25    52	 9 ;       HGA2      CG321      CG321       HGA2
   51    24    25    53	 9 ;       HGA2      CG321      CG321       HGA2
   24    25    26    29	 9 ;      CG321      CG321      CG311      OG301
   24    25    26    27	 9 ;      CG321      CG321      CG311      CG321
   24    25    26    54	 9 ;      CG321      CG321      CG311       HGA1
   52    25    26    29	 9 ;       HGA2      CG321      CG311      OG301
   52    25    26    27	 9 ;       HGA2      CG321      CG311      CG321
   52    25    26    54	 9 ;       HGA2      CG321      CG311       HGA1
   53    25    26    29	 9 ;       HGA2      CG321      CG311      OG301
   53    25    26    27	 9 ;       HGA2      CG321      CG311      CG321
   53    25    26    54	 9 ;       HGA2      CG321      CG311       HGA1
   27    26    29    30	 9 ;      CG321      CG311      OG301      CG331
   25    26    29    30	 9 ;      CG321      CG311      OG301      CG331
   54    26    29    30	 9 ;       HGA1      CG311      OG301      CG331
   29    26    27    28	 9 ;      OG301      CG311      CG321      CG321
   29    26    27    55	 9 ;      OG301      CG311      CG321       HGA2
   29    26    27    56	 9 ;      OG301      CG311      CG321       HGA2
   25    26    27    28	 9 ;      CG321      CG311      CG321      CG321
   25    26    27    55	 9 ;      CG321      CG311      CG321       HGA2
   25    26    27    56	 9 ;      CG321      CG311      CG321       HGA2
   54    26    27    28	 9 ;       HGA1      CG311      CG321      CG321
   54    26    27    55	 9 ;       HGA1      CG311      CG321       HGA2
   54    26    27    56	 9 ;       HGA1      CG311      CG321       HGA2
   26    27    28    23	 9 ;      CG311      CG321      CG321      CG301
   26    27    28    57	 9 ;      CG311      CG321      CG321       HGA2
   26    27    28    58	 9 ;      CG311      CG321      CG321       HGA2
   55    27    28    23	 9 ;       HGA2      CG321      CG321      CG301
   55    27    28    57	 9 ;       HGA2      CG321      CG321       HGA2
   55    27    28    58	 9 ;       HGA2      CG321      CG321       HGA2
   56    27    28    23	 9 ;       HGA2      CG321      CG321      CG301
   56    27    28    57	 9 ;       HGA2      CG321      CG321       HGA2
   56    27    28    58	 9 ;       HGA2      CG321      CG321       HGA2
   26    29    30    72	 9 ;      CG311      OG301      CG331       HGA3
   26    29    30    73	 9 ;      CG311      OG301      CG331       HGA3
   26    29    30    74	 9 ;      CG311      OG301      CG331       HGA3
   23    31    36    35	 9 ;      CG301     CG2R61     CG2R61     CG2R61
   23    31    36    62	 9 ;      CG301     CG2R61     CG2R61      HGR61
   32    31    36    35	 9 ;     CG2R61     CG2R61     CG2R61     CG2R61
   32    31    36    62	 9 ;     CG2R61     CG2R61     CG2R61      HGR61
   23    31    32    33	 9 ;      CG301     CG2R61     CG2R61     CG2R61
   23    31    32    59	 9 ;      CG301     CG2R61     CG2R61      HGR61
   36    31    32    33	 9 ;     CG2R61     CG2R61     CG2R61     CG2R61
   36    31    32    59	 9 ;     CG2R61     CG2R61     CG2R61      HGR61
   31    32    33    34	 9 ;     CG2R61     CG2R61     CG2R61     CG2R61
   31    32    33    37	 9 ;     CG2R61     CG2R61     CG2R61      CG301
   59    32    33    34	 9 ;      HGR61     CG2R61     CG2R61     CG2R61
   59    32    33    37	 9 ;      HGR61     CG2R61     CG2R61      CG301
   32    33    34    35	 9 ;     CG2R61     CG2R61     CG2R61     CG2R61
   32    33    34    60	 9 ;     CG2R61     CG2R61     CG2R61      HGR61
   37    33    34    35	 9 ;      CG301     CG2R61     CG2R61     CG2R61
   37    33    34    60	 9 ;      CG301     CG2R61     CG2R61      HGR61
   32    33    37    38	 9 ;     CG2R61     CG2R61      CG301      CG331
   32    33    37    39	 9 ;     CG2R61     CG2R61      CG301      CG331
   32    33    37    40	 9 ;     CG2R61     CG2R61      CG301      CG331
   34    33    37    38	 9 ;     CG2R61     CG2R61      CG301      CG331
   34    33    37    39	 9 ;     CG2R61     CG2R61      CG301      CG331
   34    33    37    40	 9 ;     CG2R61     CG2R61      CG301      CG331
   33    34    35    36	 9 ;     CG2R61     CG2R61     CG2R61     CG2R61
   33    34    35    61	 9 ;     CG2R61     CG2R61     CG2R61      HGR61
   60    34    35    36	 9 ;      HGR61     CG2R61     CG2R61     CG2R61
   60    34    35    61	 9 ;      HGR61     CG2R61     CG2R61      HGR61
   34    35    36    31	 9 ;     CG2R61     CG2R61     CG2R61     CG2R61
   34    35    36    62	 9 ;     CG2R61     CG2R61     CG2R61      HGR61
   61    35    36    31	 9 ;      HGR61     CG2R61     CG2R61     CG2R61
   61    35    36    62	 9 ;      HGR61     CG2R61     CG2R61      HGR61
   33    37    38    63	 9 ;     CG2R61      CG301      CG331       HGA3
   33    37    38    64	 9 ;     CG2R61      CG301      CG331       HGA3
   33    37    38    65	 9 ;     CG2R61      CG301      CG331       HGA3
   39    37    38    63	 9 ;      CG331      CG301      CG331       HGA3
   39    37    38    64	 9 ;      CG331      CG301      CG331       HGA3
   39    37    38    65	 9 ;      CG331      CG301      CG331       HGA3
   40    37    38    63	 9 ;      CG331      CG301      CG331       HGA3
   40    37    38    64	 9 ;      CG331      CG301      CG331       HGA3
   40    37    38    65	 9 ;      CG331      CG301      CG331       HGA3
   33    37    39    66	 9 ;     CG2R61      CG301      CG331       HGA3
   33    37    39    67	 9 ;     CG2R61      CG301      CG331       HGA3
   33    37    39    68	 9 ;     CG2R61      CG301      CG331       HGA3
   38    37    39    66	 9 ;      CG331      CG301      CG331       HGA3
   38    37    39    67	 9 ;      CG331      CG301      CG331       HGA3
   38    37    39    68	 9 ;      CG331      CG301      CG331       HGA3
   40    37    39    66	 9 ;      CG331      CG301      CG331       HGA3
   40    37    39    67	 9 ;      CG331      CG301      CG331       HGA3
   40    37    39    68	 9 ;      CG331      CG301      CG331       HGA3
   33    37    40    75	 9 ;     CG2R61      CG301      CG331       HGA3
   33    37    40    76	 9 ;     CG2R61      CG301      CG331       HGA3
   33    37    40    77	 9 ;     CG2R61      CG301      CG331       HGA3
   38    37    40    75	 9 ;      CG331      CG301      CG331       HGA3
   38    37    40    76	 9 ;      CG331      CG301      CG331       HGA3
   38    37    40    77	 9 ;      CG331      CG301      CG331       HGA3
   39    37    40    75	 9 ;      CG331      CG301      CG331       HGA3
   39    37    40    76	 9 ;      CG331      CG301      CG331       HGA3
   39    37    40    77	 9 ;      CG331      CG301      CG331       HGA3

[ dihedrals ]
;	ai	  aj	ak	  al funct			  c0			c1			  c2			c3
   17    19    16    18	 2

