Giant Rising Ordinary Mutants for A Clerical Setup
   77
    1LIG     N1    1  -1.235   0.394  -1.554
    1LIG     H1    2  -1.303   0.447  -1.610
    1LIG     H2    3  -1.192   0.328  -1.621
    1LIG     C1    4  -1.119   0.493  -1.518
    1LIG     C2    5  -1.099   0.624  -1.603
    1LIG     C3    6  -1.212   0.661  -1.714
    1LIG     C4    7  -1.319   0.761  -1.664
    1LIG     C5    8  -1.461   0.738  -1.706
    1LIG     C6    9  -1.544   0.850  -1.726
    1LIG     C7   10  -1.674   0.834  -1.774
    1LIG     F1   11  -1.750   0.942  -1.791
    1LIG     C8   12  -1.724   0.709  -1.806
    1LIG     C9   13  -1.641   0.599  -1.790
    1LIG    C10   14  -1.510   0.612  -1.742
    1LIG     F2   15  -1.686   0.477  -1.824
    1LIG     N2   16  -1.156   0.710  -1.842
    1LIG    C11   17  -1.184   0.678  -1.973
    1LIG     O1   18  -1.126   0.746  -2.059
    1LIG    C12   19  -1.278   0.567  -2.012
    1LIG     H3   20  -1.086   0.784  -1.839
    1LIG     O2   21  -1.083   0.736  -1.513
    1LIG     H4   22  -0.988   0.743  -1.490
    1LIG    C13   23  -1.316   0.297  -1.459
    1LIG    C14   24  -1.284   0.339  -1.314
    1LIG    C15   25  -1.332   0.236  -1.210
    1LIG    C16   26  -1.270   0.098  -1.234
    1LIG    C17   27  -1.300   0.049  -1.376
    1LIG    C18   28  -1.262   0.153  -1.484
    1LIG     O3   29  -1.128   0.104  -1.220
    1LIG    C19   30  -1.069  -0.024  -1.195
    1LIG    C20   31  -1.474   0.309  -1.486
    1LIG    C21   32  -1.555   0.416  -1.436
    1LIG    C22   33  -1.695   0.429  -1.464
    1LIG    C23   34  -1.756   0.329  -1.541
    1LIG    C24   35  -1.681   0.221  -1.587
    1LIG    C25   36  -1.544   0.212  -1.560
    1LIG    C26   37  -1.783   0.551  -1.422
    1LIG    C27   38  -1.709   0.686  -1.434
    1LIG    C28   39  -1.905   0.553  -1.516
    1LIG    C29   40  -1.839   0.544  -1.276
    1LIG    HC2   41  -1.026   0.437  -1.523
    1LIG    HC3   42  -1.133   0.524  -1.414
    1LIG     HC   43  -1.004   0.613  -1.656
    1LIG    HC1   44  -1.265   0.569  -1.737
    1LIG    HC4   45  -1.290   0.860  -1.699
    1LIG    HC5   46  -1.315   0.762  -1.555
    1LIG    HC6   47  -1.507   0.949  -1.703
    1LIG    HC7   48  -1.825   0.697  -1.841
    1LIG    HC8   49  -1.447   0.525  -1.732
    1LIG    HC9   50  -1.176   0.350  -1.304
    1LIG   HC10   51  -1.332   0.435  -1.293
    1LIG   HC11   52  -1.304   0.270  -1.111
    1LIG   HC12   53  -1.441   0.228  -1.216
    1LIG   HC13   54  -1.311   0.027  -1.162
    1LIG   HC14   55  -1.243  -0.042  -1.394
    1LIG   HC15   56  -1.406   0.027  -1.384
    1LIG   HC16   57  -1.301   0.118  -1.579
    1LIG   HC17   58  -1.153   0.157  -1.491
    1LIG   HC18   59  -1.508   0.491  -1.373
    1LIG   HC19   60  -1.861   0.336  -1.565
    1LIG   HC20   61  -1.730   0.143  -1.643
    1LIG   HC21   62  -1.489   0.127  -1.599
    1LIG   HC22   63  -1.668   0.696  -1.534
    1LIG   HC23   64  -1.628   0.689  -1.361
    1LIG   HC24   65  -1.779   0.767  -1.415
    1LIG   HC25   66  -1.961   0.646  -1.501
    1LIG   HC26   67  -1.970   0.468  -1.494
    1LIG   HC27   68  -1.872   0.548  -1.620
    1LIG   HC28   69  -1.241   0.519  -2.102
    1LIG   HC29   70  -1.283   0.495  -1.931
    1LIG   HC30   71  -1.377   0.609  -2.030
    1LIG   HC31   72  -0.961  -0.013  -1.186
    1LIG   HC32   73  -1.092  -0.091  -1.278
    1LIG   HC33   74  -1.110  -0.065  -1.103
    1LIG   HC34   75  -1.892   0.450  -1.262
    1LIG   HC35   76  -1.907   0.627  -1.260
    1LIG   HC36   77  -1.756   0.550  -1.206
   0.00000   0.00000   0.00000
