; Created by cgenff_charmm2gmx.py

[ moleculetype ]
; Name			   nrexcl
LIG				 3

[ atoms ]
;	 nr		  type	resnr residue  atom   cgnr	   charge		mass  typeB    chargeB		massB
; residue	 1 LIG rtp LIG q	qsum
     1     CG3C50      1    LIG     C1      1      1.040     12.011   ;
     2     NG3C51      1    LIG     N1      2     -0.966     14.007   ;
     3       HGP1      1    LIG    HN1      3      0.218      1.008   ;
     4     CG3C51      1    LIG     C2      4      0.368     12.011   ;
     5     NG2R53      1    LIG     N2      5     -0.358     14.007   ;
     6      CG331      1    LIG     C3      6     -0.126     12.011   ;
     7     CG2R53      1    LIG     C4      7      0.158     12.011   ;
     8      OG2D1      1    LIG     O1      8     -0.419     15.999   ;
     9     CG2R61      1    LIG     C5      9      0.052     12.011   ;
    10     CG2R61      1    LIG     C6     10     -0.179     12.011   ;
    11     CG2R61      1    LIG     C7     11     -0.108     12.011   ;
    12     CG2R61      1    LIG     C8     12      0.217     12.011   ;
    13     CG2R61      1    LIG     C9     13     -0.108     12.011   ;
    14     CG2R61      1    LIG    C10     14     -0.179     12.011   ;
    15      OG301      1    LIG     O2     15     -0.303     15.999   ;
    16      CG302      1    LIG    C11     16      0.464     12.011   ;
    17       FGA3      1    LIG     F1     17     -0.126     18.998   ;
    18       FGA3      1    LIG     F2     18     -0.126     18.998   ;
    19       FGA3      1    LIG     F3     19     -0.126     18.998   ;
    20     CG2R61      1    LIG    C12     20      0.055     12.011   ;
    21     CG2R61      1    LIG    C13     21     -0.183     12.011   ;
    22     CG2R61      1    LIG    C14     22     -0.137     12.011   ;
    23     CG2R61      1    LIG    C15     23     -0.117     12.011   ;
    24     CG2R61      1    LIG    C16     24     -0.102     12.011   ;
    25     CG2R61      1    LIG    C17     25     -0.182     12.011   ;
    26     CG2DC1      1    LIG    C18     26      0.053     12.011   ;
    27     CG2DC2      1    LIG    C19     27     -0.246     12.011   ;
    28     CG2DC2      1    LIG    C20     28     -0.181     12.011   ;
    29      CG321      1    LIG    C21     29     -0.037     12.011   ;
    30      NG311      1    LIG     N3     30     -0.466     14.007   ;
    31     CG2D1O      1    LIG    C22     31      0.321     12.011   ;
    32     HGPAM1      1    LIG    HN2     32      0.324      1.008   ;
    33       FGA1      1    LIG     F4     33     -0.107     18.998   ;
    34      NG321      1    LIG     N4     34     -0.877     14.007   ;
    35     HGPAM2      1    LIG     H1     35      0.349      1.008   ;
    36     HGPAM2      1    LIG     H2     36      0.349      1.008   ;
    37       HGA1      1    LIG     H3     37      0.110      1.008   ;
    38       HGA3      1    LIG     H4     38      0.090      1.008   ;
    39       HGA3      1    LIG     H5     39      0.090      1.008   ;
    40       HGA3      1    LIG     H6     40      0.090      1.008   ;
    41      HGR61      1    LIG     H7     41      0.116      1.008   ;
    42      HGR61      1    LIG     H8     42      0.116      1.008   ;
    43      HGR61      1    LIG     H9     43      0.116      1.008   ;
    44      HGR61      1    LIG    H10     44      0.116      1.008   ;
    45      HGR61      1    LIG    H11     45      0.116      1.008   ;
    46      HGR61      1    LIG    H12     46      0.116      1.008   ;
    47      HGR61      1    LIG    H13     47      0.116      1.008   ;
    48      HGR61      1    LIG    H14     48      0.116      1.008   ;
    49       HGA4      1    LIG    H15     49      0.153      1.008   ;
    50       HGA4      1    LIG    H16     50      0.150      1.008   ;
    51       HGA2      1    LIG    H17     51      0.090      1.008   ;
    52       HGA2      1    LIG    H18     52      0.090      1.008   ;

[ bonds ]
;	ai	  aj funct			  c0			c1			  c2			c3
    1     7	 1 ;      CG3C50     CG2R53
    1     2	 1 ;      CG3C50     NG3C51
    1     9	 1 ;      CG3C50     CG2R61
    1    20	 1 ;      CG3C50     CG2R61
    2     4	 1 ;      NG3C51     CG3C51
    2     3	 1 ;      NG3C51       HGP1
    4     5	 1 ;      CG3C51     NG2R53
    4    34	 1 ;      CG3C51      NG321
    4    37	 1 ;      CG3C51       HGA1
    5     6	 1 ;      NG2R53      CG331
    5     7	 1 ;      NG2R53     CG2R53
    6    38	 1 ;       CG331       HGA3
    6    39	 1 ;       CG331       HGA3
    6    40	 1 ;       CG331       HGA3
    7     8	 1 ;      CG2R53      OG2D1
    9    10	 1 ;      CG2R61     CG2R61
    9    14	 1 ;      CG2R61     CG2R61
   10    11	 1 ;      CG2R61     CG2R61
   10    41	 1 ;      CG2R61      HGR61
   11    12	 1 ;      CG2R61     CG2R61
   11    42	 1 ;      CG2R61      HGR61
   12    15	 1 ;      CG2R61      OG301
   12    13	 1 ;      CG2R61     CG2R61
   13    14	 1 ;      CG2R61     CG2R61
   13    43	 1 ;      CG2R61      HGR61
   14    44	 1 ;      CG2R61      HGR61
   15    16	 1 ;       OG301      CG302
   16    19	 1 ;       CG302       FGA3
   16    17	 1 ;       CG302       FGA3
   16    18	 1 ;       CG302       FGA3
   20    25	 1 ;      CG2R61     CG2R61
   20    21	 1 ;      CG2R61     CG2R61
   21    22	 1 ;      CG2R61     CG2R61
   21    45	 1 ;      CG2R61      HGR61
   22    23	 1 ;      CG2R61     CG2R61
   22    26	 1 ;      CG2R61     CG2DC1
   23    24	 1 ;      CG2R61     CG2R61
   23    46	 1 ;      CG2R61      HGR61
   24    25	 1 ;      CG2R61     CG2R61
   24    47	 1 ;      CG2R61      HGR61
   25    48	 1 ;      CG2R61      HGR61
   26    27	 1 ;      CG2DC1     CG2DC2
   26    31	 1 ;      CG2DC1     CG2D1O
   27    28	 1 ;      CG2DC2     CG2DC2
   27    49	 1 ;      CG2DC2       HGA4
   28    29	 1 ;      CG2DC2      CG321
   28    50	 1 ;      CG2DC2       HGA4
   29    30	 1 ;       CG321      NG311
   29    51	 1 ;       CG321       HGA2
   29    52	 1 ;       CG321       HGA2
   30    31	 1 ;       NG311     CG2D1O
   30    32	 1 ;       NG311     HGPAM1
   31    33	 1 ;      CG2D1O       FGA1
   34    35	 1 ;       NG321     HGPAM2
   34    36	 1 ;       NG321     HGPAM2

[ pairs ]
;	ai	  aj funct			  c0			c1			  c2			c3
    1    34	 1
    1    37	 1
    1     6	 1
    1    11	 1
    1    41	 1
    1    13	 1
    1    44	 1
    1    24	 1
    1    48	 1
    1    22	 1
    1    45	 1
    2     8	 1
    2    10	 1
    2    14	 1
    2    25	 1
    2    21	 1
    2     6	 1
    2    35	 1
    2    36	 1
    3     7	 1
    3     9	 1
    3    20	 1
    3     5	 1
    3    34	 1
    3    37	 1
    4     9	 1
    4    20	 1
    4    38	 1
    4    39	 1
    4    40	 1
    4     8	 1
    5     9	 1
    5    20	 1
    5    35	 1
    5    36	 1
    6    34	 1
    6    37	 1
    6     8	 1
    7    10	 1
    7    14	 1
    7    25	 1
    7    21	 1
    7    34	 1
    7    37	 1
    7    38	 1
    7    39	 1
    7    40	 1
    8     9	 1
    8    20	 1
    9    25	 1
    9    21	 1
    9    12	 1
    9    42	 1
    9    43	 1
   10    20	 1
   10    13	 1
   10    44	 1
   10    15	 1
   11    14	 1
   11    16	 1
   11    43	 1
   12    41	 1
   12    44	 1
   12    19	 1
   12    17	 1
   12    18	 1
   13    42	 1
   13    16	 1
   14    20	 1
   14    41	 1
   14    15	 1
   15    42	 1
   15    43	 1
   20    23	 1
   20    26	 1
   20    47	 1
   21    24	 1
   21    48	 1
   21    46	 1
   21    27	 1
   21    31	 1
   22    25	 1
   22    47	 1
   22    28	 1
   22    49	 1
   22    33	 1
   22    30	 1
   23    45	 1
   23    27	 1
   23    31	 1
   23    48	 1
   24    26	 1
   25    45	 1
   25    46	 1
   26    45	 1
   26    46	 1
   26    29	 1
   26    50	 1
   26    32	 1
   27    33	 1
   27    30	 1
   27    51	 1
   27    52	 1
   28    31	 1
   28    32	 1
   29    49	 1
   29    33	 1
   30    50	 1
   31    49	 1
   31    51	 1
   31    52	 1
   32    51	 1
   32    52	 1
   32    33	 1
   35    37	 1
   36    37	 1
   41    42	 1
   43    44	 1
   46    47	 1
   47    48	 1
   49    50	 1
   50    51	 1
   50    52	 1

[ angles ]
;	ai	  aj	ak funct			c0			  c1			c2			  c3
    7     1     2	5 ;     CG2R53     CG3C50     NG3C51
    7     1     9	5 ;     CG2R53     CG3C50     CG2R61
    7     1    20	5 ;     CG2R53     CG3C50     CG2R61
    2     1     9	5 ;     NG3C51     CG3C50     CG2R61
    2     1    20	5 ;     NG3C51     CG3C50     CG2R61
    9     1    20	5 ;     CG2R61     CG3C50     CG2R61
    4     2     1	5 ;     CG3C51     NG3C51     CG3C50
    4     2     3	5 ;     CG3C51     NG3C51       HGP1
    1     2     3	5 ;     CG3C50     NG3C51       HGP1
    5     4    34	5 ;     NG2R53     CG3C51      NG321
    5     4     2	5 ;     NG2R53     CG3C51     NG3C51
    5     4    37	5 ;     NG2R53     CG3C51       HGA1
   34     4     2	5 ;      NG321     CG3C51     NG3C51
   34     4    37	5 ;      NG321     CG3C51       HGA1
    2     4    37	5 ;     NG3C51     CG3C51       HGA1
    6     5     7	5 ;      CG331     NG2R53     CG2R53
    6     5     4	5 ;      CG331     NG2R53     CG3C51
    7     5     4	5 ;     CG2R53     NG2R53     CG3C51
    5     6    38	5 ;     NG2R53      CG331       HGA3
    5     6    39	5 ;     NG2R53      CG331       HGA3
    5     6    40	5 ;     NG2R53      CG331       HGA3
   38     6    39	5 ;       HGA3      CG331       HGA3
   38     6    40	5 ;       HGA3      CG331       HGA3
   39     6    40	5 ;       HGA3      CG331       HGA3
    8     7     5	5 ;      OG2D1     CG2R53     NG2R53
    8     7     1	5 ;      OG2D1     CG2R53     CG3C50
    5     7     1	5 ;     NG2R53     CG2R53     CG3C50
    1     9    10	5 ;     CG3C50     CG2R61     CG2R61
    1     9    14	5 ;     CG3C50     CG2R61     CG2R61
   10     9    14	5 ;     CG2R61     CG2R61     CG2R61
   11    10     9	5 ;     CG2R61     CG2R61     CG2R61
   11    10    41	5 ;     CG2R61     CG2R61      HGR61
    9    10    41	5 ;     CG2R61     CG2R61      HGR61
   10    11    12	5 ;     CG2R61     CG2R61     CG2R61
   10    11    42	5 ;     CG2R61     CG2R61      HGR61
   12    11    42	5 ;     CG2R61     CG2R61      HGR61
   11    12    15	5 ;     CG2R61     CG2R61      OG301
   11    12    13	5 ;     CG2R61     CG2R61     CG2R61
   15    12    13	5 ;      OG301     CG2R61     CG2R61
   12    13    14	5 ;     CG2R61     CG2R61     CG2R61
   12    13    43	5 ;     CG2R61     CG2R61      HGR61
   14    13    43	5 ;     CG2R61     CG2R61      HGR61
    9    14    13	5 ;     CG2R61     CG2R61     CG2R61
    9    14    44	5 ;     CG2R61     CG2R61      HGR61
   13    14    44	5 ;     CG2R61     CG2R61      HGR61
   16    15    12	5 ;      CG302      OG301     CG2R61
   19    16    17	5 ;       FGA3      CG302       FGA3
   19    16    18	5 ;       FGA3      CG302       FGA3
   19    16    15	5 ;       FGA3      CG302      OG301
   17    16    18	5 ;       FGA3      CG302       FGA3
   17    16    15	5 ;       FGA3      CG302      OG301
   18    16    15	5 ;       FGA3      CG302      OG301
    1    20    25	5 ;     CG3C50     CG2R61     CG2R61
    1    20    21	5 ;     CG3C50     CG2R61     CG2R61
   25    20    21	5 ;     CG2R61     CG2R61     CG2R61
   20    21    22	5 ;     CG2R61     CG2R61     CG2R61
   20    21    45	5 ;     CG2R61     CG2R61      HGR61
   22    21    45	5 ;     CG2R61     CG2R61      HGR61
   21    22    23	5 ;     CG2R61     CG2R61     CG2R61
   21    22    26	5 ;     CG2R61     CG2R61     CG2DC1
   23    22    26	5 ;     CG2R61     CG2R61     CG2DC1
   24    23    22	5 ;     CG2R61     CG2R61     CG2R61
   24    23    46	5 ;     CG2R61     CG2R61      HGR61
   22    23    46	5 ;     CG2R61     CG2R61      HGR61
   25    24    23	5 ;     CG2R61     CG2R61     CG2R61
   25    24    47	5 ;     CG2R61     CG2R61      HGR61
   23    24    47	5 ;     CG2R61     CG2R61      HGR61
   20    25    24	5 ;     CG2R61     CG2R61     CG2R61
   20    25    48	5 ;     CG2R61     CG2R61      HGR61
   24    25    48	5 ;     CG2R61     CG2R61      HGR61
   22    26    27	5 ;     CG2R61     CG2DC1     CG2DC2
   22    26    31	5 ;     CG2R61     CG2DC1     CG2D1O
   27    26    31	5 ;     CG2DC2     CG2DC1     CG2D1O
   26    27    28	5 ;     CG2DC1     CG2DC2     CG2DC2
   26    27    49	5 ;     CG2DC1     CG2DC2       HGA4
   28    27    49	5 ;     CG2DC2     CG2DC2       HGA4
   27    28    29	5 ;     CG2DC2     CG2DC2      CG321
   27    28    50	5 ;     CG2DC2     CG2DC2       HGA4
   29    28    50	5 ;      CG321     CG2DC2       HGA4
   28    29    30	5 ;     CG2DC2      CG321      NG311
   28    29    51	5 ;     CG2DC2      CG321       HGA2
   28    29    52	5 ;     CG2DC2      CG321       HGA2
   30    29    51	5 ;      NG311      CG321       HGA2
   30    29    52	5 ;      NG311      CG321       HGA2
   51    29    52	5 ;       HGA2      CG321       HGA2
   31    30    29	5 ;     CG2D1O      NG311      CG321
   31    30    32	5 ;     CG2D1O      NG311     HGPAM1
   29    30    32	5 ;      CG321      NG311     HGPAM1
   26    31    33	5 ;     CG2DC1     CG2D1O       FGA1
   26    31    30	5 ;     CG2DC1     CG2D1O      NG311
   33    31    30	5 ;       FGA1     CG2D1O      NG311
   35    34    36	5 ;     HGPAM2      NG321     HGPAM2
   35    34     4	5 ;     HGPAM2      NG321     CG3C51
   36    34     4	5 ;     HGPAM2      NG321     CG3C51

[ dihedrals ]
;	ai	  aj	ak	  al funct			  c0			c1			  c2			c3			  c4			c5
    2     1     7     8	 9 ;     NG3C51     CG3C50     CG2R53      OG2D1
    2     1     7     5	 9 ;     NG3C51     CG3C50     CG2R53     NG2R53
    9     1     7     8	 9 ;     CG2R61     CG3C50     CG2R53      OG2D1
    9     1     7     5	 9 ;     CG2R61     CG3C50     CG2R53     NG2R53
   20     1     7     8	 9 ;     CG2R61     CG3C50     CG2R53      OG2D1
   20     1     7     5	 9 ;     CG2R61     CG3C50     CG2R53     NG2R53
    7     1     2     4	 9 ;     CG2R53     CG3C50     NG3C51     CG3C51
    7     1     2     3	 9 ;     CG2R53     CG3C50     NG3C51       HGP1
    9     1     2     4	 9 ;     CG2R61     CG3C50     NG3C51     CG3C51
    9     1     2     3	 9 ;     CG2R61     CG3C50     NG3C51       HGP1
   20     1     2     4	 9 ;     CG2R61     CG3C50     NG3C51     CG3C51
   20     1     2     3	 9 ;     CG2R61     CG3C50     NG3C51       HGP1
    7     1     9    10	 9 ;     CG2R53     CG3C50     CG2R61     CG2R61
    7     1     9    14	 9 ;     CG2R53     CG3C50     CG2R61     CG2R61
    2     1     9    10	 9 ;     NG3C51     CG3C50     CG2R61     CG2R61
    2     1     9    14	 9 ;     NG3C51     CG3C50     CG2R61     CG2R61
   20     1     9    10	 9 ;     CG2R61     CG3C50     CG2R61     CG2R61
   20     1     9    14	 9 ;     CG2R61     CG3C50     CG2R61     CG2R61
    7     1    20    25	 9 ;     CG2R53     CG3C50     CG2R61     CG2R61
    7     1    20    21	 9 ;     CG2R53     CG3C50     CG2R61     CG2R61
    2     1    20    25	 9 ;     NG3C51     CG3C50     CG2R61     CG2R61
    2     1    20    21	 9 ;     NG3C51     CG3C50     CG2R61     CG2R61
    9     1    20    25	 9 ;     CG2R61     CG3C50     CG2R61     CG2R61
    9     1    20    21	 9 ;     CG2R61     CG3C50     CG2R61     CG2R61
    1     2     4     5	 9 ;     CG3C50     NG3C51     CG3C51     NG2R53
    1     2     4    34	 9 ;     CG3C50     NG3C51     CG3C51      NG321
    1     2     4    37	 9 ;     CG3C50     NG3C51     CG3C51       HGA1
    3     2     4     5	 9 ;       HGP1     NG3C51     CG3C51     NG2R53
    3     2     4    34	 9 ;       HGP1     NG3C51     CG3C51      NG321
    3     2     4    37	 9 ;       HGP1     NG3C51     CG3C51       HGA1
   34     4     5     6	 9 ;      NG321     CG3C51     NG2R53      CG331
   34     4     5     7	 9 ;      NG321     CG3C51     NG2R53     CG2R53
    2     4     5     6	 9 ;     NG3C51     CG3C51     NG2R53      CG331
    2     4     5     7	 9 ;     NG3C51     CG3C51     NG2R53     CG2R53
   37     4     5     6	 9 ;       HGA1     CG3C51     NG2R53      CG331
   37     4     5     7	 9 ;       HGA1     CG3C51     NG2R53     CG2R53
    5     4    34    35	 9 ;     NG2R53     CG3C51      NG321     HGPAM2
    5     4    34    36	 9 ;     NG2R53     CG3C51      NG321     HGPAM2
    2     4    34    35	 9 ;     NG3C51     CG3C51      NG321     HGPAM2
    2     4    34    36	 9 ;     NG3C51     CG3C51      NG321     HGPAM2
   37     4    34    35	 9 ;       HGA1     CG3C51      NG321     HGPAM2
   37     4    34    36	 9 ;       HGA1     CG3C51      NG321     HGPAM2
    7     5     6    38	 9 ;     CG2R53     NG2R53      CG331       HGA3
    7     5     6    39	 9 ;     CG2R53     NG2R53      CG331       HGA3
    7     5     6    40	 9 ;     CG2R53     NG2R53      CG331       HGA3
    4     5     6    38	 9 ;     CG3C51     NG2R53      CG331       HGA3
    4     5     6    39	 9 ;     CG3C51     NG2R53      CG331       HGA3
    4     5     6    40	 9 ;     CG3C51     NG2R53      CG331       HGA3
    6     5     7     8	 9 ;      CG331     NG2R53     CG2R53      OG2D1
    6     5     7     1	 9 ;      CG331     NG2R53     CG2R53     CG3C50
    4     5     7     8	 9 ;     CG3C51     NG2R53     CG2R53      OG2D1
    4     5     7     1	 9 ;     CG3C51     NG2R53     CG2R53     CG3C50
    1     9    10    11	 9 ;     CG3C50     CG2R61     CG2R61     CG2R61
    1     9    10    41	 9 ;     CG3C50     CG2R61     CG2R61      HGR61
   14     9    10    11	 9 ;     CG2R61     CG2R61     CG2R61     CG2R61
   14     9    10    41	 9 ;     CG2R61     CG2R61     CG2R61      HGR61
    1     9    14    13	 9 ;     CG3C50     CG2R61     CG2R61     CG2R61
    1     9    14    44	 9 ;     CG3C50     CG2R61     CG2R61      HGR61
   10     9    14    13	 9 ;     CG2R61     CG2R61     CG2R61     CG2R61
   10     9    14    44	 9 ;     CG2R61     CG2R61     CG2R61      HGR61
    9    10    11    12	 9 ;     CG2R61     CG2R61     CG2R61     CG2R61
    9    10    11    42	 9 ;     CG2R61     CG2R61     CG2R61      HGR61
   41    10    11    12	 9 ;      HGR61     CG2R61     CG2R61     CG2R61
   41    10    11    42	 9 ;      HGR61     CG2R61     CG2R61      HGR61
   10    11    12    15	 9 ;     CG2R61     CG2R61     CG2R61      OG301
   10    11    12    13	 9 ;     CG2R61     CG2R61     CG2R61     CG2R61
   42    11    12    15	 9 ;      HGR61     CG2R61     CG2R61      OG301
   42    11    12    13	 9 ;      HGR61     CG2R61     CG2R61     CG2R61
   11    12    15    16	 9 ;     CG2R61     CG2R61      OG301      CG302
   13    12    15    16	 9 ;     CG2R61     CG2R61      OG301      CG302
   11    12    13    14	 9 ;     CG2R61     CG2R61     CG2R61     CG2R61
   11    12    13    43	 9 ;     CG2R61     CG2R61     CG2R61      HGR61
   15    12    13    14	 9 ;      OG301     CG2R61     CG2R61     CG2R61
   15    12    13    43	 9 ;      OG301     CG2R61     CG2R61      HGR61
   12    13    14     9	 9 ;     CG2R61     CG2R61     CG2R61     CG2R61
   12    13    14    44	 9 ;     CG2R61     CG2R61     CG2R61      HGR61
   43    13    14     9	 9 ;      HGR61     CG2R61     CG2R61     CG2R61
   43    13    14    44	 9 ;      HGR61     CG2R61     CG2R61      HGR61
   12    15    16    19	 9 ;     CG2R61      OG301      CG302       FGA3
   12    15    16    17	 9 ;     CG2R61      OG301      CG302       FGA3
   12    15    16    18	 9 ;     CG2R61      OG301      CG302       FGA3
    1    20    25    24	 9 ;     CG3C50     CG2R61     CG2R61     CG2R61
    1    20    25    48	 9 ;     CG3C50     CG2R61     CG2R61      HGR61
   21    20    25    24	 9 ;     CG2R61     CG2R61     CG2R61     CG2R61
   21    20    25    48	 9 ;     CG2R61     CG2R61     CG2R61      HGR61
    1    20    21    22	 9 ;     CG3C50     CG2R61     CG2R61     CG2R61
    1    20    21    45	 9 ;     CG3C50     CG2R61     CG2R61      HGR61
   25    20    21    22	 9 ;     CG2R61     CG2R61     CG2R61     CG2R61
   25    20    21    45	 9 ;     CG2R61     CG2R61     CG2R61      HGR61
   20    21    22    23	 9 ;     CG2R61     CG2R61     CG2R61     CG2R61
   20    21    22    26	 9 ;     CG2R61     CG2R61     CG2R61     CG2DC1
   45    21    22    23	 9 ;      HGR61     CG2R61     CG2R61     CG2R61
   45    21    22    26	 9 ;      HGR61     CG2R61     CG2R61     CG2DC1
   21    22    23    24	 9 ;     CG2R61     CG2R61     CG2R61     CG2R61
   21    22    23    46	 9 ;     CG2R61     CG2R61     CG2R61      HGR61
   26    22    23    24	 9 ;     CG2DC1     CG2R61     CG2R61     CG2R61
   26    22    23    46	 9 ;     CG2DC1     CG2R61     CG2R61      HGR61
   21    22    26    27	 9 ;     CG2R61     CG2R61     CG2DC1     CG2DC2
   21    22    26    31	 9 ;     CG2R61     CG2R61     CG2DC1     CG2D1O
   23    22    26    27	 9 ;     CG2R61     CG2R61     CG2DC1     CG2DC2
   23    22    26    31	 9 ;     CG2R61     CG2R61     CG2DC1     CG2D1O
   22    23    24    25	 9 ;     CG2R61     CG2R61     CG2R61     CG2R61
   22    23    24    47	 9 ;     CG2R61     CG2R61     CG2R61      HGR61
   46    23    24    25	 9 ;      HGR61     CG2R61     CG2R61     CG2R61
   46    23    24    47	 9 ;      HGR61     CG2R61     CG2R61      HGR61
   23    24    25    20	 9 ;     CG2R61     CG2R61     CG2R61     CG2R61
   23    24    25    48	 9 ;     CG2R61     CG2R61     CG2R61      HGR61
   47    24    25    20	 9 ;      HGR61     CG2R61     CG2R61     CG2R61
   47    24    25    48	 9 ;      HGR61     CG2R61     CG2R61      HGR61
   22    26    27    28	 9 ;     CG2R61     CG2DC1     CG2DC2     CG2DC2
   22    26    27    49	 9 ;     CG2R61     CG2DC1     CG2DC2       HGA4
   31    26    27    28	 9 ;     CG2D1O     CG2DC1     CG2DC2     CG2DC2
   31    26    27    49	 9 ;     CG2D1O     CG2DC1     CG2DC2       HGA4
   22    26    31    33	 9 ;     CG2R61     CG2DC1     CG2D1O       FGA1
   22    26    31    30	 9 ;     CG2R61     CG2DC1     CG2D1O      NG311
   27    26    31    33	 9 ;     CG2DC2     CG2DC1     CG2D1O       FGA1
   27    26    31    30	 9 ;     CG2DC2     CG2DC1     CG2D1O      NG311
   26    27    28    29	 9 ;     CG2DC1     CG2DC2     CG2DC2      CG321
   26    27    28    50	 9 ;     CG2DC1     CG2DC2     CG2DC2       HGA4
   49    27    28    29	 9 ;       HGA4     CG2DC2     CG2DC2      CG321
   49    27    28    50	 9 ;       HGA4     CG2DC2     CG2DC2       HGA4
   27    28    29    30	 9 ;     CG2DC2     CG2DC2      CG321      NG311
   27    28    29    51	 9 ;     CG2DC2     CG2DC2      CG321       HGA2
   27    28    29    52	 9 ;     CG2DC2     CG2DC2      CG321       HGA2
   50    28    29    30	 9 ;       HGA4     CG2DC2      CG321      NG311
   50    28    29    51	 9 ;       HGA4     CG2DC2      CG321       HGA2
   50    28    29    52	 9 ;       HGA4     CG2DC2      CG321       HGA2
   28    29    30    31	 9 ;     CG2DC2      CG321      NG311     CG2D1O
   28    29    30    32	 9 ;     CG2DC2      CG321      NG311     HGPAM1
   51    29    30    31	 9 ;       HGA2      CG321      NG311     CG2D1O
   51    29    30    32	 9 ;       HGA2      CG321      NG311     HGPAM1
   52    29    30    31	 9 ;       HGA2      CG321      NG311     CG2D1O
   52    29    30    32	 9 ;       HGA2      CG321      NG311     HGPAM1
   29    30    31    26	 9 ;      CG321      NG311     CG2D1O     CG2DC1
   29    30    31    33	 9 ;      CG321      NG311     CG2D1O       FGA1
   32    30    31    26	 9 ;     HGPAM1      NG311     CG2D1O     CG2DC1
   32    30    31    33	 9 ;     HGPAM1      NG311     CG2D1O       FGA1

[ dihedrals ]
;	ai	  aj	ak	  al funct			  c0			c1			  c2			c3
    7     1     5     8	 2
   31    26    30    33	 2

