GROtesk MACabre and Sinister
   52
    1LIG     C1    1  -1.331   0.468  -1.697
    1LIG     N1    2  -1.229   0.578  -1.692
    1LIG    HN1    3  -1.173   0.606  -1.612
    1LIG     C2    4  -1.226   0.630  -1.811
    1LIG     N2    5  -1.304   0.573  -1.904
    1LIG     C3    6  -1.329   0.619  -2.038
    1LIG     C4    7  -1.369   0.466  -1.847
    1LIG     O1    8  -1.444   0.389  -1.905
    1LIG     C5    9  -1.269   0.338  -1.641
    1LIG     C6   10  -1.325   0.216  -1.684
    1LIG     C7   11  -1.256   0.096  -1.668
    1LIG     C8   12  -1.130   0.096  -1.610
    1LIG     C9   13  -1.082   0.214  -1.552
    1LIG    C10   14  -1.150   0.335  -1.567
    1LIG     O2   15  -1.048  -0.012  -1.601
    1LIG    C11   16  -0.955  -0.035  -1.707
    1LIG     F1   17  -0.918   0.076  -1.775
    1LIG     F2   18  -0.843  -0.090  -1.655
    1LIG     F3   19  -1.008  -0.123  -1.794
    1LIG    C12   20  -1.458   0.503  -1.615
    1LIG    C13   21  -1.476   0.454  -1.484
    1LIG    C14   22  -1.594   0.478  -1.409
    1LIG    C15   23  -1.694   0.553  -1.472
    1LIG    C16   24  -1.678   0.605  -1.600
    1LIG    C17   25  -1.560   0.582  -1.670
    1LIG    C18   26  -1.610   0.426  -1.271
    1LIG    C19   27  -1.714   0.338  -1.237
    1LIG    C20   28  -1.730   0.293  -1.106
    1LIG    C21   29  -1.639   0.335  -1.011
    1LIG     N3   30  -1.536   0.417  -1.038
    1LIG    C22   31  -1.525   0.461  -1.166
    1LIG    HN2   32  -1.470   0.446  -0.965
    1LIG     F4   33  -1.422   0.544  -1.189
    1LIG     N4   34  -1.147   0.736  -1.839
    1LIG     H1   35  -1.066   0.710  -1.894
    1LIG     H2   36  -1.193   0.819  -1.875
    1LIG     H3   37  -1.184   0.725  -1.834
    1LIG     H4   38  -1.396   0.552  -2.088
    1LIG     H5   39  -1.237   0.624  -2.092
    1LIG     H6   40  -1.373   0.717  -2.035
    1LIG     H7   41  -1.418   0.215  -1.727
    1LIG     H8   42  -1.299   0.007  -1.698
    1LIG     H9   43  -0.994   0.212  -1.497
    1LIG    H10   44  -1.114   0.421  -1.524
    1LIG    H11   45  -1.400   0.398  -1.440
    1LIG    H12   46  -1.783   0.569  -1.422
    1LIG    H13   47  -1.753   0.661  -1.643
    1LIG    H14   48  -1.547   0.624  -1.764
    1LIG    H15   49  -1.780   0.306  -1.310
    1LIG    H16   50  -1.807   0.229  -1.081
    1LIG    H17   51  -1.596   0.246  -0.970
    1LIG    H18   52  -1.701   0.398  -0.950
   0.00000   0.00000   0.00000
