; Created by cgenff_charmm2gmx.py

[ moleculetype ]
; Name			   nrexcl
LIG				 3

[ atoms ]
;	 nr		  type	resnr residue  atom   cgnr	   charge		mass  typeB    chargeB		massB
; residue	 1 LIG rtp LIG q	qsum
     1      CG311      1    LIG     C1      1      0.010     12.011   ;
     2      CG311      1    LIG     C2      2      0.094     12.011   ;
     3      CG324      1    LIG     C3      3      0.178     12.011   ;
     4      NG3P2      1    LIG     N1      4     -0.444     14.007   ;
     5       HGP2      1    LIG     H1      5      0.348      1.008   ;
     6       HGP2      1    LIG     H2      6      0.348      1.008   ;
     7      CG324      1    LIG     C4      7      0.171     12.011   ;
     8     CG2R61      1    LIG     C5      8      0.055     12.011   ;
     9     CG2R61      1    LIG     C6      9     -0.038     12.011   ;
    10     CG2R61      1    LIG     C7     10     -0.278     12.011   ;
    11     CG2R61      1    LIG     C8     11     -0.035     12.011   ;
    12     CG2R61      1    LIG     C9     12     -0.089     12.011   ;
    13     CG2R61      1    LIG    C10     13     -0.119     12.011   ;
    14      CG302      1    LIG    C11     14      0.605     12.011   ;
    15       FGA3      1    LIG     F1     15     -0.176     18.998   ;
    16       FGA3      1    LIG     F2     16     -0.176     18.998   ;
    17       FGA3      1    LIG     F3     17     -0.176     18.998   ;
    18      OG311      1    LIG     O1     18     -0.625     15.999   ;
    19       HGP1      1    LIG     H3     19      0.415      1.008   ;
    20      NG2S1      1    LIG     N2     20     -0.222     14.007   ;
    21      CG2O1      1    LIG    C12     21      0.333     12.011   ;
    22      OG2D1      1    LIG     O2     22     -0.373     15.999   ;
    23       HGP1      1    LIG     H4     23      0.262      1.008   ;
    24     CG2R62      1    LIG    C13     24     -0.073     12.011   ;
    25     CG2R62      1    LIG    C14     25     -0.062     12.011   ;
    26     CG2R62      1    LIG    C15     26      0.225     12.011   ;
    27     CG2R63      1    LIG    C16     27      0.207     12.011   ;
    28      OG2D4      1    LIG     O3     28     -0.427     15.999   ;
    29     NG2R61      1    LIG     N3     29     -0.250     14.007   ;
    30     CG2R62      1    LIG    C17     30      0.237     12.011   ;
    31     NG2R53      1    LIG     N4     31     -0.334     14.007   ;
    32     CG3C52      1    LIG    C18     32     -0.028     12.011   ;
    33     CG3C52      1    LIG    C19     33     -0.175     12.011   ;
    34     CG3C52      1    LIG    C20     34     -0.030     12.011   ;
    35     CG2R53      1    LIG    C21     35      0.258     12.011   ;
    36      OG2D1      1    LIG     O4     36     -0.484     15.999   ;
    37     CG3C51      1    LIG    C22     37     -0.062     12.011   ;
    38     CG3C52      1    LIG    C23     38     -0.172     12.011   ;
    39     CG3C52      1    LIG    C24     39     -0.180     12.011   ;
    40     CG3C52      1    LIG    C25     40     -0.180     12.011   ;
    41     CG3C52      1    LIG    C26     41     -0.172     12.011   ;
    42      CG321      1    LIG    C27     42     -0.111     12.011   ;
    43     CG2R61      1    LIG    C28     43     -0.019     12.011   ;
    44     CG2R61      1    LIG    C29     44     -0.123     12.011   ;
    45     CG2R61      1    LIG    C30     45     -0.112     12.011   ;
    46     CG2R61      1    LIG    C31     46     -0.116     12.011   ;
    47     CG2R61      1    LIG    C32     47     -0.112     12.011   ;
    48     CG2R61      1    LIG    C33     48     -0.123     12.011   ;
    49       HGA1      1    LIG     HC     49      0.090      1.008   ;
    50       HGA1      1    LIG    HC1     50      0.090      1.008   ;
    51       HGA2      1    LIG    HC2     51      0.090      1.008   ;
    52       HGA2      1    LIG    HC3     52      0.090      1.008   ;
    53       HGA2      1    LIG    HC4     53      0.090      1.008   ;
    54       HGA2      1    LIG    HC5     54      0.090      1.008   ;
    55      HGR61      1    LIG    HC6     55      0.116      1.008   ;
    56      HGR61      1    LIG    HC7     56      0.116      1.008   ;
    57      HGR61      1    LIG    HC8     57      0.116      1.008   ;
    58      HGR61      1    LIG    HC9     58      0.116      1.008   ;
    59      HGR62      1    LIG   HC10     59      0.174      1.008   ;
    60      HGR62      1    LIG   HC11     60      0.062      1.008   ;
    61       HGA2      1    LIG   HC12     61      0.090      1.008   ;
    62       HGA2      1    LIG   HC13     62      0.090      1.008   ;
    63       HGA2      1    LIG   HC14     63      0.090      1.008   ;
    64       HGA2      1    LIG   HC15     64      0.090      1.008   ;
    65       HGA2      1    LIG   HC16     65      0.090      1.008   ;
    66       HGA2      1    LIG   HC17     66      0.090      1.008   ;
    67       HGA1      1    LIG   HC18     67      0.090      1.008   ;
    68       HGA2      1    LIG   HC19     68      0.090      1.008   ;
    69       HGA2      1    LIG   HC20     69      0.090      1.008   ;
    70       HGA2      1    LIG   HC21     70      0.090      1.008   ;
    71       HGA2      1    LIG   HC22     71      0.090      1.008   ;
    72       HGA2      1    LIG   HC23     72      0.090      1.008   ;
    73       HGA2      1    LIG   HC24     73      0.090      1.008   ;
    74       HGA2      1    LIG   HC25     74      0.090      1.008   ;
    75       HGA2      1    LIG   HC26     75      0.090      1.008   ;
    76       HGA2      1    LIG   HC27     76      0.090      1.008   ;
    77       HGA2      1    LIG   HC28     77      0.090      1.008   ;
    78      HGR61      1    LIG   HC29     78      0.116      1.008   ;
    79      HGR61      1    LIG   HC30     79      0.116      1.008   ;
    80      HGR61      1    LIG   HC31     80      0.116      1.008   ;
    81      HGR61      1    LIG   HC32     81      0.116      1.008   ;
    82      HGR61      1    LIG   HC33     82      0.116      1.008   ;

[ bonds ]
;	ai	  aj funct			  c0			c1			  c2			c3
    1    20	 1 ;       CG311      NG2S1
    1     2	 1 ;       CG311      CG311
    1    42	 1 ;       CG311      CG321
    1    49	 1 ;       CG311       HGA1
    2     3	 1 ;       CG311      CG324
    2    18	 1 ;       CG311      OG311
    2    50	 1 ;       CG311       HGA1
    3     4	 1 ;       CG324      NG3P2
    3    51	 1 ;       CG324       HGA2
    3    52	 1 ;       CG324       HGA2
    4     5	 1 ;       NG3P2       HGP2
    4     7	 1 ;       NG3P2      CG324
    4     6	 1 ;       NG3P2       HGP2
    7     8	 1 ;       CG324     CG2R61
    7    53	 1 ;       CG324       HGA2
    7    54	 1 ;       CG324       HGA2
    8    13	 1 ;      CG2R61     CG2R61
    8     9	 1 ;      CG2R61     CG2R61
    9    10	 1 ;      CG2R61     CG2R61
    9    55	 1 ;      CG2R61      HGR61
   10    11	 1 ;      CG2R61     CG2R61
   10    14	 1 ;      CG2R61      CG302
   11    12	 1 ;      CG2R61     CG2R61
   11    56	 1 ;      CG2R61      HGR61
   12    13	 1 ;      CG2R61     CG2R61
   12    57	 1 ;      CG2R61      HGR61
   13    58	 1 ;      CG2R61      HGR61
   14    16	 1 ;       CG302       FGA3
   14    15	 1 ;       CG302       FGA3
   14    17	 1 ;       CG302       FGA3
   18    19	 1 ;       OG311       HGP1
   20    21	 1 ;       NG2S1      CG2O1
   20    23	 1 ;       NG2S1       HGP1
   21    24	 1 ;       CG2O1     CG2R62
   21    22	 1 ;       CG2O1      OG2D1
   24    30	 1 ;      CG2R62     CG2R62
   24    25	 1 ;      CG2R62     CG2R62
   25    26	 1 ;      CG2R62     CG2R62
   25    59	 1 ;      CG2R62      HGR62
   26    27	 1 ;      CG2R62     CG2R63
   26    31	 1 ;      CG2R62     NG2R53
   27    28	 1 ;      CG2R63      OG2D4
   27    29	 1 ;      CG2R63     NG2R61
   29    37	 1 ;      NG2R61     CG3C51
   29    30	 1 ;      NG2R61     CG2R62
   30    60	 1 ;      CG2R62      HGR62
   31    32	 1 ;      NG2R53     CG3C52
   31    35	 1 ;      NG2R53     CG2R53
   32    33	 1 ;      CG3C52     CG3C52
   32    61	 1 ;      CG3C52       HGA2
   32    62	 1 ;      CG3C52       HGA2
   33    34	 1 ;      CG3C52     CG3C52
   33    63	 1 ;      CG3C52       HGA2
   33    64	 1 ;      CG3C52       HGA2
   34    35	 1 ;      CG3C52     CG2R53
   34    65	 1 ;      CG3C52       HGA2
   34    66	 1 ;      CG3C52       HGA2
   35    36	 1 ;      CG2R53      OG2D1
   37    41	 1 ;      CG3C51     CG3C52
   37    38	 1 ;      CG3C51     CG3C52
   37    67	 1 ;      CG3C51       HGA1
   38    39	 1 ;      CG3C52     CG3C52
   38    68	 1 ;      CG3C52       HGA2
   38    69	 1 ;      CG3C52       HGA2
   39    40	 1 ;      CG3C52     CG3C52
   39    70	 1 ;      CG3C52       HGA2
   39    71	 1 ;      CG3C52       HGA2
   40    41	 1 ;      CG3C52     CG3C52
   40    72	 1 ;      CG3C52       HGA2
   40    73	 1 ;      CG3C52       HGA2
   41    74	 1 ;      CG3C52       HGA2
   41    75	 1 ;      CG3C52       HGA2
   42    43	 1 ;       CG321     CG2R61
   42    76	 1 ;       CG321       HGA2
   42    77	 1 ;       CG321       HGA2
   43    48	 1 ;      CG2R61     CG2R61
   43    44	 1 ;      CG2R61     CG2R61
   44    45	 1 ;      CG2R61     CG2R61
   44    78	 1 ;      CG2R61      HGR61
   45    46	 1 ;      CG2R61     CG2R61
   45    79	 1 ;      CG2R61      HGR61
   46    47	 1 ;      CG2R61     CG2R61
   46    80	 1 ;      CG2R61      HGR61
   47    48	 1 ;      CG2R61     CG2R61
   47    81	 1 ;      CG2R61      HGR61
   48    82	 1 ;      CG2R61      HGR61

[ pairs ]
;	ai	  aj funct			  c0			c1			  c2			c3
    1     4	 1
    1    51	 1
    1    52	 1
    1    19	 1
    1    24	 1
    1    22	 1
    1    48	 1
    1    44	 1
    2    21	 1
    2    23	 1
    2    43	 1
    2    76	 1
    2    77	 1
    2     5	 1
    2     7	 1
    2     6	 1
    3    20	 1
    3    42	 1
    3    49	 1
    3    19	 1
    3     8	 1
    3    53	 1
    3    54	 1
    4    18	 1
    4    50	 1
    4    13	 1
    4     9	 1
    5    51	 1
    5    52	 1
    5     8	 1
    5    53	 1
    5    54	 1
    6    51	 1
    6    52	 1
    6     8	 1
    6    53	 1
    6    54	 1
    7    51	 1
    7    52	 1
    7    12	 1
    7    58	 1
    7    10	 1
    7    55	 1
    8    11	 1
    8    14	 1
    8    57	 1
    9    53	 1
    9    54	 1
    9    12	 1
    9    58	 1
    9    56	 1
    9    16	 1
    9    15	 1
    9    17	 1
   10    13	 1
   10    57	 1
   11    55	 1
   11    16	 1
   11    15	 1
   11    17	 1
   11    58	 1
   12    14	 1
   13    53	 1
   13    54	 1
   13    55	 1
   13    56	 1
   14    55	 1
   14    56	 1
   18    20	 1
   18    42	 1
   18    49	 1
   18    51	 1
   18    52	 1
   19    50	 1
   20    50	 1
   20    43	 1
   20    76	 1
   20    77	 1
   20    30	 1
   20    25	 1
   21    42	 1
   21    49	 1
   21    29	 1
   21    60	 1
   21    26	 1
   21    59	 1
   22    23	 1
   22    30	 1
   22    25	 1
   23    42	 1
   23    49	 1
   23    24	 1
   24    27	 1
   24    31	 1
   24    37	 1
   25    29	 1
   25    60	 1
   25    28	 1
   25    32	 1
   25    35	 1
   26    30	 1
   26    37	 1
   26    33	 1
   26    61	 1
   26    62	 1
   26    36	 1
   26    34	 1
   27    59	 1
   27    32	 1
   27    35	 1
   27    41	 1
   27    38	 1
   27    67	 1
   27    60	 1
   28    31	 1
   28    37	 1
   28    30	 1
   29    31	 1
   29    40	 1
   29    74	 1
   29    75	 1
   29    39	 1
   29    68	 1
   29    69	 1
   30    59	 1
   30    41	 1
   30    38	 1
   30    67	 1
   31    59	 1
   31    63	 1
   31    64	 1
   31    65	 1
   31    66	 1
   32    36	 1
   32    65	 1
   32    66	 1
   33    36	 1
   34    61	 1
   34    62	 1
   35    61	 1
   35    62	 1
   35    63	 1
   35    64	 1
   36    65	 1
   36    66	 1
   37    60	 1
   37    70	 1
   37    71	 1
   37    72	 1
   37    73	 1
   38    74	 1
   38    75	 1
   38    72	 1
   38    73	 1
   39    67	 1
   39    74	 1
   39    75	 1
   40    67	 1
   40    68	 1
   40    69	 1
   41    68	 1
   41    69	 1
   41    70	 1
   41    71	 1
   42    50	 1
   42    47	 1
   42    82	 1
   42    45	 1
   42    78	 1
   43    49	 1
   43    46	 1
   43    79	 1
   43    81	 1
   44    76	 1
   44    77	 1
   44    47	 1
   44    82	 1
   44    80	 1
   45    48	 1
   45    81	 1
   46    78	 1
   46    82	 1
   47    79	 1
   48    76	 1
   48    77	 1
   48    78	 1
   48    80	 1
   49    50	 1
   49    76	 1
   49    77	 1
   50    51	 1
   50    52	 1
   56    57	 1
   57    58	 1
   61    63	 1
   61    64	 1
   62    63	 1
   62    64	 1
   63    65	 1
   63    66	 1
   64    65	 1
   64    66	 1
   67    74	 1
   67    75	 1
   67    68	 1
   67    69	 1
   68    70	 1
   68    71	 1
   69    70	 1
   69    71	 1
   70    72	 1
   70    73	 1
   71    72	 1
   71    73	 1
   72    74	 1
   72    75	 1
   73    74	 1
   73    75	 1
   78    79	 1
   79    80	 1
   80    81	 1
   81    82	 1

[ angles ]
;	ai	  aj	ak funct			c0			  c1			c2			  c3
   20     1     2	5 ;      NG2S1      CG311      CG311
   20     1    42	5 ;      NG2S1      CG311      CG321
   20     1    49	5 ;      NG2S1      CG311       HGA1
    2     1    42	5 ;      CG311      CG311      CG321
    2     1    49	5 ;      CG311      CG311       HGA1
   42     1    49	5 ;      CG321      CG311       HGA1
    3     2     1	5 ;      CG324      CG311      CG311
    3     2    18	5 ;      CG324      CG311      OG311
    3     2    50	5 ;      CG324      CG311       HGA1
    1     2    18	5 ;      CG311      CG311      OG311
    1     2    50	5 ;      CG311      CG311       HGA1
   18     2    50	5 ;      OG311      CG311       HGA1
    4     3     2	5 ;      NG3P2      CG324      CG311
    4     3    51	5 ;      NG3P2      CG324       HGA2
    4     3    52	5 ;      NG3P2      CG324       HGA2
    2     3    51	5 ;      CG311      CG324       HGA2
    2     3    52	5 ;      CG311      CG324       HGA2
   51     3    52	5 ;       HGA2      CG324       HGA2
    5     4     7	5 ;       HGP2      NG3P2      CG324
    5     4     6	5 ;       HGP2      NG3P2       HGP2
    5     4     3	5 ;       HGP2      NG3P2      CG324
    7     4     6	5 ;      CG324      NG3P2       HGP2
    7     4     3	5 ;      CG324      NG3P2      CG324
    6     4     3	5 ;       HGP2      NG3P2      CG324
    8     7     4	5 ;     CG2R61      CG324      NG3P2
    8     7    53	5 ;     CG2R61      CG324       HGA2
    8     7    54	5 ;     CG2R61      CG324       HGA2
    4     7    53	5 ;      NG3P2      CG324       HGA2
    4     7    54	5 ;      NG3P2      CG324       HGA2
   53     7    54	5 ;       HGA2      CG324       HGA2
   13     8     7	5 ;     CG2R61     CG2R61      CG324
   13     8     9	5 ;     CG2R61     CG2R61     CG2R61
    7     8     9	5 ;      CG324     CG2R61     CG2R61
    8     9    10	5 ;     CG2R61     CG2R61     CG2R61
    8     9    55	5 ;     CG2R61     CG2R61      HGR61
   10     9    55	5 ;     CG2R61     CG2R61      HGR61
   11    10     9	5 ;     CG2R61     CG2R61     CG2R61
   11    10    14	5 ;     CG2R61     CG2R61      CG302
    9    10    14	5 ;     CG2R61     CG2R61      CG302
   12    11    10	5 ;     CG2R61     CG2R61     CG2R61
   12    11    56	5 ;     CG2R61     CG2R61      HGR61
   10    11    56	5 ;     CG2R61     CG2R61      HGR61
   13    12    11	5 ;     CG2R61     CG2R61     CG2R61
   13    12    57	5 ;     CG2R61     CG2R61      HGR61
   11    12    57	5 ;     CG2R61     CG2R61      HGR61
   12    13     8	5 ;     CG2R61     CG2R61     CG2R61
   12    13    58	5 ;     CG2R61     CG2R61      HGR61
    8    13    58	5 ;     CG2R61     CG2R61      HGR61
   10    14    16	5 ;     CG2R61      CG302       FGA3
   10    14    15	5 ;     CG2R61      CG302       FGA3
   10    14    17	5 ;     CG2R61      CG302       FGA3
   16    14    15	5 ;       FGA3      CG302       FGA3
   16    14    17	5 ;       FGA3      CG302       FGA3
   15    14    17	5 ;       FGA3      CG302       FGA3
    2    18    19	5 ;      CG311      OG311       HGP1
   21    20    23	5 ;      CG2O1      NG2S1       HGP1
   21    20     1	5 ;      CG2O1      NG2S1      CG311
   23    20     1	5 ;       HGP1      NG2S1      CG311
   24    21    22	5 ;     CG2R62      CG2O1      OG2D1
   24    21    20	5 ;     CG2R62      CG2O1      NG2S1
   22    21    20	5 ;      OG2D1      CG2O1      NG2S1
   30    24    25	5 ;     CG2R62     CG2R62     CG2R62
   30    24    21	5 ;     CG2R62     CG2R62      CG2O1
   25    24    21	5 ;     CG2R62     CG2R62      CG2O1
   26    25    24	5 ;     CG2R62     CG2R62     CG2R62
   26    25    59	5 ;     CG2R62     CG2R62      HGR62
   24    25    59	5 ;     CG2R62     CG2R62      HGR62
   27    26    31	5 ;     CG2R63     CG2R62     NG2R53
   27    26    25	5 ;     CG2R63     CG2R62     CG2R62
   31    26    25	5 ;     NG2R53     CG2R62     CG2R62
   28    27    29	5 ;      OG2D4     CG2R63     NG2R61
   28    27    26	5 ;      OG2D4     CG2R63     CG2R62
   29    27    26	5 ;     NG2R61     CG2R63     CG2R62
   37    29    27	5 ;     CG3C51     NG2R61     CG2R63
   37    29    30	5 ;     CG3C51     NG2R61     CG2R62
   27    29    30	5 ;     CG2R63     NG2R61     CG2R62
   29    30    24	5 ;     NG2R61     CG2R62     CG2R62
   29    30    60	5 ;     NG2R61     CG2R62      HGR62
   24    30    60	5 ;     CG2R62     CG2R62      HGR62
   26    31    32	5 ;     CG2R62     NG2R53     CG3C52
   26    31    35	5 ;     CG2R62     NG2R53     CG2R53
   32    31    35	5 ;     CG3C52     NG2R53     CG2R53
   31    32    33	5 ;     NG2R53     CG3C52     CG3C52
   31    32    61	5 ;     NG2R53     CG3C52       HGA2
   31    32    62	5 ;     NG2R53     CG3C52       HGA2
   33    32    61	5 ;     CG3C52     CG3C52       HGA2
   33    32    62	5 ;     CG3C52     CG3C52       HGA2
   61    32    62	5 ;       HGA2     CG3C52       HGA2
   32    33    34	5 ;     CG3C52     CG3C52     CG3C52
   32    33    63	5 ;     CG3C52     CG3C52       HGA2
   32    33    64	5 ;     CG3C52     CG3C52       HGA2
   34    33    63	5 ;     CG3C52     CG3C52       HGA2
   34    33    64	5 ;     CG3C52     CG3C52       HGA2
   63    33    64	5 ;       HGA2     CG3C52       HGA2
   35    34    33	5 ;     CG2R53     CG3C52     CG3C52
   35    34    65	5 ;     CG2R53     CG3C52       HGA2
   35    34    66	5 ;     CG2R53     CG3C52       HGA2
   33    34    65	5 ;     CG3C52     CG3C52       HGA2
   33    34    66	5 ;     CG3C52     CG3C52       HGA2
   65    34    66	5 ;       HGA2     CG3C52       HGA2
   31    35    36	5 ;     NG2R53     CG2R53      OG2D1
   31    35    34	5 ;     NG2R53     CG2R53     CG3C52
   36    35    34	5 ;      OG2D1     CG2R53     CG3C52
   41    37    38	5 ;     CG3C52     CG3C51     CG3C52
   41    37    29	5 ;     CG3C52     CG3C51     NG2R61
   41    37    67	5 ;     CG3C52     CG3C51       HGA1
   38    37    29	5 ;     CG3C52     CG3C51     NG2R61
   38    37    67	5 ;     CG3C52     CG3C51       HGA1
   29    37    67	5 ;     NG2R61     CG3C51       HGA1
   39    38    37	5 ;     CG3C52     CG3C52     CG3C51
   39    38    68	5 ;     CG3C52     CG3C52       HGA2
   39    38    69	5 ;     CG3C52     CG3C52       HGA2
   37    38    68	5 ;     CG3C51     CG3C52       HGA2
   37    38    69	5 ;     CG3C51     CG3C52       HGA2
   68    38    69	5 ;       HGA2     CG3C52       HGA2
   40    39    38	5 ;     CG3C52     CG3C52     CG3C52
   40    39    70	5 ;     CG3C52     CG3C52       HGA2
   40    39    71	5 ;     CG3C52     CG3C52       HGA2
   38    39    70	5 ;     CG3C52     CG3C52       HGA2
   38    39    71	5 ;     CG3C52     CG3C52       HGA2
   70    39    71	5 ;       HGA2     CG3C52       HGA2
   39    40    41	5 ;     CG3C52     CG3C52     CG3C52
   39    40    72	5 ;     CG3C52     CG3C52       HGA2
   39    40    73	5 ;     CG3C52     CG3C52       HGA2
   41    40    72	5 ;     CG3C52     CG3C52       HGA2
   41    40    73	5 ;     CG3C52     CG3C52       HGA2
   72    40    73	5 ;       HGA2     CG3C52       HGA2
   40    41    37	5 ;     CG3C52     CG3C52     CG3C51
   40    41    74	5 ;     CG3C52     CG3C52       HGA2
   40    41    75	5 ;     CG3C52     CG3C52       HGA2
   37    41    74	5 ;     CG3C51     CG3C52       HGA2
   37    41    75	5 ;     CG3C51     CG3C52       HGA2
   74    41    75	5 ;       HGA2     CG3C52       HGA2
    1    42    43	5 ;      CG311      CG321     CG2R61
    1    42    76	5 ;      CG311      CG321       HGA2
    1    42    77	5 ;      CG311      CG321       HGA2
   43    42    76	5 ;     CG2R61      CG321       HGA2
   43    42    77	5 ;     CG2R61      CG321       HGA2
   76    42    77	5 ;       HGA2      CG321       HGA2
   42    43    48	5 ;      CG321     CG2R61     CG2R61
   42    43    44	5 ;      CG321     CG2R61     CG2R61
   48    43    44	5 ;     CG2R61     CG2R61     CG2R61
   43    44    45	5 ;     CG2R61     CG2R61     CG2R61
   43    44    78	5 ;     CG2R61     CG2R61      HGR61
   45    44    78	5 ;     CG2R61     CG2R61      HGR61
   44    45    46	5 ;     CG2R61     CG2R61     CG2R61
   44    45    79	5 ;     CG2R61     CG2R61      HGR61
   46    45    79	5 ;     CG2R61     CG2R61      HGR61
   47    46    45	5 ;     CG2R61     CG2R61     CG2R61
   47    46    80	5 ;     CG2R61     CG2R61      HGR61
   45    46    80	5 ;     CG2R61     CG2R61      HGR61
   48    47    46	5 ;     CG2R61     CG2R61     CG2R61
   48    47    81	5 ;     CG2R61     CG2R61      HGR61
   46    47    81	5 ;     CG2R61     CG2R61      HGR61
   43    48    47	5 ;     CG2R61     CG2R61     CG2R61
   43    48    82	5 ;     CG2R61     CG2R61      HGR61
   47    48    82	5 ;     CG2R61     CG2R61      HGR61

[ dihedrals ]
;	ai	  aj	ak	  al funct			  c0			c1			  c2			c3			  c4			c5
    2     1    20    21	 9 ;      CG311      CG311      NG2S1      CG2O1
    2     1    20    23	 9 ;      CG311      CG311      NG2S1       HGP1
   42     1    20    21	 9 ;      CG321      CG311      NG2S1      CG2O1
   42     1    20    23	 9 ;      CG321      CG311      NG2S1       HGP1
   49     1    20    21	 9 ;       HGA1      CG311      NG2S1      CG2O1
   49     1    20    23	 9 ;       HGA1      CG311      NG2S1       HGP1
   20     1     2     3	 9 ;      NG2S1      CG311      CG311      CG324
   20     1     2    18	 9 ;      NG2S1      CG311      CG311      OG311
   20     1     2    50	 9 ;      NG2S1      CG311      CG311       HGA1
   42     1     2     3	 9 ;      CG321      CG311      CG311      CG324
   42     1     2    18	 9 ;      CG321      CG311      CG311      OG311
   42     1     2    50	 9 ;      CG321      CG311      CG311       HGA1
   49     1     2     3	 9 ;       HGA1      CG311      CG311      CG324
   49     1     2    18	 9 ;       HGA1      CG311      CG311      OG311
   49     1     2    50	 9 ;       HGA1      CG311      CG311       HGA1
   20     1    42    43	 9 ;      NG2S1      CG311      CG321     CG2R61
   20     1    42    76	 9 ;      NG2S1      CG311      CG321       HGA2
   20     1    42    77	 9 ;      NG2S1      CG311      CG321       HGA2
    2     1    42    43	 9 ;      CG311      CG311      CG321     CG2R61
    2     1    42    76	 9 ;      CG311      CG311      CG321       HGA2
    2     1    42    77	 9 ;      CG311      CG311      CG321       HGA2
   49     1    42    43	 9 ;       HGA1      CG311      CG321     CG2R61
   49     1    42    76	 9 ;       HGA1      CG311      CG321       HGA2
   49     1    42    77	 9 ;       HGA1      CG311      CG321       HGA2
    1     2     3     4	 9 ;      CG311      CG311      CG324      NG3P2
    1     2     3    51	 9 ;      CG311      CG311      CG324       HGA2
    1     2     3    52	 9 ;      CG311      CG311      CG324       HGA2
   18     2     3     4	 9 ;      OG311      CG311      CG324      NG3P2
   18     2     3    51	 9 ;      OG311      CG311      CG324       HGA2
   18     2     3    52	 9 ;      OG311      CG311      CG324       HGA2
   50     2     3     4	 9 ;       HGA1      CG311      CG324      NG3P2
   50     2     3    51	 9 ;       HGA1      CG311      CG324       HGA2
   50     2     3    52	 9 ;       HGA1      CG311      CG324       HGA2
    3     2    18    19	 9 ;      CG324      CG311      OG311       HGP1
    1     2    18    19	 9 ;      CG311      CG311      OG311       HGP1
   50     2    18    19	 9 ;       HGA1      CG311      OG311       HGP1
    2     3     4     5	 9 ;      CG311      CG324      NG3P2       HGP2
    2     3     4     7	 9 ;      CG311      CG324      NG3P2      CG324
    2     3     4     6	 9 ;      CG311      CG324      NG3P2       HGP2
   51     3     4     5	 9 ;       HGA2      CG324      NG3P2       HGP2
   51     3     4     7	 9 ;       HGA2      CG324      NG3P2      CG324
   51     3     4     6	 9 ;       HGA2      CG324      NG3P2       HGP2
   52     3     4     5	 9 ;       HGA2      CG324      NG3P2       HGP2
   52     3     4     7	 9 ;       HGA2      CG324      NG3P2      CG324
   52     3     4     6	 9 ;       HGA2      CG324      NG3P2       HGP2
    5     4     7     8	 9 ;       HGP2      NG3P2      CG324     CG2R61
    5     4     7    53	 9 ;       HGP2      NG3P2      CG324       HGA2
    5     4     7    54	 9 ;       HGP2      NG3P2      CG324       HGA2
    6     4     7     8	 9 ;       HGP2      NG3P2      CG324     CG2R61
    6     4     7    53	 9 ;       HGP2      NG3P2      CG324       HGA2
    6     4     7    54	 9 ;       HGP2      NG3P2      CG324       HGA2
    3     4     7     8	 9 ;      CG324      NG3P2      CG324     CG2R61
    3     4     7    53	 9 ;      CG324      NG3P2      CG324       HGA2
    3     4     7    54	 9 ;      CG324      NG3P2      CG324       HGA2
    4     7     8    13	 9 ;      NG3P2      CG324     CG2R61     CG2R61
    4     7     8     9	 9 ;      NG3P2      CG324     CG2R61     CG2R61
   53     7     8    13	 9 ;       HGA2      CG324     CG2R61     CG2R61
   53     7     8     9	 9 ;       HGA2      CG324     CG2R61     CG2R61
   54     7     8    13	 9 ;       HGA2      CG324     CG2R61     CG2R61
   54     7     8     9	 9 ;       HGA2      CG324     CG2R61     CG2R61
    7     8    13    12	 9 ;      CG324     CG2R61     CG2R61     CG2R61
    7     8    13    58	 9 ;      CG324     CG2R61     CG2R61      HGR61
    9     8    13    12	 9 ;     CG2R61     CG2R61     CG2R61     CG2R61
    9     8    13    58	 9 ;     CG2R61     CG2R61     CG2R61      HGR61
   13     8     9    10	 9 ;     CG2R61     CG2R61     CG2R61     CG2R61
   13     8     9    55	 9 ;     CG2R61     CG2R61     CG2R61      HGR61
    7     8     9    10	 9 ;      CG324     CG2R61     CG2R61     CG2R61
    7     8     9    55	 9 ;      CG324     CG2R61     CG2R61      HGR61
    8     9    10    11	 9 ;     CG2R61     CG2R61     CG2R61     CG2R61
    8     9    10    14	 9 ;     CG2R61     CG2R61     CG2R61      CG302
   55     9    10    11	 9 ;      HGR61     CG2R61     CG2R61     CG2R61
   55     9    10    14	 9 ;      HGR61     CG2R61     CG2R61      CG302
    9    10    11    12	 9 ;     CG2R61     CG2R61     CG2R61     CG2R61
    9    10    11    56	 9 ;     CG2R61     CG2R61     CG2R61      HGR61
   14    10    11    12	 9 ;      CG302     CG2R61     CG2R61     CG2R61
   14    10    11    56	 9 ;      CG302     CG2R61     CG2R61      HGR61
   11    10    14    16	 9 ;     CG2R61     CG2R61      CG302       FGA3
   11    10    14    15	 9 ;     CG2R61     CG2R61      CG302       FGA3
   11    10    14    17	 9 ;     CG2R61     CG2R61      CG302       FGA3
    9    10    14    16	 9 ;     CG2R61     CG2R61      CG302       FGA3
    9    10    14    15	 9 ;     CG2R61     CG2R61      CG302       FGA3
    9    10    14    17	 9 ;     CG2R61     CG2R61      CG302       FGA3
   10    11    12    13	 9 ;     CG2R61     CG2R61     CG2R61     CG2R61
   10    11    12    57	 9 ;     CG2R61     CG2R61     CG2R61      HGR61
   56    11    12    13	 9 ;      HGR61     CG2R61     CG2R61     CG2R61
   56    11    12    57	 9 ;      HGR61     CG2R61     CG2R61      HGR61
   11    12    13     8	 9 ;     CG2R61     CG2R61     CG2R61     CG2R61
   11    12    13    58	 9 ;     CG2R61     CG2R61     CG2R61      HGR61
   57    12    13     8	 9 ;      HGR61     CG2R61     CG2R61     CG2R61
   57    12    13    58	 9 ;      HGR61     CG2R61     CG2R61      HGR61
   23    20    21    24	 9 ;       HGP1      NG2S1      CG2O1     CG2R62
   23    20    21    22	 9 ;       HGP1      NG2S1      CG2O1      OG2D1
    1    20    21    24	 9 ;      CG311      NG2S1      CG2O1     CG2R62
    1    20    21    22	 9 ;      CG311      NG2S1      CG2O1      OG2D1
   22    21    24    30	 9 ;      OG2D1      CG2O1     CG2R62     CG2R62
   22    21    24    25	 9 ;      OG2D1      CG2O1     CG2R62     CG2R62
   20    21    24    30	 9 ;      NG2S1      CG2O1     CG2R62     CG2R62
   20    21    24    25	 9 ;      NG2S1      CG2O1     CG2R62     CG2R62
   25    24    30    29	 9 ;     CG2R62     CG2R62     CG2R62     NG2R61
   25    24    30    60	 9 ;     CG2R62     CG2R62     CG2R62      HGR62
   21    24    30    29	 9 ;      CG2O1     CG2R62     CG2R62     NG2R61
   21    24    30    60	 9 ;      CG2O1     CG2R62     CG2R62      HGR62
   30    24    25    26	 9 ;     CG2R62     CG2R62     CG2R62     CG2R62
   30    24    25    59	 9 ;     CG2R62     CG2R62     CG2R62      HGR62
   21    24    25    26	 9 ;      CG2O1     CG2R62     CG2R62     CG2R62
   21    24    25    59	 9 ;      CG2O1     CG2R62     CG2R62      HGR62
   24    25    26    27	 9 ;     CG2R62     CG2R62     CG2R62     CG2R63
   24    25    26    31	 9 ;     CG2R62     CG2R62     CG2R62     NG2R53
   59    25    26    27	 9 ;      HGR62     CG2R62     CG2R62     CG2R63
   59    25    26    31	 9 ;      HGR62     CG2R62     CG2R62     NG2R53
   31    26    27    28	 9 ;     NG2R53     CG2R62     CG2R63      OG2D4
   31    26    27    29	 9 ;     NG2R53     CG2R62     CG2R63     NG2R61
   25    26    27    28	 9 ;     CG2R62     CG2R62     CG2R63      OG2D4
   25    26    27    29	 9 ;     CG2R62     CG2R62     CG2R63     NG2R61
   27    26    31    32	 9 ;     CG2R63     CG2R62     NG2R53     CG3C52
   27    26    31    35	 9 ;     CG2R63     CG2R62     NG2R53     CG2R53
   25    26    31    32	 9 ;     CG2R62     CG2R62     NG2R53     CG3C52
   25    26    31    35	 9 ;     CG2R62     CG2R62     NG2R53     CG2R53
   28    27    29    37	 9 ;      OG2D4     CG2R63     NG2R61     CG3C51
   28    27    29    30	 9 ;      OG2D4     CG2R63     NG2R61     CG2R62
   26    27    29    37	 9 ;     CG2R62     CG2R63     NG2R61     CG3C51
   26    27    29    30	 9 ;     CG2R62     CG2R63     NG2R61     CG2R62
   27    29    37    41	 9 ;     CG2R63     NG2R61     CG3C51     CG3C52
   27    29    37    38	 9 ;     CG2R63     NG2R61     CG3C51     CG3C52
   27    29    37    67	 9 ;     CG2R63     NG2R61     CG3C51       HGA1
   30    29    37    41	 9 ;     CG2R62     NG2R61     CG3C51     CG3C52
   30    29    37    38	 9 ;     CG2R62     NG2R61     CG3C51     CG3C52
   30    29    37    67	 9 ;     CG2R62     NG2R61     CG3C51       HGA1
   37    29    30    24	 9 ;     CG3C51     NG2R61     CG2R62     CG2R62
   37    29    30    60	 9 ;     CG3C51     NG2R61     CG2R62      HGR62
   27    29    30    24	 9 ;     CG2R63     NG2R61     CG2R62     CG2R62
   27    29    30    60	 9 ;     CG2R63     NG2R61     CG2R62      HGR62
   26    31    32    33	 9 ;     CG2R62     NG2R53     CG3C52     CG3C52
   26    31    32    61	 9 ;     CG2R62     NG2R53     CG3C52       HGA2
   26    31    32    62	 9 ;     CG2R62     NG2R53     CG3C52       HGA2
   35    31    32    33	 9 ;     CG2R53     NG2R53     CG3C52     CG3C52
   35    31    32    61	 9 ;     CG2R53     NG2R53     CG3C52       HGA2
   35    31    32    62	 9 ;     CG2R53     NG2R53     CG3C52       HGA2
   26    31    35    36	 9 ;     CG2R62     NG2R53     CG2R53      OG2D1
   26    31    35    34	 9 ;     CG2R62     NG2R53     CG2R53     CG3C52
   32    31    35    36	 9 ;     CG3C52     NG2R53     CG2R53      OG2D1
   32    31    35    34	 9 ;     CG3C52     NG2R53     CG2R53     CG3C52
   31    32    33    34	 9 ;     NG2R53     CG3C52     CG3C52     CG3C52
   31    32    33    63	 9 ;     NG2R53     CG3C52     CG3C52       HGA2
   31    32    33    64	 9 ;     NG2R53     CG3C52     CG3C52       HGA2
   61    32    33    34	 9 ;       HGA2     CG3C52     CG3C52     CG3C52
   61    32    33    63	 9 ;       HGA2     CG3C52     CG3C52       HGA2
   61    32    33    64	 9 ;       HGA2     CG3C52     CG3C52       HGA2
   62    32    33    34	 9 ;       HGA2     CG3C52     CG3C52     CG3C52
   62    32    33    63	 9 ;       HGA2     CG3C52     CG3C52       HGA2
   62    32    33    64	 9 ;       HGA2     CG3C52     CG3C52       HGA2
   32    33    34    35	 9 ;     CG3C52     CG3C52     CG3C52     CG2R53
   32    33    34    65	 9 ;     CG3C52     CG3C52     CG3C52       HGA2
   32    33    34    66	 9 ;     CG3C52     CG3C52     CG3C52       HGA2
   63    33    34    35	 9 ;       HGA2     CG3C52     CG3C52     CG2R53
   63    33    34    65	 9 ;       HGA2     CG3C52     CG3C52       HGA2
   63    33    34    66	 9 ;       HGA2     CG3C52     CG3C52       HGA2
   64    33    34    35	 9 ;       HGA2     CG3C52     CG3C52     CG2R53
   64    33    34    65	 9 ;       HGA2     CG3C52     CG3C52       HGA2
   64    33    34    66	 9 ;       HGA2     CG3C52     CG3C52       HGA2
   33    34    35    31	 9 ;     CG3C52     CG3C52     CG2R53     NG2R53
   33    34    35    36	 9 ;     CG3C52     CG3C52     CG2R53      OG2D1
   65    34    35    31	 9 ;       HGA2     CG3C52     CG2R53     NG2R53
   65    34    35    36	 9 ;       HGA2     CG3C52     CG2R53      OG2D1
   66    34    35    31	 9 ;       HGA2     CG3C52     CG2R53     NG2R53
   66    34    35    36	 9 ;       HGA2     CG3C52     CG2R53      OG2D1
   38    37    41    40	 9 ;     CG3C52     CG3C51     CG3C52     CG3C52
   38    37    41    74	 9 ;     CG3C52     CG3C51     CG3C52       HGA2
   38    37    41    75	 9 ;     CG3C52     CG3C51     CG3C52       HGA2
   29    37    41    40	 9 ;     NG2R61     CG3C51     CG3C52     CG3C52
   29    37    41    74	 9 ;     NG2R61     CG3C51     CG3C52       HGA2
   29    37    41    75	 9 ;     NG2R61     CG3C51     CG3C52       HGA2
   67    37    41    40	 9 ;       HGA1     CG3C51     CG3C52     CG3C52
   67    37    41    74	 9 ;       HGA1     CG3C51     CG3C52       HGA2
   67    37    41    75	 9 ;       HGA1     CG3C51     CG3C52       HGA2
   41    37    38    39	 9 ;     CG3C52     CG3C51     CG3C52     CG3C52
   41    37    38    68	 9 ;     CG3C52     CG3C51     CG3C52       HGA2
   41    37    38    69	 9 ;     CG3C52     CG3C51     CG3C52       HGA2
   29    37    38    39	 9 ;     NG2R61     CG3C51     CG3C52     CG3C52
   29    37    38    68	 9 ;     NG2R61     CG3C51     CG3C52       HGA2
   29    37    38    69	 9 ;     NG2R61     CG3C51     CG3C52       HGA2
   67    37    38    39	 9 ;       HGA1     CG3C51     CG3C52     CG3C52
   67    37    38    68	 9 ;       HGA1     CG3C51     CG3C52       HGA2
   67    37    38    69	 9 ;       HGA1     CG3C51     CG3C52       HGA2
   37    38    39    40	 9 ;     CG3C51     CG3C52     CG3C52     CG3C52
   37    38    39    70	 9 ;     CG3C51     CG3C52     CG3C52       HGA2
   37    38    39    71	 9 ;     CG3C51     CG3C52     CG3C52       HGA2
   68    38    39    40	 9 ;       HGA2     CG3C52     CG3C52     CG3C52
   68    38    39    70	 9 ;       HGA2     CG3C52     CG3C52       HGA2
   68    38    39    71	 9 ;       HGA2     CG3C52     CG3C52       HGA2
   69    38    39    40	 9 ;       HGA2     CG3C52     CG3C52     CG3C52
   69    38    39    70	 9 ;       HGA2     CG3C52     CG3C52       HGA2
   69    38    39    71	 9 ;       HGA2     CG3C52     CG3C52       HGA2
   38    39    40    41	 9 ;     CG3C52     CG3C52     CG3C52     CG3C52
   38    39    40    72	 9 ;     CG3C52     CG3C52     CG3C52       HGA2
   38    39    40    73	 9 ;     CG3C52     CG3C52     CG3C52       HGA2
   70    39    40    41	 9 ;       HGA2     CG3C52     CG3C52     CG3C52
   70    39    40    72	 9 ;       HGA2     CG3C52     CG3C52       HGA2
   70    39    40    73	 9 ;       HGA2     CG3C52     CG3C52       HGA2
   71    39    40    41	 9 ;       HGA2     CG3C52     CG3C52     CG3C52
   71    39    40    72	 9 ;       HGA2     CG3C52     CG3C52       HGA2
   71    39    40    73	 9 ;       HGA2     CG3C52     CG3C52       HGA2
   39    40    41    37	 9 ;     CG3C52     CG3C52     CG3C52     CG3C51
   39    40    41    74	 9 ;     CG3C52     CG3C52     CG3C52       HGA2
   39    40    41    75	 9 ;     CG3C52     CG3C52     CG3C52       HGA2
   72    40    41    37	 9 ;       HGA2     CG3C52     CG3C52     CG3C51
   72    40    41    74	 9 ;       HGA2     CG3C52     CG3C52       HGA2
   72    40    41    75	 9 ;       HGA2     CG3C52     CG3C52       HGA2
   73    40    41    37	 9 ;       HGA2     CG3C52     CG3C52     CG3C51
   73    40    41    74	 9 ;       HGA2     CG3C52     CG3C52       HGA2
   73    40    41    75	 9 ;       HGA2     CG3C52     CG3C52       HGA2
    1    42    43    48	 9 ;      CG311      CG321     CG2R61     CG2R61
    1    42    43    44	 9 ;      CG311      CG321     CG2R61     CG2R61
   76    42    43    48	 9 ;       HGA2      CG321     CG2R61     CG2R61
   76    42    43    44	 9 ;       HGA2      CG321     CG2R61     CG2R61
   77    42    43    48	 9 ;       HGA2      CG321     CG2R61     CG2R61
   77    42    43    44	 9 ;       HGA2      CG321     CG2R61     CG2R61
   42    43    48    47	 9 ;      CG321     CG2R61     CG2R61     CG2R61
   42    43    48    82	 9 ;      CG321     CG2R61     CG2R61      HGR61
   44    43    48    47	 9 ;     CG2R61     CG2R61     CG2R61     CG2R61
   44    43    48    82	 9 ;     CG2R61     CG2R61     CG2R61      HGR61
   42    43    44    45	 9 ;      CG321     CG2R61     CG2R61     CG2R61
   42    43    44    78	 9 ;      CG321     CG2R61     CG2R61      HGR61
   48    43    44    45	 9 ;     CG2R61     CG2R61     CG2R61     CG2R61
   48    43    44    78	 9 ;     CG2R61     CG2R61     CG2R61      HGR61
   43    44    45    46	 9 ;     CG2R61     CG2R61     CG2R61     CG2R61
   43    44    45    79	 9 ;     CG2R61     CG2R61     CG2R61      HGR61
   78    44    45    46	 9 ;      HGR61     CG2R61     CG2R61     CG2R61
   78    44    45    79	 9 ;      HGR61     CG2R61     CG2R61      HGR61
   44    45    46    47	 9 ;     CG2R61     CG2R61     CG2R61     CG2R61
   44    45    46    80	 9 ;     CG2R61     CG2R61     CG2R61      HGR61
   79    45    46    47	 9 ;      HGR61     CG2R61     CG2R61     CG2R61
   79    45    46    80	 9 ;      HGR61     CG2R61     CG2R61      HGR61
   45    46    47    48	 9 ;     CG2R61     CG2R61     CG2R61     CG2R61
   45    46    47    81	 9 ;     CG2R61     CG2R61     CG2R61      HGR61
   80    46    47    48	 9 ;      HGR61     CG2R61     CG2R61     CG2R61
   80    46    47    81	 9 ;      HGR61     CG2R61     CG2R61      HGR61
   46    47    48    43	 9 ;     CG2R61     CG2R61     CG2R61     CG2R61
   46    47    48    82	 9 ;     CG2R61     CG2R61     CG2R61      HGR61
   81    47    48    43	 9 ;      HGR61     CG2R61     CG2R61     CG2R61
   81    47    48    82	 9 ;      HGR61     CG2R61     CG2R61      HGR61

[ dihedrals ]
;	ai	  aj	ak	  al funct			  c0			c1			  c2			c3
   21    24    20    22	 2
   27    26    29    28	 2
   35    34    31    36	 2

