GROtesk MACabre and Sinister
   82
    1LIG     C1    1  -1.665   0.601  -1.529
    1LIG     C2    2  -1.602   0.739  -1.567
    1LIG     C3    3  -1.591   0.770  -1.717
    1LIG     N1    4  -1.454   0.732  -1.765
    1LIG     H1    5  -1.452   0.756  -1.866
    1LIG     H2    6  -1.444   0.630  -1.760
    1LIG     C4    7  -1.339   0.796  -1.697
    1LIG     C5    8  -1.241   0.692  -1.651
    1LIG     C6    9  -1.257   0.633  -1.524
    1LIG     C7   10  -1.163   0.541  -1.475
    1LIG     C8   11  -1.051   0.511  -1.555
    1LIG     C9   12  -1.035   0.569  -1.681
    1LIG    C10   13  -1.130   0.659  -1.729
    1LIG    C11   14  -1.180   0.475  -1.340
    1LIG     F1   15  -1.151   0.558  -1.237
    1LIG     F2   16  -1.098   0.367  -1.325
    1LIG     F3   17  -1.306   0.431  -1.320
    1LIG     O1   18  -1.665   0.852  -1.505
    1LIG     H3   19  -1.737   0.883  -1.563
    1LIG     N2   20  -1.572   0.487  -1.523
    1LIG    C12   21  -1.572   0.380  -1.609
    1LIG     O2   22  -1.661   0.362  -1.692
    1LIG     H4   23  -1.486   0.507  -1.473
    1LIG    C13   24  -1.451   0.289  -1.601
    1LIG    C14   25  -1.429   0.195  -1.493
    1LIG    C15   26  -1.310   0.138  -1.467
    1LIG    C16   27  -1.201   0.159  -1.572
    1LIG     O3   28  -1.088   0.112  -1.557
    1LIG     N3   29  -1.236   0.231  -1.687
    1LIG    C17   30  -1.357   0.300  -1.696
    1LIG     N4   31  -1.285   0.064  -1.351
    1LIG    C18   32  -1.212   0.118  -1.237
    1LIG    C19   33  -1.193   0.001  -1.143
    1LIG    C20   34  -1.312  -0.089  -1.172
    1LIG    C21   35  -1.348  -0.056  -1.314
    1LIG     O4   36  -1.426  -0.124  -1.380
    1LIG    C22   37  -1.136   0.241  -1.794
    1LIG    C23   38  -1.178   0.327  -1.914
    1LIG    C24   39  -1.090   0.280  -2.030
    1LIG    C25   40  -1.027   0.147  -1.986
    1LIG    C26   41  -1.097   0.107  -1.857
    1LIG    C27   42  -1.753   0.619  -1.403
    1LIG    C28   43  -1.873   0.530  -1.392
    1LIG    C29   44  -1.938   0.517  -1.268
    1LIG    C30   45  -2.056   0.444  -1.257
    1LIG    C31   46  -2.111   0.383  -1.369
    1LIG    C32   47  -2.047   0.394  -1.493
    1LIG    C33   48  -1.928   0.467  -1.504
    1LIG     HC   49  -1.734   0.578  -1.610
    1LIG    HC1   50  -1.500   0.737  -1.529
    1LIG    HC2   51  -1.666   0.712  -1.772
    1LIG    HC3   52  -1.607   0.876  -1.734
    1LIG    HC4   53  -1.289   0.863  -1.767
    1LIG    HC5   54  -1.374   0.853  -1.612
    1LIG    HC6   55  -1.342   0.659  -1.463
    1LIG    HC7   56  -0.976   0.442  -1.518
    1LIG    HC8   57  -0.949   0.544  -1.741
    1LIG    HC9   58  -1.118   0.703  -1.827
    1LIG   HC10   59  -1.513   0.169  -1.430
    1LIG   HC11   60  -1.375   0.364  -1.781
    1LIG   HC12   61  -1.270   0.196  -1.189
    1LIG   HC13   62  -1.116   0.156  -1.269
    1LIG   HC14   63  -1.100  -0.051  -1.164
    1LIG   HC15   64  -1.195   0.034  -1.040
    1LIG   HC16   65  -1.395  -0.066  -1.105
    1LIG   HC17   66  -1.283  -0.194  -1.162
    1LIG   HC18   67  -1.046   0.285  -1.752
    1LIG   HC19   68  -1.159   0.433  -1.893
    1LIG   HC20   69  -1.283   0.312  -1.937
    1LIG   HC21   70  -1.151   0.265  -2.119
    1LIG   HC22   71  -1.012   0.353  -2.050
    1LIG   HC23   72  -1.043   0.071  -2.063
    1LIG   HC24   73  -0.920   0.161  -1.968
    1LIG   HC25   74  -1.030   0.052  -1.792
    1LIG   HC26   75  -1.186   0.048  -1.879
    1LIG   HC27   76  -1.690   0.600  -1.316
    1LIG   HC28   77  -1.786   0.723  -1.399
    1LIG   HC29   78  -1.896   0.564  -1.180
    1LIG   HC30   79  -2.105   0.435  -1.161
    1LIG   HC31   80  -2.203   0.327  -1.361
    1LIG   HC32   81  -2.089   0.346  -1.580
    1LIG   HC33   82  -1.879   0.475  -1.599
   0.00000   0.00000   0.00000
