Gravel Rubs Often Many Awfully Cauterized Sores
   59
    1LIG      S    1  -1.868   0.691  -1.475
    1LIG     O1    2  -1.770   0.752  -1.389
    1LIG     O2    3  -2.010   0.695  -1.456
    1LIG     N1    4  -1.837   0.740  -1.634
    1LIG     C1    5  -1.719   0.668  -1.687
    1LIG     C2    6  -1.694   0.537  -1.601
    1LIG     N2    7  -1.815   0.534  -1.512
    1LIG     C3    8  -1.561   0.549  -1.523
    1LIG     C4    9  -1.434   0.532  -1.607
    1LIG     N3   10  -1.439   0.401  -1.684
    1LIG     C5   11  -1.563   0.389  -1.770
    1LIG     C6   12  -1.692   0.411  -1.690
    1LIG     C7   13  -1.399   0.645  -1.703
    1LIG     H1   14  -1.923   0.727  -1.687
    1LIG     H2   15  -1.360   0.404  -1.749
    1LIG     C8   16  -1.861   0.430  -1.425
    1LIG     C9   17  -1.947   0.329  -1.467
    1LIG    C10   18  -1.974   0.222  -1.381
    1LIG      F   19  -2.056   0.124  -1.421
    1LIG    C11   20  -1.915   0.213  -1.255
    1LIG    C12   21  -1.826   0.312  -1.214
    1LIG    C13   22  -1.800   0.420  -1.299
    1LIG    C14   23  -1.409   0.276  -1.601
    1LIG    C15   24  -1.283   0.287  -1.518
    1LIG    C16   25  -1.162   0.228  -1.560
    1LIG    C17   26  -1.051   0.224  -1.475
    1LIG    C18   27  -1.057   0.290  -1.353
    1LIG    C19   28  -1.173   0.355  -1.312
    1LIG    C20   29  -1.287   0.351  -1.393
    1LIG     O3   30  -0.937   0.151  -1.494
    1LIG    C21   31  -0.894   0.059  -1.394
    1LIG    C22   32  -0.994  -0.054  -1.373
    1LIG    HC2   33  -1.737   0.640  -1.791
    1LIG    HC3   34  -1.632   0.732  -1.682
    1LIG    HC4   35  -1.559   0.648  -1.477
    1LIG    HC5   36  -1.561   0.475  -1.444
    1LIG     HC   37  -1.351   0.523  -1.536
    1LIG    HC6   38  -1.566   0.290  -1.814
    1LIG    HC7   39  -1.558   0.464  -1.849
    1LIG    HC8   40  -1.774   0.418  -1.761
    1LIG    HC9   41  -1.708   0.323  -1.627
    1LIG    HC1   42  -1.291   0.648  -1.718
    1LIG   HC10   43  -1.448   0.627  -1.799
    1LIG   HC11   44  -1.433   0.740  -1.662
    1LIG   HC12   45  -1.992   0.333  -1.564
    1LIG   HC13   46  -1.938   0.130  -1.190
    1LIG   HC14   47  -1.778   0.305  -1.118
    1LIG   HC15   48  -1.731   0.497  -1.267
    1LIG   HC16   49  -1.493   0.257  -1.534
    1LIG   HC17   50  -1.399   0.191  -1.668
    1LIG   HC18   51  -1.155   0.185  -1.659
    1LIG   HC19   52  -0.970   0.291  -1.289
    1LIG   HC20   53  -1.175   0.409  -1.218
    1LIG   HC21   54  -1.378   0.397  -1.359
    1LIG   HC22   55  -0.799   0.016  -1.425
    1LIG   HC23   56  -0.880   0.112  -1.300
    1LIG   HC24   57  -0.942  -0.142  -1.335
    1LIG   HC25   58  -1.069  -0.023  -1.301
    1LIG   HC26   59  -1.042  -0.079  -1.467
   0.00000   0.00000   0.00000
