Good ROcking Metal Altar for Chronical Sinners
   56
    1LIG     C1    1  -1.221   0.589  -1.785
    1LIG     N1    2  -1.276   0.709  -1.870
    1LIG     C2    3  -1.210   0.822  -1.875
    1LIG     C3    4  -1.080   0.794  -1.828
    1LIG     C4    5  -1.078   0.660  -1.791
    1LIG     C5    6  -0.953   0.600  -1.775
    1LIG     C6    7  -0.836   0.677  -1.786
    1LIG     C7    8  -0.843   0.815  -1.816
    1LIG     C8    9  -0.967   0.873  -1.839
    1LIG     F1   10  -0.977   1.000  -1.879
    1LIG     H1   11  -1.364   0.702  -1.921
    1LIG     C9   12  -1.194   0.539  -1.629
    1LIG    C10   13  -1.209   0.620  -1.515
    1LIG    C11   14  -1.202   0.564  -1.387
    1LIG    C12   15  -1.180   0.427  -1.371
    1LIG     F2   16  -1.177   0.380  -1.245
    1LIG    C13   17  -1.162   0.340  -1.480
    1LIG    C14   18  -1.163   0.400  -1.608
    1LIG    C15   19  -1.148   0.193  -1.459
    1LIG    C16   20  -1.053   0.134  -1.378
    1LIG     N2   21  -1.037   0.001  -1.359
    1LIG    C17   22  -1.122  -0.079  -1.425
    1LIG    HN1   23  -0.964  -0.037  -1.299
    1LIG     N3   24  -1.219  -0.036  -1.507
    1LIG    C18   25  -1.229   0.098  -1.521
    1LIG    HN2   26  -1.282  -0.100  -1.555
    1LIG    C19   27  -1.374   0.602  -1.730
    1LIG    C20   28  -1.441   0.482  -1.699
    1LIG    C21   29  -1.557   0.489  -1.621
    1LIG     N4   30  -1.618   0.608  -1.594
    1LIG    C22   31  -1.561   0.722  -1.637
    1LIG    HN3   32  -1.707   0.611  -1.543
    1LIG    C23   33  -1.440   0.725  -1.703
    1LIG    C24   34  -1.603   0.364  -1.548
    1LIG     F3   35  -1.505   0.313  -1.467
    1LIG     F4   36  -1.709   0.388  -1.465
    1LIG     F5   37  -1.639   0.262  -1.630
    1LIG     N5   38  -1.251   0.936  -1.924
    1LIG     H2   39  -1.216   1.023  -1.885
    1LIG     H3   40  -1.321   0.941  -1.998
    1LIG     HC   41  -0.946   0.494  -1.753
    1LIG    HC1   42  -0.740   0.630  -1.771
    1LIG    HC2   43  -0.753   0.874  -1.822
    1LIG    HC3   44  -1.226   0.726  -1.526
    1LIG    HC4   45  -1.214   0.627  -1.300
    1LIG    HC5   46  -1.141   0.338  -1.694
    1LIG    HC6   47  -0.985   0.200  -1.325
    1LIG    HC7   48  -1.112  -0.185  -1.411
    1LIG    HC8   49  -1.307   0.135  -1.587
    1LIG    HC9   50  -1.404   0.387  -1.734
    1LIG   HC10   51  -1.612   0.816  -1.619
    1LIG   HC11   52  -1.396   0.819  -1.733
    1LIG    H19   53  -1.243   0.850  -1.775
    1LIG    H20   54  -0.983   0.130  -1.462
    1LIG    H21   55  -1.054  -0.083  -1.509
    1LIG    H22   56  -1.622   0.469  -1.707
   0.00000   0.00000   0.00000
