; Created by cgenff_charmm2gmx.py

[ moleculetype ]
; Name			   nrexcl
LIG				 3

[ atoms ]
;	 nr		  type	resnr residue  atom   cgnr	   charge		mass  typeB    chargeB		massB
; residue	 1 LIG rtp LIG q	qsum
     1     CG3C50      1    LIG     C1      1      1.457     12.011   ;
     2     NG3C51      1    LIG     N1      2     -0.814     14.007   ;
     3     CG3C51      1    LIG     C2      3      0.296     12.011   ;
     4     CG2RC0      1    LIG     C3      4     -0.166     12.011   ;
     5     CG2RC0      1    LIG     C4      5     -0.703     12.011   ;
     6     CG2R61      1    LIG     C5      6     -0.199     12.011   ;
     7     CG2R61      1    LIG     C6      7     -0.288     12.011   ;
     8     CG2R61      1    LIG     C7      8     -0.088     12.011   ;
     9     CG2R66      1    LIG     C8      9      0.188     12.011   ;
    10       FGR1      1    LIG     F1     10     -0.165     18.998   ;
    11       HGP1      1    LIG     H1     11      0.286      1.008   ;
    12     CG2R61      1    LIG     C9     12     -0.022     12.011   ;
    13     CG2R61      1    LIG    C10     13     -0.216     12.011   ;
    14     CG2R61      1    LIG    C11     14     -0.075     12.011   ;
    15     CG2R66      1    LIG    C12     15      0.002     12.011   ;
    16       FGR1      1    LIG     F2     16     -0.169     18.998   ;
    17     CG2R61      1    LIG    C13     17      0.172     12.011   ;
    18     CG2R61      1    LIG    C14     18     -0.217     12.011   ;
    19     CG2DC1      1    LIG    C15     19     -0.127     12.011   ;
    20      CG321      1    LIG    C16     20      0.021     12.011   ;
    21      NG311      1    LIG     N2     21     -0.656     14.007   ;
    22      CG321      1    LIG    C17     22      0.131     12.011   ;
    23     HGPAM1      1    LIG    HN1     23      0.367      1.008   ;
    24      NG311      1    LIG     N3     24     -0.598     14.007   ;
    25     CG2D1O      1    LIG    C18     25     -0.097     12.011   ;
    26     HGPAM1      1    LIG    HN2     26      0.406      1.008   ;
    27     CG2DC1      1    LIG    C19     27      0.127     12.011   ;
    28     CG2DC1      1    LIG    C20     28     -0.328     12.011   ;
    29      CG311      1    LIG    C21     29      0.389     12.011   ;
    30      NG311      1    LIG     N4     30     -0.509     14.007   ;
    31     CG2D2O      1    LIG    C22     31     -0.054     12.011   ;
    32     HGPAM1      1    LIG    HN3     32      0.360      1.008   ;
    33     CG2DC2      1    LIG    C23     33     -0.372     12.011   ;
    34      CG302      1    LIG    C24     34      0.119     12.011   ;
    35       FGA3      1    LIG     F3     35     -0.098     18.998   ;
    36       FGA3      1    LIG     F4     36     -0.098     18.998   ;
    37       FGA3      1    LIG     F5     37     -0.098     18.998   ;
    38      NG321      1    LIG     N5     38     -0.998     14.007   ;
    39     HGPAM2      1    LIG     H2     39      0.379      1.008   ;
    40     HGPAM2      1    LIG     H3     40      0.379      1.008   ;
    41      HGR61      1    LIG     HC     41      0.189      1.008   ;
    42      HGR61      1    LIG    HC1     42      0.134      1.008   ;
    43      HGR62      1    LIG    HC2     43      0.166      1.008   ;
    44      HGR61      1    LIG    HC3     44      0.116      1.008   ;
    45      HGR62      1    LIG    HC4     45      0.179      1.008   ;
    46      HGR61      1    LIG    HC5     46      0.116      1.008   ;
    47       HGA2      1    LIG    HC6     47      0.090      1.008   ;
    48       HGA2      1    LIG    HC7     48      0.090      1.008   ;
    49       HGA4      1    LIG    HC8     49      0.148      1.008   ;
    50       HGA4      1    LIG    HC9     50      0.150      1.008   ;
    51       HGA4      1    LIG   HC10     51      0.162      1.008   ;
    52       HGA4      1    LIG   HC11     52      0.150      1.008   ;
    53       HGA1      1    LIG    H19     53      0.116      1.008   ;
    54       HGA2      1    LIG    H20     54      0.090      1.008   ;
    55       HGA2      1    LIG    H21     55      0.090      1.008   ;
    56       HGA1      1    LIG    H22     56      0.090      1.008   ;

[ bonds ]
;	ai	  aj funct			  c0			c1			  c2			c3
    1     5	 1 ;      CG3C50     CG2RC0
    1     2	 1 ;      CG3C50     NG3C51
    1    12	 1 ;      CG3C50     CG2R61
    1    27	 1 ;      CG3C50     CG2DC1
    2     3	 1 ;      NG3C51     CG3C51
    2    11	 1 ;      NG3C51       HGP1
    3     4	 1 ;      CG3C51     CG2RC0
    3    38	 1 ;      CG3C51      NG321
    3    53	 1 ;      CG3C51       HGA1
    4     9	 1 ;      CG2RC0     CG2R66
    4     5	 1 ;      CG2RC0     CG2RC0
    5     6	 1 ;      CG2RC0     CG2R61
    6     7	 1 ;      CG2R61     CG2R61
    6    41	 1 ;      CG2R61      HGR61
    7     8	 1 ;      CG2R61     CG2R61
    7    42	 1 ;      CG2R61      HGR61
    8     9	 1 ;      CG2R61     CG2R66
    8    43	 1 ;      CG2R61      HGR62
    9    10	 1 ;      CG2R66       FGR1
   12    18	 1 ;      CG2R61     CG2R61
   12    13	 1 ;      CG2R61     CG2R61
   13    14	 1 ;      CG2R61     CG2R61
   13    44	 1 ;      CG2R61      HGR61
   14    15	 1 ;      CG2R61     CG2R66
   14    45	 1 ;      CG2R61      HGR62
   15    17	 1 ;      CG2R66     CG2R61
   15    16	 1 ;      CG2R66       FGR1
   17    18	 1 ;      CG2R61     CG2R61
   17    19	 1 ;      CG2R61     CG2DC1
   18    46	 1 ;      CG2R61      HGR61
   19    20	 1 ;      CG2DC1      CG321
   19    25	 1 ;      CG2DC1     CG2D1O
   20    21	 1 ;       CG321      NG311
   20    47	 1 ;       CG321       HGA2
   20    54	 1 ;       CG321       HGA2
   21    23	 1 ;       NG311     HGPAM1
   21    22	 1 ;       NG311      CG321
   22    24	 1 ;       CG321      NG311
   22    48	 1 ;       CG321       HGA2
   22    55	 1 ;       CG321       HGA2
   24    25	 1 ;       NG311     CG2D1O
   24    26	 1 ;       NG311     HGPAM1
   25    49	 1 ;      CG2D1O       HGA4
   27    33	 1 ;      CG2DC1     CG2DC2
   27    28	 1 ;      CG2DC1     CG2DC1
   28    29	 1 ;      CG2DC1      CG311
   28    50	 1 ;      CG2DC1       HGA4
   29    30	 1 ;       CG311      NG311
   29    34	 1 ;       CG311      CG302
   29    56	 1 ;       CG311       HGA1
   30    31	 1 ;       NG311     CG2D2O
   30    32	 1 ;       NG311     HGPAM1
   31    33	 1 ;      CG2D2O     CG2DC2
   31    51	 1 ;      CG2D2O       HGA4
   33    52	 1 ;      CG2DC2       HGA4
   34    35	 1 ;       CG302       FGA3
   34    37	 1 ;       CG302       FGA3
   34    36	 1 ;       CG302       FGA3
   38    39	 1 ;       NG321     HGPAM2
   38    40	 1 ;       NG321     HGPAM2

[ pairs ]
;	ai	  aj funct			  c0			c1			  c2			c3
    1    38	 1
    1    53	 1
    1     9	 1
    1     7	 1
    1    41	 1
    1    17	 1
    1    46	 1
    1    14	 1
    1    44	 1
    1    31	 1
    1    52	 1
    1    29	 1
    1    50	 1
    2     6	 1
    2    18	 1
    2    13	 1
    2    33	 1
    2    28	 1
    2     9	 1
    2    39	 1
    2    40	 1
    3    12	 1
    3    27	 1
    3     8	 1
    3    10	 1
    3     6	 1
    4    12	 1
    4    27	 1
    4    11	 1
    4    39	 1
    4    40	 1
    4     7	 1
    4    41	 1
    4    43	 1
    5    11	 1
    5    18	 1
    5    13	 1
    5    33	 1
    5    28	 1
    5    38	 1
    5    53	 1
    5     8	 1
    5    10	 1
    5    42	 1
    6    12	 1
    6    27	 1
    6     9	 1
    6    43	 1
    7    10	 1
    8    41	 1
    9    38	 1
    9    53	 1
    9    42	 1
   10    43	 1
   11    12	 1
   11    27	 1
   11    38	 1
   11    53	 1
   12    33	 1
   12    28	 1
   12    15	 1
   12    45	 1
   12    19	 1
   13    27	 1
   13    17	 1
   13    46	 1
   13    16	 1
   14    18	 1
   14    19	 1
   15    44	 1
   15    46	 1
   15    20	 1
   15    25	 1
   16    45	 1
   16    18	 1
   16    19	 1
   17    45	 1
   17    21	 1
   17    47	 1
   17    54	 1
   17    24	 1
   17    49	 1
   18    27	 1
   18    44	 1
   18    20	 1
   18    25	 1
   19    46	 1
   19    23	 1
   19    22	 1
   19    26	 1
   20    24	 1
   20    49	 1
   20    48	 1
   20    55	 1
   21    25	 1
   21    26	 1
   22    47	 1
   22    54	 1
   22    49	 1
   23    47	 1
   23    54	 1
   23    24	 1
   23    48	 1
   23    55	 1
   25    47	 1
   25    54	 1
   25    48	 1
   25    55	 1
   26    48	 1
   26    55	 1
   26    49	 1
   27    30	 1
   27    34	 1
   27    56	 1
   27    51	 1
   28    31	 1
   28    52	 1
   28    32	 1
   28    35	 1
   28    37	 1
   28    36	 1
   29    33	 1
   29    51	 1
   30    50	 1
   30    35	 1
   30    37	 1
   30    36	 1
   30    52	 1
   31    34	 1
   31    56	 1
   32    34	 1
   32    56	 1
   32    33	 1
   32    51	 1
   33    50	 1
   34    50	 1
   35    56	 1
   36    56	 1
   37    56	 1
   39    53	 1
   40    53	 1
   41    42	 1
   42    43	 1
   44    45	 1
   50    56	 1
   51    52	 1

[ angles ]
;	ai	  aj	ak funct			c0			  c1			c2			  c3
    5     1     2	5 ;     CG2RC0     CG3C50     NG3C51
    5     1    12	5 ;     CG2RC0     CG3C50     CG2R61
    5     1    27	5 ;     CG2RC0     CG3C50     CG2DC1
    2     1    12	5 ;     NG3C51     CG3C50     CG2R61
    2     1    27	5 ;     NG3C51     CG3C50     CG2DC1
   12     1    27	5 ;     CG2R61     CG3C50     CG2DC1
    3     2     1	5 ;     CG3C51     NG3C51     CG3C50
    3     2    11	5 ;     CG3C51     NG3C51       HGP1
    1     2    11	5 ;     CG3C50     NG3C51       HGP1
    4     3    38	5 ;     CG2RC0     CG3C51      NG321
    4     3     2	5 ;     CG2RC0     CG3C51     NG3C51
    4     3    53	5 ;     CG2RC0     CG3C51       HGA1
   38     3     2	5 ;      NG321     CG3C51     NG3C51
   38     3    53	5 ;      NG321     CG3C51       HGA1
    2     3    53	5 ;     NG3C51     CG3C51       HGA1
    9     4     5	5 ;     CG2R66     CG2RC0     CG2RC0
    9     4     3	5 ;     CG2R66     CG2RC0     CG3C51
    5     4     3	5 ;     CG2RC0     CG2RC0     CG3C51
    6     5     4	5 ;     CG2R61     CG2RC0     CG2RC0
    6     5     1	5 ;     CG2R61     CG2RC0     CG3C50
    4     5     1	5 ;     CG2RC0     CG2RC0     CG3C50
    7     6     5	5 ;     CG2R61     CG2R61     CG2RC0
    7     6    41	5 ;     CG2R61     CG2R61      HGR61
    5     6    41	5 ;     CG2RC0     CG2R61      HGR61
    8     7     6	5 ;     CG2R61     CG2R61     CG2R61
    8     7    42	5 ;     CG2R61     CG2R61      HGR61
    6     7    42	5 ;     CG2R61     CG2R61      HGR61
    7     8     9	5 ;     CG2R61     CG2R61     CG2R66
    7     8    43	5 ;     CG2R61     CG2R61      HGR62
    9     8    43	5 ;     CG2R66     CG2R61      HGR62
    8     9    10	5 ;     CG2R61     CG2R66       FGR1
    8     9     4	5 ;     CG2R61     CG2R66     CG2RC0
   10     9     4	5 ;       FGR1     CG2R66     CG2RC0
    1    12    18	5 ;     CG3C50     CG2R61     CG2R61
    1    12    13	5 ;     CG3C50     CG2R61     CG2R61
   18    12    13	5 ;     CG2R61     CG2R61     CG2R61
   12    13    14	5 ;     CG2R61     CG2R61     CG2R61
   12    13    44	5 ;     CG2R61     CG2R61      HGR61
   14    13    44	5 ;     CG2R61     CG2R61      HGR61
   13    14    15	5 ;     CG2R61     CG2R61     CG2R66
   13    14    45	5 ;     CG2R61     CG2R61      HGR62
   15    14    45	5 ;     CG2R66     CG2R61      HGR62
   17    15    14	5 ;     CG2R61     CG2R66     CG2R61
   17    15    16	5 ;     CG2R61     CG2R66       FGR1
   14    15    16	5 ;     CG2R61     CG2R66       FGR1
   18    17    19	5 ;     CG2R61     CG2R61     CG2DC1
   18    17    15	5 ;     CG2R61     CG2R61     CG2R66
   19    17    15	5 ;     CG2DC1     CG2R61     CG2R66
   12    18    17	5 ;     CG2R61     CG2R61     CG2R61
   12    18    46	5 ;     CG2R61     CG2R61      HGR61
   17    18    46	5 ;     CG2R61     CG2R61      HGR61
   17    19    20	5 ;     CG2R61     CG2DC1      CG321
   17    19    25	5 ;     CG2R61     CG2DC1     CG2D1O
   20    19    25	5 ;      CG321     CG2DC1     CG2D1O
   19    20    21	5 ;     CG2DC1      CG321      NG311
   19    20    47	5 ;     CG2DC1      CG321       HGA2
   19    20    54	5 ;     CG2DC1      CG321       HGA2
   21    20    47	5 ;      NG311      CG321       HGA2
   21    20    54	5 ;      NG311      CG321       HGA2
   47    20    54	5 ;       HGA2      CG321       HGA2
   20    21    23	5 ;      CG321      NG311     HGPAM1
   20    21    22	5 ;      CG321      NG311      CG321
   23    21    22	5 ;     HGPAM1      NG311      CG321
   21    22    24	5 ;      NG311      CG321      NG311
   21    22    48	5 ;      NG311      CG321       HGA2
   21    22    55	5 ;      NG311      CG321       HGA2
   24    22    48	5 ;      NG311      CG321       HGA2
   24    22    55	5 ;      NG311      CG321       HGA2
   48    22    55	5 ;       HGA2      CG321       HGA2
   25    24    22	5 ;     CG2D1O      NG311      CG321
   25    24    26	5 ;     CG2D1O      NG311     HGPAM1
   22    24    26	5 ;      CG321      NG311     HGPAM1
   19    25    24	5 ;     CG2DC1     CG2D1O      NG311
   19    25    49	5 ;     CG2DC1     CG2D1O       HGA4
   24    25    49	5 ;      NG311     CG2D1O       HGA4
    1    27    33	5 ;     CG3C50     CG2DC1     CG2DC2
    1    27    28	5 ;     CG3C50     CG2DC1     CG2DC1
   33    27    28	5 ;     CG2DC2     CG2DC1     CG2DC1
   27    28    29	5 ;     CG2DC1     CG2DC1      CG311
   27    28    50	5 ;     CG2DC1     CG2DC1       HGA4
   29    28    50	5 ;      CG311     CG2DC1       HGA4
   28    29    30	5 ;     CG2DC1      CG311      NG311
   28    29    34	5 ;     CG2DC1      CG311      CG302
   28    29    56	5 ;     CG2DC1      CG311       HGA1
   30    29    34	5 ;      NG311      CG311      CG302
   30    29    56	5 ;      NG311      CG311       HGA1
   34    29    56	5 ;      CG302      CG311       HGA1
   31    30    29	5 ;     CG2D2O      NG311      CG311
   31    30    32	5 ;     CG2D2O      NG311     HGPAM1
   29    30    32	5 ;      CG311      NG311     HGPAM1
   33    31    30	5 ;     CG2DC2     CG2D2O      NG311
   33    31    51	5 ;     CG2DC2     CG2D2O       HGA4
   30    31    51	5 ;      NG311     CG2D2O       HGA4
   27    33    31	5 ;     CG2DC1     CG2DC2     CG2D2O
   27    33    52	5 ;     CG2DC1     CG2DC2       HGA4
   31    33    52	5 ;     CG2D2O     CG2DC2       HGA4
   29    34    35	5 ;      CG311      CG302       FGA3
   29    34    37	5 ;      CG311      CG302       FGA3
   29    34    36	5 ;      CG311      CG302       FGA3
   35    34    37	5 ;       FGA3      CG302       FGA3
   35    34    36	5 ;       FGA3      CG302       FGA3
   37    34    36	5 ;       FGA3      CG302       FGA3
   39    38    40	5 ;     HGPAM2      NG321     HGPAM2
   39    38     3	5 ;     HGPAM2      NG321     CG3C51
   40    38     3	5 ;     HGPAM2      NG321     CG3C51

[ dihedrals ]
;	ai	  aj	ak	  al funct			  c0			c1			  c2			c3			  c4			c5
    2     1     5     6	 9 ;     NG3C51     CG3C50     CG2RC0     CG2R61
    2     1     5     4	 9 ;     NG3C51     CG3C50     CG2RC0     CG2RC0
   12     1     5     6	 9 ;     CG2R61     CG3C50     CG2RC0     CG2R61
   12     1     5     4	 9 ;     CG2R61     CG3C50     CG2RC0     CG2RC0
   27     1     5     6	 9 ;     CG2DC1     CG3C50     CG2RC0     CG2R61
   27     1     5     4	 9 ;     CG2DC1     CG3C50     CG2RC0     CG2RC0
    5     1     2     3	 9 ;     CG2RC0     CG3C50     NG3C51     CG3C51
    5     1     2    11	 9 ;     CG2RC0     CG3C50     NG3C51       HGP1
   12     1     2     3	 9 ;     CG2R61     CG3C50     NG3C51     CG3C51
   12     1     2    11	 9 ;     CG2R61     CG3C50     NG3C51       HGP1
   27     1     2     3	 9 ;     CG2DC1     CG3C50     NG3C51     CG3C51
   27     1     2    11	 9 ;     CG2DC1     CG3C50     NG3C51       HGP1
    5     1    12    18	 9 ;     CG2RC0     CG3C50     CG2R61     CG2R61
    5     1    12    13	 9 ;     CG2RC0     CG3C50     CG2R61     CG2R61
    2     1    12    18	 9 ;     NG3C51     CG3C50     CG2R61     CG2R61
    2     1    12    13	 9 ;     NG3C51     CG3C50     CG2R61     CG2R61
   27     1    12    18	 9 ;     CG2DC1     CG3C50     CG2R61     CG2R61
   27     1    12    13	 9 ;     CG2DC1     CG3C50     CG2R61     CG2R61
    5     1    27    33	 9 ;     CG2RC0     CG3C50     CG2DC1     CG2DC2
    5     1    27    28	 9 ;     CG2RC0     CG3C50     CG2DC1     CG2DC1
    2     1    27    33	 9 ;     NG3C51     CG3C50     CG2DC1     CG2DC2
    2     1    27    28	 9 ;     NG3C51     CG3C50     CG2DC1     CG2DC1
   12     1    27    33	 9 ;     CG2R61     CG3C50     CG2DC1     CG2DC2
   12     1    27    28	 9 ;     CG2R61     CG3C50     CG2DC1     CG2DC1
    1     2     3     4	 9 ;     CG3C50     NG3C51     CG3C51     CG2RC0
    1     2     3    38	 9 ;     CG3C50     NG3C51     CG3C51      NG321
    1     2     3    53	 9 ;     CG3C50     NG3C51     CG3C51       HGA1
   11     2     3     4	 9 ;       HGP1     NG3C51     CG3C51     CG2RC0
   11     2     3    38	 9 ;       HGP1     NG3C51     CG3C51      NG321
   11     2     3    53	 9 ;       HGP1     NG3C51     CG3C51       HGA1
   38     3     4     9	 9 ;      NG321     CG3C51     CG2RC0     CG2R66
   38     3     4     5	 9 ;      NG321     CG3C51     CG2RC0     CG2RC0
    2     3     4     9	 9 ;     NG3C51     CG3C51     CG2RC0     CG2R66
    2     3     4     5	 9 ;     NG3C51     CG3C51     CG2RC0     CG2RC0
   53     3     4     9	 9 ;       HGA1     CG3C51     CG2RC0     CG2R66
   53     3     4     5	 9 ;       HGA1     CG3C51     CG2RC0     CG2RC0
    4     3    38    39	 9 ;     CG2RC0     CG3C51      NG321     HGPAM2
    4     3    38    40	 9 ;     CG2RC0     CG3C51      NG321     HGPAM2
    2     3    38    39	 9 ;     NG3C51     CG3C51      NG321     HGPAM2
    2     3    38    40	 9 ;     NG3C51     CG3C51      NG321     HGPAM2
   53     3    38    39	 9 ;       HGA1     CG3C51      NG321     HGPAM2
   53     3    38    40	 9 ;       HGA1     CG3C51      NG321     HGPAM2
    5     4     9     8	 9 ;     CG2RC0     CG2RC0     CG2R66     CG2R61
    5     4     9    10	 9 ;     CG2RC0     CG2RC0     CG2R66       FGR1
    3     4     9     8	 9 ;     CG3C51     CG2RC0     CG2R66     CG2R61
    3     4     9    10	 9 ;     CG3C51     CG2RC0     CG2R66       FGR1
    9     4     5     6	 9 ;     CG2R66     CG2RC0     CG2RC0     CG2R61
    9     4     5     1	 9 ;     CG2R66     CG2RC0     CG2RC0     CG3C50
    3     4     5     6	 9 ;     CG3C51     CG2RC0     CG2RC0     CG2R61
    3     4     5     1	 9 ;     CG3C51     CG2RC0     CG2RC0     CG3C50
    4     5     6     7	 9 ;     CG2RC0     CG2RC0     CG2R61     CG2R61
    4     5     6    41	 9 ;     CG2RC0     CG2RC0     CG2R61      HGR61
    1     5     6     7	 9 ;     CG3C50     CG2RC0     CG2R61     CG2R61
    1     5     6    41	 9 ;     CG3C50     CG2RC0     CG2R61      HGR61
    5     6     7     8	 9 ;     CG2RC0     CG2R61     CG2R61     CG2R61
    5     6     7    42	 9 ;     CG2RC0     CG2R61     CG2R61      HGR61
   41     6     7     8	 9 ;      HGR61     CG2R61     CG2R61     CG2R61
   41     6     7    42	 9 ;      HGR61     CG2R61     CG2R61      HGR61
    6     7     8     9	 9 ;     CG2R61     CG2R61     CG2R61     CG2R66
    6     7     8    43	 9 ;     CG2R61     CG2R61     CG2R61      HGR62
   42     7     8     9	 9 ;      HGR61     CG2R61     CG2R61     CG2R66
   42     7     8    43	 9 ;      HGR61     CG2R61     CG2R61      HGR62
    7     8     9    10	 9 ;     CG2R61     CG2R61     CG2R66       FGR1
    7     8     9     4	 9 ;     CG2R61     CG2R61     CG2R66     CG2RC0
   43     8     9    10	 9 ;      HGR62     CG2R61     CG2R66       FGR1
   43     8     9     4	 9 ;      HGR62     CG2R61     CG2R66     CG2RC0
    1    12    18    17	 9 ;     CG3C50     CG2R61     CG2R61     CG2R61
    1    12    18    46	 9 ;     CG3C50     CG2R61     CG2R61      HGR61
   13    12    18    17	 9 ;     CG2R61     CG2R61     CG2R61     CG2R61
   13    12    18    46	 9 ;     CG2R61     CG2R61     CG2R61      HGR61
    1    12    13    14	 9 ;     CG3C50     CG2R61     CG2R61     CG2R61
    1    12    13    44	 9 ;     CG3C50     CG2R61     CG2R61      HGR61
   18    12    13    14	 9 ;     CG2R61     CG2R61     CG2R61     CG2R61
   18    12    13    44	 9 ;     CG2R61     CG2R61     CG2R61      HGR61
   12    13    14    15	 9 ;     CG2R61     CG2R61     CG2R61     CG2R66
   12    13    14    45	 9 ;     CG2R61     CG2R61     CG2R61      HGR62
   44    13    14    15	 9 ;      HGR61     CG2R61     CG2R61     CG2R66
   44    13    14    45	 9 ;      HGR61     CG2R61     CG2R61      HGR62
   13    14    15    17	 9 ;     CG2R61     CG2R61     CG2R66     CG2R61
   13    14    15    16	 9 ;     CG2R61     CG2R61     CG2R66       FGR1
   45    14    15    17	 9 ;      HGR62     CG2R61     CG2R66     CG2R61
   45    14    15    16	 9 ;      HGR62     CG2R61     CG2R66       FGR1
   14    15    17    18	 9 ;     CG2R61     CG2R66     CG2R61     CG2R61
   14    15    17    19	 9 ;     CG2R61     CG2R66     CG2R61     CG2DC1
   16    15    17    18	 9 ;       FGR1     CG2R66     CG2R61     CG2R61
   16    15    17    19	 9 ;       FGR1     CG2R66     CG2R61     CG2DC1
   19    17    18    12	 9 ;     CG2DC1     CG2R61     CG2R61     CG2R61
   19    17    18    46	 9 ;     CG2DC1     CG2R61     CG2R61      HGR61
   15    17    18    12	 9 ;     CG2R66     CG2R61     CG2R61     CG2R61
   15    17    18    46	 9 ;     CG2R66     CG2R61     CG2R61      HGR61
   18    17    19    20	 9 ;     CG2R61     CG2R61     CG2DC1      CG321
   18    17    19    25	 9 ;     CG2R61     CG2R61     CG2DC1     CG2D1O
   15    17    19    20	 9 ;     CG2R66     CG2R61     CG2DC1      CG321
   15    17    19    25	 9 ;     CG2R66     CG2R61     CG2DC1     CG2D1O
   17    19    20    21	 9 ;     CG2R61     CG2DC1      CG321      NG311
   17    19    20    47	 9 ;     CG2R61     CG2DC1      CG321       HGA2
   17    19    20    54	 9 ;     CG2R61     CG2DC1      CG321       HGA2
   25    19    20    21	 9 ;     CG2D1O     CG2DC1      CG321      NG311
   25    19    20    47	 9 ;     CG2D1O     CG2DC1      CG321       HGA2
   25    19    20    54	 9 ;     CG2D1O     CG2DC1      CG321       HGA2
   17    19    25    24	 9 ;     CG2R61     CG2DC1     CG2D1O      NG311
   17    19    25    49	 9 ;     CG2R61     CG2DC1     CG2D1O       HGA4
   20    19    25    24	 9 ;      CG321     CG2DC1     CG2D1O      NG311
   20    19    25    49	 9 ;      CG321     CG2DC1     CG2D1O       HGA4
   19    20    21    23	 9 ;     CG2DC1      CG321      NG311     HGPAM1
   19    20    21    22	 9 ;     CG2DC1      CG321      NG311      CG321
   47    20    21    23	 9 ;       HGA2      CG321      NG311     HGPAM1
   47    20    21    22	 9 ;       HGA2      CG321      NG311      CG321
   54    20    21    23	 9 ;       HGA2      CG321      NG311     HGPAM1
   54    20    21    22	 9 ;       HGA2      CG321      NG311      CG321
   20    21    22    24	 9 ;      CG321      NG311      CG321      NG311
   20    21    22    48	 9 ;      CG321      NG311      CG321       HGA2
   20    21    22    55	 9 ;      CG321      NG311      CG321       HGA2
   23    21    22    24	 9 ;     HGPAM1      NG311      CG321      NG311
   23    21    22    48	 9 ;     HGPAM1      NG311      CG321       HGA2
   23    21    22    55	 9 ;     HGPAM1      NG311      CG321       HGA2
   21    22    24    25	 9 ;      NG311      CG321      NG311     CG2D1O
   21    22    24    26	 9 ;      NG311      CG321      NG311     HGPAM1
   48    22    24    25	 9 ;       HGA2      CG321      NG311     CG2D1O
   48    22    24    26	 9 ;       HGA2      CG321      NG311     HGPAM1
   55    22    24    25	 9 ;       HGA2      CG321      NG311     CG2D1O
   55    22    24    26	 9 ;       HGA2      CG321      NG311     HGPAM1
   22    24    25    19	 9 ;      CG321      NG311     CG2D1O     CG2DC1
   22    24    25    49	 9 ;      CG321      NG311     CG2D1O       HGA4
   26    24    25    19	 9 ;     HGPAM1      NG311     CG2D1O     CG2DC1
   26    24    25    49	 9 ;     HGPAM1      NG311     CG2D1O       HGA4
    1    27    33    31	 9 ;     CG3C50     CG2DC1     CG2DC2     CG2D2O
    1    27    33    52	 9 ;     CG3C50     CG2DC1     CG2DC2       HGA4
   28    27    33    31	 9 ;     CG2DC1     CG2DC1     CG2DC2     CG2D2O
   28    27    33    52	 9 ;     CG2DC1     CG2DC1     CG2DC2       HGA4
    1    27    28    29	 9 ;     CG3C50     CG2DC1     CG2DC1      CG311
    1    27    28    50	 9 ;     CG3C50     CG2DC1     CG2DC1       HGA4
   33    27    28    29	 9 ;     CG2DC2     CG2DC1     CG2DC1      CG311
   33    27    28    50	 9 ;     CG2DC2     CG2DC1     CG2DC1       HGA4
   27    28    29    30	 9 ;     CG2DC1     CG2DC1      CG311      NG311
   27    28    29    34	 9 ;     CG2DC1     CG2DC1      CG311      CG302
   27    28    29    56	 9 ;     CG2DC1     CG2DC1      CG311       HGA1
   50    28    29    30	 9 ;       HGA4     CG2DC1      CG311      NG311
   50    28    29    34	 9 ;       HGA4     CG2DC1      CG311      CG302
   50    28    29    56	 9 ;       HGA4     CG2DC1      CG311       HGA1
   28    29    30    31	 9 ;     CG2DC1      CG311      NG311     CG2D2O
   28    29    30    32	 9 ;     CG2DC1      CG311      NG311     HGPAM1
   34    29    30    31	 9 ;      CG302      CG311      NG311     CG2D2O
   34    29    30    32	 9 ;      CG302      CG311      NG311     HGPAM1
   56    29    30    31	 9 ;       HGA1      CG311      NG311     CG2D2O
   56    29    30    32	 9 ;       HGA1      CG311      NG311     HGPAM1
   28    29    34    35	 9 ;     CG2DC1      CG311      CG302       FGA3
   28    29    34    37	 9 ;     CG2DC1      CG311      CG302       FGA3
   28    29    34    36	 9 ;     CG2DC1      CG311      CG302       FGA3
   30    29    34    35	 9 ;      NG311      CG311      CG302       FGA3
   30    29    34    37	 9 ;      NG311      CG311      CG302       FGA3
   30    29    34    36	 9 ;      NG311      CG311      CG302       FGA3
   56    29    34    35	 9 ;       HGA1      CG311      CG302       FGA3
   56    29    34    37	 9 ;       HGA1      CG311      CG302       FGA3
   56    29    34    36	 9 ;       HGA1      CG311      CG302       FGA3
   29    30    31    33	 9 ;      CG311      NG311     CG2D2O     CG2DC2
   29    30    31    51	 9 ;      CG311      NG311     CG2D2O       HGA4
   32    30    31    33	 9 ;     HGPAM1      NG311     CG2D2O     CG2DC2
   32    30    31    51	 9 ;     HGPAM1      NG311     CG2D2O       HGA4
   30    31    33    27	 9 ;      NG311     CG2D2O     CG2DC2     CG2DC1
   30    31    33    52	 9 ;      NG311     CG2D2O     CG2DC2       HGA4
   51    31    33    27	 9 ;       HGA4     CG2D2O     CG2DC2     CG2DC1
   51    31    33    52	 9 ;       HGA4     CG2D2O     CG2DC2       HGA4

[ dihedrals ]
;	ai	  aj	ak	  al funct			  c0			c1			  c2			c3
   25    19    24    49	 2
   31    33    30    51	 2

