Great Red Owns Many ACres of Sand 
   59
    1LIG     C1    1  -1.570   0.645  -1.672
    1LIG     C2    2  -1.716   0.682  -1.681
    1LIG     N1    3  -1.747   0.740  -1.545
    1LIG     C3    4  -1.613   0.757  -1.467
    1LIG     C4    5  -1.513   0.761  -1.584
    1LIG     C5    6  -1.531   0.914  -1.626
    1LIG     C6    7  -1.498   0.945  -1.770
    1LIG     C7    8  -1.384   0.859  -1.822
    1LIG     C8    9  -1.299   0.807  -1.708
    1LIG     C9   10  -1.361   0.753  -1.589
    1LIG    C10   11  -1.278   0.708  -1.487
    1LIG    C11   12  -1.138   0.721  -1.500
    1LIG    C12   13  -1.080   0.776  -1.615
    1LIG    C13   14  -1.161   0.818  -1.719
    1LIG     H1   15  -1.795   0.830  -1.556
    1LIG     H2   16  -1.810   0.678  -1.492
    1LIG    C14   17  -1.568   0.501  -1.610
    1LIG      O   18  -1.662   0.465  -1.539
    1LIG     N2   19  -1.475   0.408  -1.655
    1LIG    C15   20  -1.500   0.265  -1.631
    1LIG    C16   21  -1.350   0.435  -1.725
    1LIG    C17   22  -1.385   0.193  -1.561
    1LIG    C18   23  -1.249   0.222  -1.629
    1LIG    C19   24  -1.230   0.372  -1.653
    1LIG    C20   25  -1.133   0.163  -1.549
    1LIG    C21   26  -1.122   0.025  -1.529
    1LIG    C22   27  -1.017  -0.029  -1.455
    1LIG    C23   28  -0.921   0.055  -1.398
    1LIG    C24   29  -0.930   0.192  -1.417
    1LIG    C25   30  -1.035   0.247  -1.492
    1LIG     HC   31  -1.524   0.645  -1.771
    1LIG    HC2   32  -1.777   0.593  -1.700
    1LIG    HC3   33  -1.732   0.756  -1.759
    1LIG    HC4   34  -1.611   0.849  -1.408
    1LIG    HC5   35  -1.594   0.670  -1.403
    1LIG    HC6   36  -1.466   0.974  -1.563
    1LIG    HC7   37  -1.634   0.943  -1.607
    1LIG    HC8   38  -1.586   0.928  -1.831
    1LIG    HC9   39  -1.469   1.050  -1.778
    1LIG   HC10   40  -1.322   0.919  -1.889
    1LIG   HC11   41  -1.426   0.775  -1.878
    1LIG    HC1   42  -1.320   0.664  -1.398
    1LIG   HC12   43  -1.075   0.687  -1.420
    1LIG   HC13   44  -0.973   0.787  -1.621
    1LIG   HC14   45  -1.116   0.859  -1.809
    1LIG   HC15   46  -1.589   0.255  -1.569
    1LIG   HC16   47  -1.519   0.216  -1.727
    1LIG   HC17   48  -1.336   0.543  -1.730
    1LIG   HC18   49  -1.356   0.395  -1.826
    1LIG   HC19   50  -1.403   0.086  -1.563
    1LIG   HC20   51  -1.380   0.227  -1.457
    1LIG   HC21   52  -1.250   0.172  -1.726
    1LIG   HC22   53  -1.141   0.387  -1.715
    1LIG   HC23   54  -1.216   0.422  -1.558
    1LIG   HC24   55  -1.196  -0.041  -1.572
    1LIG   HC25   56  -1.009  -0.136  -1.441
    1LIG   HC26   57  -0.841   0.013  -1.339
    1LIG   HC27   58  -0.855   0.257  -1.374
    1LIG   HC28   59  -1.041   0.353  -1.505
   0.00000   0.00000   0.00000
