; Created by cgenff_charmm2gmx.py

[ moleculetype ]
; Name			   nrexcl
LIG				 3

[ atoms ]
;	 nr		  type	resnr residue  atom   cgnr	   charge		mass  typeB    chargeB		massB
; residue	 1 LIG rtp LIG q	qsum
     1     CG3C51      1    LIG     C1      1      0.658     12.011   ;
     2     CG3C54      1    LIG     C2      2     -0.560     12.011   ;
     3      NG3P2      1    LIG     N1      3     -0.146     14.007   ;
     4     CG3C54      1    LIG     C3      4     -0.450     12.011   ;
     5     CG3C50      1    LIG     C4      5     -0.426     12.011   ;
     6      CG321      1    LIG     C5      6     -0.114     12.011   ;
     7      CG321      1    LIG     C6      7     -0.165     12.011   ;
     8      CG321      1    LIG     C7      8     -0.273     12.011   ;
     9     CG2R61      1    LIG     C8      9      0.085     12.011   ;
    10     CG2R61      1    LIG     C9     10     -0.137     12.011   ;
    11     CG2R61      1    LIG    C10     11     -0.126     12.011   ;
    12     CG2R61      1    LIG    C11     12     -0.105     12.011   ;
    13     CG2R61      1    LIG    C12     13     -0.112     12.011   ;
    14     CG2R61      1    LIG    C13     14     -0.112     12.011   ;
    15       HGP2      1    LIG     H1     15      0.341      1.008   ;
    16       HGP2      1    LIG     H2     16      0.341      1.008   ;
    17      CG2O1      1    LIG    C14     17      0.591     12.011   ;
    18      OG2D1      1    LIG      O     18     -0.561     15.999   ;
    19      NG2S0      1    LIG     N2     19     -0.573     14.007   ;
    20      CG321      1    LIG    C15     20      0.138     12.011   ;
    21      CG321      1    LIG    C16     21      0.138     12.011   ;
    22      CG321      1    LIG    C17     22     -0.182     12.011   ;
    23      CG311      1    LIG    C18     23     -0.150     12.011   ;
    24      CG321      1    LIG    C19     24     -0.182     12.011   ;
    25     CG2R61      1    LIG    C20     25      0.034     12.011   ;
    26     CG2R61      1    LIG    C21     26     -0.112     12.011   ;
    27     CG2R61      1    LIG    C22     27     -0.114     12.011   ;
    28     CG2R61      1    LIG    C23     28     -0.116     12.011   ;
    29     CG2R61      1    LIG    C24     29     -0.114     12.011   ;
    30     CG2R61      1    LIG    C25     30     -0.112     12.011   ;
    31       HGA1      1    LIG     HC     31      0.090      1.008   ;
    32       HGA2      1    LIG    HC2     32      0.280      1.008   ;
    33       HGA2      1    LIG    HC3     33      0.280      1.008   ;
    34       HGA2      1    LIG    HC4     34      0.286      1.008   ;
    35       HGA2      1    LIG    HC5     35      0.286      1.008   ;
    36       HGA2      1    LIG    HC6     36      0.090      1.008   ;
    37       HGA2      1    LIG    HC7     37      0.090      1.008   ;
    38       HGA2      1    LIG    HC8     38      0.090      1.008   ;
    39       HGA2      1    LIG    HC9     39      0.090      1.008   ;
    40       HGA2      1    LIG   HC10     40      0.090      1.008   ;
    41       HGA2      1    LIG   HC11     41      0.090      1.008   ;
    42      HGR61      1    LIG    HC1     42      0.116      1.008   ;
    43      HGR61      1    LIG   HC12     43      0.116      1.008   ;
    44      HGR61      1    LIG   HC13     44      0.116      1.008   ;
    45      HGR61      1    LIG   HC14     45      0.116      1.008   ;
    46       HGA2      1    LIG   HC15     46      0.090      1.008   ;
    47       HGA2      1    LIG   HC16     47      0.090      1.008   ;
    48       HGA2      1    LIG   HC17     48      0.090      1.008   ;
    49       HGA2      1    LIG   HC18     49      0.090      1.008   ;
    50       HGA2      1    LIG   HC19     50      0.090      1.008   ;
    51       HGA2      1    LIG   HC20     51      0.090      1.008   ;
    52       HGA1      1    LIG   HC21     52      0.090      1.008   ;
    53       HGA2      1    LIG   HC22     53      0.090      1.008   ;
    54       HGA2      1    LIG   HC23     54      0.090      1.008   ;
    55      HGR61      1    LIG   HC24     55      0.116      1.008   ;
    56      HGR61      1    LIG   HC25     56      0.116      1.008   ;
    57      HGR61      1    LIG   HC26     57      0.116      1.008   ;
    58      HGR61      1    LIG   HC27     58      0.116      1.008   ;
    59      HGR61      1    LIG   HC28     59      0.116      1.008   ;

[ bonds ]
;	ai	  aj funct			  c0			c1			  c2			c3
    1     5	 1 ;      CG3C51     CG3C50
    1     2	 1 ;      CG3C51     CG3C54
    1    17	 1 ;      CG3C51      CG2O1
    1    31	 1 ;      CG3C51       HGA1
    2     3	 1 ;      CG3C54      NG3P2
    2    32	 1 ;      CG3C54       HGA2
    2    33	 1 ;      CG3C54       HGA2
    3     4	 1 ;       NG3P2     CG3C54
    3    15	 1 ;       NG3P2       HGP2
    3    16	 1 ;       NG3P2       HGP2
    4     5	 1 ;      CG3C54     CG3C50
    4    34	 1 ;      CG3C54       HGA2
    4    35	 1 ;      CG3C54       HGA2
    5    10	 1 ;      CG3C50     CG2R61
    5     6	 1 ;      CG3C50      CG321
    6     7	 1 ;       CG321      CG321
    6    36	 1 ;       CG321       HGA2
    6    37	 1 ;       CG321       HGA2
    7     8	 1 ;       CG321      CG321
    7    38	 1 ;       CG321       HGA2
    7    39	 1 ;       CG321       HGA2
    8     9	 1 ;       CG321     CG2R61
    8    40	 1 ;       CG321       HGA2
    8    41	 1 ;       CG321       HGA2
    9    14	 1 ;      CG2R61     CG2R61
    9    10	 1 ;      CG2R61     CG2R61
   10    11	 1 ;      CG2R61     CG2R61
   11    12	 1 ;      CG2R61     CG2R61
   11    42	 1 ;      CG2R61      HGR61
   12    13	 1 ;      CG2R61     CG2R61
   12    43	 1 ;      CG2R61      HGR61
   13    14	 1 ;      CG2R61     CG2R61
   13    44	 1 ;      CG2R61      HGR61
   14    45	 1 ;      CG2R61      HGR61
   17    19	 1 ;       CG2O1      NG2S0
   17    18	 1 ;       CG2O1      OG2D1
   19    21	 1 ;       NG2S0      CG321
   19    20	 1 ;       NG2S0      CG321
   20    22	 1 ;       CG321      CG321
   20    46	 1 ;       CG321       HGA2
   20    47	 1 ;       CG321       HGA2
   21    24	 1 ;       CG321      CG321
   21    48	 1 ;       CG321       HGA2
   21    49	 1 ;       CG321       HGA2
   22    23	 1 ;       CG321      CG311
   22    50	 1 ;       CG321       HGA2
   22    51	 1 ;       CG321       HGA2
   23    24	 1 ;       CG311      CG321
   23    25	 1 ;       CG311     CG2R61
   23    52	 1 ;       CG311       HGA1
   24    53	 1 ;       CG321       HGA2
   24    54	 1 ;       CG321       HGA2
   25    30	 1 ;      CG2R61     CG2R61
   25    26	 1 ;      CG2R61     CG2R61
   26    27	 1 ;      CG2R61     CG2R61
   26    55	 1 ;      CG2R61      HGR61
   27    28	 1 ;      CG2R61     CG2R61
   27    56	 1 ;      CG2R61      HGR61
   28    29	 1 ;      CG2R61     CG2R61
   28    57	 1 ;      CG2R61      HGR61
   29    30	 1 ;      CG2R61     CG2R61
   29    58	 1 ;      CG2R61      HGR61
   30    59	 1 ;      CG2R61      HGR61

[ pairs ]
;	ai	  aj funct			  c0			c1			  c2			c3
    1    15	 1
    1    16	 1
    1    34	 1
    1    35	 1
    1     9	 1
    1    11	 1
    1     7	 1
    1    36	 1
    1    37	 1
    1    21	 1
    1    20	 1
    2    10	 1
    2     6	 1
    2    19	 1
    2    18	 1
    2    34	 1
    2    35	 1
    3    17	 1
    3    31	 1
    3    10	 1
    3     6	 1
    4    17	 1
    4    31	 1
    4    32	 1
    4    33	 1
    4     9	 1
    4    11	 1
    4     7	 1
    4    36	 1
    4    37	 1
    5    32	 1
    5    33	 1
    5    19	 1
    5    18	 1
    5    15	 1
    5    16	 1
    5     8	 1
    5    38	 1
    5    39	 1
    5    14	 1
    5    12	 1
    5    42	 1
    6    17	 1
    6    31	 1
    6    34	 1
    6    35	 1
    6     9	 1
    6    11	 1
    6    40	 1
    6    41	 1
    7    10	 1
    7    14	 1
    8    36	 1
    8    37	 1
    8    13	 1
    8    45	 1
    8    11	 1
    9    38	 1
    9    39	 1
    9    12	 1
    9    42	 1
    9    44	 1
   10    17	 1
   10    31	 1
   10    34	 1
   10    35	 1
   10    36	 1
   10    37	 1
   10    40	 1
   10    41	 1
   10    13	 1
   10    45	 1
   10    43	 1
   11    14	 1
   11    44	 1
   12    45	 1
   13    42	 1
   14    40	 1
   14    41	 1
   14    43	 1
   15    32	 1
   15    33	 1
   15    34	 1
   15    35	 1
   16    32	 1
   16    33	 1
   16    34	 1
   16    35	 1
   17    32	 1
   17    33	 1
   17    24	 1
   17    48	 1
   17    49	 1
   17    22	 1
   17    46	 1
   17    47	 1
   18    31	 1
   18    21	 1
   18    20	 1
   19    31	 1
   19    23	 1
   19    50	 1
   19    51	 1
   19    53	 1
   19    54	 1
   20    24	 1
   20    48	 1
   20    49	 1
   20    25	 1
   20    52	 1
   21    22	 1
   21    46	 1
   21    47	 1
   21    25	 1
   21    52	 1
   22    53	 1
   22    54	 1
   22    30	 1
   22    26	 1
   23    46	 1
   23    47	 1
   23    48	 1
   23    49	 1
   23    29	 1
   23    59	 1
   23    27	 1
   23    55	 1
   24    50	 1
   24    51	 1
   24    30	 1
   24    26	 1
   25    50	 1
   25    51	 1
   25    53	 1
   25    54	 1
   25    28	 1
   25    56	 1
   25    58	 1
   26    52	 1
   26    29	 1
   26    59	 1
   26    57	 1
   27    30	 1
   27    58	 1
   28    55	 1
   28    59	 1
   29    56	 1
   30    52	 1
   30    55	 1
   30    57	 1
   31    32	 1
   31    33	 1
   36    38	 1
   36    39	 1
   37    38	 1
   37    39	 1
   38    40	 1
   38    41	 1
   39    40	 1
   39    41	 1
   42    43	 1
   43    44	 1
   44    45	 1
   46    50	 1
   46    51	 1
   47    50	 1
   47    51	 1
   48    53	 1
   48    54	 1
   49    53	 1
   49    54	 1
   50    52	 1
   51    52	 1
   52    53	 1
   52    54	 1
   55    56	 1
   56    57	 1
   57    58	 1
   58    59	 1

[ angles ]
;	ai	  aj	ak funct			c0			  c1			c2			  c3
    5     1     2	5 ;     CG3C50     CG3C51     CG3C54
    5     1    17	5 ;     CG3C50     CG3C51      CG2O1
    5     1    31	5 ;     CG3C50     CG3C51       HGA1
    2     1    17	5 ;     CG3C54     CG3C51      CG2O1
    2     1    31	5 ;     CG3C54     CG3C51       HGA1
   17     1    31	5 ;      CG2O1     CG3C51       HGA1
    1     2     3	5 ;     CG3C51     CG3C54      NG3P2
    1     2    32	5 ;     CG3C51     CG3C54       HGA2
    1     2    33	5 ;     CG3C51     CG3C54       HGA2
    3     2    32	5 ;      NG3P2     CG3C54       HGA2
    3     2    33	5 ;      NG3P2     CG3C54       HGA2
   32     2    33	5 ;       HGA2     CG3C54       HGA2
    2     3     4	5 ;     CG3C54      NG3P2     CG3C54
    2     3    15	5 ;     CG3C54      NG3P2       HGP2
    2     3    16	5 ;     CG3C54      NG3P2       HGP2
    4     3    15	5 ;     CG3C54      NG3P2       HGP2
    4     3    16	5 ;     CG3C54      NG3P2       HGP2
   15     3    16	5 ;       HGP2      NG3P2       HGP2
    5     4     3	5 ;     CG3C50     CG3C54      NG3P2
    5     4    34	5 ;     CG3C50     CG3C54       HGA2
    5     4    35	5 ;     CG3C50     CG3C54       HGA2
    3     4    34	5 ;      NG3P2     CG3C54       HGA2
    3     4    35	5 ;      NG3P2     CG3C54       HGA2
   34     4    35	5 ;       HGA2     CG3C54       HGA2
   10     5     6	5 ;     CG2R61     CG3C50      CG321
   10     5     1	5 ;     CG2R61     CG3C50     CG3C51
   10     5     4	5 ;     CG2R61     CG3C50     CG3C54
    6     5     1	5 ;      CG321     CG3C50     CG3C51
    6     5     4	5 ;      CG321     CG3C50     CG3C54
    1     5     4	5 ;     CG3C51     CG3C50     CG3C54
    7     6     5	5 ;      CG321      CG321     CG3C50
    7     6    36	5 ;      CG321      CG321       HGA2
    7     6    37	5 ;      CG321      CG321       HGA2
    5     6    36	5 ;     CG3C50      CG321       HGA2
    5     6    37	5 ;     CG3C50      CG321       HGA2
   36     6    37	5 ;       HGA2      CG321       HGA2
    8     7     6	5 ;      CG321      CG321      CG321
    8     7    38	5 ;      CG321      CG321       HGA2
    8     7    39	5 ;      CG321      CG321       HGA2
    6     7    38	5 ;      CG321      CG321       HGA2
    6     7    39	5 ;      CG321      CG321       HGA2
   38     7    39	5 ;       HGA2      CG321       HGA2
    9     8     7	5 ;     CG2R61      CG321      CG321
    9     8    40	5 ;     CG2R61      CG321       HGA2
    9     8    41	5 ;     CG2R61      CG321       HGA2
    7     8    40	5 ;      CG321      CG321       HGA2
    7     8    41	5 ;      CG321      CG321       HGA2
   40     8    41	5 ;       HGA2      CG321       HGA2
   14     9     8	5 ;     CG2R61     CG2R61      CG321
   14     9    10	5 ;     CG2R61     CG2R61     CG2R61
    8     9    10	5 ;      CG321     CG2R61     CG2R61
    9    10    11	5 ;     CG2R61     CG2R61     CG2R61
    9    10     5	5 ;     CG2R61     CG2R61     CG3C50
   11    10     5	5 ;     CG2R61     CG2R61     CG3C50
   12    11    10	5 ;     CG2R61     CG2R61     CG2R61
   12    11    42	5 ;     CG2R61     CG2R61      HGR61
   10    11    42	5 ;     CG2R61     CG2R61      HGR61
   13    12    11	5 ;     CG2R61     CG2R61     CG2R61
   13    12    43	5 ;     CG2R61     CG2R61      HGR61
   11    12    43	5 ;     CG2R61     CG2R61      HGR61
   14    13    12	5 ;     CG2R61     CG2R61     CG2R61
   14    13    44	5 ;     CG2R61     CG2R61      HGR61
   12    13    44	5 ;     CG2R61     CG2R61      HGR61
   13    14     9	5 ;     CG2R61     CG2R61     CG2R61
   13    14    45	5 ;     CG2R61     CG2R61      HGR61
    9    14    45	5 ;     CG2R61     CG2R61      HGR61
    1    17    19	5 ;     CG3C51      CG2O1      NG2S0
    1    17    18	5 ;     CG3C51      CG2O1      OG2D1
   19    17    18	5 ;      NG2S0      CG2O1      OG2D1
   21    19    17	5 ;      CG321      NG2S0      CG2O1
   21    19    20	5 ;      CG321      NG2S0      CG321
   17    19    20	5 ;      CG2O1      NG2S0      CG321
   19    20    22	5 ;      NG2S0      CG321      CG321
   19    20    46	5 ;      NG2S0      CG321       HGA2
   19    20    47	5 ;      NG2S0      CG321       HGA2
   22    20    46	5 ;      CG321      CG321       HGA2
   22    20    47	5 ;      CG321      CG321       HGA2
   46    20    47	5 ;       HGA2      CG321       HGA2
   24    21    19	5 ;      CG321      CG321      NG2S0
   24    21    48	5 ;      CG321      CG321       HGA2
   24    21    49	5 ;      CG321      CG321       HGA2
   19    21    48	5 ;      NG2S0      CG321       HGA2
   19    21    49	5 ;      NG2S0      CG321       HGA2
   48    21    49	5 ;       HGA2      CG321       HGA2
   23    22    20	5 ;      CG311      CG321      CG321
   23    22    50	5 ;      CG311      CG321       HGA2
   23    22    51	5 ;      CG311      CG321       HGA2
   20    22    50	5 ;      CG321      CG321       HGA2
   20    22    51	5 ;      CG321      CG321       HGA2
   50    22    51	5 ;       HGA2      CG321       HGA2
   24    23    25	5 ;      CG321      CG311     CG2R61
   24    23    22	5 ;      CG321      CG311      CG321
   24    23    52	5 ;      CG321      CG311       HGA1
   25    23    22	5 ;     CG2R61      CG311      CG321
   25    23    52	5 ;     CG2R61      CG311       HGA1
   22    23    52	5 ;      CG321      CG311       HGA1
   21    24    23	5 ;      CG321      CG321      CG311
   21    24    53	5 ;      CG321      CG321       HGA2
   21    24    54	5 ;      CG321      CG321       HGA2
   23    24    53	5 ;      CG311      CG321       HGA2
   23    24    54	5 ;      CG311      CG321       HGA2
   53    24    54	5 ;       HGA2      CG321       HGA2
   30    25    23	5 ;     CG2R61     CG2R61      CG311
   30    25    26	5 ;     CG2R61     CG2R61     CG2R61
   23    25    26	5 ;      CG311     CG2R61     CG2R61
   25    26    27	5 ;     CG2R61     CG2R61     CG2R61
   25    26    55	5 ;     CG2R61     CG2R61      HGR61
   27    26    55	5 ;     CG2R61     CG2R61      HGR61
   28    27    26	5 ;     CG2R61     CG2R61     CG2R61
   28    27    56	5 ;     CG2R61     CG2R61      HGR61
   26    27    56	5 ;     CG2R61     CG2R61      HGR61
   29    28    27	5 ;     CG2R61     CG2R61     CG2R61
   29    28    57	5 ;     CG2R61     CG2R61      HGR61
   27    28    57	5 ;     CG2R61     CG2R61      HGR61
   30    29    28	5 ;     CG2R61     CG2R61     CG2R61
   30    29    58	5 ;     CG2R61     CG2R61      HGR61
   28    29    58	5 ;     CG2R61     CG2R61      HGR61
   29    30    25	5 ;     CG2R61     CG2R61     CG2R61
   29    30    59	5 ;     CG2R61     CG2R61      HGR61
   25    30    59	5 ;     CG2R61     CG2R61      HGR61

[ dihedrals ]
;	ai	  aj	ak	  al funct			  c0			c1			  c2			c3			  c4			c5
    2     1     5    10	 9 ;     CG3C54     CG3C51     CG3C50     CG2R61
    2     1     5     6	 9 ;     CG3C54     CG3C51     CG3C50      CG321
    2     1     5     4	 9 ;     CG3C54     CG3C51     CG3C50     CG3C54
   17     1     5    10	 9 ;      CG2O1     CG3C51     CG3C50     CG2R61
   17     1     5     6	 9 ;      CG2O1     CG3C51     CG3C50      CG321
   17     1     5     4	 9 ;      CG2O1     CG3C51     CG3C50     CG3C54
   31     1     5    10	 9 ;       HGA1     CG3C51     CG3C50     CG2R61
   31     1     5     6	 9 ;       HGA1     CG3C51     CG3C50      CG321
   31     1     5     4	 9 ;       HGA1     CG3C51     CG3C50     CG3C54
    5     1     2     3	 9 ;     CG3C50     CG3C51     CG3C54      NG3P2
    5     1     2    32	 9 ;     CG3C50     CG3C51     CG3C54       HGA2
    5     1     2    33	 9 ;     CG3C50     CG3C51     CG3C54       HGA2
   17     1     2     3	 9 ;      CG2O1     CG3C51     CG3C54      NG3P2
   17     1     2    32	 9 ;      CG2O1     CG3C51     CG3C54       HGA2
   17     1     2    33	 9 ;      CG2O1     CG3C51     CG3C54       HGA2
   31     1     2     3	 9 ;       HGA1     CG3C51     CG3C54      NG3P2
   31     1     2    32	 9 ;       HGA1     CG3C51     CG3C54       HGA2
   31     1     2    33	 9 ;       HGA1     CG3C51     CG3C54       HGA2
    5     1    17    19	 9 ;     CG3C50     CG3C51      CG2O1      NG2S0
    5     1    17    18	 9 ;     CG3C50     CG3C51      CG2O1      OG2D1
    2     1    17    19	 9 ;     CG3C54     CG3C51      CG2O1      NG2S0
    2     1    17    18	 9 ;     CG3C54     CG3C51      CG2O1      OG2D1
   31     1    17    19	 9 ;       HGA1     CG3C51      CG2O1      NG2S0
   31     1    17    18	 9 ;       HGA1     CG3C51      CG2O1      OG2D1
    1     2     3     4	 9 ;     CG3C51     CG3C54      NG3P2     CG3C54
    1     2     3    15	 9 ;     CG3C51     CG3C54      NG3P2       HGP2
    1     2     3    16	 9 ;     CG3C51     CG3C54      NG3P2       HGP2
   32     2     3     4	 9 ;       HGA2     CG3C54      NG3P2     CG3C54
   32     2     3    15	 9 ;       HGA2     CG3C54      NG3P2       HGP2
   32     2     3    16	 9 ;       HGA2     CG3C54      NG3P2       HGP2
   33     2     3     4	 9 ;       HGA2     CG3C54      NG3P2     CG3C54
   33     2     3    15	 9 ;       HGA2     CG3C54      NG3P2       HGP2
   33     2     3    16	 9 ;       HGA2     CG3C54      NG3P2       HGP2
    2     3     4     5	 9 ;     CG3C54      NG3P2     CG3C54     CG3C50
    2     3     4    34	 9 ;     CG3C54      NG3P2     CG3C54       HGA2
    2     3     4    35	 9 ;     CG3C54      NG3P2     CG3C54       HGA2
   15     3     4     5	 9 ;       HGP2      NG3P2     CG3C54     CG3C50
   15     3     4    34	 9 ;       HGP2      NG3P2     CG3C54       HGA2
   15     3     4    35	 9 ;       HGP2      NG3P2     CG3C54       HGA2
   16     3     4     5	 9 ;       HGP2      NG3P2     CG3C54     CG3C50
   16     3     4    34	 9 ;       HGP2      NG3P2     CG3C54       HGA2
   16     3     4    35	 9 ;       HGP2      NG3P2     CG3C54       HGA2
    3     4     5    10	 9 ;      NG3P2     CG3C54     CG3C50     CG2R61
    3     4     5     6	 9 ;      NG3P2     CG3C54     CG3C50      CG321
    3     4     5     1	 9 ;      NG3P2     CG3C54     CG3C50     CG3C51
   34     4     5    10	 9 ;       HGA2     CG3C54     CG3C50     CG2R61
   34     4     5     6	 9 ;       HGA2     CG3C54     CG3C50      CG321
   34     4     5     1	 9 ;       HGA2     CG3C54     CG3C50     CG3C51
   35     4     5    10	 9 ;       HGA2     CG3C54     CG3C50     CG2R61
   35     4     5     6	 9 ;       HGA2     CG3C54     CG3C50      CG321
   35     4     5     1	 9 ;       HGA2     CG3C54     CG3C50     CG3C51
    6     5    10     9	 9 ;      CG321     CG3C50     CG2R61     CG2R61
    6     5    10    11	 9 ;      CG321     CG3C50     CG2R61     CG2R61
    1     5    10     9	 9 ;     CG3C51     CG3C50     CG2R61     CG2R61
    1     5    10    11	 9 ;     CG3C51     CG3C50     CG2R61     CG2R61
    4     5    10     9	 9 ;     CG3C54     CG3C50     CG2R61     CG2R61
    4     5    10    11	 9 ;     CG3C54     CG3C50     CG2R61     CG2R61
   10     5     6     7	 9 ;     CG2R61     CG3C50      CG321      CG321
   10     5     6    36	 9 ;     CG2R61     CG3C50      CG321       HGA2
   10     5     6    37	 9 ;     CG2R61     CG3C50      CG321       HGA2
    1     5     6     7	 9 ;     CG3C51     CG3C50      CG321      CG321
    1     5     6    36	 9 ;     CG3C51     CG3C50      CG321       HGA2
    1     5     6    37	 9 ;     CG3C51     CG3C50      CG321       HGA2
    4     5     6     7	 9 ;     CG3C54     CG3C50      CG321      CG321
    4     5     6    36	 9 ;     CG3C54     CG3C50      CG321       HGA2
    4     5     6    37	 9 ;     CG3C54     CG3C50      CG321       HGA2
    5     6     7     8	 9 ;     CG3C50      CG321      CG321      CG321
    5     6     7    38	 9 ;     CG3C50      CG321      CG321       HGA2
    5     6     7    39	 9 ;     CG3C50      CG321      CG321       HGA2
   36     6     7     8	 9 ;       HGA2      CG321      CG321      CG321
   36     6     7    38	 9 ;       HGA2      CG321      CG321       HGA2
   36     6     7    39	 9 ;       HGA2      CG321      CG321       HGA2
   37     6     7     8	 9 ;       HGA2      CG321      CG321      CG321
   37     6     7    38	 9 ;       HGA2      CG321      CG321       HGA2
   37     6     7    39	 9 ;       HGA2      CG321      CG321       HGA2
    6     7     8     9	 9 ;      CG321      CG321      CG321     CG2R61
    6     7     8    40	 9 ;      CG321      CG321      CG321       HGA2
    6     7     8    41	 9 ;      CG321      CG321      CG321       HGA2
   38     7     8     9	 9 ;       HGA2      CG321      CG321     CG2R61
   38     7     8    40	 9 ;       HGA2      CG321      CG321       HGA2
   38     7     8    41	 9 ;       HGA2      CG321      CG321       HGA2
   39     7     8     9	 9 ;       HGA2      CG321      CG321     CG2R61
   39     7     8    40	 9 ;       HGA2      CG321      CG321       HGA2
   39     7     8    41	 9 ;       HGA2      CG321      CG321       HGA2
    7     8     9    14	 9 ;      CG321      CG321     CG2R61     CG2R61
    7     8     9    10	 9 ;      CG321      CG321     CG2R61     CG2R61
   40     8     9    14	 9 ;       HGA2      CG321     CG2R61     CG2R61
   40     8     9    10	 9 ;       HGA2      CG321     CG2R61     CG2R61
   41     8     9    14	 9 ;       HGA2      CG321     CG2R61     CG2R61
   41     8     9    10	 9 ;       HGA2      CG321     CG2R61     CG2R61
    8     9    14    13	 9 ;      CG321     CG2R61     CG2R61     CG2R61
    8     9    14    45	 9 ;      CG321     CG2R61     CG2R61      HGR61
   10     9    14    13	 9 ;     CG2R61     CG2R61     CG2R61     CG2R61
   10     9    14    45	 9 ;     CG2R61     CG2R61     CG2R61      HGR61
   14     9    10    11	 9 ;     CG2R61     CG2R61     CG2R61     CG2R61
   14     9    10     5	 9 ;     CG2R61     CG2R61     CG2R61     CG3C50
    8     9    10    11	 9 ;      CG321     CG2R61     CG2R61     CG2R61
    8     9    10     5	 9 ;      CG321     CG2R61     CG2R61     CG3C50
    9    10    11    12	 9 ;     CG2R61     CG2R61     CG2R61     CG2R61
    9    10    11    42	 9 ;     CG2R61     CG2R61     CG2R61      HGR61
    5    10    11    12	 9 ;     CG3C50     CG2R61     CG2R61     CG2R61
    5    10    11    42	 9 ;     CG3C50     CG2R61     CG2R61      HGR61
   10    11    12    13	 9 ;     CG2R61     CG2R61     CG2R61     CG2R61
   10    11    12    43	 9 ;     CG2R61     CG2R61     CG2R61      HGR61
   42    11    12    13	 9 ;      HGR61     CG2R61     CG2R61     CG2R61
   42    11    12    43	 9 ;      HGR61     CG2R61     CG2R61      HGR61
   11    12    13    14	 9 ;     CG2R61     CG2R61     CG2R61     CG2R61
   11    12    13    44	 9 ;     CG2R61     CG2R61     CG2R61      HGR61
   43    12    13    14	 9 ;      HGR61     CG2R61     CG2R61     CG2R61
   43    12    13    44	 9 ;      HGR61     CG2R61     CG2R61      HGR61
   12    13    14     9	 9 ;     CG2R61     CG2R61     CG2R61     CG2R61
   12    13    14    45	 9 ;     CG2R61     CG2R61     CG2R61      HGR61
   44    13    14     9	 9 ;      HGR61     CG2R61     CG2R61     CG2R61
   44    13    14    45	 9 ;      HGR61     CG2R61     CG2R61      HGR61
    1    17    19    21	 9 ;     CG3C51      CG2O1      NG2S0      CG321
    1    17    19    20	 9 ;     CG3C51      CG2O1      NG2S0      CG321
   18    17    19    21	 9 ;      OG2D1      CG2O1      NG2S0      CG321
   18    17    19    20	 9 ;      OG2D1      CG2O1      NG2S0      CG321
   17    19    21    24	 9 ;      CG2O1      NG2S0      CG321      CG321
   17    19    21    48	 9 ;      CG2O1      NG2S0      CG321       HGA2
   17    19    21    49	 9 ;      CG2O1      NG2S0      CG321       HGA2
   20    19    21    24	 9 ;      CG321      NG2S0      CG321      CG321
   20    19    21    48	 9 ;      CG321      NG2S0      CG321       HGA2
   20    19    21    49	 9 ;      CG321      NG2S0      CG321       HGA2
   21    19    20    22	 9 ;      CG321      NG2S0      CG321      CG321
   21    19    20    46	 9 ;      CG321      NG2S0      CG321       HGA2
   21    19    20    47	 9 ;      CG321      NG2S0      CG321       HGA2
   17    19    20    22	 9 ;      CG2O1      NG2S0      CG321      CG321
   17    19    20    46	 9 ;      CG2O1      NG2S0      CG321       HGA2
   17    19    20    47	 9 ;      CG2O1      NG2S0      CG321       HGA2
   19    20    22    23	 9 ;      NG2S0      CG321      CG321      CG311
   19    20    22    50	 9 ;      NG2S0      CG321      CG321       HGA2
   19    20    22    51	 9 ;      NG2S0      CG321      CG321       HGA2
   46    20    22    23	 9 ;       HGA2      CG321      CG321      CG311
   46    20    22    50	 9 ;       HGA2      CG321      CG321       HGA2
   46    20    22    51	 9 ;       HGA2      CG321      CG321       HGA2
   47    20    22    23	 9 ;       HGA2      CG321      CG321      CG311
   47    20    22    50	 9 ;       HGA2      CG321      CG321       HGA2
   47    20    22    51	 9 ;       HGA2      CG321      CG321       HGA2
   19    21    24    23	 9 ;      NG2S0      CG321      CG321      CG311
   19    21    24    53	 9 ;      NG2S0      CG321      CG321       HGA2
   19    21    24    54	 9 ;      NG2S0      CG321      CG321       HGA2
   48    21    24    23	 9 ;       HGA2      CG321      CG321      CG311
   48    21    24    53	 9 ;       HGA2      CG321      CG321       HGA2
   48    21    24    54	 9 ;       HGA2      CG321      CG321       HGA2
   49    21    24    23	 9 ;       HGA2      CG321      CG321      CG311
   49    21    24    53	 9 ;       HGA2      CG321      CG321       HGA2
   49    21    24    54	 9 ;       HGA2      CG321      CG321       HGA2
   20    22    23    24	 9 ;      CG321      CG321      CG311      CG321
   20    22    23    25	 9 ;      CG321      CG321      CG311     CG2R61
   20    22    23    52	 9 ;      CG321      CG321      CG311       HGA1
   50    22    23    24	 9 ;       HGA2      CG321      CG311      CG321
   50    22    23    25	 9 ;       HGA2      CG321      CG311     CG2R61
   50    22    23    52	 9 ;       HGA2      CG321      CG311       HGA1
   51    22    23    24	 9 ;       HGA2      CG321      CG311      CG321
   51    22    23    25	 9 ;       HGA2      CG321      CG311     CG2R61
   51    22    23    52	 9 ;       HGA2      CG321      CG311       HGA1
   25    23    24    21	 9 ;     CG2R61      CG311      CG321      CG321
   25    23    24    53	 9 ;     CG2R61      CG311      CG321       HGA2
   25    23    24    54	 9 ;     CG2R61      CG311      CG321       HGA2
   22    23    24    21	 9 ;      CG321      CG311      CG321      CG321
   22    23    24    53	 9 ;      CG321      CG311      CG321       HGA2
   22    23    24    54	 9 ;      CG321      CG311      CG321       HGA2
   52    23    24    21	 9 ;       HGA1      CG311      CG321      CG321
   52    23    24    53	 9 ;       HGA1      CG311      CG321       HGA2
   52    23    24    54	 9 ;       HGA1      CG311      CG321       HGA2
   24    23    25    30	 9 ;      CG321      CG311     CG2R61     CG2R61
   24    23    25    26	 9 ;      CG321      CG311     CG2R61     CG2R61
   22    23    25    30	 9 ;      CG321      CG311     CG2R61     CG2R61
   22    23    25    26	 9 ;      CG321      CG311     CG2R61     CG2R61
   52    23    25    30	 9 ;       HGA1      CG311     CG2R61     CG2R61
   52    23    25    26	 9 ;       HGA1      CG311     CG2R61     CG2R61
   23    25    30    29	 9 ;      CG311     CG2R61     CG2R61     CG2R61
   23    25    30    59	 9 ;      CG311     CG2R61     CG2R61      HGR61
   26    25    30    29	 9 ;     CG2R61     CG2R61     CG2R61     CG2R61
   26    25    30    59	 9 ;     CG2R61     CG2R61     CG2R61      HGR61
   30    25    26    27	 9 ;     CG2R61     CG2R61     CG2R61     CG2R61
   30    25    26    55	 9 ;     CG2R61     CG2R61     CG2R61      HGR61
   23    25    26    27	 9 ;      CG311     CG2R61     CG2R61     CG2R61
   23    25    26    55	 9 ;      CG311     CG2R61     CG2R61      HGR61
   25    26    27    28	 9 ;     CG2R61     CG2R61     CG2R61     CG2R61
   25    26    27    56	 9 ;     CG2R61     CG2R61     CG2R61      HGR61
   55    26    27    28	 9 ;      HGR61     CG2R61     CG2R61     CG2R61
   55    26    27    56	 9 ;      HGR61     CG2R61     CG2R61      HGR61
   26    27    28    29	 9 ;     CG2R61     CG2R61     CG2R61     CG2R61
   26    27    28    57	 9 ;     CG2R61     CG2R61     CG2R61      HGR61
   56    27    28    29	 9 ;      HGR61     CG2R61     CG2R61     CG2R61
   56    27    28    57	 9 ;      HGR61     CG2R61     CG2R61      HGR61
   27    28    29    30	 9 ;     CG2R61     CG2R61     CG2R61     CG2R61
   27    28    29    58	 9 ;     CG2R61     CG2R61     CG2R61      HGR61
   57    28    29    30	 9 ;      HGR61     CG2R61     CG2R61     CG2R61
   57    28    29    58	 9 ;      HGR61     CG2R61     CG2R61      HGR61
   28    29    30    25	 9 ;     CG2R61     CG2R61     CG2R61     CG2R61
   28    29    30    59	 9 ;     CG2R61     CG2R61     CG2R61      HGR61
   58    29    30    25	 9 ;      HGR61     CG2R61     CG2R61     CG2R61
   58    29    30    59	 9 ;      HGR61     CG2R61     CG2R61      HGR61

[ dihedrals ]
;	ai	  aj	ak	  al funct			  c0			c1			  c2			c3
   17     1    19    18	 2

