Gallium Rubidium Oxygen Manganese Argon Carbon Silicon
   56
    1LIG     C1    1  -1.354   0.410  -1.722
    1LIG     N1    2  -1.452   0.324  -1.801
    1LIG    HN1    3  -1.505   0.245  -1.766
    1LIG     C2    4  -1.456   0.372  -1.922
    1LIG     N2    5  -1.536   0.320  -2.019
    1LIG     C3    6  -1.366   0.485  -1.946
    1LIG     C4    7  -1.296   0.503  -1.828
    1LIG     C5    8  -1.206   0.609  -1.816
    1LIG     C6    9  -1.192   0.697  -1.924
    1LIG     C7   10  -1.266   0.678  -2.041
    1LIG     C8   11  -1.354   0.570  -2.054
    1LIG     H1   12  -1.508   0.332  -2.116
    1LIG     H2   13  -1.573   0.229  -1.997
    1LIG     C9   14  -1.243   0.323  -1.660
    1LIG    C10   15  -1.134   0.381  -1.593
    1LIG    C11   16  -1.033   0.300  -1.542
    1LIG     N3   17  -1.031   0.166  -1.556
    1LIG    C12   18  -1.136   0.108  -1.621
    1LIG    HN2   19  -0.955   0.111  -1.519
    1LIG    C13   20  -1.243   0.183  -1.670
    1LIG    C14   21  -1.134  -0.042  -1.646
    1LIG     F1   22  -1.052  -0.113  -1.563
    1LIG     F2   23  -1.092  -0.072  -1.773
    1LIG     F3   24  -1.258  -0.100  -1.634
    1LIG    C15   25  -1.436   0.490  -1.618
    1LIG    C16   26  -1.474   0.433  -1.495
    1LIG    C17   27  -1.541   0.506  -1.395
    1LIG    C18   28  -1.573   0.640  -1.422
    1LIG    C19   29  -1.544   0.697  -1.546
    1LIG    C20   30  -1.479   0.622  -1.643
    1LIG    C21   31  -1.576   0.444  -1.266
    1LIG    C22   32  -1.508   0.468  -1.148
    1LIG     N4   33  -1.538   0.414  -1.028
    1LIG    C23   34  -1.643   0.331  -1.028
    1LIG    HN3   35  -1.484   0.435  -0.944
    1LIG     N5   36  -1.718   0.298  -1.134
    1LIG    C24   37  -1.682   0.356  -1.250
    1LIG    HN4   38  -1.796   0.233  -1.127
    1LIG     H3   39  -1.527   0.340  -1.995
    1LIG     H4   40  -1.151   0.621  -1.730
    1LIG     H5   41  -1.126   0.776  -1.917
    1LIG     H6   42  -1.257   0.745  -2.119
    1LIG     H7   43  -1.407   0.554  -2.141
    1LIG     H8   44  -1.130   0.484  -1.580
    1LIG     H9   45  -1.031   0.319  -1.437
    1LIG    H10   46  -0.951   0.328  -1.605
    1LIG    H11   47  -1.323   0.135  -1.715
    1LIG    H12   48  -1.451   0.333  -1.477
    1LIG    H13   49  -1.619   0.697  -1.349
    1LIG    H14   50  -1.571   0.795  -1.565
    1LIG    H15   51  -1.462   0.664  -1.735
    1LIG    H16   52  -1.513   0.574  -1.133
    1LIG    H17   53  -1.415   0.419  -1.169
    1LIG    H18   54  -1.605   0.238  -0.990
    1LIG    H19   55  -1.713   0.391  -0.974
    1LIG    H20   56  -1.738   0.333  -1.334
   0.00000   0.00000   0.00000
