; Created by cgenff_charmm2gmx.py

[ moleculetype ]
; Name			   nrexcl
LIG				 3

[ atoms ]
;	 nr		  type	resnr residue  atom   cgnr	   charge		mass  typeB    chargeB		massB
; residue	 1 LIG rtp LIG q	qsum
     1     CG3C50      1    LIG     C1      1      1.471     12.011   ;
     2     NG3C51      1    LIG     N1      2     -0.814     14.007   ;
     3       HGP1      1    LIG    HN1      3      0.286      1.008   ;
     4     CG3C51      1    LIG     C2      4      0.227     12.011   ;
     5      NG321      1    LIG     N2      5     -0.998     14.007   ;
     6     CG2RC0      1    LIG     C3      6     -0.153     12.011   ;
     7     CG2RC0      1    LIG     C4      7     -0.557     12.011   ;
     8     CG2R61      1    LIG     C5      8     -0.224     12.011   ;
     9     CG2R61      1    LIG     C6      9     -0.198     12.011   ;
    10     CG2R61      1    LIG     C7     10     -0.152     12.011   ;
    11     CG2R61      1    LIG     C8     11     -0.181     12.011   ;
    12     HGPAM2      1    LIG     H1     12      0.379      1.008   ;
    13     HGPAM2      1    LIG     H2     13      0.379      1.008   ;
    14     CG2DC1      1    LIG     C9     14      0.114     12.011   ;
    15     CG2DC1      1    LIG    C10     15     -0.187     12.011   ;
    16      CG321      1    LIG    C11     16     -0.040     12.011   ;
    17      NG311      1    LIG     N3     17     -0.523     14.007   ;
    18     CG2D2O      1    LIG    C12     18      0.307     12.011   ;
    19     HGPAM1      1    LIG    HN2     19      0.324      1.008   ;
    20     CG2DC2      1    LIG    C13     20     -0.364     12.011   ;
    21      CG302      1    LIG    C14     21      0.421     12.011   ;
    22       FGA3      1    LIG     F1     22     -0.176     18.998   ;
    23       FGA3      1    LIG     F2     23     -0.176     18.998   ;
    24       FGA3      1    LIG     F3     24     -0.176     18.998   ;
    25     CG2R61      1    LIG    C15     25     -0.048     12.011   ;
    26     CG2R61      1    LIG    C16     26     -0.185     12.011   ;
    27     CG2R61      1    LIG    C17     27      0.025     12.011   ;
    28     CG2R61      1    LIG    C18     28     -0.120     12.011   ;
    29     CG2R61      1    LIG    C19     29     -0.102     12.011   ;
    30     CG2R61      1    LIG    C20     30     -0.181     12.011   ;
    31     CG2DC1      1    LIG    C21     31     -0.086     12.011   ;
    32      CG321      1    LIG    C22     32      0.013     12.011   ;
    33      NG311      1    LIG     N4     33     -0.656     14.007   ;
    34      CG321      1    LIG    C23     34      0.131     12.011   ;
    35     HGPAM1      1    LIG    HN3     35      0.367      1.008   ;
    36      NG311      1    LIG     N5     36     -0.598     14.007   ;
    37     CG2D1O      1    LIG    C24     37     -0.097     12.011   ;
    38     HGPAM1      1    LIG    HN4     38      0.406      1.008   ;
    39       HGA1      1    LIG     H3     39      0.116      1.008   ;
    40      HGR61      1    LIG     H4     40      0.189      1.008   ;
    41      HGR61      1    LIG     H5     41      0.134      1.008   ;
    42      HGR61      1    LIG     H6     42      0.134      1.008   ;
    43      HGR61      1    LIG     H7     43      0.131      1.008   ;
    44       HGA4      1    LIG     H8     44      0.150      1.008   ;
    45       HGA2      1    LIG     H9     45      0.090      1.008   ;
    46       HGA2      1    LIG    H10     46      0.090      1.008   ;
    47       HGA4      1    LIG    H11     47      0.136      1.008   ;
    48      HGR61      1    LIG    H12     48      0.116      1.008   ;
    49      HGR61      1    LIG    H13     49      0.116      1.008   ;
    50      HGR61      1    LIG    H14     50      0.116      1.008   ;
    51      HGR61      1    LIG    H15     51      0.116      1.008   ;
    52       HGA2      1    LIG    H16     52      0.090      1.008   ;
    53       HGA2      1    LIG    H17     53      0.090      1.008   ;
    54       HGA2      1    LIG    H18     54      0.090      1.008   ;
    55       HGA2      1    LIG    H19     55      0.090      1.008   ;
    56       HGA4      1    LIG    H20     56      0.148      1.008   ;

[ bonds ]
;	ai	  aj funct			  c0			c1			  c2			c3
    1     7	 1 ;      CG3C50     CG2RC0
    1     2	 1 ;      CG3C50     NG3C51
    1    14	 1 ;      CG3C50     CG2DC1
    1    25	 1 ;      CG3C50     CG2R61
    2     4	 1 ;      NG3C51     CG3C51
    2     3	 1 ;      NG3C51       HGP1
    4     5	 1 ;      CG3C51      NG321
    4     6	 1 ;      CG3C51     CG2RC0
    4    39	 1 ;      CG3C51       HGA1
    5    12	 1 ;       NG321     HGPAM2
    5    13	 1 ;       NG321     HGPAM2
    6    11	 1 ;      CG2RC0     CG2R61
    6     7	 1 ;      CG2RC0     CG2RC0
    7     8	 1 ;      CG2RC0     CG2R61
    8     9	 1 ;      CG2R61     CG2R61
    8    40	 1 ;      CG2R61      HGR61
    9    10	 1 ;      CG2R61     CG2R61
    9    41	 1 ;      CG2R61      HGR61
   10    11	 1 ;      CG2R61     CG2R61
   10    42	 1 ;      CG2R61      HGR61
   11    43	 1 ;      CG2R61      HGR61
   14    20	 1 ;      CG2DC1     CG2DC2
   14    15	 1 ;      CG2DC1     CG2DC1
   15    16	 1 ;      CG2DC1      CG321
   15    44	 1 ;      CG2DC1       HGA4
   16    17	 1 ;       CG321      NG311
   16    45	 1 ;       CG321       HGA2
   16    46	 1 ;       CG321       HGA2
   17    18	 1 ;       NG311     CG2D2O
   17    19	 1 ;       NG311     HGPAM1
   18    20	 1 ;      CG2D2O     CG2DC2
   18    21	 1 ;      CG2D2O      CG302
   20    47	 1 ;      CG2DC2       HGA4
   21    23	 1 ;       CG302       FGA3
   21    24	 1 ;       CG302       FGA3
   21    22	 1 ;       CG302       FGA3
   25    30	 1 ;      CG2R61     CG2R61
   25    26	 1 ;      CG2R61     CG2R61
   26    27	 1 ;      CG2R61     CG2R61
   26    48	 1 ;      CG2R61      HGR61
   27    28	 1 ;      CG2R61     CG2R61
   27    31	 1 ;      CG2R61     CG2DC1
   28    29	 1 ;      CG2R61     CG2R61
   28    49	 1 ;      CG2R61      HGR61
   29    30	 1 ;      CG2R61     CG2R61
   29    50	 1 ;      CG2R61      HGR61
   30    51	 1 ;      CG2R61      HGR61
   31    37	 1 ;      CG2DC1     CG2D1O
   31    32	 1 ;      CG2DC1      CG321
   32    33	 1 ;       CG321      NG311
   32    52	 1 ;       CG321       HGA2
   32    53	 1 ;       CG321       HGA2
   33    34	 1 ;       NG311      CG321
   33    35	 1 ;       NG311     HGPAM1
   34    36	 1 ;       CG321      NG311
   34    54	 1 ;       CG321       HGA2
   34    55	 1 ;       CG321       HGA2
   36    37	 1 ;       NG311     CG2D1O
   36    38	 1 ;       NG311     HGPAM1
   37    56	 1 ;      CG2D1O       HGA4

[ pairs ]
;	ai	  aj funct			  c0			c1			  c2			c3
    1     5	 1
    1    39	 1
    1    11	 1
    1     9	 1
    1    40	 1
    1    18	 1
    1    47	 1
    1    16	 1
    1    44	 1
    1    29	 1
    1    51	 1
    1    27	 1
    1    48	 1
    2     8	 1
    2    20	 1
    2    15	 1
    2    30	 1
    2    26	 1
    2    12	 1
    2    13	 1
    2    11	 1
    3     7	 1
    3    14	 1
    3    25	 1
    3     5	 1
    3     6	 1
    3    39	 1
    4    14	 1
    4    25	 1
    4    10	 1
    4    43	 1
    4     8	 1
    5    11	 1
    5     7	 1
    6    14	 1
    6    25	 1
    6    12	 1
    6    13	 1
    6     9	 1
    6    40	 1
    6    42	 1
    7    20	 1
    7    15	 1
    7    30	 1
    7    26	 1
    7    39	 1
    7    10	 1
    7    43	 1
    7    41	 1
    8    14	 1
    8    25	 1
    8    11	 1
    8    42	 1
    9    43	 1
   10    40	 1
   11    39	 1
   11    41	 1
   12    39	 1
   13    39	 1
   14    30	 1
   14    26	 1
   14    17	 1
   14    45	 1
   14    46	 1
   14    21	 1
   15    25	 1
   15    18	 1
   15    47	 1
   15    19	 1
   16    20	 1
   16    21	 1
   17    44	 1
   17    47	 1
   17    23	 1
   17    24	 1
   17    22	 1
   18    45	 1
   18    46	 1
   19    45	 1
   19    46	 1
   19    20	 1
   19    21	 1
   20    25	 1
   20    44	 1
   20    23	 1
   20    24	 1
   20    22	 1
   21    47	 1
   25    28	 1
   25    31	 1
   25    50	 1
   26    29	 1
   26    51	 1
   26    49	 1
   26    37	 1
   26    32	 1
   27    30	 1
   27    50	 1
   27    36	 1
   27    56	 1
   27    33	 1
   27    52	 1
   27    53	 1
   28    48	 1
   28    37	 1
   28    32	 1
   28    51	 1
   29    31	 1
   30    48	 1
   30    49	 1
   31    48	 1
   31    49	 1
   31    34	 1
   31    35	 1
   31    38	 1
   32    36	 1
   32    56	 1
   32    54	 1
   32    55	 1
   33    37	 1
   33    38	 1
   34    52	 1
   34    53	 1
   34    56	 1
   35    52	 1
   35    53	 1
   35    36	 1
   35    54	 1
   35    55	 1
   37    52	 1
   37    53	 1
   37    54	 1
   37    55	 1
   38    54	 1
   38    55	 1
   38    56	 1
   40    41	 1
   41    42	 1
   42    43	 1
   44    45	 1
   44    46	 1
   49    50	 1
   50    51	 1

[ angles ]
;	ai	  aj	ak funct			c0			  c1			c2			  c3
    7     1     2	5 ;     CG2RC0     CG3C50     NG3C51
    7     1    14	5 ;     CG2RC0     CG3C50     CG2DC1
    7     1    25	5 ;     CG2RC0     CG3C50     CG2R61
    2     1    14	5 ;     NG3C51     CG3C50     CG2DC1
    2     1    25	5 ;     NG3C51     CG3C50     CG2R61
   14     1    25	5 ;     CG2DC1     CG3C50     CG2R61
    4     2     3	5 ;     CG3C51     NG3C51       HGP1
    4     2     1	5 ;     CG3C51     NG3C51     CG3C50
    3     2     1	5 ;       HGP1     NG3C51     CG3C50
    5     4     6	5 ;      NG321     CG3C51     CG2RC0
    5     4     2	5 ;      NG321     CG3C51     NG3C51
    5     4    39	5 ;      NG321     CG3C51       HGA1
    6     4     2	5 ;     CG2RC0     CG3C51     NG3C51
    6     4    39	5 ;     CG2RC0     CG3C51       HGA1
    2     4    39	5 ;     NG3C51     CG3C51       HGA1
   12     5    13	5 ;     HGPAM2      NG321     HGPAM2
   12     5     4	5 ;     HGPAM2      NG321     CG3C51
   13     5     4	5 ;     HGPAM2      NG321     CG3C51
   11     6     4	5 ;     CG2R61     CG2RC0     CG3C51
   11     6     7	5 ;     CG2R61     CG2RC0     CG2RC0
    4     6     7	5 ;     CG3C51     CG2RC0     CG2RC0
    6     7     8	5 ;     CG2RC0     CG2RC0     CG2R61
    6     7     1	5 ;     CG2RC0     CG2RC0     CG3C50
    8     7     1	5 ;     CG2R61     CG2RC0     CG3C50
    9     8     7	5 ;     CG2R61     CG2R61     CG2RC0
    9     8    40	5 ;     CG2R61     CG2R61      HGR61
    7     8    40	5 ;     CG2RC0     CG2R61      HGR61
   10     9     8	5 ;     CG2R61     CG2R61     CG2R61
   10     9    41	5 ;     CG2R61     CG2R61      HGR61
    8     9    41	5 ;     CG2R61     CG2R61      HGR61
   11    10     9	5 ;     CG2R61     CG2R61     CG2R61
   11    10    42	5 ;     CG2R61     CG2R61      HGR61
    9    10    42	5 ;     CG2R61     CG2R61      HGR61
   10    11     6	5 ;     CG2R61     CG2R61     CG2RC0
   10    11    43	5 ;     CG2R61     CG2R61      HGR61
    6    11    43	5 ;     CG2RC0     CG2R61      HGR61
    1    14    20	5 ;     CG3C50     CG2DC1     CG2DC2
    1    14    15	5 ;     CG3C50     CG2DC1     CG2DC1
   20    14    15	5 ;     CG2DC2     CG2DC1     CG2DC1
   14    15    16	5 ;     CG2DC1     CG2DC1      CG321
   14    15    44	5 ;     CG2DC1     CG2DC1       HGA4
   16    15    44	5 ;      CG321     CG2DC1       HGA4
   15    16    17	5 ;     CG2DC1      CG321      NG311
   15    16    45	5 ;     CG2DC1      CG321       HGA2
   15    16    46	5 ;     CG2DC1      CG321       HGA2
   17    16    45	5 ;      NG311      CG321       HGA2
   17    16    46	5 ;      NG311      CG321       HGA2
   45    16    46	5 ;       HGA2      CG321       HGA2
   18    17    16	5 ;     CG2D2O      NG311      CG321
   18    17    19	5 ;     CG2D2O      NG311     HGPAM1
   16    17    19	5 ;      CG321      NG311     HGPAM1
   20    18    21	5 ;     CG2DC2     CG2D2O      CG302
   20    18    17	5 ;     CG2DC2     CG2D2O      NG311
   21    18    17	5 ;      CG302     CG2D2O      NG311
   14    20    18	5 ;     CG2DC1     CG2DC2     CG2D2O
   14    20    47	5 ;     CG2DC1     CG2DC2       HGA4
   18    20    47	5 ;     CG2D2O     CG2DC2       HGA4
   23    21    24	5 ;       FGA3      CG302       FGA3
   23    21    18	5 ;       FGA3      CG302     CG2D2O
   23    21    22	5 ;       FGA3      CG302       FGA3
   24    21    18	5 ;       FGA3      CG302     CG2D2O
   24    21    22	5 ;       FGA3      CG302       FGA3
   18    21    22	5 ;     CG2D2O      CG302       FGA3
    1    25    30	5 ;     CG3C50     CG2R61     CG2R61
    1    25    26	5 ;     CG3C50     CG2R61     CG2R61
   30    25    26	5 ;     CG2R61     CG2R61     CG2R61
   25    26    27	5 ;     CG2R61     CG2R61     CG2R61
   25    26    48	5 ;     CG2R61     CG2R61      HGR61
   27    26    48	5 ;     CG2R61     CG2R61      HGR61
   26    27    28	5 ;     CG2R61     CG2R61     CG2R61
   26    27    31	5 ;     CG2R61     CG2R61     CG2DC1
   28    27    31	5 ;     CG2R61     CG2R61     CG2DC1
   29    28    27	5 ;     CG2R61     CG2R61     CG2R61
   29    28    49	5 ;     CG2R61     CG2R61      HGR61
   27    28    49	5 ;     CG2R61     CG2R61      HGR61
   30    29    28	5 ;     CG2R61     CG2R61     CG2R61
   30    29    50	5 ;     CG2R61     CG2R61      HGR61
   28    29    50	5 ;     CG2R61     CG2R61      HGR61
   25    30    29	5 ;     CG2R61     CG2R61     CG2R61
   25    30    51	5 ;     CG2R61     CG2R61      HGR61
   29    30    51	5 ;     CG2R61     CG2R61      HGR61
   27    31    37	5 ;     CG2R61     CG2DC1     CG2D1O
   27    31    32	5 ;     CG2R61     CG2DC1      CG321
   37    31    32	5 ;     CG2D1O     CG2DC1      CG321
   31    32    33	5 ;     CG2DC1      CG321      NG311
   31    32    52	5 ;     CG2DC1      CG321       HGA2
   31    32    53	5 ;     CG2DC1      CG321       HGA2
   33    32    52	5 ;      NG311      CG321       HGA2
   33    32    53	5 ;      NG311      CG321       HGA2
   52    32    53	5 ;       HGA2      CG321       HGA2
   32    33    34	5 ;      CG321      NG311      CG321
   32    33    35	5 ;      CG321      NG311     HGPAM1
   34    33    35	5 ;      CG321      NG311     HGPAM1
   36    34    33	5 ;      NG311      CG321      NG311
   36    34    54	5 ;      NG311      CG321       HGA2
   36    34    55	5 ;      NG311      CG321       HGA2
   33    34    54	5 ;      NG311      CG321       HGA2
   33    34    55	5 ;      NG311      CG321       HGA2
   54    34    55	5 ;       HGA2      CG321       HGA2
   37    36    38	5 ;     CG2D1O      NG311     HGPAM1
   37    36    34	5 ;     CG2D1O      NG311      CG321
   38    36    34	5 ;     HGPAM1      NG311      CG321
   31    37    36	5 ;     CG2DC1     CG2D1O      NG311
   31    37    56	5 ;     CG2DC1     CG2D1O       HGA4
   36    37    56	5 ;      NG311     CG2D1O       HGA4

[ dihedrals ]
;	ai	  aj	ak	  al funct			  c0			c1			  c2			c3			  c4			c5
    2     1     7     6	 9 ;     NG3C51     CG3C50     CG2RC0     CG2RC0
    2     1     7     8	 9 ;     NG3C51     CG3C50     CG2RC0     CG2R61
   14     1     7     6	 9 ;     CG2DC1     CG3C50     CG2RC0     CG2RC0
   14     1     7     8	 9 ;     CG2DC1     CG3C50     CG2RC0     CG2R61
   25     1     7     6	 9 ;     CG2R61     CG3C50     CG2RC0     CG2RC0
   25     1     7     8	 9 ;     CG2R61     CG3C50     CG2RC0     CG2R61
    7     1     2     4	 9 ;     CG2RC0     CG3C50     NG3C51     CG3C51
    7     1     2     3	 9 ;     CG2RC0     CG3C50     NG3C51       HGP1
   14     1     2     4	 9 ;     CG2DC1     CG3C50     NG3C51     CG3C51
   14     1     2     3	 9 ;     CG2DC1     CG3C50     NG3C51       HGP1
   25     1     2     4	 9 ;     CG2R61     CG3C50     NG3C51     CG3C51
   25     1     2     3	 9 ;     CG2R61     CG3C50     NG3C51       HGP1
    7     1    14    20	 9 ;     CG2RC0     CG3C50     CG2DC1     CG2DC2
    7     1    14    15	 9 ;     CG2RC0     CG3C50     CG2DC1     CG2DC1
    2     1    14    20	 9 ;     NG3C51     CG3C50     CG2DC1     CG2DC2
    2     1    14    15	 9 ;     NG3C51     CG3C50     CG2DC1     CG2DC1
   25     1    14    20	 9 ;     CG2R61     CG3C50     CG2DC1     CG2DC2
   25     1    14    15	 9 ;     CG2R61     CG3C50     CG2DC1     CG2DC1
    7     1    25    30	 9 ;     CG2RC0     CG3C50     CG2R61     CG2R61
    7     1    25    26	 9 ;     CG2RC0     CG3C50     CG2R61     CG2R61
    2     1    25    30	 9 ;     NG3C51     CG3C50     CG2R61     CG2R61
    2     1    25    26	 9 ;     NG3C51     CG3C50     CG2R61     CG2R61
   14     1    25    30	 9 ;     CG2DC1     CG3C50     CG2R61     CG2R61
   14     1    25    26	 9 ;     CG2DC1     CG3C50     CG2R61     CG2R61
    3     2     4     5	 9 ;       HGP1     NG3C51     CG3C51      NG321
    3     2     4     6	 9 ;       HGP1     NG3C51     CG3C51     CG2RC0
    3     2     4    39	 9 ;       HGP1     NG3C51     CG3C51       HGA1
    1     2     4     5	 9 ;     CG3C50     NG3C51     CG3C51      NG321
    1     2     4     6	 9 ;     CG3C50     NG3C51     CG3C51     CG2RC0
    1     2     4    39	 9 ;     CG3C50     NG3C51     CG3C51       HGA1
    6     4     5    12	 9 ;     CG2RC0     CG3C51      NG321     HGPAM2
    6     4     5    13	 9 ;     CG2RC0     CG3C51      NG321     HGPAM2
    2     4     5    12	 9 ;     NG3C51     CG3C51      NG321     HGPAM2
    2     4     5    13	 9 ;     NG3C51     CG3C51      NG321     HGPAM2
   39     4     5    12	 9 ;       HGA1     CG3C51      NG321     HGPAM2
   39     4     5    13	 9 ;       HGA1     CG3C51      NG321     HGPAM2
    5     4     6    11	 9 ;      NG321     CG3C51     CG2RC0     CG2R61
    5     4     6     7	 9 ;      NG321     CG3C51     CG2RC0     CG2RC0
    2     4     6    11	 9 ;     NG3C51     CG3C51     CG2RC0     CG2R61
    2     4     6     7	 9 ;     NG3C51     CG3C51     CG2RC0     CG2RC0
   39     4     6    11	 9 ;       HGA1     CG3C51     CG2RC0     CG2R61
   39     4     6     7	 9 ;       HGA1     CG3C51     CG2RC0     CG2RC0
    4     6    11    10	 9 ;     CG3C51     CG2RC0     CG2R61     CG2R61
    4     6    11    43	 9 ;     CG3C51     CG2RC0     CG2R61      HGR61
    7     6    11    10	 9 ;     CG2RC0     CG2RC0     CG2R61     CG2R61
    7     6    11    43	 9 ;     CG2RC0     CG2RC0     CG2R61      HGR61
   11     6     7     8	 9 ;     CG2R61     CG2RC0     CG2RC0     CG2R61
   11     6     7     1	 9 ;     CG2R61     CG2RC0     CG2RC0     CG3C50
    4     6     7     8	 9 ;     CG3C51     CG2RC0     CG2RC0     CG2R61
    4     6     7     1	 9 ;     CG3C51     CG2RC0     CG2RC0     CG3C50
    6     7     8     9	 9 ;     CG2RC0     CG2RC0     CG2R61     CG2R61
    6     7     8    40	 9 ;     CG2RC0     CG2RC0     CG2R61      HGR61
    1     7     8     9	 9 ;     CG3C50     CG2RC0     CG2R61     CG2R61
    1     7     8    40	 9 ;     CG3C50     CG2RC0     CG2R61      HGR61
    7     8     9    10	 9 ;     CG2RC0     CG2R61     CG2R61     CG2R61
    7     8     9    41	 9 ;     CG2RC0     CG2R61     CG2R61      HGR61
   40     8     9    10	 9 ;      HGR61     CG2R61     CG2R61     CG2R61
   40     8     9    41	 9 ;      HGR61     CG2R61     CG2R61      HGR61
    8     9    10    11	 9 ;     CG2R61     CG2R61     CG2R61     CG2R61
    8     9    10    42	 9 ;     CG2R61     CG2R61     CG2R61      HGR61
   41     9    10    11	 9 ;      HGR61     CG2R61     CG2R61     CG2R61
   41     9    10    42	 9 ;      HGR61     CG2R61     CG2R61      HGR61
    9    10    11     6	 9 ;     CG2R61     CG2R61     CG2R61     CG2RC0
    9    10    11    43	 9 ;     CG2R61     CG2R61     CG2R61      HGR61
   42    10    11     6	 9 ;      HGR61     CG2R61     CG2R61     CG2RC0
   42    10    11    43	 9 ;      HGR61     CG2R61     CG2R61      HGR61
    1    14    20    18	 9 ;     CG3C50     CG2DC1     CG2DC2     CG2D2O
    1    14    20    47	 9 ;     CG3C50     CG2DC1     CG2DC2       HGA4
   15    14    20    18	 9 ;     CG2DC1     CG2DC1     CG2DC2     CG2D2O
   15    14    20    47	 9 ;     CG2DC1     CG2DC1     CG2DC2       HGA4
    1    14    15    16	 9 ;     CG3C50     CG2DC1     CG2DC1      CG321
    1    14    15    44	 9 ;     CG3C50     CG2DC1     CG2DC1       HGA4
   20    14    15    16	 9 ;     CG2DC2     CG2DC1     CG2DC1      CG321
   20    14    15    44	 9 ;     CG2DC2     CG2DC1     CG2DC1       HGA4
   14    15    16    17	 9 ;     CG2DC1     CG2DC1      CG321      NG311
   14    15    16    45	 9 ;     CG2DC1     CG2DC1      CG321       HGA2
   14    15    16    46	 9 ;     CG2DC1     CG2DC1      CG321       HGA2
   44    15    16    17	 9 ;       HGA4     CG2DC1      CG321      NG311
   44    15    16    45	 9 ;       HGA4     CG2DC1      CG321       HGA2
   44    15    16    46	 9 ;       HGA4     CG2DC1      CG321       HGA2
   15    16    17    18	 9 ;     CG2DC1      CG321      NG311     CG2D2O
   15    16    17    19	 9 ;     CG2DC1      CG321      NG311     HGPAM1
   45    16    17    18	 9 ;       HGA2      CG321      NG311     CG2D2O
   45    16    17    19	 9 ;       HGA2      CG321      NG311     HGPAM1
   46    16    17    18	 9 ;       HGA2      CG321      NG311     CG2D2O
   46    16    17    19	 9 ;       HGA2      CG321      NG311     HGPAM1
   16    17    18    20	 9 ;      CG321      NG311     CG2D2O     CG2DC2
   16    17    18    21	 9 ;      CG321      NG311     CG2D2O      CG302
   19    17    18    20	 9 ;     HGPAM1      NG311     CG2D2O     CG2DC2
   19    17    18    21	 9 ;     HGPAM1      NG311     CG2D2O      CG302
   21    18    20    14	 9 ;      CG302     CG2D2O     CG2DC2     CG2DC1
   21    18    20    47	 9 ;      CG302     CG2D2O     CG2DC2       HGA4
   17    18    20    14	 9 ;      NG311     CG2D2O     CG2DC2     CG2DC1
   17    18    20    47	 9 ;      NG311     CG2D2O     CG2DC2       HGA4
   20    18    21    23	 9 ;     CG2DC2     CG2D2O      CG302       FGA3
   20    18    21    24	 9 ;     CG2DC2     CG2D2O      CG302       FGA3
   20    18    21    22	 9 ;     CG2DC2     CG2D2O      CG302       FGA3
   17    18    21    23	 9 ;      NG311     CG2D2O      CG302       FGA3
   17    18    21    24	 9 ;      NG311     CG2D2O      CG302       FGA3
   17    18    21    22	 9 ;      NG311     CG2D2O      CG302       FGA3
    1    25    30    29	 9 ;     CG3C50     CG2R61     CG2R61     CG2R61
    1    25    30    51	 9 ;     CG3C50     CG2R61     CG2R61      HGR61
   26    25    30    29	 9 ;     CG2R61     CG2R61     CG2R61     CG2R61
   26    25    30    51	 9 ;     CG2R61     CG2R61     CG2R61      HGR61
    1    25    26    27	 9 ;     CG3C50     CG2R61     CG2R61     CG2R61
    1    25    26    48	 9 ;     CG3C50     CG2R61     CG2R61      HGR61
   30    25    26    27	 9 ;     CG2R61     CG2R61     CG2R61     CG2R61
   30    25    26    48	 9 ;     CG2R61     CG2R61     CG2R61      HGR61
   25    26    27    28	 9 ;     CG2R61     CG2R61     CG2R61     CG2R61
   25    26    27    31	 9 ;     CG2R61     CG2R61     CG2R61     CG2DC1
   48    26    27    28	 9 ;      HGR61     CG2R61     CG2R61     CG2R61
   48    26    27    31	 9 ;      HGR61     CG2R61     CG2R61     CG2DC1
   26    27    28    29	 9 ;     CG2R61     CG2R61     CG2R61     CG2R61
   26    27    28    49	 9 ;     CG2R61     CG2R61     CG2R61      HGR61
   31    27    28    29	 9 ;     CG2DC1     CG2R61     CG2R61     CG2R61
   31    27    28    49	 9 ;     CG2DC1     CG2R61     CG2R61      HGR61
   26    27    31    37	 9 ;     CG2R61     CG2R61     CG2DC1     CG2D1O
   26    27    31    32	 9 ;     CG2R61     CG2R61     CG2DC1      CG321
   28    27    31    37	 9 ;     CG2R61     CG2R61     CG2DC1     CG2D1O
   28    27    31    32	 9 ;     CG2R61     CG2R61     CG2DC1      CG321
   27    28    29    30	 9 ;     CG2R61     CG2R61     CG2R61     CG2R61
   27    28    29    50	 9 ;     CG2R61     CG2R61     CG2R61      HGR61
   49    28    29    30	 9 ;      HGR61     CG2R61     CG2R61     CG2R61
   49    28    29    50	 9 ;      HGR61     CG2R61     CG2R61      HGR61
   28    29    30    25	 9 ;     CG2R61     CG2R61     CG2R61     CG2R61
   28    29    30    51	 9 ;     CG2R61     CG2R61     CG2R61      HGR61
   50    29    30    25	 9 ;      HGR61     CG2R61     CG2R61     CG2R61
   50    29    30    51	 9 ;      HGR61     CG2R61     CG2R61      HGR61
   27    31    37    36	 9 ;     CG2R61     CG2DC1     CG2D1O      NG311
   27    31    37    56	 9 ;     CG2R61     CG2DC1     CG2D1O       HGA4
   32    31    37    36	 9 ;      CG321     CG2DC1     CG2D1O      NG311
   32    31    37    56	 9 ;      CG321     CG2DC1     CG2D1O       HGA4
   27    31    32    33	 9 ;     CG2R61     CG2DC1      CG321      NG311
   27    31    32    52	 9 ;     CG2R61     CG2DC1      CG321       HGA2
   27    31    32    53	 9 ;     CG2R61     CG2DC1      CG321       HGA2
   37    31    32    33	 9 ;     CG2D1O     CG2DC1      CG321      NG311
   37    31    32    52	 9 ;     CG2D1O     CG2DC1      CG321       HGA2
   37    31    32    53	 9 ;     CG2D1O     CG2DC1      CG321       HGA2
   31    32    33    34	 9 ;     CG2DC1      CG321      NG311      CG321
   31    32    33    35	 9 ;     CG2DC1      CG321      NG311     HGPAM1
   52    32    33    34	 9 ;       HGA2      CG321      NG311      CG321
   52    32    33    35	 9 ;       HGA2      CG321      NG311     HGPAM1
   53    32    33    34	 9 ;       HGA2      CG321      NG311      CG321
   53    32    33    35	 9 ;       HGA2      CG321      NG311     HGPAM1
   32    33    34    36	 9 ;      CG321      NG311      CG321      NG311
   32    33    34    54	 9 ;      CG321      NG311      CG321       HGA2
   32    33    34    55	 9 ;      CG321      NG311      CG321       HGA2
   35    33    34    36	 9 ;     HGPAM1      NG311      CG321      NG311
   35    33    34    54	 9 ;     HGPAM1      NG311      CG321       HGA2
   35    33    34    55	 9 ;     HGPAM1      NG311      CG321       HGA2
   33    34    36    37	 9 ;      NG311      CG321      NG311     CG2D1O
   33    34    36    38	 9 ;      NG311      CG321      NG311     HGPAM1
   54    34    36    37	 9 ;       HGA2      CG321      NG311     CG2D1O
   54    34    36    38	 9 ;       HGA2      CG321      NG311     HGPAM1
   55    34    36    37	 9 ;       HGA2      CG321      NG311     CG2D1O
   55    34    36    38	 9 ;       HGA2      CG321      NG311     HGPAM1
   38    36    37    31	 9 ;     HGPAM1      NG311     CG2D1O     CG2DC1
   38    36    37    56	 9 ;     HGPAM1      NG311     CG2D1O       HGA4
   34    36    37    31	 9 ;      CG321      NG311     CG2D1O     CG2DC1
   34    36    37    56	 9 ;      CG321      NG311     CG2D1O       HGA4

[ dihedrals ]
;	ai	  aj	ak	  al funct			  c0			c1			  c2			c3
   18    20    21    17	 2
   37    31    36    56	 2

