Giant Rising Ordinary Mutants for A Clerical Setup
   66
    1LIG      S    1  -1.283   0.401  -1.667
    1LIG     O1    2  -1.327   0.331  -1.784
    1LIG     O2    3  -1.150   0.390  -1.611
    1LIG     N1    4  -1.402   0.380  -1.549
    1LIG     C1    5  -1.528   0.455  -1.585
    1LIG     C2    6  -1.620   0.370  -1.676
    1LIG     C3    7  -1.758   0.430  -1.709
    1LIG     N2    8  -1.831   0.471  -1.582
    1LIG     C4    9  -1.747   0.555  -1.489
    1LIG     C5   10  -1.609   0.496  -1.460
    1LIG     C6   11  -1.759   0.549  -1.806
    1LIG     C7   12  -1.472   0.580  -1.664
    1LIG     N3   13  -1.325   0.565  -1.686
    1LIG     C8   14  -1.243   0.660  -1.608
    1LIG     H1   15  -1.908   0.532  -1.612
    1LIG     C9   16  -1.373   0.295  -1.439
    1LIG    C10   17  -1.372   0.156  -1.454
    1LIG    C11   18  -1.328   0.076  -1.349
    1LIG      F   19  -1.327  -0.057  -1.365
    1LIG    C12   20  -1.283   0.130  -1.229
    1LIG    C13   21  -1.280   0.269  -1.214
    1LIG    C14   22  -1.325   0.350  -1.319
    1LIG    C15   23  -1.906   0.354  -1.518
    1LIG    C16   24  -2.038   0.387  -1.453
    1LIG    C17   25  -2.053   0.364  -1.315
    1LIG    C18   26  -2.176   0.379  -1.248
    1LIG    C19   27  -2.285   0.428  -1.320
    1LIG    C20   28  -2.273   0.451  -1.457
    1LIG    C21   29  -2.152   0.428  -1.524
    1LIG     O3   30  -2.170   0.337  -1.119
    1LIG    C22   31  -2.252   0.230  -1.068
    1LIG    C23   32  -2.250   0.103  -1.153
    1LIG    C24   33  -2.192   0.198  -0.930
    1LIG     O4   34  -2.404   0.453  -1.258
    1LIG     H2   35  -2.467   0.486  -1.324
    1LIG    HC2   36  -1.567   0.354  -1.771
    1LIG    HC3   37  -1.635   0.273  -1.629
    1LIG     HC   38  -1.817   0.351  -1.756
    1LIG    HC4   39  -1.801   0.566  -1.395
    1LIG    HC5   40  -1.734   0.654  -1.534
    1LIG    HC6   41  -1.551   0.570  -1.406
    1LIG    HC7   42  -1.621   0.408  -1.397
    1LIG    HC8   43  -1.522   0.587  -1.761
    1LIG    HC9   44  -1.491   0.671  -1.607
    1LIG    HC1   45  -1.406   0.112  -1.546
    1LIG   HC10   46  -1.251   0.066  -1.149
    1LIG   HC11   47  -1.244   0.313  -1.123
    1LIG   HC12   48  -1.322   0.458  -1.308
    1LIG   HC13   49  -1.841   0.311  -1.442
    1LIG   HC14   50  -1.924   0.279  -1.595
    1LIG   HC15   51  -1.967   0.333  -1.258
    1LIG   HC16   52  -2.359   0.487  -1.513
    1LIG   HC17   53  -2.146   0.443  -1.631
    1LIG   HC18   54  -2.355   0.265  -1.056
    1LIG   HC19   55  -1.859   0.561  -1.847
    1LIG   HC20   56  -1.688   0.531  -1.887
    1LIG   HC21   57  -1.731   0.639  -1.752
    1LIG   HC22   58  -2.193   0.288  -0.869
    1LIG   HC23   59  -2.251   0.120  -0.882
    1LIG   HC24   60  -2.090   0.163  -0.943
    1LIG   HC25   61  -1.138   0.643  -1.629
    1LIG   HC26   62  -1.270   0.762  -1.636
    1LIG   HC27   63  -1.262   0.646  -1.502
    1LIG   HC28   64  -2.292   0.124  -1.252
    1LIG   HC29   65  -2.147   0.068  -1.165
    1LIG   HC30   66  -2.309   0.025  -1.104
   0.00000   0.00000   0.00000
