; Created by cgenff_charmm2gmx.py

[ moleculetype ]
; Name			   nrexcl
LIG				 3

[ atoms ]
;	 nr		  type	resnr residue  atom   cgnr	   charge		mass  typeB    chargeB		massB
; residue	 1 LIG rtp LIG q	qsum
     1      SG3O2      1    LIG      S      1      0.301     32.060   ;
     2      OG2P1      1    LIG     O1      2     -0.242     15.999   ;
     3      OG2P1      1    LIG     O2      3     -0.242     15.999   ;
     4     NG3C51      1    LIG     N1      4     -0.405     14.007   ;
     5     CG3C50      1    LIG     C1      5      0.255     12.011   ;
     6      CG321      1    LIG     C2      6     -0.124     12.011   ;
     7      CG314      1    LIG     C3      7      0.198     12.011   ;
     8      NG3P1      1    LIG     N2      8     -0.462     14.007   ;
     9      CG324      1    LIG     C4      9      0.103     12.011   ;
    10      CG321      1    LIG     C5     10     -0.123     12.011   ;
    11      CG331      1    LIG     C6     11     -0.213     12.011   ;
    12     CG3C52      1    LIG     C7     12     -0.072     12.011   ;
    13     NG3C51      1    LIG     N3     13     -0.309     14.007   ;
    14      CG331      1    LIG     C8     14     -0.027     12.011   ;
    15       HGP2      1    LIG     H1     15      0.319      1.008   ;
    16     CG2R61      1    LIG     C9     16      0.378     12.011   ;
    17     CG2R61      1    LIG    C10     17     -0.169     12.011   ;
    18     CG2R66      1    LIG    C11     18      0.105     12.011   ;
    19       FGR1      1    LIG      F     19     -0.211     18.998   ;
    20     CG2R61      1    LIG    C12     20     -0.107     12.011   ;
    21     CG2R61      1    LIG    C13     21     -0.149     12.011   ;
    22     CG2R61      1    LIG    C14     22     -0.107     12.011   ;
    23      CG324      1    LIG    C15     23      0.119     12.011   ;
    24     CG2R61      1    LIG    C16     24      0.069     12.011   ;
    25     CG2R61      1    LIG    C17     25     -0.121     12.011   ;
    26     CG2R61      1    LIG    C18     26      0.167     12.011   ;
    27     CG2R61      1    LIG    C19     27      0.109     12.011   ;
    28     CG2R61      1    LIG    C20     28     -0.109     12.011   ;
    29     CG2R61      1    LIG    C21     29     -0.118     12.011   ;
    30      OG301      1    LIG     O3     30     -0.336     15.999   ;
    31      CG311      1    LIG    C22     31      0.059     12.011   ;
    32      CG331      1    LIG    C23     32     -0.251     12.011   ;
    33      CG331      1    LIG    C24     33     -0.251     12.011   ;
    34      OG311      1    LIG     O4     34     -0.549     15.999   ;
    35       HGP1      1    LIG     H2     35      0.421      1.008   ;
    36       HGA2      1    LIG    HC2     36      0.090      1.008   ;
    37       HGA2      1    LIG    HC3     37      0.090      1.008   ;
    38       HGA1      1    LIG     HC     38      0.090      1.008   ;
    39       HGA2      1    LIG    HC4     39      0.090      1.008   ;
    40       HGA2      1    LIG    HC5     40      0.090      1.008   ;
    41       HGA2      1    LIG    HC6     41      0.090      1.008   ;
    42       HGA2      1    LIG    HC7     42      0.090      1.008   ;
    43       HGA2      1    LIG    HC8     43      0.090      1.008   ;
    44       HGA2      1    LIG    HC9     44      0.090      1.008   ;
    45      HGR62      1    LIG    HC1     45      0.175      1.008   ;
    46      HGR62      1    LIG   HC10     46      0.179      1.008   ;
    47      HGR61      1    LIG   HC11     47      0.116      1.008   ;
    48      HGR61      1    LIG   HC12     48      0.116      1.008   ;
    49       HGA2      1    LIG   HC13     49      0.090      1.008   ;
    50       HGA2      1    LIG   HC14     50      0.090      1.008   ;
    51      HGR61      1    LIG   HC15     51      0.116      1.008   ;
    52      HGR61      1    LIG   HC16     52      0.116      1.008   ;
    53      HGR61      1    LIG   HC17     53      0.116      1.008   ;
    54       HGA1      1    LIG   HC18     54      0.090      1.008   ;
    55       HGA3      1    LIG   HC19     55      0.090      1.008   ;
    56       HGA3      1    LIG   HC20     56      0.090      1.008   ;
    57       HGA3      1    LIG   HC21     57      0.090      1.008   ;
    58       HGA3      1    LIG   HC22     58      0.090      1.008   ;
    59       HGA3      1    LIG   HC23     59      0.090      1.008   ;
    60       HGA3      1    LIG   HC24     60      0.090      1.008   ;
    61       HGA3      1    LIG   HC25     61      0.090      1.008   ;
    62       HGA3      1    LIG   HC26     62      0.090      1.008   ;
    63       HGA3      1    LIG   HC27     63      0.090      1.008   ;
    64       HGA3      1    LIG   HC28     64      0.090      1.008   ;
    65       HGA3      1    LIG   HC29     65      0.090      1.008   ;
    66       HGA3      1    LIG   HC30     66      0.090      1.008   ;

[ bonds ]
;	ai	  aj funct			  c0			c1			  c2			c3
    1     3	 1 ;       SG3O2      OG2P1
    1     2	 1 ;       SG3O2      OG2P1
    1    13	 1 ;       SG3O2     NG3C51
    1     4	 1 ;       SG3O2     NG3C51
    4    16	 1 ;      NG3C51     CG2R61
    4     5	 1 ;      NG3C51     CG3C50
    5    12	 1 ;      CG3C50     CG3C52
    5     6	 1 ;      CG3C50      CG321
    5    10	 1 ;      CG3C50      CG321
    6     7	 1 ;       CG321      CG314
    6    36	 1 ;       CG321       HGA2
    6    37	 1 ;       CG321       HGA2
    7    11	 1 ;       CG314      CG331
    7     8	 1 ;       CG314      NG3P1
    7    38	 1 ;       CG314       HGA1
    8     9	 1 ;       NG3P1      CG324
    8    15	 1 ;       NG3P1       HGP2
    8    23	 1 ;       NG3P1      CG324
    9    10	 1 ;       CG324      CG321
    9    39	 1 ;       CG324       HGA2
    9    40	 1 ;       CG324       HGA2
   10    41	 1 ;       CG321       HGA2
   10    42	 1 ;       CG321       HGA2
   11    55	 1 ;       CG331       HGA3
   11    56	 1 ;       CG331       HGA3
   11    57	 1 ;       CG331       HGA3
   12    13	 1 ;      CG3C52     NG3C51
   12    43	 1 ;      CG3C52       HGA2
   12    44	 1 ;      CG3C52       HGA2
   13    14	 1 ;      NG3C51      CG331
   14    61	 1 ;       CG331       HGA3
   14    62	 1 ;       CG331       HGA3
   14    63	 1 ;       CG331       HGA3
   16    17	 1 ;      CG2R61     CG2R61
   16    22	 1 ;      CG2R61     CG2R61
   17    18	 1 ;      CG2R61     CG2R66
   17    45	 1 ;      CG2R61      HGR62
   18    19	 1 ;      CG2R66       FGR1
   18    20	 1 ;      CG2R66     CG2R61
   20    21	 1 ;      CG2R61     CG2R61
   20    46	 1 ;      CG2R61      HGR62
   21    22	 1 ;      CG2R61     CG2R61
   21    47	 1 ;      CG2R61      HGR61
   22    48	 1 ;      CG2R61      HGR61
   23    24	 1 ;       CG324     CG2R61
   23    49	 1 ;       CG324       HGA2
   23    50	 1 ;       CG324       HGA2
   24    29	 1 ;      CG2R61     CG2R61
   24    25	 1 ;      CG2R61     CG2R61
   25    26	 1 ;      CG2R61     CG2R61
   25    51	 1 ;      CG2R61      HGR61
   26    27	 1 ;      CG2R61     CG2R61
   26    30	 1 ;      CG2R61      OG301
   27    28	 1 ;      CG2R61     CG2R61
   27    34	 1 ;      CG2R61      OG311
   28    29	 1 ;      CG2R61     CG2R61
   28    52	 1 ;      CG2R61      HGR61
   29    53	 1 ;      CG2R61      HGR61
   30    31	 1 ;       OG301      CG311
   31    32	 1 ;       CG311      CG331
   31    33	 1 ;       CG311      CG331
   31    54	 1 ;       CG311       HGA1
   32    64	 1 ;       CG331       HGA3
   32    65	 1 ;       CG331       HGA3
   32    66	 1 ;       CG331       HGA3
   33    58	 1 ;       CG331       HGA3
   33    59	 1 ;       CG331       HGA3
   33    60	 1 ;       CG331       HGA3
   34    35	 1 ;       OG311       HGP1

[ pairs ]
;	ai	  aj funct			  c0			c1			  c2			c3
    1    17	 1
    1    22	 1
    1     6	 1
    1    10	 1
    1    43	 1
    1    44	 1
    1    61	 1
    1    62	 1
    1    63	 1
    2    14	 1
    2    12	 1
    2    16	 1
    2     5	 1
    3    14	 1
    3    12	 1
    3    16	 1
    3     5	 1
    4    14	 1
    4    43	 1
    4    44	 1
    4     7	 1
    4    36	 1
    4    37	 1
    4     9	 1
    4    41	 1
    4    42	 1
    4    18	 1
    4    45	 1
    4    21	 1
    4    48	 1
    5    17	 1
    5    22	 1
    5    11	 1
    5     8	 1
    5    38	 1
    5    39	 1
    5    40	 1
    5    14	 1
    6    16	 1
    6    13	 1
    6    43	 1
    6    44	 1
    6     9	 1
    6    41	 1
    6    42	 1
    6    55	 1
    6    56	 1
    6    57	 1
    6    15	 1
    6    23	 1
    7    12	 1
    7    10	 1
    7    39	 1
    7    40	 1
    7    24	 1
    7    49	 1
    7    50	 1
    8    36	 1
    8    37	 1
    8    55	 1
    8    56	 1
    8    57	 1
    8    41	 1
    8    42	 1
    8    29	 1
    8    25	 1
    9    12	 1
    9    11	 1
    9    38	 1
    9    24	 1
    9    49	 1
    9    50	 1
   10    16	 1
   10    13	 1
   10    43	 1
   10    44	 1
   10    36	 1
   10    37	 1
   10    15	 1
   10    23	 1
   11    36	 1
   11    37	 1
   11    15	 1
   11    23	 1
   12    16	 1
   12    36	 1
   12    37	 1
   12    41	 1
   12    42	 1
   12    61	 1
   12    62	 1
   12    63	 1
   13    16	 1
   14    43	 1
   14    44	 1
   15    38	 1
   15    39	 1
   15    40	 1
   15    24	 1
   15    49	 1
   15    50	 1
   16    19	 1
   16    20	 1
   16    47	 1
   17    21	 1
   17    48	 1
   17    46	 1
   18    22	 1
   18    47	 1
   19    45	 1
   19    21	 1
   19    46	 1
   20    45	 1
   20    48	 1
   22    45	 1
   22    46	 1
   23    38	 1
   23    39	 1
   23    40	 1
   23    28	 1
   23    53	 1
   23    26	 1
   23    51	 1
   24    27	 1
   24    30	 1
   24    52	 1
   25    49	 1
   25    50	 1
   25    28	 1
   25    53	 1
   25    34	 1
   25    31	 1
   26    29	 1
   26    52	 1
   26    35	 1
   26    32	 1
   26    33	 1
   26    54	 1
   27    51	 1
   27    31	 1
   27    53	 1
   28    30	 1
   28    35	 1
   29    49	 1
   29    50	 1
   29    51	 1
   29    34	 1
   30    51	 1
   30    34	 1
   30    64	 1
   30    65	 1
   30    66	 1
   30    58	 1
   30    59	 1
   30    60	 1
   32    58	 1
   32    59	 1
   32    60	 1
   33    64	 1
   33    65	 1
   33    66	 1
   34    52	 1
   36    38	 1
   37    38	 1
   38    55	 1
   38    56	 1
   38    57	 1
   39    41	 1
   39    42	 1
   40    41	 1
   40    42	 1
   46    47	 1
   47    48	 1
   52    53	 1
   54    64	 1
   54    65	 1
   54    66	 1
   54    58	 1
   54    59	 1
   54    60	 1

[ angles ]
;	ai	  aj	ak funct			c0			  c1			c2			  c3
    3     1     2	5 ;      OG2P1      SG3O2      OG2P1
    3     1    13	5 ;      OG2P1      SG3O2     NG3C51
    3     1     4	5 ;      OG2P1      SG3O2     NG3C51
    2     1    13	5 ;      OG2P1      SG3O2     NG3C51
    2     1     4	5 ;      OG2P1      SG3O2     NG3C51
   13     1     4	5 ;     NG3C51      SG3O2     NG3C51
    1     4    16	5 ;      SG3O2     NG3C51     CG2R61
    1     4     5	5 ;      SG3O2     NG3C51     CG3C50
   16     4     5	5 ;     CG2R61     NG3C51     CG3C50
    4     5    12	5 ;     NG3C51     CG3C50     CG3C52
    4     5     6	5 ;     NG3C51     CG3C50      CG321
    4     5    10	5 ;     NG3C51     CG3C50      CG321
   12     5     6	5 ;     CG3C52     CG3C50      CG321
   12     5    10	5 ;     CG3C52     CG3C50      CG321
    6     5    10	5 ;      CG321     CG3C50      CG321
    5     6     7	5 ;     CG3C50      CG321      CG314
    5     6    36	5 ;     CG3C50      CG321       HGA2
    5     6    37	5 ;     CG3C50      CG321       HGA2
    7     6    36	5 ;      CG314      CG321       HGA2
    7     6    37	5 ;      CG314      CG321       HGA2
   36     6    37	5 ;       HGA2      CG321       HGA2
    6     7    11	5 ;      CG321      CG314      CG331
    6     7     8	5 ;      CG321      CG314      NG3P1
    6     7    38	5 ;      CG321      CG314       HGA1
   11     7     8	5 ;      CG331      CG314      NG3P1
   11     7    38	5 ;      CG331      CG314       HGA1
    8     7    38	5 ;      NG3P1      CG314       HGA1
    7     8     9	5 ;      CG314      NG3P1      CG324
    7     8    15	5 ;      CG314      NG3P1       HGP2
    7     8    23	5 ;      CG314      NG3P1      CG324
    9     8    15	5 ;      CG324      NG3P1       HGP2
    9     8    23	5 ;      CG324      NG3P1      CG324
   15     8    23	5 ;       HGP2      NG3P1      CG324
   10     9     8	5 ;      CG321      CG324      NG3P1
   10     9    39	5 ;      CG321      CG324       HGA2
   10     9    40	5 ;      CG321      CG324       HGA2
    8     9    39	5 ;      NG3P1      CG324       HGA2
    8     9    40	5 ;      NG3P1      CG324       HGA2
   39     9    40	5 ;       HGA2      CG324       HGA2
    5    10     9	5 ;     CG3C50      CG321      CG324
    5    10    41	5 ;     CG3C50      CG321       HGA2
    5    10    42	5 ;     CG3C50      CG321       HGA2
    9    10    41	5 ;      CG324      CG321       HGA2
    9    10    42	5 ;      CG324      CG321       HGA2
   41    10    42	5 ;       HGA2      CG321       HGA2
    7    11    55	5 ;      CG314      CG331       HGA3
    7    11    56	5 ;      CG314      CG331       HGA3
    7    11    57	5 ;      CG314      CG331       HGA3
   55    11    56	5 ;       HGA3      CG331       HGA3
   55    11    57	5 ;       HGA3      CG331       HGA3
   56    11    57	5 ;       HGA3      CG331       HGA3
   13    12     5	5 ;     NG3C51     CG3C52     CG3C50
   13    12    43	5 ;     NG3C51     CG3C52       HGA2
   13    12    44	5 ;     NG3C51     CG3C52       HGA2
    5    12    43	5 ;     CG3C50     CG3C52       HGA2
    5    12    44	5 ;     CG3C50     CG3C52       HGA2
   43    12    44	5 ;       HGA2     CG3C52       HGA2
    1    13    14	5 ;      SG3O2     NG3C51      CG331
    1    13    12	5 ;      SG3O2     NG3C51     CG3C52
   14    13    12	5 ;      CG331     NG3C51     CG3C52
   13    14    61	5 ;     NG3C51      CG331       HGA3
   13    14    62	5 ;     NG3C51      CG331       HGA3
   13    14    63	5 ;     NG3C51      CG331       HGA3
   61    14    62	5 ;       HGA3      CG331       HGA3
   61    14    63	5 ;       HGA3      CG331       HGA3
   62    14    63	5 ;       HGA3      CG331       HGA3
    4    16    17	5 ;     NG3C51     CG2R61     CG2R61
    4    16    22	5 ;     NG3C51     CG2R61     CG2R61
   17    16    22	5 ;     CG2R61     CG2R61     CG2R61
   18    17    16	5 ;     CG2R66     CG2R61     CG2R61
   18    17    45	5 ;     CG2R66     CG2R61      HGR62
   16    17    45	5 ;     CG2R61     CG2R61      HGR62
   19    18    17	5 ;       FGR1     CG2R66     CG2R61
   19    18    20	5 ;       FGR1     CG2R66     CG2R61
   17    18    20	5 ;     CG2R61     CG2R66     CG2R61
   18    20    21	5 ;     CG2R66     CG2R61     CG2R61
   18    20    46	5 ;     CG2R66     CG2R61      HGR62
   21    20    46	5 ;     CG2R61     CG2R61      HGR62
   20    21    22	5 ;     CG2R61     CG2R61     CG2R61
   20    21    47	5 ;     CG2R61     CG2R61      HGR61
   22    21    47	5 ;     CG2R61     CG2R61      HGR61
   16    22    21	5 ;     CG2R61     CG2R61     CG2R61
   16    22    48	5 ;     CG2R61     CG2R61      HGR61
   21    22    48	5 ;     CG2R61     CG2R61      HGR61
    8    23    24	5 ;      NG3P1      CG324     CG2R61
    8    23    49	5 ;      NG3P1      CG324       HGA2
    8    23    50	5 ;      NG3P1      CG324       HGA2
   24    23    49	5 ;     CG2R61      CG324       HGA2
   24    23    50	5 ;     CG2R61      CG324       HGA2
   49    23    50	5 ;       HGA2      CG324       HGA2
   23    24    29	5 ;      CG324     CG2R61     CG2R61
   23    24    25	5 ;      CG324     CG2R61     CG2R61
   29    24    25	5 ;     CG2R61     CG2R61     CG2R61
   24    25    26	5 ;     CG2R61     CG2R61     CG2R61
   24    25    51	5 ;     CG2R61     CG2R61      HGR61
   26    25    51	5 ;     CG2R61     CG2R61      HGR61
   25    26    27	5 ;     CG2R61     CG2R61     CG2R61
   25    26    30	5 ;     CG2R61     CG2R61      OG301
   27    26    30	5 ;     CG2R61     CG2R61      OG301
   28    27    26	5 ;     CG2R61     CG2R61     CG2R61
   28    27    34	5 ;     CG2R61     CG2R61      OG311
   26    27    34	5 ;     CG2R61     CG2R61      OG311
   29    28    27	5 ;     CG2R61     CG2R61     CG2R61
   29    28    52	5 ;     CG2R61     CG2R61      HGR61
   27    28    52	5 ;     CG2R61     CG2R61      HGR61
   24    29    28	5 ;     CG2R61     CG2R61     CG2R61
   24    29    53	5 ;     CG2R61     CG2R61      HGR61
   28    29    53	5 ;     CG2R61     CG2R61      HGR61
   26    30    31	5 ;     CG2R61      OG301      CG311
   30    31    32	5 ;      OG301      CG311      CG331
   30    31    33	5 ;      OG301      CG311      CG331
   30    31    54	5 ;      OG301      CG311       HGA1
   32    31    33	5 ;      CG331      CG311      CG331
   32    31    54	5 ;      CG331      CG311       HGA1
   33    31    54	5 ;      CG331      CG311       HGA1
   31    32    64	5 ;      CG311      CG331       HGA3
   31    32    65	5 ;      CG311      CG331       HGA3
   31    32    66	5 ;      CG311      CG331       HGA3
   64    32    65	5 ;       HGA3      CG331       HGA3
   64    32    66	5 ;       HGA3      CG331       HGA3
   65    32    66	5 ;       HGA3      CG331       HGA3
   31    33    58	5 ;      CG311      CG331       HGA3
   31    33    59	5 ;      CG311      CG331       HGA3
   31    33    60	5 ;      CG311      CG331       HGA3
   58    33    59	5 ;       HGA3      CG331       HGA3
   58    33    60	5 ;       HGA3      CG331       HGA3
   59    33    60	5 ;       HGA3      CG331       HGA3
   27    34    35	5 ;     CG2R61      OG311       HGP1

[ dihedrals ]
;	ai	  aj	ak	  al funct			  c0			c1			  c2			c3			  c4			c5
    3     1    13    14	 9 ;      OG2P1      SG3O2     NG3C51      CG331
    3     1    13    12	 9 ;      OG2P1      SG3O2     NG3C51     CG3C52
    2     1    13    14	 9 ;      OG2P1      SG3O2     NG3C51      CG331
    2     1    13    12	 9 ;      OG2P1      SG3O2     NG3C51     CG3C52
    4     1    13    14	 9 ;     NG3C51      SG3O2     NG3C51      CG331
    4     1    13    12	 9 ;     NG3C51      SG3O2     NG3C51     CG3C52
    3     1     4    16	 9 ;      OG2P1      SG3O2     NG3C51     CG2R61
    3     1     4     5	 9 ;      OG2P1      SG3O2     NG3C51     CG3C50
    2     1     4    16	 9 ;      OG2P1      SG3O2     NG3C51     CG2R61
    2     1     4     5	 9 ;      OG2P1      SG3O2     NG3C51     CG3C50
   13     1     4    16	 9 ;     NG3C51      SG3O2     NG3C51     CG2R61
   13     1     4     5	 9 ;     NG3C51      SG3O2     NG3C51     CG3C50
    1     4    16    17	 9 ;      SG3O2     NG3C51     CG2R61     CG2R61
    1     4    16    22	 9 ;      SG3O2     NG3C51     CG2R61     CG2R61
    5     4    16    17	 9 ;     CG3C50     NG3C51     CG2R61     CG2R61
    5     4    16    22	 9 ;     CG3C50     NG3C51     CG2R61     CG2R61
    1     4     5    12	 9 ;      SG3O2     NG3C51     CG3C50     CG3C52
    1     4     5     6	 9 ;      SG3O2     NG3C51     CG3C50      CG321
    1     4     5    10	 9 ;      SG3O2     NG3C51     CG3C50      CG321
   16     4     5    12	 9 ;     CG2R61     NG3C51     CG3C50     CG3C52
   16     4     5     6	 9 ;     CG2R61     NG3C51     CG3C50      CG321
   16     4     5    10	 9 ;     CG2R61     NG3C51     CG3C50      CG321
    4     5    12    13	 9 ;     NG3C51     CG3C50     CG3C52     NG3C51
    4     5    12    43	 9 ;     NG3C51     CG3C50     CG3C52       HGA2
    4     5    12    44	 9 ;     NG3C51     CG3C50     CG3C52       HGA2
    6     5    12    13	 9 ;      CG321     CG3C50     CG3C52     NG3C51
    6     5    12    43	 9 ;      CG321     CG3C50     CG3C52       HGA2
    6     5    12    44	 9 ;      CG321     CG3C50     CG3C52       HGA2
   10     5    12    13	 9 ;      CG321     CG3C50     CG3C52     NG3C51
   10     5    12    43	 9 ;      CG321     CG3C50     CG3C52       HGA2
   10     5    12    44	 9 ;      CG321     CG3C50     CG3C52       HGA2
    4     5     6     7	 9 ;     NG3C51     CG3C50      CG321      CG314
    4     5     6    36	 9 ;     NG3C51     CG3C50      CG321       HGA2
    4     5     6    37	 9 ;     NG3C51     CG3C50      CG321       HGA2
   12     5     6     7	 9 ;     CG3C52     CG3C50      CG321      CG314
   12     5     6    36	 9 ;     CG3C52     CG3C50      CG321       HGA2
   12     5     6    37	 9 ;     CG3C52     CG3C50      CG321       HGA2
   10     5     6     7	 9 ;      CG321     CG3C50      CG321      CG314
   10     5     6    36	 9 ;      CG321     CG3C50      CG321       HGA2
   10     5     6    37	 9 ;      CG321     CG3C50      CG321       HGA2
    4     5    10     9	 9 ;     NG3C51     CG3C50      CG321      CG324
    4     5    10    41	 9 ;     NG3C51     CG3C50      CG321       HGA2
    4     5    10    42	 9 ;     NG3C51     CG3C50      CG321       HGA2
   12     5    10     9	 9 ;     CG3C52     CG3C50      CG321      CG324
   12     5    10    41	 9 ;     CG3C52     CG3C50      CG321       HGA2
   12     5    10    42	 9 ;     CG3C52     CG3C50      CG321       HGA2
    6     5    10     9	 9 ;      CG321     CG3C50      CG321      CG324
    6     5    10    41	 9 ;      CG321     CG3C50      CG321       HGA2
    6     5    10    42	 9 ;      CG321     CG3C50      CG321       HGA2
    5     6     7    11	 9 ;     CG3C50      CG321      CG314      CG331
    5     6     7     8	 9 ;     CG3C50      CG321      CG314      NG3P1
    5     6     7    38	 9 ;     CG3C50      CG321      CG314       HGA1
   36     6     7    11	 9 ;       HGA2      CG321      CG314      CG331
   36     6     7     8	 9 ;       HGA2      CG321      CG314      NG3P1
   36     6     7    38	 9 ;       HGA2      CG321      CG314       HGA1
   37     6     7    11	 9 ;       HGA2      CG321      CG314      CG331
   37     6     7     8	 9 ;       HGA2      CG321      CG314      NG3P1
   37     6     7    38	 9 ;       HGA2      CG321      CG314       HGA1
    6     7    11    55	 9 ;      CG321      CG314      CG331       HGA3
    6     7    11    56	 9 ;      CG321      CG314      CG331       HGA3
    6     7    11    57	 9 ;      CG321      CG314      CG331       HGA3
    8     7    11    55	 9 ;      NG3P1      CG314      CG331       HGA3
    8     7    11    56	 9 ;      NG3P1      CG314      CG331       HGA3
    8     7    11    57	 9 ;      NG3P1      CG314      CG331       HGA3
   38     7    11    55	 9 ;       HGA1      CG314      CG331       HGA3
   38     7    11    56	 9 ;       HGA1      CG314      CG331       HGA3
   38     7    11    57	 9 ;       HGA1      CG314      CG331       HGA3
    6     7     8     9	 9 ;      CG321      CG314      NG3P1      CG324
    6     7     8    15	 9 ;      CG321      CG314      NG3P1       HGP2
    6     7     8    23	 9 ;      CG321      CG314      NG3P1      CG324
   11     7     8     9	 9 ;      CG331      CG314      NG3P1      CG324
   11     7     8    15	 9 ;      CG331      CG314      NG3P1       HGP2
   11     7     8    23	 9 ;      CG331      CG314      NG3P1      CG324
   38     7     8     9	 9 ;       HGA1      CG314      NG3P1      CG324
   38     7     8    15	 9 ;       HGA1      CG314      NG3P1       HGP2
   38     7     8    23	 9 ;       HGA1      CG314      NG3P1      CG324
    7     8     9    10	 9 ;      CG314      NG3P1      CG324      CG321
    7     8     9    39	 9 ;      CG314      NG3P1      CG324       HGA2
    7     8     9    40	 9 ;      CG314      NG3P1      CG324       HGA2
   15     8     9    10	 9 ;       HGP2      NG3P1      CG324      CG321
   15     8     9    39	 9 ;       HGP2      NG3P1      CG324       HGA2
   15     8     9    40	 9 ;       HGP2      NG3P1      CG324       HGA2
   23     8     9    10	 9 ;      CG324      NG3P1      CG324      CG321
   23     8     9    39	 9 ;      CG324      NG3P1      CG324       HGA2
   23     8     9    40	 9 ;      CG324      NG3P1      CG324       HGA2
    7     8    23    24	 9 ;      CG314      NG3P1      CG324     CG2R61
    7     8    23    49	 9 ;      CG314      NG3P1      CG324       HGA2
    7     8    23    50	 9 ;      CG314      NG3P1      CG324       HGA2
    9     8    23    24	 9 ;      CG324      NG3P1      CG324     CG2R61
    9     8    23    49	 9 ;      CG324      NG3P1      CG324       HGA2
    9     8    23    50	 9 ;      CG324      NG3P1      CG324       HGA2
   15     8    23    24	 9 ;       HGP2      NG3P1      CG324     CG2R61
   15     8    23    49	 9 ;       HGP2      NG3P1      CG324       HGA2
   15     8    23    50	 9 ;       HGP2      NG3P1      CG324       HGA2
    8     9    10     5	 9 ;      NG3P1      CG324      CG321     CG3C50
    8     9    10    41	 9 ;      NG3P1      CG324      CG321       HGA2
    8     9    10    42	 9 ;      NG3P1      CG324      CG321       HGA2
   39     9    10     5	 9 ;       HGA2      CG324      CG321     CG3C50
   39     9    10    41	 9 ;       HGA2      CG324      CG321       HGA2
   39     9    10    42	 9 ;       HGA2      CG324      CG321       HGA2
   40     9    10     5	 9 ;       HGA2      CG324      CG321     CG3C50
   40     9    10    41	 9 ;       HGA2      CG324      CG321       HGA2
   40     9    10    42	 9 ;       HGA2      CG324      CG321       HGA2
    5    12    13     1	 9 ;     CG3C50     CG3C52     NG3C51      SG3O2
    5    12    13    14	 9 ;     CG3C50     CG3C52     NG3C51      CG331
   43    12    13     1	 9 ;       HGA2     CG3C52     NG3C51      SG3O2
   43    12    13    14	 9 ;       HGA2     CG3C52     NG3C51      CG331
   44    12    13     1	 9 ;       HGA2     CG3C52     NG3C51      SG3O2
   44    12    13    14	 9 ;       HGA2     CG3C52     NG3C51      CG331
    1    13    14    61	 9 ;      SG3O2     NG3C51      CG331       HGA3
    1    13    14    62	 9 ;      SG3O2     NG3C51      CG331       HGA3
    1    13    14    63	 9 ;      SG3O2     NG3C51      CG331       HGA3
   12    13    14    61	 9 ;     CG3C52     NG3C51      CG331       HGA3
   12    13    14    62	 9 ;     CG3C52     NG3C51      CG331       HGA3
   12    13    14    63	 9 ;     CG3C52     NG3C51      CG331       HGA3
    4    16    17    18	 9 ;     NG3C51     CG2R61     CG2R61     CG2R66
    4    16    17    45	 9 ;     NG3C51     CG2R61     CG2R61      HGR62
   22    16    17    18	 9 ;     CG2R61     CG2R61     CG2R61     CG2R66
   22    16    17    45	 9 ;     CG2R61     CG2R61     CG2R61      HGR62
    4    16    22    21	 9 ;     NG3C51     CG2R61     CG2R61     CG2R61
    4    16    22    48	 9 ;     NG3C51     CG2R61     CG2R61      HGR61
   17    16    22    21	 9 ;     CG2R61     CG2R61     CG2R61     CG2R61
   17    16    22    48	 9 ;     CG2R61     CG2R61     CG2R61      HGR61
   16    17    18    19	 9 ;     CG2R61     CG2R61     CG2R66       FGR1
   16    17    18    20	 9 ;     CG2R61     CG2R61     CG2R66     CG2R61
   45    17    18    19	 9 ;      HGR62     CG2R61     CG2R66       FGR1
   45    17    18    20	 9 ;      HGR62     CG2R61     CG2R66     CG2R61
   19    18    20    21	 9 ;       FGR1     CG2R66     CG2R61     CG2R61
   19    18    20    46	 9 ;       FGR1     CG2R66     CG2R61      HGR62
   17    18    20    21	 9 ;     CG2R61     CG2R66     CG2R61     CG2R61
   17    18    20    46	 9 ;     CG2R61     CG2R66     CG2R61      HGR62
   18    20    21    22	 9 ;     CG2R66     CG2R61     CG2R61     CG2R61
   18    20    21    47	 9 ;     CG2R66     CG2R61     CG2R61      HGR61
   46    20    21    22	 9 ;      HGR62     CG2R61     CG2R61     CG2R61
   46    20    21    47	 9 ;      HGR62     CG2R61     CG2R61      HGR61
   20    21    22    16	 9 ;     CG2R61     CG2R61     CG2R61     CG2R61
   20    21    22    48	 9 ;     CG2R61     CG2R61     CG2R61      HGR61
   47    21    22    16	 9 ;      HGR61     CG2R61     CG2R61     CG2R61
   47    21    22    48	 9 ;      HGR61     CG2R61     CG2R61      HGR61
    8    23    24    29	 9 ;      NG3P1      CG324     CG2R61     CG2R61
    8    23    24    25	 9 ;      NG3P1      CG324     CG2R61     CG2R61
   49    23    24    29	 9 ;       HGA2      CG324     CG2R61     CG2R61
   49    23    24    25	 9 ;       HGA2      CG324     CG2R61     CG2R61
   50    23    24    29	 9 ;       HGA2      CG324     CG2R61     CG2R61
   50    23    24    25	 9 ;       HGA2      CG324     CG2R61     CG2R61
   23    24    29    28	 9 ;      CG324     CG2R61     CG2R61     CG2R61
   23    24    29    53	 9 ;      CG324     CG2R61     CG2R61      HGR61
   25    24    29    28	 9 ;     CG2R61     CG2R61     CG2R61     CG2R61
   25    24    29    53	 9 ;     CG2R61     CG2R61     CG2R61      HGR61
   23    24    25    26	 9 ;      CG324     CG2R61     CG2R61     CG2R61
   23    24    25    51	 9 ;      CG324     CG2R61     CG2R61      HGR61
   29    24    25    26	 9 ;     CG2R61     CG2R61     CG2R61     CG2R61
   29    24    25    51	 9 ;     CG2R61     CG2R61     CG2R61      HGR61
   24    25    26    27	 9 ;     CG2R61     CG2R61     CG2R61     CG2R61
   24    25    26    30	 9 ;     CG2R61     CG2R61     CG2R61      OG301
   51    25    26    27	 9 ;      HGR61     CG2R61     CG2R61     CG2R61
   51    25    26    30	 9 ;      HGR61     CG2R61     CG2R61      OG301
   25    26    27    28	 9 ;     CG2R61     CG2R61     CG2R61     CG2R61
   25    26    27    34	 9 ;     CG2R61     CG2R61     CG2R61      OG311
   30    26    27    28	 9 ;      OG301     CG2R61     CG2R61     CG2R61
   30    26    27    34	 9 ;      OG301     CG2R61     CG2R61      OG311
   25    26    30    31	 9 ;     CG2R61     CG2R61      OG301      CG311
   27    26    30    31	 9 ;     CG2R61     CG2R61      OG301      CG311
   26    27    28    29	 9 ;     CG2R61     CG2R61     CG2R61     CG2R61
   26    27    28    52	 9 ;     CG2R61     CG2R61     CG2R61      HGR61
   34    27    28    29	 9 ;      OG311     CG2R61     CG2R61     CG2R61
   34    27    28    52	 9 ;      OG311     CG2R61     CG2R61      HGR61
   28    27    34    35	 9 ;     CG2R61     CG2R61      OG311       HGP1
   26    27    34    35	 9 ;     CG2R61     CG2R61      OG311       HGP1
   27    28    29    24	 9 ;     CG2R61     CG2R61     CG2R61     CG2R61
   27    28    29    53	 9 ;     CG2R61     CG2R61     CG2R61      HGR61
   52    28    29    24	 9 ;      HGR61     CG2R61     CG2R61     CG2R61
   52    28    29    53	 9 ;      HGR61     CG2R61     CG2R61      HGR61
   26    30    31    32	 9 ;     CG2R61      OG301      CG311      CG331
   26    30    31    33	 9 ;     CG2R61      OG301      CG311      CG331
   26    30    31    54	 9 ;     CG2R61      OG301      CG311       HGA1
   30    31    32    64	 9 ;      OG301      CG311      CG331       HGA3
   30    31    32    65	 9 ;      OG301      CG311      CG331       HGA3
   30    31    32    66	 9 ;      OG301      CG311      CG331       HGA3
   33    31    32    64	 9 ;      CG331      CG311      CG331       HGA3
   33    31    32    65	 9 ;      CG331      CG311      CG331       HGA3
   33    31    32    66	 9 ;      CG331      CG311      CG331       HGA3
   54    31    32    64	 9 ;       HGA1      CG311      CG331       HGA3
   54    31    32    65	 9 ;       HGA1      CG311      CG331       HGA3
   54    31    32    66	 9 ;       HGA1      CG311      CG331       HGA3
   30    31    33    58	 9 ;      OG301      CG311      CG331       HGA3
   30    31    33    59	 9 ;      OG301      CG311      CG331       HGA3
   30    31    33    60	 9 ;      OG301      CG311      CG331       HGA3
   32    31    33    58	 9 ;      CG331      CG311      CG331       HGA3
   32    31    33    59	 9 ;      CG331      CG311      CG331       HGA3
   32    31    33    60	 9 ;      CG331      CG311      CG331       HGA3
   54    31    33    58	 9 ;       HGA1      CG311      CG331       HGA3
   54    31    33    59	 9 ;       HGA1      CG311      CG331       HGA3
   54    31    33    60	 9 ;       HGA1      CG311      CG331       HGA3

