GROup of MAchos and Cynical Suckers
   49
    1LIG      S    1  -1.114   0.384  -1.688
    1LIG     C1    2  -1.122   0.559  -1.655
    1LIG     C2    3  -1.195   0.567  -1.522
    1LIG     N1    4  -1.264   0.466  -1.478
    1LIG    HN1    5  -1.315   0.465  -1.390
    1LIG     C3    6  -1.260   0.353  -1.576
    1LIG     C4    7  -1.394   0.348  -1.654
    1LIG     C5    8  -1.517   0.324  -1.589
    1LIG     C6    9  -1.642   0.346  -1.651
    1LIG     C7   10  -1.640   0.383  -1.787
    1LIG     C8   11  -1.520   0.401  -1.856
    1LIG     C9   12  -1.398   0.385  -1.789
    1LIG    C10   13  -1.767   0.336  -1.573
    1LIG    C11   14  -1.880   0.266  -1.622
    1LIG    C12   15  -1.998   0.259  -1.548
    1LIG    C13   16  -2.005   0.319  -1.422
    1LIG    C14   17  -1.896   0.388  -1.371
    1LIG    C15   18  -1.779   0.397  -1.447
    1LIG      O   19  -2.113   0.195  -1.587
    1LIG    C16   20  -2.180   0.118  -1.488
    1LIG    C17   21  -1.238   0.218  -1.505
    1LIG    C18   22  -1.211   0.100  -1.577
    1LIG    C19   23  -1.189  -0.018  -1.507
    1LIG     N2   24  -1.192  -0.029  -1.373
    1LIG    C20   25  -1.218   0.084  -1.304
    1LIG    HN2   26  -1.176  -0.118  -1.325
    1LIG    C21   27  -1.242   0.207  -1.365
    1LIG     N3   28  -1.186   0.681  -1.448
    1LIG     H1   29  -1.235   0.760  -1.488
    1LIG     H2   30  -1.196   0.673  -1.347
    1LIG    HC2   31  -1.022   0.601  -1.647
    1LIG    HC3   32  -1.179   0.609  -1.732
    1LIG     HC   33  -1.516   0.288  -1.488
    1LIG    HC1   34  -1.733   0.399  -1.838
    1LIG    HC4   35  -1.521   0.426  -1.961
    1LIG    HC5   36  -1.306   0.401  -1.843
    1LIG    HC6   37  -1.874   0.218  -1.718
    1LIG    HC7   38  -2.096   0.313  -1.365
    1LIG    HC8   39  -1.901   0.435  -1.274
    1LIG    HC9   40  -1.695   0.452  -1.407
    1LIG   HC10   41  -2.244   0.044  -1.536
    1LIG   HC11   42  -2.241   0.184  -1.426
    1LIG   HC12   43  -2.106   0.067  -1.426
    1LIG   HC13   44  -1.207   0.101  -1.684
    1LIG   HC14   45  -1.169  -0.107  -1.564
    1LIG   HC15   46  -1.221   0.079  -1.196
    1LIG   HC16   47  -1.262   0.294  -1.304
    1LIG    H22   48  -1.283   0.606  -1.572
    1LIG    H23   49  -1.296  -0.040  -1.511
   0.00000   0.00000   0.00000
