; Created by cgenff_charmm2gmx.py

[ moleculetype ]
; Name			   nrexcl
LIG				 3

[ atoms ]
;	 nr		  type	resnr residue  atom   cgnr	   charge		mass  typeB    chargeB		massB
; residue	 1 LIG rtp LIG q	qsum
     1      CG311      1    LIG     C1      1      0.010     12.011   ;
     2      NG2S1      1    LIG     N1      2     -0.226     14.007   ;
     3      CG2O1      1    LIG     C2      3      0.302     12.011   ;
     4      OG2D1      1    LIG     O1      4     -0.463     15.999   ;
     5       HGP1      1    LIG     H1      5      0.262      1.008   ;
     6     CG2R61      1    LIG     C3      6     -0.104     12.011   ;
     7     CG2R61      1    LIG     C4      7     -0.063     12.011   ;
     8     CG2R61      1    LIG     C5      8      0.179     12.011   ;
     9     CG2R61      1    LIG     C6      9     -0.119     12.011   ;
    10     CG2R61      1    LIG     C7     10     -0.111     12.011   ;
    11     CG2R61      1    LIG     C8     11     -0.060     12.011   ;
    12     NG2R53      1    LIG     N2     12     -0.258     14.007   ;
    13     CG2R53      1    LIG     C9     13      0.258     12.011   ;
    14      OG2D1      1    LIG     O2     14     -0.484     15.999   ;
    15     CG3C52      1    LIG    C10     15     -0.030     12.011   ;
    16     CG3C52      1    LIG    C11     16     -0.175     12.011   ;
    17     CG3C52      1    LIG    C12     17     -0.028     12.011   ;
    18      CG321      1    LIG    C13     18     -0.111     12.011   ;
    19     CG2R61      1    LIG    C14     19     -0.019     12.011   ;
    20     CG2R61      1    LIG    C15     20     -0.123     12.011   ;
    21     CG2R61      1    LIG    C16     21     -0.112     12.011   ;
    22     CG2R61      1    LIG    C17     22     -0.116     12.011   ;
    23     CG2R61      1    LIG    C18     23     -0.112     12.011   ;
    24     CG2R61      1    LIG    C19     24     -0.123     12.011   ;
    25      CG311      1    LIG    C20     25      0.089     12.011   ;
    26      OG311      1    LIG     O3     26     -0.625     15.999   ;
    27       HGP1      1    LIG     H2     27      0.415      1.008   ;
    28      CG324      1    LIG    C21     28      0.198     12.011   ;
    29      NG3P2      1    LIG     N3     29     -0.406     14.007   ;
    30       HGP2      1    LIG     H3     30      0.329      1.008   ;
    31       HGP2      1    LIG     H4     31      0.329      1.008   ;
    32      CG314      1    LIG    C22     32      0.189     12.011   ;
    33      CG331      1    LIG    C23     33     -0.216     12.011   ;
    34      CG2O1      1    LIG    C24     34      0.385     12.011   ;
    35      OG2D1      1    LIG     O4     35     -0.443     15.999   ;
    36      NG2S1      1    LIG     N4     36     -0.285     14.007   ;
    37       HGP1      1    LIG     H5     37      0.319      1.008   ;
    38      CG311      1    LIG    C25     38     -0.146     12.011   ;
    39      CG321      1    LIG    C26     39     -0.115     12.011   ;
    40      CG321      1    LIG    C27     40     -0.198     12.011   ;
    41      CG321      1    LIG    C28     41     -0.154     12.011   ;
    42      CG321      1    LIG    C29     42     -0.198     12.011   ;
    43      CG321      1    LIG    C30     43     -0.115     12.011   ;
    44       HGA1      1    LIG     HC     44      0.090      1.008   ;
    45      HGR61      1    LIG    HC1     45      0.116      1.008   ;
    46      HGR61      1    LIG    HC2     46      0.116      1.008   ;
    47      HGR61      1    LIG    HC3     47      0.116      1.008   ;
    48      HGR61      1    LIG    HC4     48      0.116      1.008   ;
    49       HGA2      1    LIG    HC5     49      0.090      1.008   ;
    50       HGA2      1    LIG    HC6     50      0.090      1.008   ;
    51       HGA2      1    LIG    HC7     51      0.090      1.008   ;
    52       HGA2      1    LIG    HC8     52      0.090      1.008   ;
    53       HGA2      1    LIG    HC9     53      0.090      1.008   ;
    54       HGA2      1    LIG   HC10     54      0.090      1.008   ;
    55       HGA2      1    LIG   HC11     55      0.090      1.008   ;
    56       HGA2      1    LIG   HC12     56      0.090      1.008   ;
    57      HGR61      1    LIG   HC13     57      0.116      1.008   ;
    58      HGR61      1    LIG   HC14     58      0.116      1.008   ;
    59      HGR61      1    LIG   HC15     59      0.116      1.008   ;
    60      HGR61      1    LIG   HC16     60      0.116      1.008   ;
    61      HGR61      1    LIG   HC17     61      0.116      1.008   ;
    62       HGA1      1    LIG   HC18     62      0.090      1.008   ;
    63       HGA2      1    LIG   HC19     63      0.090      1.008   ;
    64       HGA2      1    LIG   HC20     64      0.090      1.008   ;
    65       HGA1      1    LIG   HC21     65      0.090      1.008   ;
    66       HGA3      1    LIG   HC22     66      0.090      1.008   ;
    67       HGA3      1    LIG   HC23     67      0.090      1.008   ;
    68       HGA3      1    LIG   HC24     68      0.090      1.008   ;
    69       HGA1      1    LIG   HC25     69      0.090      1.008   ;
    70       HGA2      1    LIG   HC26     70      0.090      1.008   ;
    71       HGA2      1    LIG   HC27     71      0.090      1.008   ;
    72       HGA2      1    LIG   HC28     72      0.090      1.008   ;
    73       HGA2      1    LIG   HC29     73      0.090      1.008   ;
    74       HGA2      1    LIG   HC30     74      0.090      1.008   ;
    75       HGA2      1    LIG   HC31     75      0.090      1.008   ;
    76       HGA2      1    LIG   HC32     76      0.090      1.008   ;
    77       HGA2      1    LIG   HC33     77      0.090      1.008   ;
    78       HGA2      1    LIG   HC34     78      0.090      1.008   ;
    79       HGA2      1    LIG   HC35     79      0.090      1.008   ;

[ bonds ]
;	ai	  aj funct			  c0			c1			  c2			c3
    1     2	 1 ;       CG311      NG2S1
    1    25	 1 ;       CG311      CG311
    1    18	 1 ;       CG311      CG321
    1    44	 1 ;       CG311       HGA1
    2     3	 1 ;       NG2S1      CG2O1
    2     5	 1 ;       NG2S1       HGP1
    3     6	 1 ;       CG2O1     CG2R61
    3     4	 1 ;       CG2O1      OG2D1
    6    11	 1 ;      CG2R61     CG2R61
    6     7	 1 ;      CG2R61     CG2R61
    7     8	 1 ;      CG2R61     CG2R61
    7    45	 1 ;      CG2R61      HGR61
    8     9	 1 ;      CG2R61     CG2R61
    8    12	 1 ;      CG2R61     NG2R53
    9    10	 1 ;      CG2R61     CG2R61
    9    46	 1 ;      CG2R61      HGR61
   10    11	 1 ;      CG2R61     CG2R61
   10    47	 1 ;      CG2R61      HGR61
   11    48	 1 ;      CG2R61      HGR61
   12    17	 1 ;      NG2R53     CG3C52
   12    13	 1 ;      NG2R53     CG2R53
   13    14	 1 ;      CG2R53      OG2D1
   13    15	 1 ;      CG2R53     CG3C52
   15    16	 1 ;      CG3C52     CG3C52
   15    49	 1 ;      CG3C52       HGA2
   15    50	 1 ;      CG3C52       HGA2
   16    17	 1 ;      CG3C52     CG3C52
   16    51	 1 ;      CG3C52       HGA2
   16    52	 1 ;      CG3C52       HGA2
   17    53	 1 ;      CG3C52       HGA2
   17    54	 1 ;      CG3C52       HGA2
   18    19	 1 ;       CG321     CG2R61
   18    55	 1 ;       CG321       HGA2
   18    56	 1 ;       CG321       HGA2
   19    20	 1 ;      CG2R61     CG2R61
   19    24	 1 ;      CG2R61     CG2R61
   20    21	 1 ;      CG2R61     CG2R61
   20    57	 1 ;      CG2R61      HGR61
   21    22	 1 ;      CG2R61     CG2R61
   21    58	 1 ;      CG2R61      HGR61
   22    23	 1 ;      CG2R61     CG2R61
   22    59	 1 ;      CG2R61      HGR61
   23    24	 1 ;      CG2R61     CG2R61
   23    60	 1 ;      CG2R61      HGR61
   24    61	 1 ;      CG2R61      HGR61
   25    28	 1 ;       CG311      CG324
   25    26	 1 ;       CG311      OG311
   25    62	 1 ;       CG311       HGA1
   26    27	 1 ;       OG311       HGP1
   28    29	 1 ;       CG324      NG3P2
   28    63	 1 ;       CG324       HGA2
   28    64	 1 ;       CG324       HGA2
   29    32	 1 ;       NG3P2      CG314
   29    30	 1 ;       NG3P2       HGP2
   29    31	 1 ;       NG3P2       HGP2
   32    34	 1 ;       CG314      CG2O1
   32    33	 1 ;       CG314      CG331
   32    65	 1 ;       CG314       HGA1
   33    66	 1 ;       CG331       HGA3
   33    67	 1 ;       CG331       HGA3
   33    68	 1 ;       CG331       HGA3
   34    36	 1 ;       CG2O1      NG2S1
   34    35	 1 ;       CG2O1      OG2D1
   36    38	 1 ;       NG2S1      CG311
   36    37	 1 ;       NG2S1       HGP1
   38    39	 1 ;       CG311      CG321
   38    43	 1 ;       CG311      CG321
   38    69	 1 ;       CG311       HGA1
   39    40	 1 ;       CG321      CG321
   39    70	 1 ;       CG321       HGA2
   39    71	 1 ;       CG321       HGA2
   40    41	 1 ;       CG321      CG321
   40    72	 1 ;       CG321       HGA2
   40    73	 1 ;       CG321       HGA2
   41    42	 1 ;       CG321      CG321
   41    74	 1 ;       CG321       HGA2
   41    75	 1 ;       CG321       HGA2
   42    43	 1 ;       CG321      CG321
   42    76	 1 ;       CG321       HGA2
   42    77	 1 ;       CG321       HGA2
   43    78	 1 ;       CG321       HGA2
   43    79	 1 ;       CG321       HGA2

[ pairs ]
;	ai	  aj funct			  c0			c1			  c2			c3
    1     6	 1
    1     4	 1
    1    20	 1
    1    24	 1
    1    29	 1
    1    63	 1
    1    64	 1
    1    27	 1
    2    28	 1
    2    26	 1
    2    62	 1
    2    19	 1
    2    55	 1
    2    56	 1
    2    11	 1
    2     7	 1
    3    25	 1
    3    18	 1
    3    44	 1
    3    10	 1
    3    48	 1
    3     8	 1
    3    45	 1
    4     5	 1
    4    11	 1
    4     7	 1
    5    25	 1
    5    18	 1
    5    44	 1
    5     6	 1
    6     9	 1
    6    12	 1
    6    47	 1
    7    10	 1
    7    48	 1
    7    46	 1
    7    17	 1
    7    13	 1
    8    11	 1
    8    47	 1
    8    16	 1
    8    53	 1
    8    54	 1
    8    14	 1
    8    15	 1
    9    45	 1
    9    17	 1
    9    13	 1
    9    48	 1
   10    12	 1
   11    45	 1
   11    46	 1
   12    45	 1
   12    46	 1
   12    49	 1
   12    50	 1
   12    51	 1
   12    52	 1
   13    53	 1
   13    54	 1
   13    51	 1
   13    52	 1
   14    17	 1
   14    16	 1
   14    49	 1
   14    50	 1
   15    53	 1
   15    54	 1
   17    49	 1
   17    50	 1
   18    28	 1
   18    26	 1
   18    62	 1
   18    21	 1
   18    57	 1
   18    23	 1
   18    61	 1
   19    25	 1
   19    44	 1
   19    22	 1
   19    58	 1
   19    60	 1
   20    55	 1
   20    56	 1
   20    23	 1
   20    61	 1
   20    59	 1
   21    24	 1
   21    60	 1
   22    57	 1
   22    61	 1
   23    58	 1
   24    55	 1
   24    56	 1
   24    57	 1
   24    59	 1
   25    55	 1
   25    56	 1
   25    32	 1
   25    30	 1
   25    31	 1
   26    44	 1
   26    29	 1
   26    63	 1
   26    64	 1
   27    28	 1
   27    62	 1
   28    44	 1
   28    34	 1
   28    33	 1
   28    65	 1
   29    62	 1
   29    36	 1
   29    35	 1
   29    66	 1
   29    67	 1
   29    68	 1
   30    63	 1
   30    64	 1
   30    34	 1
   30    33	 1
   30    65	 1
   31    63	 1
   31    64	 1
   31    34	 1
   31    33	 1
   31    65	 1
   32    63	 1
   32    64	 1
   32    38	 1
   32    37	 1
   33    36	 1
   33    35	 1
   34    66	 1
   34    67	 1
   34    68	 1
   34    39	 1
   34    43	 1
   34    69	 1
   35    65	 1
   35    38	 1
   35    37	 1
   36    65	 1
   36    40	 1
   36    70	 1
   36    71	 1
   36    42	 1
   36    78	 1
   36    79	 1
   37    39	 1
   37    43	 1
   37    69	 1
   38    41	 1
   38    72	 1
   38    73	 1
   38    76	 1
   38    77	 1
   39    42	 1
   39    78	 1
   39    79	 1
   39    74	 1
   39    75	 1
   40    43	 1
   40    69	 1
   40    76	 1
   40    77	 1
   41    70	 1
   41    71	 1
   41    78	 1
   41    79	 1
   42    69	 1
   42    72	 1
   42    73	 1
   43    70	 1
   43    71	 1
   43    74	 1
   43    75	 1
   44    62	 1
   44    55	 1
   44    56	 1
   46    47	 1
   47    48	 1
   49    51	 1
   49    52	 1
   50    51	 1
   50    52	 1
   51    53	 1
   51    54	 1
   52    53	 1
   52    54	 1
   57    58	 1
   58    59	 1
   59    60	 1
   60    61	 1
   62    63	 1
   62    64	 1
   65    66	 1
   65    67	 1
   65    68	 1
   69    70	 1
   69    71	 1
   69    78	 1
   69    79	 1
   70    72	 1
   70    73	 1
   71    72	 1
   71    73	 1
   72    74	 1
   72    75	 1
   73    74	 1
   73    75	 1
   74    76	 1
   74    77	 1
   75    76	 1
   75    77	 1
   76    78	 1
   76    79	 1
   77    78	 1
   77    79	 1

[ angles ]
;	ai	  aj	ak funct			c0			  c1			c2			  c3
    2     1    25	5 ;      NG2S1      CG311      CG311
    2     1    18	5 ;      NG2S1      CG311      CG321
    2     1    44	5 ;      NG2S1      CG311       HGA1
   25     1    18	5 ;      CG311      CG311      CG321
   25     1    44	5 ;      CG311      CG311       HGA1
   18     1    44	5 ;      CG321      CG311       HGA1
    3     2     5	5 ;      CG2O1      NG2S1       HGP1
    3     2     1	5 ;      CG2O1      NG2S1      CG311
    5     2     1	5 ;       HGP1      NG2S1      CG311
    6     3     4	5 ;     CG2R61      CG2O1      OG2D1
    6     3     2	5 ;     CG2R61      CG2O1      NG2S1
    4     3     2	5 ;      OG2D1      CG2O1      NG2S1
   11     6     7	5 ;     CG2R61     CG2R61     CG2R61
   11     6     3	5 ;     CG2R61     CG2R61      CG2O1
    7     6     3	5 ;     CG2R61     CG2R61      CG2O1
    8     7     6	5 ;     CG2R61     CG2R61     CG2R61
    8     7    45	5 ;     CG2R61     CG2R61      HGR61
    6     7    45	5 ;     CG2R61     CG2R61      HGR61
    9     8    12	5 ;     CG2R61     CG2R61     NG2R53
    9     8     7	5 ;     CG2R61     CG2R61     CG2R61
   12     8     7	5 ;     NG2R53     CG2R61     CG2R61
   10     9     8	5 ;     CG2R61     CG2R61     CG2R61
   10     9    46	5 ;     CG2R61     CG2R61      HGR61
    8     9    46	5 ;     CG2R61     CG2R61      HGR61
    9    10    11	5 ;     CG2R61     CG2R61     CG2R61
    9    10    47	5 ;     CG2R61     CG2R61      HGR61
   11    10    47	5 ;     CG2R61     CG2R61      HGR61
   10    11     6	5 ;     CG2R61     CG2R61     CG2R61
   10    11    48	5 ;     CG2R61     CG2R61      HGR61
    6    11    48	5 ;     CG2R61     CG2R61      HGR61
    8    12    17	5 ;     CG2R61     NG2R53     CG3C52
    8    12    13	5 ;     CG2R61     NG2R53     CG2R53
   17    12    13	5 ;     CG3C52     NG2R53     CG2R53
   12    13    14	5 ;     NG2R53     CG2R53      OG2D1
   12    13    15	5 ;     NG2R53     CG2R53     CG3C52
   14    13    15	5 ;      OG2D1     CG2R53     CG3C52
   16    15    13	5 ;     CG3C52     CG3C52     CG2R53
   16    15    49	5 ;     CG3C52     CG3C52       HGA2
   16    15    50	5 ;     CG3C52     CG3C52       HGA2
   13    15    49	5 ;     CG2R53     CG3C52       HGA2
   13    15    50	5 ;     CG2R53     CG3C52       HGA2
   49    15    50	5 ;       HGA2     CG3C52       HGA2
   17    16    15	5 ;     CG3C52     CG3C52     CG3C52
   17    16    51	5 ;     CG3C52     CG3C52       HGA2
   17    16    52	5 ;     CG3C52     CG3C52       HGA2
   15    16    51	5 ;     CG3C52     CG3C52       HGA2
   15    16    52	5 ;     CG3C52     CG3C52       HGA2
   51    16    52	5 ;       HGA2     CG3C52       HGA2
   12    17    16	5 ;     NG2R53     CG3C52     CG3C52
   12    17    53	5 ;     NG2R53     CG3C52       HGA2
   12    17    54	5 ;     NG2R53     CG3C52       HGA2
   16    17    53	5 ;     CG3C52     CG3C52       HGA2
   16    17    54	5 ;     CG3C52     CG3C52       HGA2
   53    17    54	5 ;       HGA2     CG3C52       HGA2
    1    18    19	5 ;      CG311      CG321     CG2R61
    1    18    55	5 ;      CG311      CG321       HGA2
    1    18    56	5 ;      CG311      CG321       HGA2
   19    18    55	5 ;     CG2R61      CG321       HGA2
   19    18    56	5 ;     CG2R61      CG321       HGA2
   55    18    56	5 ;       HGA2      CG321       HGA2
   18    19    20	5 ;      CG321     CG2R61     CG2R61
   18    19    24	5 ;      CG321     CG2R61     CG2R61
   20    19    24	5 ;     CG2R61     CG2R61     CG2R61
   19    20    21	5 ;     CG2R61     CG2R61     CG2R61
   19    20    57	5 ;     CG2R61     CG2R61      HGR61
   21    20    57	5 ;     CG2R61     CG2R61      HGR61
   20    21    22	5 ;     CG2R61     CG2R61     CG2R61
   20    21    58	5 ;     CG2R61     CG2R61      HGR61
   22    21    58	5 ;     CG2R61     CG2R61      HGR61
   21    22    23	5 ;     CG2R61     CG2R61     CG2R61
   21    22    59	5 ;     CG2R61     CG2R61      HGR61
   23    22    59	5 ;     CG2R61     CG2R61      HGR61
   24    23    22	5 ;     CG2R61     CG2R61     CG2R61
   24    23    60	5 ;     CG2R61     CG2R61      HGR61
   22    23    60	5 ;     CG2R61     CG2R61      HGR61
   19    24    23	5 ;     CG2R61     CG2R61     CG2R61
   19    24    61	5 ;     CG2R61     CG2R61      HGR61
   23    24    61	5 ;     CG2R61     CG2R61      HGR61
   28    25     1	5 ;      CG324      CG311      CG311
   28    25    26	5 ;      CG324      CG311      OG311
   28    25    62	5 ;      CG324      CG311       HGA1
    1    25    26	5 ;      CG311      CG311      OG311
    1    25    62	5 ;      CG311      CG311       HGA1
   26    25    62	5 ;      OG311      CG311       HGA1
   25    26    27	5 ;      CG311      OG311       HGP1
   29    28    25	5 ;      NG3P2      CG324      CG311
   29    28    63	5 ;      NG3P2      CG324       HGA2
   29    28    64	5 ;      NG3P2      CG324       HGA2
   25    28    63	5 ;      CG311      CG324       HGA2
   25    28    64	5 ;      CG311      CG324       HGA2
   63    28    64	5 ;       HGA2      CG324       HGA2
   32    29    30	5 ;      CG314      NG3P2       HGP2
   32    29    28	5 ;      CG314      NG3P2      CG324
   32    29    31	5 ;      CG314      NG3P2       HGP2
   30    29    28	5 ;       HGP2      NG3P2      CG324
   30    29    31	5 ;       HGP2      NG3P2       HGP2
   28    29    31	5 ;      CG324      NG3P2       HGP2
   34    32    33	5 ;      CG2O1      CG314      CG331
   34    32    29	5 ;      CG2O1      CG314      NG3P2
   34    32    65	5 ;      CG2O1      CG314       HGA1
   33    32    29	5 ;      CG331      CG314      NG3P2
   33    32    65	5 ;      CG331      CG314       HGA1
   29    32    65	5 ;      NG3P2      CG314       HGA1
   32    33    66	5 ;      CG314      CG331       HGA3
   32    33    67	5 ;      CG314      CG331       HGA3
   32    33    68	5 ;      CG314      CG331       HGA3
   66    33    67	5 ;       HGA3      CG331       HGA3
   66    33    68	5 ;       HGA3      CG331       HGA3
   67    33    68	5 ;       HGA3      CG331       HGA3
   36    34    35	5 ;      NG2S1      CG2O1      OG2D1
   36    34    32	5 ;      NG2S1      CG2O1      CG314
   35    34    32	5 ;      OG2D1      CG2O1      CG314
   38    36    37	5 ;      CG311      NG2S1       HGP1
   38    36    34	5 ;      CG311      NG2S1      CG2O1
   37    36    34	5 ;       HGP1      NG2S1      CG2O1
   39    38    36	5 ;      CG321      CG311      NG2S1
   39    38    43	5 ;      CG321      CG311      CG321
   39    38    69	5 ;      CG321      CG311       HGA1
   36    38    43	5 ;      NG2S1      CG311      CG321
   36    38    69	5 ;      NG2S1      CG311       HGA1
   43    38    69	5 ;      CG321      CG311       HGA1
   40    39    38	5 ;      CG321      CG321      CG311
   40    39    70	5 ;      CG321      CG321       HGA2
   40    39    71	5 ;      CG321      CG321       HGA2
   38    39    70	5 ;      CG311      CG321       HGA2
   38    39    71	5 ;      CG311      CG321       HGA2
   70    39    71	5 ;       HGA2      CG321       HGA2
   39    40    41	5 ;      CG321      CG321      CG321
   39    40    72	5 ;      CG321      CG321       HGA2
   39    40    73	5 ;      CG321      CG321       HGA2
   41    40    72	5 ;      CG321      CG321       HGA2
   41    40    73	5 ;      CG321      CG321       HGA2
   72    40    73	5 ;       HGA2      CG321       HGA2
   40    41    42	5 ;      CG321      CG321      CG321
   40    41    74	5 ;      CG321      CG321       HGA2
   40    41    75	5 ;      CG321      CG321       HGA2
   42    41    74	5 ;      CG321      CG321       HGA2
   42    41    75	5 ;      CG321      CG321       HGA2
   74    41    75	5 ;       HGA2      CG321       HGA2
   41    42    43	5 ;      CG321      CG321      CG321
   41    42    76	5 ;      CG321      CG321       HGA2
   41    42    77	5 ;      CG321      CG321       HGA2
   43    42    76	5 ;      CG321      CG321       HGA2
   43    42    77	5 ;      CG321      CG321       HGA2
   76    42    77	5 ;       HGA2      CG321       HGA2
   38    43    42	5 ;      CG311      CG321      CG321
   38    43    78	5 ;      CG311      CG321       HGA2
   38    43    79	5 ;      CG311      CG321       HGA2
   42    43    78	5 ;      CG321      CG321       HGA2
   42    43    79	5 ;      CG321      CG321       HGA2
   78    43    79	5 ;       HGA2      CG321       HGA2

[ dihedrals ]
;	ai	  aj	ak	  al funct			  c0			c1			  c2			c3			  c4			c5
   25     1     2     3	 9 ;      CG311      CG311      NG2S1      CG2O1
   25     1     2     5	 9 ;      CG311      CG311      NG2S1       HGP1
   18     1     2     3	 9 ;      CG321      CG311      NG2S1      CG2O1
   18     1     2     5	 9 ;      CG321      CG311      NG2S1       HGP1
   44     1     2     3	 9 ;       HGA1      CG311      NG2S1      CG2O1
   44     1     2     5	 9 ;       HGA1      CG311      NG2S1       HGP1
    2     1    25    28	 9 ;      NG2S1      CG311      CG311      CG324
    2     1    25    26	 9 ;      NG2S1      CG311      CG311      OG311
    2     1    25    62	 9 ;      NG2S1      CG311      CG311       HGA1
   18     1    25    28	 9 ;      CG321      CG311      CG311      CG324
   18     1    25    26	 9 ;      CG321      CG311      CG311      OG311
   18     1    25    62	 9 ;      CG321      CG311      CG311       HGA1
   44     1    25    28	 9 ;       HGA1      CG311      CG311      CG324
   44     1    25    26	 9 ;       HGA1      CG311      CG311      OG311
   44     1    25    62	 9 ;       HGA1      CG311      CG311       HGA1
    2     1    18    19	 9 ;      NG2S1      CG311      CG321     CG2R61
    2     1    18    55	 9 ;      NG2S1      CG311      CG321       HGA2
    2     1    18    56	 9 ;      NG2S1      CG311      CG321       HGA2
   25     1    18    19	 9 ;      CG311      CG311      CG321     CG2R61
   25     1    18    55	 9 ;      CG311      CG311      CG321       HGA2
   25     1    18    56	 9 ;      CG311      CG311      CG321       HGA2
   44     1    18    19	 9 ;       HGA1      CG311      CG321     CG2R61
   44     1    18    55	 9 ;       HGA1      CG311      CG321       HGA2
   44     1    18    56	 9 ;       HGA1      CG311      CG321       HGA2
    5     2     3     6	 9 ;       HGP1      NG2S1      CG2O1     CG2R61
    5     2     3     4	 9 ;       HGP1      NG2S1      CG2O1      OG2D1
    1     2     3     6	 9 ;      CG311      NG2S1      CG2O1     CG2R61
    1     2     3     4	 9 ;      CG311      NG2S1      CG2O1      OG2D1
    4     3     6    11	 9 ;      OG2D1      CG2O1     CG2R61     CG2R61
    4     3     6     7	 9 ;      OG2D1      CG2O1     CG2R61     CG2R61
    2     3     6    11	 9 ;      NG2S1      CG2O1     CG2R61     CG2R61
    2     3     6     7	 9 ;      NG2S1      CG2O1     CG2R61     CG2R61
    7     6    11    10	 9 ;     CG2R61     CG2R61     CG2R61     CG2R61
    7     6    11    48	 9 ;     CG2R61     CG2R61     CG2R61      HGR61
    3     6    11    10	 9 ;      CG2O1     CG2R61     CG2R61     CG2R61
    3     6    11    48	 9 ;      CG2O1     CG2R61     CG2R61      HGR61
   11     6     7     8	 9 ;     CG2R61     CG2R61     CG2R61     CG2R61
   11     6     7    45	 9 ;     CG2R61     CG2R61     CG2R61      HGR61
    3     6     7     8	 9 ;      CG2O1     CG2R61     CG2R61     CG2R61
    3     6     7    45	 9 ;      CG2O1     CG2R61     CG2R61      HGR61
    6     7     8     9	 9 ;     CG2R61     CG2R61     CG2R61     CG2R61
    6     7     8    12	 9 ;     CG2R61     CG2R61     CG2R61     NG2R53
   45     7     8     9	 9 ;      HGR61     CG2R61     CG2R61     CG2R61
   45     7     8    12	 9 ;      HGR61     CG2R61     CG2R61     NG2R53
   12     8     9    10	 9 ;     NG2R53     CG2R61     CG2R61     CG2R61
   12     8     9    46	 9 ;     NG2R53     CG2R61     CG2R61      HGR61
    7     8     9    10	 9 ;     CG2R61     CG2R61     CG2R61     CG2R61
    7     8     9    46	 9 ;     CG2R61     CG2R61     CG2R61      HGR61
    9     8    12    17	 9 ;     CG2R61     CG2R61     NG2R53     CG3C52
    9     8    12    13	 9 ;     CG2R61     CG2R61     NG2R53     CG2R53
    7     8    12    17	 9 ;     CG2R61     CG2R61     NG2R53     CG3C52
    7     8    12    13	 9 ;     CG2R61     CG2R61     NG2R53     CG2R53
    8     9    10    11	 9 ;     CG2R61     CG2R61     CG2R61     CG2R61
    8     9    10    47	 9 ;     CG2R61     CG2R61     CG2R61      HGR61
   46     9    10    11	 9 ;      HGR61     CG2R61     CG2R61     CG2R61
   46     9    10    47	 9 ;      HGR61     CG2R61     CG2R61      HGR61
    9    10    11     6	 9 ;     CG2R61     CG2R61     CG2R61     CG2R61
    9    10    11    48	 9 ;     CG2R61     CG2R61     CG2R61      HGR61
   47    10    11     6	 9 ;      HGR61     CG2R61     CG2R61     CG2R61
   47    10    11    48	 9 ;      HGR61     CG2R61     CG2R61      HGR61
    8    12    17    16	 9 ;     CG2R61     NG2R53     CG3C52     CG3C52
    8    12    17    53	 9 ;     CG2R61     NG2R53     CG3C52       HGA2
    8    12    17    54	 9 ;     CG2R61     NG2R53     CG3C52       HGA2
   13    12    17    16	 9 ;     CG2R53     NG2R53     CG3C52     CG3C52
   13    12    17    53	 9 ;     CG2R53     NG2R53     CG3C52       HGA2
   13    12    17    54	 9 ;     CG2R53     NG2R53     CG3C52       HGA2
    8    12    13    14	 9 ;     CG2R61     NG2R53     CG2R53      OG2D1
    8    12    13    15	 9 ;     CG2R61     NG2R53     CG2R53     CG3C52
   17    12    13    14	 9 ;     CG3C52     NG2R53     CG2R53      OG2D1
   17    12    13    15	 9 ;     CG3C52     NG2R53     CG2R53     CG3C52
   12    13    15    16	 9 ;     NG2R53     CG2R53     CG3C52     CG3C52
   12    13    15    49	 9 ;     NG2R53     CG2R53     CG3C52       HGA2
   12    13    15    50	 9 ;     NG2R53     CG2R53     CG3C52       HGA2
   14    13    15    16	 9 ;      OG2D1     CG2R53     CG3C52     CG3C52
   14    13    15    49	 9 ;      OG2D1     CG2R53     CG3C52       HGA2
   14    13    15    50	 9 ;      OG2D1     CG2R53     CG3C52       HGA2
   13    15    16    17	 9 ;     CG2R53     CG3C52     CG3C52     CG3C52
   13    15    16    51	 9 ;     CG2R53     CG3C52     CG3C52       HGA2
   13    15    16    52	 9 ;     CG2R53     CG3C52     CG3C52       HGA2
   49    15    16    17	 9 ;       HGA2     CG3C52     CG3C52     CG3C52
   49    15    16    51	 9 ;       HGA2     CG3C52     CG3C52       HGA2
   49    15    16    52	 9 ;       HGA2     CG3C52     CG3C52       HGA2
   50    15    16    17	 9 ;       HGA2     CG3C52     CG3C52     CG3C52
   50    15    16    51	 9 ;       HGA2     CG3C52     CG3C52       HGA2
   50    15    16    52	 9 ;       HGA2     CG3C52     CG3C52       HGA2
   15    16    17    12	 9 ;     CG3C52     CG3C52     CG3C52     NG2R53
   15    16    17    53	 9 ;     CG3C52     CG3C52     CG3C52       HGA2
   15    16    17    54	 9 ;     CG3C52     CG3C52     CG3C52       HGA2
   51    16    17    12	 9 ;       HGA2     CG3C52     CG3C52     NG2R53
   51    16    17    53	 9 ;       HGA2     CG3C52     CG3C52       HGA2
   51    16    17    54	 9 ;       HGA2     CG3C52     CG3C52       HGA2
   52    16    17    12	 9 ;       HGA2     CG3C52     CG3C52     NG2R53
   52    16    17    53	 9 ;       HGA2     CG3C52     CG3C52       HGA2
   52    16    17    54	 9 ;       HGA2     CG3C52     CG3C52       HGA2
    1    18    19    20	 9 ;      CG311      CG321     CG2R61     CG2R61
    1    18    19    24	 9 ;      CG311      CG321     CG2R61     CG2R61
   55    18    19    20	 9 ;       HGA2      CG321     CG2R61     CG2R61
   55    18    19    24	 9 ;       HGA2      CG321     CG2R61     CG2R61
   56    18    19    20	 9 ;       HGA2      CG321     CG2R61     CG2R61
   56    18    19    24	 9 ;       HGA2      CG321     CG2R61     CG2R61
   18    19    20    21	 9 ;      CG321     CG2R61     CG2R61     CG2R61
   18    19    20    57	 9 ;      CG321     CG2R61     CG2R61      HGR61
   24    19    20    21	 9 ;     CG2R61     CG2R61     CG2R61     CG2R61
   24    19    20    57	 9 ;     CG2R61     CG2R61     CG2R61      HGR61
   18    19    24    23	 9 ;      CG321     CG2R61     CG2R61     CG2R61
   18    19    24    61	 9 ;      CG321     CG2R61     CG2R61      HGR61
   20    19    24    23	 9 ;     CG2R61     CG2R61     CG2R61     CG2R61
   20    19    24    61	 9 ;     CG2R61     CG2R61     CG2R61      HGR61
   19    20    21    22	 9 ;     CG2R61     CG2R61     CG2R61     CG2R61
   19    20    21    58	 9 ;     CG2R61     CG2R61     CG2R61      HGR61
   57    20    21    22	 9 ;      HGR61     CG2R61     CG2R61     CG2R61
   57    20    21    58	 9 ;      HGR61     CG2R61     CG2R61      HGR61
   20    21    22    23	 9 ;     CG2R61     CG2R61     CG2R61     CG2R61
   20    21    22    59	 9 ;     CG2R61     CG2R61     CG2R61      HGR61
   58    21    22    23	 9 ;      HGR61     CG2R61     CG2R61     CG2R61
   58    21    22    59	 9 ;      HGR61     CG2R61     CG2R61      HGR61
   21    22    23    24	 9 ;     CG2R61     CG2R61     CG2R61     CG2R61
   21    22    23    60	 9 ;     CG2R61     CG2R61     CG2R61      HGR61
   59    22    23    24	 9 ;      HGR61     CG2R61     CG2R61     CG2R61
   59    22    23    60	 9 ;      HGR61     CG2R61     CG2R61      HGR61
   22    23    24    19	 9 ;     CG2R61     CG2R61     CG2R61     CG2R61
   22    23    24    61	 9 ;     CG2R61     CG2R61     CG2R61      HGR61
   60    23    24    19	 9 ;      HGR61     CG2R61     CG2R61     CG2R61
   60    23    24    61	 9 ;      HGR61     CG2R61     CG2R61      HGR61
    1    25    28    29	 9 ;      CG311      CG311      CG324      NG3P2
    1    25    28    63	 9 ;      CG311      CG311      CG324       HGA2
    1    25    28    64	 9 ;      CG311      CG311      CG324       HGA2
   26    25    28    29	 9 ;      OG311      CG311      CG324      NG3P2
   26    25    28    63	 9 ;      OG311      CG311      CG324       HGA2
   26    25    28    64	 9 ;      OG311      CG311      CG324       HGA2
   62    25    28    29	 9 ;       HGA1      CG311      CG324      NG3P2
   62    25    28    63	 9 ;       HGA1      CG311      CG324       HGA2
   62    25    28    64	 9 ;       HGA1      CG311      CG324       HGA2
   28    25    26    27	 9 ;      CG324      CG311      OG311       HGP1
    1    25    26    27	 9 ;      CG311      CG311      OG311       HGP1
   62    25    26    27	 9 ;       HGA1      CG311      OG311       HGP1
   25    28    29    32	 9 ;      CG311      CG324      NG3P2      CG314
   25    28    29    30	 9 ;      CG311      CG324      NG3P2       HGP2
   25    28    29    31	 9 ;      CG311      CG324      NG3P2       HGP2
   63    28    29    32	 9 ;       HGA2      CG324      NG3P2      CG314
   63    28    29    30	 9 ;       HGA2      CG324      NG3P2       HGP2
   63    28    29    31	 9 ;       HGA2      CG324      NG3P2       HGP2
   64    28    29    32	 9 ;       HGA2      CG324      NG3P2      CG314
   64    28    29    30	 9 ;       HGA2      CG324      NG3P2       HGP2
   64    28    29    31	 9 ;       HGA2      CG324      NG3P2       HGP2
   30    29    32    34	 9 ;       HGP2      NG3P2      CG314      CG2O1
   30    29    32    33	 9 ;       HGP2      NG3P2      CG314      CG331
   30    29    32    65	 9 ;       HGP2      NG3P2      CG314       HGA1
   28    29    32    34	 9 ;      CG324      NG3P2      CG314      CG2O1
   28    29    32    33	 9 ;      CG324      NG3P2      CG314      CG331
   28    29    32    65	 9 ;      CG324      NG3P2      CG314       HGA1
   31    29    32    34	 9 ;       HGP2      NG3P2      CG314      CG2O1
   31    29    32    33	 9 ;       HGP2      NG3P2      CG314      CG331
   31    29    32    65	 9 ;       HGP2      NG3P2      CG314       HGA1
   33    32    34    36	 9 ;      CG331      CG314      CG2O1      NG2S1
   33    32    34    35	 9 ;      CG331      CG314      CG2O1      OG2D1
   29    32    34    36	 9 ;      NG3P2      CG314      CG2O1      NG2S1
   29    32    34    35	 9 ;      NG3P2      CG314      CG2O1      OG2D1
   65    32    34    36	 9 ;       HGA1      CG314      CG2O1      NG2S1
   65    32    34    35	 9 ;       HGA1      CG314      CG2O1      OG2D1
   34    32    33    66	 9 ;      CG2O1      CG314      CG331       HGA3
   34    32    33    67	 9 ;      CG2O1      CG314      CG331       HGA3
   34    32    33    68	 9 ;      CG2O1      CG314      CG331       HGA3
   29    32    33    66	 9 ;      NG3P2      CG314      CG331       HGA3
   29    32    33    67	 9 ;      NG3P2      CG314      CG331       HGA3
   29    32    33    68	 9 ;      NG3P2      CG314      CG331       HGA3
   65    32    33    66	 9 ;       HGA1      CG314      CG331       HGA3
   65    32    33    67	 9 ;       HGA1      CG314      CG331       HGA3
   65    32    33    68	 9 ;       HGA1      CG314      CG331       HGA3
   35    34    36    38	 9 ;      OG2D1      CG2O1      NG2S1      CG311
   35    34    36    37	 9 ;      OG2D1      CG2O1      NG2S1       HGP1
   32    34    36    38	 9 ;      CG314      CG2O1      NG2S1      CG311
   32    34    36    37	 9 ;      CG314      CG2O1      NG2S1       HGP1
   37    36    38    39	 9 ;       HGP1      NG2S1      CG311      CG321
   37    36    38    43	 9 ;       HGP1      NG2S1      CG311      CG321
   37    36    38    69	 9 ;       HGP1      NG2S1      CG311       HGA1
   34    36    38    39	 9 ;      CG2O1      NG2S1      CG311      CG321
   34    36    38    43	 9 ;      CG2O1      NG2S1      CG311      CG321
   34    36    38    69	 9 ;      CG2O1      NG2S1      CG311       HGA1
   36    38    39    40	 9 ;      NG2S1      CG311      CG321      CG321
   36    38    39    70	 9 ;      NG2S1      CG311      CG321       HGA2
   36    38    39    71	 9 ;      NG2S1      CG311      CG321       HGA2
   43    38    39    40	 9 ;      CG321      CG311      CG321      CG321
   43    38    39    70	 9 ;      CG321      CG311      CG321       HGA2
   43    38    39    71	 9 ;      CG321      CG311      CG321       HGA2
   69    38    39    40	 9 ;       HGA1      CG311      CG321      CG321
   69    38    39    70	 9 ;       HGA1      CG311      CG321       HGA2
   69    38    39    71	 9 ;       HGA1      CG311      CG321       HGA2
   39    38    43    42	 9 ;      CG321      CG311      CG321      CG321
   39    38    43    78	 9 ;      CG321      CG311      CG321       HGA2
   39    38    43    79	 9 ;      CG321      CG311      CG321       HGA2
   36    38    43    42	 9 ;      NG2S1      CG311      CG321      CG321
   36    38    43    78	 9 ;      NG2S1      CG311      CG321       HGA2
   36    38    43    79	 9 ;      NG2S1      CG311      CG321       HGA2
   69    38    43    42	 9 ;       HGA1      CG311      CG321      CG321
   69    38    43    78	 9 ;       HGA1      CG311      CG321       HGA2
   69    38    43    79	 9 ;       HGA1      CG311      CG321       HGA2
   38    39    40    41	 9 ;      CG311      CG321      CG321      CG321
   38    39    40    72	 9 ;      CG311      CG321      CG321       HGA2
   38    39    40    73	 9 ;      CG311      CG321      CG321       HGA2
   70    39    40    41	 9 ;       HGA2      CG321      CG321      CG321
   70    39    40    72	 9 ;       HGA2      CG321      CG321       HGA2
   70    39    40    73	 9 ;       HGA2      CG321      CG321       HGA2
   71    39    40    41	 9 ;       HGA2      CG321      CG321      CG321
   71    39    40    72	 9 ;       HGA2      CG321      CG321       HGA2
   71    39    40    73	 9 ;       HGA2      CG321      CG321       HGA2
   39    40    41    42	 9 ;      CG321      CG321      CG321      CG321
   39    40    41    74	 9 ;      CG321      CG321      CG321       HGA2
   39    40    41    75	 9 ;      CG321      CG321      CG321       HGA2
   72    40    41    42	 9 ;       HGA2      CG321      CG321      CG321
   72    40    41    74	 9 ;       HGA2      CG321      CG321       HGA2
   72    40    41    75	 9 ;       HGA2      CG321      CG321       HGA2
   73    40    41    42	 9 ;       HGA2      CG321      CG321      CG321
   73    40    41    74	 9 ;       HGA2      CG321      CG321       HGA2
   73    40    41    75	 9 ;       HGA2      CG321      CG321       HGA2
   40    41    42    43	 9 ;      CG321      CG321      CG321      CG321
   40    41    42    76	 9 ;      CG321      CG321      CG321       HGA2
   40    41    42    77	 9 ;      CG321      CG321      CG321       HGA2
   74    41    42    43	 9 ;       HGA2      CG321      CG321      CG321
   74    41    42    76	 9 ;       HGA2      CG321      CG321       HGA2
   74    41    42    77	 9 ;       HGA2      CG321      CG321       HGA2
   75    41    42    43	 9 ;       HGA2      CG321      CG321      CG321
   75    41    42    76	 9 ;       HGA2      CG321      CG321       HGA2
   75    41    42    77	 9 ;       HGA2      CG321      CG321       HGA2
   41    42    43    38	 9 ;      CG321      CG321      CG321      CG311
   41    42    43    78	 9 ;      CG321      CG321      CG321       HGA2
   41    42    43    79	 9 ;      CG321      CG321      CG321       HGA2
   76    42    43    38	 9 ;       HGA2      CG321      CG321      CG311
   76    42    43    78	 9 ;       HGA2      CG321      CG321       HGA2
   76    42    43    79	 9 ;       HGA2      CG321      CG321       HGA2
   77    42    43    38	 9 ;       HGA2      CG321      CG321      CG311
   77    42    43    78	 9 ;       HGA2      CG321      CG321       HGA2
   77    42    43    79	 9 ;       HGA2      CG321      CG321       HGA2

[ dihedrals ]
;	ai	  aj	ak	  al funct			  c0			c1			  c2			c3
    3     6     2     4	 2
   13    15    12    14	 2
   34    32    36    35	 2

