GRowing Old MAkes el Chrono Sweat
   79
    1LIG     C1    1  -1.741   0.470  -1.469
    1LIG     N1    2  -1.606   0.469  -1.531
    1LIG     C2    3  -1.569   0.371  -1.622
    1LIG     O1    4  -1.654   0.298  -1.672
    1LIG     H1    5  -1.531   0.508  -1.475
    1LIG     C3    6  -1.423   0.357  -1.658
    1LIG     C4    7  -1.336   0.267  -1.595
    1LIG     C5    8  -1.197   0.269  -1.618
    1LIG     C6    9  -1.148   0.358  -1.715
    1LIG     C7   10  -1.234   0.444  -1.783
    1LIG     C8   11  -1.371   0.445  -1.754
    1LIG     N2   12  -1.108   0.188  -1.542
    1LIG     C9   13  -1.114   0.048  -1.528
    1LIG     O2   14  -1.185  -0.032  -1.588
    1LIG    C10   15  -1.021   0.007  -1.416
    1LIG    C11   16  -0.930   0.127  -1.400
    1LIG    C12   17  -1.016   0.243  -1.444
    1LIG    C13   18  -1.737   0.392  -1.334
    1LIG    C14   19  -1.844   0.285  -1.328
    1LIG    C15   20  -1.922   0.256  -1.441
    1LIG    C16   21  -2.029   0.166  -1.431
    1LIG    C17   22  -2.057   0.104  -1.309
    1LIG    C18   23  -1.977   0.129  -1.198
    1LIG    C19   24  -1.871   0.219  -1.208
    1LIG    C20   25  -1.796   0.614  -1.444
    1LIG     O3   26  -1.915   0.615  -1.363
    1LIG     H2   27  -1.938   0.521  -1.346
    1LIG    C21   28  -1.696   0.716  -1.382
    1LIG     N3   29  -1.746   0.855  -1.420
    1LIG     H3   30  -1.842   0.844  -1.456
    1LIG     H4   31  -1.756   0.905  -1.331
    1LIG    C22   32  -1.670   0.940  -1.527
    1LIG    C23   33  -1.773   1.043  -1.574
    1LIG    C24   34  -1.624   0.848  -1.644
    1LIG     O4   35  -1.712   0.813  -1.725
    1LIG     N4   36  -1.500   0.798  -1.668
    1LIG     H5   37  -1.506   0.741  -1.752
    1LIG    C25   38  -1.359   0.808  -1.620
    1LIG    C26   39  -1.254   0.818  -1.731
    1LIG    C27   40  -1.108   0.794  -1.690
    1LIG    C28   41  -1.087   0.694  -1.577
    1LIG    C29   42  -1.181   0.718  -1.460
    1LIG    C30   43  -1.327   0.712  -1.504
    1LIG     HC   44  -1.809   0.419  -1.536
    1LIG    HC1   45  -1.377   0.194  -1.527
    1LIG    HC2   46  -1.042   0.359  -1.737
    1LIG    HC3   47  -1.194   0.511  -1.858
    1LIG    HC4   48  -1.436   0.514  -1.806
    1LIG    HC5   49  -0.965  -0.082  -1.443
    1LIG    HC6   50  -1.078  -0.010  -1.324
    1LIG    HC7   51  -0.899   0.138  -1.296
    1LIG    HC8   52  -0.843   0.117  -1.465
    1LIG    HC9   53  -0.955   0.321  -1.489
    1LIG   HC10   54  -1.071   0.284  -1.359
    1LIG   HC11   55  -1.639   0.344  -1.324
    1LIG   HC12   56  -1.751   0.462  -1.252
    1LIG   HC13   57  -1.900   0.302  -1.536
    1LIG   HC14   58  -2.090   0.145  -1.517
    1LIG   HC15   59  -2.141   0.036  -1.301
    1LIG   HC16   60  -1.997   0.078  -1.105
    1LIG   HC17   61  -1.809   0.238  -1.121
    1LIG   HC18   62  -1.824   0.654  -1.541
    1LIG   HC19   63  -1.693   0.705  -1.274
    1LIG   HC20   64  -1.596   0.700  -1.423
    1LIG   HC21   65  -1.584   0.990  -1.482
    1LIG   HC22   66  -1.728   1.107  -1.649
    1LIG   HC23   67  -1.804   1.103  -1.488
    1LIG   HC24   68  -1.859   0.991  -1.616
    1LIG   HC25   69  -1.356   0.906  -1.573
    1LIG   HC26   70  -1.260   0.919  -1.773
    1LIG   HC27   71  -1.280   0.747  -1.809
    1LIG   HC28   72  -1.054   0.758  -1.777
    1LIG   HC29   73  -1.065   0.890  -1.660
    1LIG   HC30   74  -0.984   0.703  -1.541
    1LIG   HC31   75  -1.103   0.594  -1.615
    1LIG   HC32   76  -1.164   0.641  -1.385
    1LIG   HC33   77  -1.161   0.816  -1.417
    1LIG   HC34   78  -1.390   0.739  -1.419
    1LIG   HC35   79  -1.351   0.610  -1.535
   0.00000   0.00000   0.00000
