GROningen MAchine for Chemical Simulation
   96
    1LIG     N1    1  -1.410   0.388  -1.506
    1LIG     C1    2  -1.465   0.417  -1.628
    1LIG     O1    3  -1.395   0.460  -1.720
    1LIG     H1    4  -1.473   0.339  -1.442
    1LIG     C2    5  -1.269   0.386  -1.463
    1LIG     C3    6  -1.214   0.526  -1.421
    1LIG     O2    7  -1.144   0.494  -1.299
    1LIG     H2    8  -1.079   0.421  -1.314
    1LIG     C4    9  -1.121   0.602  -1.530
    1LIG     N2   10  -1.147   0.588  -1.689
    1LIG     C5   11  -1.131   0.725  -1.770
    1LIG     H3   12  -1.083   0.521  -1.733
    1LIG     H4   13  -1.244   0.557  -1.708
    1LIG     C6   14  -1.235   0.821  -1.715
    1LIG     C7   15  -1.260   0.797  -1.580
    1LIG     C8   16  -1.334   0.878  -1.795
    1LIG     C9   17  -1.136   0.751  -1.503
    1LIG    C10   18  -1.394   0.773  -1.548
    1LIG    C11   19  -1.497   0.807  -1.636
    1LIG    C12   20  -1.467   0.871  -1.755
    1LIG     O3   21  -1.306   0.928  -1.918
    1LIG     H5   22  -1.355   0.873  -1.983
    1LIG    C13   23  -1.179   0.314  -1.571
    1LIG    C14   24  -1.107   0.196  -1.511
    1LIG    C15   25  -0.978   0.209  -1.457
    1LIG    C16   26  -0.906   0.095  -1.421
    1LIG     F1   27  -0.781   0.109  -1.378
    1LIG    C17   28  -0.961  -0.030  -1.434
    1LIG    C18   29  -1.090  -0.042  -1.483
    1LIG    C19   30  -1.164   0.070  -1.521
    1LIG     F2   31  -1.145  -0.163  -1.499
    1LIG    C20   32  -1.619   0.384  -1.646
    1LIG    C21   33  -1.666   0.272  -1.551
    1LIG    C22   34  -1.811   0.227  -1.575
    1LIG    C23   35  -1.893   0.206  -1.450
    1LIG    C24   36  -1.836   0.226  -1.324
    1LIG    C25   37  -1.912   0.214  -1.208
    1LIG    C26   38  -2.047   0.184  -1.217
    1LIG    C27   39  -2.107   0.166  -1.341
    1LIG    C28   40  -2.030   0.177  -1.458
    1LIG     N3   41  -1.703   0.506  -1.636
    1LIG    C29   42  -1.784   0.551  -1.747
    1LIG    C30   43  -1.833   0.686  -1.701
    1LIG    C31   44  -1.855   0.672  -1.549
    1LIG    C32   45  -1.749   0.564  -1.518
    1LIG     O4   46  -1.708   0.537  -1.406
    1LIG    C33   47  -1.992   0.614  -1.499
    1LIG    C34   48  -2.053   0.514  -1.600
    1LIG    C35   49  -1.985   0.552  -1.358
    1LIG    C36   50  -2.120   0.529  -1.291
    1LIG     N4   51  -1.807   0.789  -1.474
    1LIG    C37   52  -1.818   0.923  -1.493
    1LIG     O5   53  -1.740   0.995  -1.432
    1LIG    C38   54  -1.920   0.979  -1.588
    1LIG     H6   55  -1.743   0.766  -1.398
    1LIG     HC   56  -1.265   0.324  -1.374
    1LIG    HC1   57  -1.298   0.591  -1.397
    1LIG    HC2   58  -1.017   0.575  -1.510
    1LIG    HC3   59  -1.148   0.708  -1.876
    1LIG    HC4   60  -1.031   0.766  -1.753
    1LIG    HC5   61  -1.048   0.805  -1.539
    1LIG    HC6   62  -1.150   0.769  -1.397
    1LIG    HC7   63  -1.418   0.727  -1.454
    1LIG    HC8   64  -1.599   0.783  -1.611
    1LIG    HC9   65  -1.545   0.915  -1.815
    1LIG   HC10   66  -1.242   0.280  -1.653
    1LIG   HC11   67  -1.106   0.386  -1.609
    1LIG   HC12   68  -0.935   0.307  -1.442
    1LIG   HC13   69  -0.905  -0.118  -1.407
    1LIG   HC14   70  -1.265   0.058  -1.557
    1LIG   HC15   71  -1.632   0.347  -1.747
    1LIG   HC16   72  -1.601   0.186  -1.565
    1LIG   HC17   73  -1.657   0.306  -1.448
    1LIG   HC18   74  -1.809   0.132  -1.630
    1LIG   HC19   75  -1.861   0.301  -1.637
    1LIG   HC20   76  -1.731   0.250  -1.317
    1LIG   HC21   77  -1.866   0.229  -1.111
    1LIG   HC22   78  -2.107   0.175  -1.127
    1LIG   HC23   79  -2.212   0.143  -1.348
    1LIG   HC24   80  -2.077   0.163  -1.554
    1LIG   HC25   81  -1.724   0.559  -1.838
    1LIG   HC26   82  -1.868   0.483  -1.763
    1LIG   HC27   83  -1.926   0.712  -1.751
    1LIG   HC28   84  -1.758   0.762  -1.721
    1LIG   HC29   85  -2.061   0.699  -1.493
    1LIG   HC30   86  -2.153   0.486  -1.568
    1LIG   HC31   87  -2.058   0.561  -1.699
    1LIG   HC32   88  -1.989   0.426  -1.606
    1LIG   HC33   89  -1.927   0.619  -1.295
    1LIG   HC34   90  -1.933   0.457  -1.365
    1LIG   HC35   91  -2.105   0.485  -1.193
    1LIG   HC36   92  -2.172   0.624  -1.281
    1LIG   HC37   93  -2.180   0.462  -1.352
    1LIG   HC38   94  -1.952   1.077  -1.553
    1LIG   HC39   95  -2.006   0.912  -1.592
    1LIG   HC40   96  -1.876   0.988  -1.687
   0.00000   0.00000   0.00000
