; Created by cgenff_charmm2gmx.py

[ moleculetype ]
; Name			   nrexcl
LIG				 3

[ atoms ]
;	 nr		  type	resnr residue  atom   cgnr	   charge		mass  typeB    chargeB		massB
; residue	 1 LIG rtp LIG q	qsum
     1      NG2S1      1    LIG     N1      1     -0.385     14.007   ;
     2      CG2O1      1    LIG     C1      2      0.497     12.011   ;
     3      OG2D1      1    LIG     O1      3     -0.509     15.999   ;
     4       HGP1      1    LIG     H1      4      0.269      1.008   ;
     5      CG311      1    LIG     C2      5     -0.029     12.011   ;
     6      CG311      1    LIG     C3      6      0.111     12.011   ;
     7      OG311      1    LIG     O2      7     -0.598     15.999   ;
     8       HGP1      1    LIG     H2      8      0.422      1.008   ;
     9      CG314      1    LIG     C4      9      0.081     12.011   ;
    10      NG3P2      1    LIG     N2     10     -0.494     14.007   ;
    11      CG324      1    LIG     C5     11      0.172     12.011   ;
    12       HGP2      1    LIG     H3     12      0.346      1.008   ;
    13       HGP2      1    LIG     H4     13      0.346      1.008   ;
    14     CG2R61      1    LIG     C6     14     -0.001     12.011   ;
    15     CG2R61      1    LIG     C7     15     -0.191     12.011   ;
    16     CG2R61      1    LIG     C8     16      0.114     12.011   ;
    17      CG321      1    LIG     C9     17      0.138     12.011   ;
    18     CG2R61      1    LIG    C10     18     -0.116     12.011   ;
    19     CG2R61      1    LIG    C11     19     -0.110     12.011   ;
    20     CG2R61      1    LIG    C12     20     -0.112     12.011   ;
    21      OG311      1    LIG     O3     21     -0.508     15.999   ;
    22       HGP1      1    LIG     H5     22      0.421      1.008   ;
    23      CG321      1    LIG    C13     23     -0.095     12.011   ;
    24     CG2R61      1    LIG    C14     24      0.057     12.011   ;
    25     CG2R61      1    LIG    C15     25     -0.218     12.011   ;
    26     CG2R66      1    LIG    C16     26      0.261     12.011   ;
    27       FGR1      1    LIG     F1     27     -0.210     18.998   ;
    28     CG2R61      1    LIG    C17     28     -0.240     12.011   ;
    29     CG2R66      1    LIG    C18     29      0.261     12.011   ;
    30     CG2R61      1    LIG    C19     30     -0.218     12.011   ;
    31       FGR1      1    LIG     F2     31     -0.210     18.998   ;
    32      CG311      1    LIG    C20     32      0.051     12.011   ;
    33      CG321      1    LIG    C21     33     -0.187     12.011   ;
    34      CG321      1    LIG    C22     34     -0.185     12.011   ;
    35     CG2R61      1    LIG    C23     35      0.007     12.011   ;
    36     CG2R61      1    LIG    C24     36     -0.123     12.011   ;
    37     CG2R61      1    LIG    C25     37     -0.112     12.011   ;
    38     CG2R61      1    LIG    C26     38     -0.116     12.011   ;
    39     CG2R61      1    LIG    C27     39     -0.112     12.011   ;
    40     CG2R61      1    LIG    C28     40     -0.123     12.011   ;
    41     NG2R53      1    LIG     N3     41     -0.115     14.007   ;
    42     CG3C52      1    LIG    C29     42     -0.083     12.011   ;
    43     CG3C52      1    LIG    C30     43     -0.365     12.011   ;
    44     CG3C50      1    LIG    C31     44      0.578     12.011   ;
    45     CG2R53      1    LIG    C32     45      0.040     12.011   ;
    46      OG2D1      1    LIG     O4     46     -0.404     15.999   ;
    47      CG311      1    LIG    C33     47     -0.157     12.011   ;
    48      CG331      1    LIG    C34     48     -0.269     12.011   ;
    49      CG321      1    LIG    C35     49     -0.126     12.011   ;
    50      CG331      1    LIG    C36     50     -0.319     12.011   ;
    51      NG2S1      1    LIG     N4     51     -0.174     14.007   ;
    52      CG2O1      1    LIG    C37     52      0.398     12.011   ;
    53      OG2D1      1    LIG     O5     53     -0.536     15.999   ;
    54      CG331      1    LIG    C38     54     -0.269     12.011   ;
    55       HGP1      1    LIG     H6     55      0.256      1.008   ;
    56       HGA1      1    LIG     HC     56      0.090      1.008   ;
    57       HGA1      1    LIG    HC1     57      0.090      1.008   ;
    58       HGA1      1    LIG    HC2     58      0.121      1.008   ;
    59       HGA2      1    LIG    HC3     59      0.090      1.008   ;
    60       HGA2      1    LIG    HC4     60      0.090      1.008   ;
    61       HGA2      1    LIG    HC5     61      0.090      1.008   ;
    62       HGA2      1    LIG    HC6     62      0.090      1.008   ;
    63      HGR61      1    LIG    HC7     63      0.116      1.008   ;
    64      HGR61      1    LIG    HC8     64      0.116      1.008   ;
    65      HGR61      1    LIG    HC9     65      0.116      1.008   ;
    66       HGA2      1    LIG   HC10     66      0.090      1.008   ;
    67       HGA2      1    LIG   HC11     67      0.090      1.008   ;
    68      HGR62      1    LIG   HC12     68      0.174      1.008   ;
    69      HGR62      1    LIG   HC13     69      0.186      1.008   ;
    70      HGR62      1    LIG   HC14     70      0.174      1.008   ;
    71       HGA1      1    LIG   HC15     71      0.090      1.008   ;
    72       HGA2      1    LIG   HC16     72      0.090      1.008   ;
    73       HGA2      1    LIG   HC17     73      0.090      1.008   ;
    74       HGA2      1    LIG   HC18     74      0.090      1.008   ;
    75       HGA2      1    LIG   HC19     75      0.090      1.008   ;
    76      HGR61      1    LIG   HC20     76      0.116      1.008   ;
    77      HGR61      1    LIG   HC21     77      0.116      1.008   ;
    78      HGR61      1    LIG   HC22     78      0.116      1.008   ;
    79      HGR61      1    LIG   HC23     79      0.116      1.008   ;
    80      HGR61      1    LIG   HC24     80      0.116      1.008   ;
    81       HGA2      1    LIG   HC25     81      0.090      1.008   ;
    82       HGA2      1    LIG   HC26     82      0.090      1.008   ;
    83       HGA2      1    LIG   HC27     83      0.090      1.008   ;
    84       HGA2      1    LIG   HC28     84      0.090      1.008   ;
    85       HGA1      1    LIG   HC29     85      0.090      1.008   ;
    86       HGA3      1    LIG   HC30     86      0.090      1.008   ;
    87       HGA3      1    LIG   HC31     87      0.090      1.008   ;
    88       HGA3      1    LIG   HC32     88      0.090      1.008   ;
    89       HGA2      1    LIG   HC33     89      0.090      1.008   ;
    90       HGA2      1    LIG   HC34     90      0.090      1.008   ;
    91       HGA3      1    LIG   HC35     91      0.090      1.008   ;
    92       HGA3      1    LIG   HC36     92      0.090      1.008   ;
    93       HGA3      1    LIG   HC37     93      0.090      1.008   ;
    94       HGA3      1    LIG   HC38     94      0.090      1.008   ;
    95       HGA3      1    LIG   HC39     95      0.090      1.008   ;
    96       HGA3      1    LIG   HC40     96      0.090      1.008   ;

[ bonds ]
;	ai	  aj funct			  c0			c1			  c2			c3
    1     2	 1 ;       NG2S1      CG2O1
    1     5	 1 ;       NG2S1      CG311
    1     4	 1 ;       NG2S1       HGP1
    2     3	 1 ;       CG2O1      OG2D1
    2    32	 1 ;       CG2O1      CG311
    5    23	 1 ;       CG311      CG321
    5     6	 1 ;       CG311      CG311
    5    56	 1 ;       CG311       HGA1
    6     9	 1 ;       CG311      CG314
    6     7	 1 ;       CG311      OG311
    6    57	 1 ;       CG311       HGA1
    7     8	 1 ;       OG311       HGP1
    9    10	 1 ;       CG314      NG3P2
    9    17	 1 ;       CG314      CG321
    9    58	 1 ;       CG314       HGA1
   10    11	 1 ;       NG3P2      CG324
   10    12	 1 ;       NG3P2       HGP2
   10    13	 1 ;       NG3P2       HGP2
   11    14	 1 ;       CG324     CG2R61
   11    59	 1 ;       CG324       HGA2
   11    60	 1 ;       CG324       HGA2
   14    16	 1 ;      CG2R61     CG2R61
   14    15	 1 ;      CG2R61     CG2R61
   15    17	 1 ;      CG2R61      CG321
   15    18	 1 ;      CG2R61     CG2R61
   16    21	 1 ;      CG2R61      OG311
   16    20	 1 ;      CG2R61     CG2R61
   17    61	 1 ;       CG321       HGA2
   17    62	 1 ;       CG321       HGA2
   18    19	 1 ;      CG2R61     CG2R61
   18    63	 1 ;      CG2R61      HGR61
   19    20	 1 ;      CG2R61     CG2R61
   19    64	 1 ;      CG2R61      HGR61
   20    65	 1 ;      CG2R61      HGR61
   21    22	 1 ;       OG311       HGP1
   23    24	 1 ;       CG321     CG2R61
   23    66	 1 ;       CG321       HGA2
   23    67	 1 ;       CG321       HGA2
   24    25	 1 ;      CG2R61     CG2R61
   24    30	 1 ;      CG2R61     CG2R61
   25    26	 1 ;      CG2R61     CG2R66
   25    68	 1 ;      CG2R61      HGR62
   26    27	 1 ;      CG2R66       FGR1
   26    28	 1 ;      CG2R66     CG2R61
   28    29	 1 ;      CG2R61     CG2R66
   28    69	 1 ;      CG2R61      HGR62
   29    30	 1 ;      CG2R66     CG2R61
   29    31	 1 ;      CG2R66       FGR1
   30    70	 1 ;      CG2R61      HGR62
   32    41	 1 ;       CG311     NG2R53
   32    33	 1 ;       CG311      CG321
   32    71	 1 ;       CG311       HGA1
   33    34	 1 ;       CG321      CG321
   33    72	 1 ;       CG321       HGA2
   33    73	 1 ;       CG321       HGA2
   34    35	 1 ;       CG321     CG2R61
   34    74	 1 ;       CG321       HGA2
   34    75	 1 ;       CG321       HGA2
   35    36	 1 ;      CG2R61     CG2R61
   35    40	 1 ;      CG2R61     CG2R61
   36    37	 1 ;      CG2R61     CG2R61
   36    76	 1 ;      CG2R61      HGR61
   37    38	 1 ;      CG2R61     CG2R61
   37    77	 1 ;      CG2R61      HGR61
   38    39	 1 ;      CG2R61     CG2R61
   38    78	 1 ;      CG2R61      HGR61
   39    40	 1 ;      CG2R61     CG2R61
   39    79	 1 ;      CG2R61      HGR61
   40    80	 1 ;      CG2R61      HGR61
   41    42	 1 ;      NG2R53     CG3C52
   41    45	 1 ;      NG2R53     CG2R53
   42    43	 1 ;      CG3C52     CG3C52
   42    81	 1 ;      CG3C52       HGA2
   42    82	 1 ;      CG3C52       HGA2
   43    44	 1 ;      CG3C52     CG3C50
   43    83	 1 ;      CG3C52       HGA2
   43    84	 1 ;      CG3C52       HGA2
   44    51	 1 ;      CG3C50      NG2S1
   44    45	 1 ;      CG3C50     CG2R53
   44    47	 1 ;      CG3C50      CG311
   45    46	 1 ;      CG2R53      OG2D1
   47    48	 1 ;       CG311      CG331
   47    49	 1 ;       CG311      CG321
   47    85	 1 ;       CG311       HGA1
   48    86	 1 ;       CG331       HGA3
   48    87	 1 ;       CG331       HGA3
   48    88	 1 ;       CG331       HGA3
   49    50	 1 ;       CG321      CG331
   49    89	 1 ;       CG321       HGA2
   49    90	 1 ;       CG321       HGA2
   50    91	 1 ;       CG331       HGA3
   50    92	 1 ;       CG331       HGA3
   50    93	 1 ;       CG331       HGA3
   51    52	 1 ;       NG2S1      CG2O1
   51    55	 1 ;       NG2S1       HGP1
   52    53	 1 ;       CG2O1      OG2D1
   52    54	 1 ;       CG2O1      CG331
   54    94	 1 ;       CG331       HGA3
   54    95	 1 ;       CG331       HGA3
   54    96	 1 ;       CG331       HGA3

[ pairs ]
;	ai	  aj funct			  c0			c1			  c2			c3
    1    41	 1
    1    33	 1
    1    71	 1
    1    24	 1
    1    66	 1
    1    67	 1
    1     9	 1
    1     7	 1
    1    57	 1
    2    23	 1
    2     6	 1
    2    56	 1
    2    42	 1
    2    45	 1
    2    34	 1
    2    72	 1
    2    73	 1
    3     5	 1
    3     4	 1
    3    41	 1
    3    33	 1
    3    71	 1
    4    32	 1
    4    23	 1
    4     6	 1
    4    56	 1
    5    32	 1
    5    10	 1
    5    17	 1
    5    58	 1
    5     8	 1
    5    25	 1
    5    30	 1
    6    24	 1
    6    66	 1
    6    67	 1
    6    11	 1
    6    12	 1
    6    13	 1
    6    15	 1
    6    61	 1
    6    62	 1
    7    23	 1
    7    56	 1
    7    10	 1
    7    17	 1
    7    58	 1
    8     9	 1
    8    57	 1
    9    23	 1
    9    56	 1
    9    14	 1
    9    59	 1
    9    60	 1
    9    18	 1
   10    57	 1
   10    15	 1
   10    61	 1
   10    62	 1
   10    16	 1
   11    17	 1
   11    58	 1
   11    21	 1
   11    20	 1
   11    18	 1
   12    17	 1
   12    58	 1
   12    14	 1
   12    59	 1
   12    60	 1
   13    17	 1
   13    58	 1
   13    14	 1
   13    59	 1
   13    60	 1
   14    61	 1
   14    62	 1
   14    19	 1
   14    63	 1
   14    22	 1
   14    65	 1
   15    58	 1
   15    59	 1
   15    60	 1
   15    21	 1
   15    20	 1
   15    64	 1
   16    59	 1
   16    60	 1
   16    17	 1
   16    18	 1
   16    64	 1
   17    57	 1
   17    19	 1
   17    63	 1
   18    61	 1
   18    62	 1
   18    65	 1
   19    21	 1
   20    22	 1
   20    63	 1
   21    65	 1
   23    57	 1
   23    26	 1
   23    68	 1
   23    29	 1
   23    70	 1
   24    56	 1
   24    27	 1
   24    28	 1
   24    31	 1
   25    66	 1
   25    67	 1
   25    29	 1
   25    70	 1
   25    69	 1
   26    30	 1
   26    31	 1
   27    68	 1
   27    29	 1
   27    69	 1
   28    68	 1
   28    70	 1
   30    66	 1
   30    67	 1
   30    68	 1
   30    69	 1
   31    69	 1
   31    70	 1
   32    35	 1
   32    74	 1
   32    75	 1
   32    43	 1
   32    81	 1
   32    82	 1
   32    44	 1
   32    46	 1
   33    42	 1
   33    45	 1
   33    36	 1
   33    40	 1
   34    41	 1
   34    71	 1
   34    37	 1
   34    76	 1
   34    39	 1
   34    80	 1
   35    72	 1
   35    73	 1
   35    38	 1
   35    77	 1
   35    79	 1
   36    74	 1
   36    75	 1
   36    39	 1
   36    80	 1
   36    78	 1
   37    40	 1
   37    79	 1
   38    76	 1
   38    80	 1
   39    77	 1
   40    74	 1
   40    75	 1
   40    76	 1
   40    78	 1
   41    72	 1
   41    73	 1
   41    83	 1
   41    84	 1
   41    51	 1
   41    47	 1
   42    71	 1
   42    46	 1
   42    51	 1
   42    47	 1
   43    52	 1
   43    55	 1
   43    46	 1
   43    48	 1
   43    49	 1
   43    85	 1
   44    81	 1
   44    82	 1
   44    86	 1
   44    87	 1
   44    88	 1
   44    50	 1
   44    89	 1
   44    90	 1
   44    53	 1
   44    54	 1
   45    71	 1
   45    81	 1
   45    82	 1
   45    83	 1
   45    84	 1
   45    52	 1
   45    55	 1
   45    48	 1
   45    49	 1
   45    85	 1
   46    51	 1
   46    47	 1
   47    83	 1
   47    84	 1
   47    52	 1
   47    55	 1
   47    91	 1
   47    92	 1
   47    93	 1
   48    51	 1
   48    50	 1
   48    89	 1
   48    90	 1
   49    51	 1
   49    86	 1
   49    87	 1
   49    88	 1
   50    85	 1
   51    83	 1
   51    84	 1
   51    85	 1
   51    94	 1
   51    95	 1
   51    96	 1
   53    55	 1
   53    94	 1
   53    95	 1
   53    96	 1
   54    55	 1
   56    66	 1
   56    67	 1
   56    57	 1
   57    58	 1
   58    61	 1
   58    62	 1
   63    64	 1
   64    65	 1
   71    72	 1
   71    73	 1
   72    74	 1
   72    75	 1
   73    74	 1
   73    75	 1
   76    77	 1
   77    78	 1
   78    79	 1
   79    80	 1
   81    83	 1
   81    84	 1
   82    83	 1
   82    84	 1
   85    86	 1
   85    87	 1
   85    88	 1
   85    89	 1
   85    90	 1
   89    91	 1
   89    92	 1
   89    93	 1
   90    91	 1
   90    92	 1
   90    93	 1

[ angles ]
;	ai	  aj	ak funct			c0			  c1			c2			  c3
    2     1     5	5 ;      CG2O1      NG2S1      CG311
    2     1     4	5 ;      CG2O1      NG2S1       HGP1
    5     1     4	5 ;      CG311      NG2S1       HGP1
    3     2     1	5 ;      OG2D1      CG2O1      NG2S1
    3     2    32	5 ;      OG2D1      CG2O1      CG311
    1     2    32	5 ;      NG2S1      CG2O1      CG311
   23     5     6	5 ;      CG321      CG311      CG311
   23     5     1	5 ;      CG321      CG311      NG2S1
   23     5    56	5 ;      CG321      CG311       HGA1
    6     5     1	5 ;      CG311      CG311      NG2S1
    6     5    56	5 ;      CG311      CG311       HGA1
    1     5    56	5 ;      NG2S1      CG311       HGA1
    9     6     5	5 ;      CG314      CG311      CG311
    9     6     7	5 ;      CG314      CG311      OG311
    9     6    57	5 ;      CG314      CG311       HGA1
    5     6     7	5 ;      CG311      CG311      OG311
    5     6    57	5 ;      CG311      CG311       HGA1
    7     6    57	5 ;      OG311      CG311       HGA1
    6     7     8	5 ;      CG311      OG311       HGP1
   10     9    17	5 ;      NG3P2      CG314      CG321
   10     9     6	5 ;      NG3P2      CG314      CG311
   10     9    58	5 ;      NG3P2      CG314       HGA1
   17     9     6	5 ;      CG321      CG314      CG311
   17     9    58	5 ;      CG321      CG314       HGA1
    6     9    58	5 ;      CG311      CG314       HGA1
   11    10    12	5 ;      CG324      NG3P2       HGP2
   11    10    13	5 ;      CG324      NG3P2       HGP2
   11    10     9	5 ;      CG324      NG3P2      CG314
   12    10    13	5 ;       HGP2      NG3P2       HGP2
   12    10     9	5 ;       HGP2      NG3P2      CG314
   13    10     9	5 ;       HGP2      NG3P2      CG314
   14    11    10	5 ;     CG2R61      CG324      NG3P2
   14    11    59	5 ;     CG2R61      CG324       HGA2
   14    11    60	5 ;     CG2R61      CG324       HGA2
   10    11    59	5 ;      NG3P2      CG324       HGA2
   10    11    60	5 ;      NG3P2      CG324       HGA2
   59    11    60	5 ;       HGA2      CG324       HGA2
   11    14    16	5 ;      CG324     CG2R61     CG2R61
   11    14    15	5 ;      CG324     CG2R61     CG2R61
   16    14    15	5 ;     CG2R61     CG2R61     CG2R61
   14    15    17	5 ;     CG2R61     CG2R61      CG321
   14    15    18	5 ;     CG2R61     CG2R61     CG2R61
   17    15    18	5 ;      CG321     CG2R61     CG2R61
   21    16    14	5 ;      OG311     CG2R61     CG2R61
   21    16    20	5 ;      OG311     CG2R61     CG2R61
   14    16    20	5 ;     CG2R61     CG2R61     CG2R61
   15    17     9	5 ;     CG2R61      CG321      CG314
   15    17    61	5 ;     CG2R61      CG321       HGA2
   15    17    62	5 ;     CG2R61      CG321       HGA2
    9    17    61	5 ;      CG314      CG321       HGA2
    9    17    62	5 ;      CG314      CG321       HGA2
   61    17    62	5 ;       HGA2      CG321       HGA2
   15    18    19	5 ;     CG2R61     CG2R61     CG2R61
   15    18    63	5 ;     CG2R61     CG2R61      HGR61
   19    18    63	5 ;     CG2R61     CG2R61      HGR61
   20    19    18	5 ;     CG2R61     CG2R61     CG2R61
   20    19    64	5 ;     CG2R61     CG2R61      HGR61
   18    19    64	5 ;     CG2R61     CG2R61      HGR61
   16    20    19	5 ;     CG2R61     CG2R61     CG2R61
   16    20    65	5 ;     CG2R61     CG2R61      HGR61
   19    20    65	5 ;     CG2R61     CG2R61      HGR61
   22    21    16	5 ;       HGP1      OG311     CG2R61
   24    23     5	5 ;     CG2R61      CG321      CG311
   24    23    66	5 ;     CG2R61      CG321       HGA2
   24    23    67	5 ;     CG2R61      CG321       HGA2
    5    23    66	5 ;      CG311      CG321       HGA2
    5    23    67	5 ;      CG311      CG321       HGA2
   66    23    67	5 ;       HGA2      CG321       HGA2
   25    24    23	5 ;     CG2R61     CG2R61      CG321
   25    24    30	5 ;     CG2R61     CG2R61     CG2R61
   23    24    30	5 ;      CG321     CG2R61     CG2R61
   26    25    24	5 ;     CG2R66     CG2R61     CG2R61
   26    25    68	5 ;     CG2R66     CG2R61      HGR62
   24    25    68	5 ;     CG2R61     CG2R61      HGR62
   27    26    25	5 ;       FGR1     CG2R66     CG2R61
   27    26    28	5 ;       FGR1     CG2R66     CG2R61
   25    26    28	5 ;     CG2R61     CG2R66     CG2R61
   26    28    29	5 ;     CG2R66     CG2R61     CG2R66
   26    28    69	5 ;     CG2R66     CG2R61      HGR62
   29    28    69	5 ;     CG2R66     CG2R61      HGR62
   28    29    30	5 ;     CG2R61     CG2R66     CG2R61
   28    29    31	5 ;     CG2R61     CG2R66       FGR1
   30    29    31	5 ;     CG2R61     CG2R66       FGR1
   24    30    29	5 ;     CG2R61     CG2R61     CG2R66
   24    30    70	5 ;     CG2R61     CG2R61      HGR62
   29    30    70	5 ;     CG2R66     CG2R61      HGR62
    2    32    41	5 ;      CG2O1      CG311     NG2R53
    2    32    33	5 ;      CG2O1      CG311      CG321
    2    32    71	5 ;      CG2O1      CG311       HGA1
   41    32    33	5 ;     NG2R53      CG311      CG321
   41    32    71	5 ;     NG2R53      CG311       HGA1
   33    32    71	5 ;      CG321      CG311       HGA1
   32    33    34	5 ;      CG311      CG321      CG321
   32    33    72	5 ;      CG311      CG321       HGA2
   32    33    73	5 ;      CG311      CG321       HGA2
   34    33    72	5 ;      CG321      CG321       HGA2
   34    33    73	5 ;      CG321      CG321       HGA2
   72    33    73	5 ;       HGA2      CG321       HGA2
   33    34    35	5 ;      CG321      CG321     CG2R61
   33    34    74	5 ;      CG321      CG321       HGA2
   33    34    75	5 ;      CG321      CG321       HGA2
   35    34    74	5 ;     CG2R61      CG321       HGA2
   35    34    75	5 ;     CG2R61      CG321       HGA2
   74    34    75	5 ;       HGA2      CG321       HGA2
   34    35    36	5 ;      CG321     CG2R61     CG2R61
   34    35    40	5 ;      CG321     CG2R61     CG2R61
   36    35    40	5 ;     CG2R61     CG2R61     CG2R61
   35    36    37	5 ;     CG2R61     CG2R61     CG2R61
   35    36    76	5 ;     CG2R61     CG2R61      HGR61
   37    36    76	5 ;     CG2R61     CG2R61      HGR61
   36    37    38	5 ;     CG2R61     CG2R61     CG2R61
   36    37    77	5 ;     CG2R61     CG2R61      HGR61
   38    37    77	5 ;     CG2R61     CG2R61      HGR61
   37    38    39	5 ;     CG2R61     CG2R61     CG2R61
   37    38    78	5 ;     CG2R61     CG2R61      HGR61
   39    38    78	5 ;     CG2R61     CG2R61      HGR61
   40    39    38	5 ;     CG2R61     CG2R61     CG2R61
   40    39    79	5 ;     CG2R61     CG2R61      HGR61
   38    39    79	5 ;     CG2R61     CG2R61      HGR61
   35    40    39	5 ;     CG2R61     CG2R61     CG2R61
   35    40    80	5 ;     CG2R61     CG2R61      HGR61
   39    40    80	5 ;     CG2R61     CG2R61      HGR61
   42    41    32	5 ;     CG3C52     NG2R53      CG311
   42    41    45	5 ;     CG3C52     NG2R53     CG2R53
   32    41    45	5 ;      CG311     NG2R53     CG2R53
   43    42    41	5 ;     CG3C52     CG3C52     NG2R53
   43    42    81	5 ;     CG3C52     CG3C52       HGA2
   43    42    82	5 ;     CG3C52     CG3C52       HGA2
   41    42    81	5 ;     NG2R53     CG3C52       HGA2
   41    42    82	5 ;     NG2R53     CG3C52       HGA2
   81    42    82	5 ;       HGA2     CG3C52       HGA2
   42    43    44	5 ;     CG3C52     CG3C52     CG3C50
   42    43    83	5 ;     CG3C52     CG3C52       HGA2
   42    43    84	5 ;     CG3C52     CG3C52       HGA2
   44    43    83	5 ;     CG3C50     CG3C52       HGA2
   44    43    84	5 ;     CG3C50     CG3C52       HGA2
   83    43    84	5 ;       HGA2     CG3C52       HGA2
   43    44    51	5 ;     CG3C52     CG3C50      NG2S1
   43    44    45	5 ;     CG3C52     CG3C50     CG2R53
   43    44    47	5 ;     CG3C52     CG3C50      CG311
   51    44    45	5 ;      NG2S1     CG3C50     CG2R53
   51    44    47	5 ;      NG2S1     CG3C50      CG311
   45    44    47	5 ;     CG2R53     CG3C50      CG311
   41    45    44	5 ;     NG2R53     CG2R53     CG3C50
   41    45    46	5 ;     NG2R53     CG2R53      OG2D1
   44    45    46	5 ;     CG3C50     CG2R53      OG2D1
   44    47    48	5 ;     CG3C50      CG311      CG331
   44    47    49	5 ;     CG3C50      CG311      CG321
   44    47    85	5 ;     CG3C50      CG311       HGA1
   48    47    49	5 ;      CG331      CG311      CG321
   48    47    85	5 ;      CG331      CG311       HGA1
   49    47    85	5 ;      CG321      CG311       HGA1
   47    48    86	5 ;      CG311      CG331       HGA3
   47    48    87	5 ;      CG311      CG331       HGA3
   47    48    88	5 ;      CG311      CG331       HGA3
   86    48    87	5 ;       HGA3      CG331       HGA3
   86    48    88	5 ;       HGA3      CG331       HGA3
   87    48    88	5 ;       HGA3      CG331       HGA3
   47    49    50	5 ;      CG311      CG321      CG331
   47    49    89	5 ;      CG311      CG321       HGA2
   47    49    90	5 ;      CG311      CG321       HGA2
   50    49    89	5 ;      CG331      CG321       HGA2
   50    49    90	5 ;      CG331      CG321       HGA2
   89    49    90	5 ;       HGA2      CG321       HGA2
   49    50    91	5 ;      CG321      CG331       HGA3
   49    50    92	5 ;      CG321      CG331       HGA3
   49    50    93	5 ;      CG321      CG331       HGA3
   91    50    92	5 ;       HGA3      CG331       HGA3
   91    50    93	5 ;       HGA3      CG331       HGA3
   92    50    93	5 ;       HGA3      CG331       HGA3
   52    51    44	5 ;      CG2O1      NG2S1     CG3C50
   52    51    55	5 ;      CG2O1      NG2S1       HGP1
   44    51    55	5 ;     CG3C50      NG2S1       HGP1
   53    52    54	5 ;      OG2D1      CG2O1      CG331
   53    52    51	5 ;      OG2D1      CG2O1      NG2S1
   54    52    51	5 ;      CG331      CG2O1      NG2S1
   52    54    94	5 ;      CG2O1      CG331       HGA3
   52    54    95	5 ;      CG2O1      CG331       HGA3
   52    54    96	5 ;      CG2O1      CG331       HGA3
   94    54    95	5 ;       HGA3      CG331       HGA3
   94    54    96	5 ;       HGA3      CG331       HGA3
   95    54    96	5 ;       HGA3      CG331       HGA3

[ dihedrals ]
;	ai	  aj	ak	  al funct			  c0			c1			  c2			c3			  c4			c5
    5     1     2     3	 9 ;      CG311      NG2S1      CG2O1      OG2D1
    5     1     2    32	 9 ;      CG311      NG2S1      CG2O1      CG311
    4     1     2     3	 9 ;       HGP1      NG2S1      CG2O1      OG2D1
    4     1     2    32	 9 ;       HGP1      NG2S1      CG2O1      CG311
    2     1     5    23	 9 ;      CG2O1      NG2S1      CG311      CG321
    2     1     5     6	 9 ;      CG2O1      NG2S1      CG311      CG311
    2     1     5    56	 9 ;      CG2O1      NG2S1      CG311       HGA1
    4     1     5    23	 9 ;       HGP1      NG2S1      CG311      CG321
    4     1     5     6	 9 ;       HGP1      NG2S1      CG311      CG311
    4     1     5    56	 9 ;       HGP1      NG2S1      CG311       HGA1
    3     2    32    41	 9 ;      OG2D1      CG2O1      CG311     NG2R53
    3     2    32    33	 9 ;      OG2D1      CG2O1      CG311      CG321
    3     2    32    71	 9 ;      OG2D1      CG2O1      CG311       HGA1
    1     2    32    41	 9 ;      NG2S1      CG2O1      CG311     NG2R53
    1     2    32    33	 9 ;      NG2S1      CG2O1      CG311      CG321
    1     2    32    71	 9 ;      NG2S1      CG2O1      CG311       HGA1
    6     5    23    24	 9 ;      CG311      CG311      CG321     CG2R61
    6     5    23    66	 9 ;      CG311      CG311      CG321       HGA2
    6     5    23    67	 9 ;      CG311      CG311      CG321       HGA2
    1     5    23    24	 9 ;      NG2S1      CG311      CG321     CG2R61
    1     5    23    66	 9 ;      NG2S1      CG311      CG321       HGA2
    1     5    23    67	 9 ;      NG2S1      CG311      CG321       HGA2
   56     5    23    24	 9 ;       HGA1      CG311      CG321     CG2R61
   56     5    23    66	 9 ;       HGA1      CG311      CG321       HGA2
   56     5    23    67	 9 ;       HGA1      CG311      CG321       HGA2
   23     5     6     9	 9 ;      CG321      CG311      CG311      CG314
   23     5     6     7	 9 ;      CG321      CG311      CG311      OG311
   23     5     6    57	 9 ;      CG321      CG311      CG311       HGA1
    1     5     6     9	 9 ;      NG2S1      CG311      CG311      CG314
    1     5     6     7	 9 ;      NG2S1      CG311      CG311      OG311
    1     5     6    57	 9 ;      NG2S1      CG311      CG311       HGA1
   56     5     6     9	 9 ;       HGA1      CG311      CG311      CG314
   56     5     6     7	 9 ;       HGA1      CG311      CG311      OG311
   56     5     6    57	 9 ;       HGA1      CG311      CG311       HGA1
    5     6     9    10	 9 ;      CG311      CG311      CG314      NG3P2
    5     6     9    17	 9 ;      CG311      CG311      CG314      CG321
    5     6     9    58	 9 ;      CG311      CG311      CG314       HGA1
    7     6     9    10	 9 ;      OG311      CG311      CG314      NG3P2
    7     6     9    17	 9 ;      OG311      CG311      CG314      CG321
    7     6     9    58	 9 ;      OG311      CG311      CG314       HGA1
   57     6     9    10	 9 ;       HGA1      CG311      CG314      NG3P2
   57     6     9    17	 9 ;       HGA1      CG311      CG314      CG321
   57     6     9    58	 9 ;       HGA1      CG311      CG314       HGA1
    9     6     7     8	 9 ;      CG314      CG311      OG311       HGP1
    5     6     7     8	 9 ;      CG311      CG311      OG311       HGP1
   57     6     7     8	 9 ;       HGA1      CG311      OG311       HGP1
   17     9    10    11	 9 ;      CG321      CG314      NG3P2      CG324
   17     9    10    12	 9 ;      CG321      CG314      NG3P2       HGP2
   17     9    10    13	 9 ;      CG321      CG314      NG3P2       HGP2
    6     9    10    11	 9 ;      CG311      CG314      NG3P2      CG324
    6     9    10    12	 9 ;      CG311      CG314      NG3P2       HGP2
    6     9    10    13	 9 ;      CG311      CG314      NG3P2       HGP2
   58     9    10    11	 9 ;       HGA1      CG314      NG3P2      CG324
   58     9    10    12	 9 ;       HGA1      CG314      NG3P2       HGP2
   58     9    10    13	 9 ;       HGA1      CG314      NG3P2       HGP2
   10     9    17    15	 9 ;      NG3P2      CG314      CG321     CG2R61
   10     9    17    61	 9 ;      NG3P2      CG314      CG321       HGA2
   10     9    17    62	 9 ;      NG3P2      CG314      CG321       HGA2
    6     9    17    15	 9 ;      CG311      CG314      CG321     CG2R61
    6     9    17    61	 9 ;      CG311      CG314      CG321       HGA2
    6     9    17    62	 9 ;      CG311      CG314      CG321       HGA2
   58     9    17    15	 9 ;       HGA1      CG314      CG321     CG2R61
   58     9    17    61	 9 ;       HGA1      CG314      CG321       HGA2
   58     9    17    62	 9 ;       HGA1      CG314      CG321       HGA2
   12    10    11    14	 9 ;       HGP2      NG3P2      CG324     CG2R61
   12    10    11    59	 9 ;       HGP2      NG3P2      CG324       HGA2
   12    10    11    60	 9 ;       HGP2      NG3P2      CG324       HGA2
   13    10    11    14	 9 ;       HGP2      NG3P2      CG324     CG2R61
   13    10    11    59	 9 ;       HGP2      NG3P2      CG324       HGA2
   13    10    11    60	 9 ;       HGP2      NG3P2      CG324       HGA2
    9    10    11    14	 9 ;      CG314      NG3P2      CG324     CG2R61
    9    10    11    59	 9 ;      CG314      NG3P2      CG324       HGA2
    9    10    11    60	 9 ;      CG314      NG3P2      CG324       HGA2
   10    11    14    16	 9 ;      NG3P2      CG324     CG2R61     CG2R61
   10    11    14    15	 9 ;      NG3P2      CG324     CG2R61     CG2R61
   59    11    14    16	 9 ;       HGA2      CG324     CG2R61     CG2R61
   59    11    14    15	 9 ;       HGA2      CG324     CG2R61     CG2R61
   60    11    14    16	 9 ;       HGA2      CG324     CG2R61     CG2R61
   60    11    14    15	 9 ;       HGA2      CG324     CG2R61     CG2R61
   11    14    16    21	 9 ;      CG324     CG2R61     CG2R61      OG311
   11    14    16    20	 9 ;      CG324     CG2R61     CG2R61     CG2R61
   15    14    16    21	 9 ;     CG2R61     CG2R61     CG2R61      OG311
   15    14    16    20	 9 ;     CG2R61     CG2R61     CG2R61     CG2R61
   11    14    15    17	 9 ;      CG324     CG2R61     CG2R61      CG321
   11    14    15    18	 9 ;      CG324     CG2R61     CG2R61     CG2R61
   16    14    15    17	 9 ;     CG2R61     CG2R61     CG2R61      CG321
   16    14    15    18	 9 ;     CG2R61     CG2R61     CG2R61     CG2R61
   14    15    17     9	 9 ;     CG2R61     CG2R61      CG321      CG314
   14    15    17    61	 9 ;     CG2R61     CG2R61      CG321       HGA2
   14    15    17    62	 9 ;     CG2R61     CG2R61      CG321       HGA2
   18    15    17     9	 9 ;     CG2R61     CG2R61      CG321      CG314
   18    15    17    61	 9 ;     CG2R61     CG2R61      CG321       HGA2
   18    15    17    62	 9 ;     CG2R61     CG2R61      CG321       HGA2
   14    15    18    19	 9 ;     CG2R61     CG2R61     CG2R61     CG2R61
   14    15    18    63	 9 ;     CG2R61     CG2R61     CG2R61      HGR61
   17    15    18    19	 9 ;      CG321     CG2R61     CG2R61     CG2R61
   17    15    18    63	 9 ;      CG321     CG2R61     CG2R61      HGR61
   14    16    21    22	 9 ;     CG2R61     CG2R61      OG311       HGP1
   20    16    21    22	 9 ;     CG2R61     CG2R61      OG311       HGP1
   21    16    20    19	 9 ;      OG311     CG2R61     CG2R61     CG2R61
   21    16    20    65	 9 ;      OG311     CG2R61     CG2R61      HGR61
   14    16    20    19	 9 ;     CG2R61     CG2R61     CG2R61     CG2R61
   14    16    20    65	 9 ;     CG2R61     CG2R61     CG2R61      HGR61
   15    18    19    20	 9 ;     CG2R61     CG2R61     CG2R61     CG2R61
   15    18    19    64	 9 ;     CG2R61     CG2R61     CG2R61      HGR61
   63    18    19    20	 9 ;      HGR61     CG2R61     CG2R61     CG2R61
   63    18    19    64	 9 ;      HGR61     CG2R61     CG2R61      HGR61
   18    19    20    16	 9 ;     CG2R61     CG2R61     CG2R61     CG2R61
   18    19    20    65	 9 ;     CG2R61     CG2R61     CG2R61      HGR61
   64    19    20    16	 9 ;      HGR61     CG2R61     CG2R61     CG2R61
   64    19    20    65	 9 ;      HGR61     CG2R61     CG2R61      HGR61
    5    23    24    25	 9 ;      CG311      CG321     CG2R61     CG2R61
    5    23    24    30	 9 ;      CG311      CG321     CG2R61     CG2R61
   66    23    24    25	 9 ;       HGA2      CG321     CG2R61     CG2R61
   66    23    24    30	 9 ;       HGA2      CG321     CG2R61     CG2R61
   67    23    24    25	 9 ;       HGA2      CG321     CG2R61     CG2R61
   67    23    24    30	 9 ;       HGA2      CG321     CG2R61     CG2R61
   23    24    25    26	 9 ;      CG321     CG2R61     CG2R61     CG2R66
   23    24    25    68	 9 ;      CG321     CG2R61     CG2R61      HGR62
   30    24    25    26	 9 ;     CG2R61     CG2R61     CG2R61     CG2R66
   30    24    25    68	 9 ;     CG2R61     CG2R61     CG2R61      HGR62
   25    24    30    29	 9 ;     CG2R61     CG2R61     CG2R61     CG2R66
   25    24    30    70	 9 ;     CG2R61     CG2R61     CG2R61      HGR62
   23    24    30    29	 9 ;      CG321     CG2R61     CG2R61     CG2R66
   23    24    30    70	 9 ;      CG321     CG2R61     CG2R61      HGR62
   24    25    26    27	 9 ;     CG2R61     CG2R61     CG2R66       FGR1
   24    25    26    28	 9 ;     CG2R61     CG2R61     CG2R66     CG2R61
   68    25    26    27	 9 ;      HGR62     CG2R61     CG2R66       FGR1
   68    25    26    28	 9 ;      HGR62     CG2R61     CG2R66     CG2R61
   27    26    28    29	 9 ;       FGR1     CG2R66     CG2R61     CG2R66
   27    26    28    69	 9 ;       FGR1     CG2R66     CG2R61      HGR62
   25    26    28    29	 9 ;     CG2R61     CG2R66     CG2R61     CG2R66
   25    26    28    69	 9 ;     CG2R61     CG2R66     CG2R61      HGR62
   26    28    29    30	 9 ;     CG2R66     CG2R61     CG2R66     CG2R61
   26    28    29    31	 9 ;     CG2R66     CG2R61     CG2R66       FGR1
   69    28    29    30	 9 ;      HGR62     CG2R61     CG2R66     CG2R61
   69    28    29    31	 9 ;      HGR62     CG2R61     CG2R66       FGR1
   28    29    30    24	 9 ;     CG2R61     CG2R66     CG2R61     CG2R61
   28    29    30    70	 9 ;     CG2R61     CG2R66     CG2R61      HGR62
   31    29    30    24	 9 ;       FGR1     CG2R66     CG2R61     CG2R61
   31    29    30    70	 9 ;       FGR1     CG2R66     CG2R61      HGR62
    2    32    41    42	 9 ;      CG2O1      CG311     NG2R53     CG3C52
    2    32    41    45	 9 ;      CG2O1      CG311     NG2R53     CG2R53
   33    32    41    42	 9 ;      CG321      CG311     NG2R53     CG3C52
   33    32    41    45	 9 ;      CG321      CG311     NG2R53     CG2R53
   71    32    41    42	 9 ;       HGA1      CG311     NG2R53     CG3C52
   71    32    41    45	 9 ;       HGA1      CG311     NG2R53     CG2R53
    2    32    33    34	 9 ;      CG2O1      CG311      CG321      CG321
    2    32    33    72	 9 ;      CG2O1      CG311      CG321       HGA2
    2    32    33    73	 9 ;      CG2O1      CG311      CG321       HGA2
   41    32    33    34	 9 ;     NG2R53      CG311      CG321      CG321
   41    32    33    72	 9 ;     NG2R53      CG311      CG321       HGA2
   41    32    33    73	 9 ;     NG2R53      CG311      CG321       HGA2
   71    32    33    34	 9 ;       HGA1      CG311      CG321      CG321
   71    32    33    72	 9 ;       HGA1      CG311      CG321       HGA2
   71    32    33    73	 9 ;       HGA1      CG311      CG321       HGA2
   32    33    34    35	 9 ;      CG311      CG321      CG321     CG2R61
   32    33    34    74	 9 ;      CG311      CG321      CG321       HGA2
   32    33    34    75	 9 ;      CG311      CG321      CG321       HGA2
   72    33    34    35	 9 ;       HGA2      CG321      CG321     CG2R61
   72    33    34    74	 9 ;       HGA2      CG321      CG321       HGA2
   72    33    34    75	 9 ;       HGA2      CG321      CG321       HGA2
   73    33    34    35	 9 ;       HGA2      CG321      CG321     CG2R61
   73    33    34    74	 9 ;       HGA2      CG321      CG321       HGA2
   73    33    34    75	 9 ;       HGA2      CG321      CG321       HGA2
   33    34    35    36	 9 ;      CG321      CG321     CG2R61     CG2R61
   33    34    35    40	 9 ;      CG321      CG321     CG2R61     CG2R61
   74    34    35    36	 9 ;       HGA2      CG321     CG2R61     CG2R61
   74    34    35    40	 9 ;       HGA2      CG321     CG2R61     CG2R61
   75    34    35    36	 9 ;       HGA2      CG321     CG2R61     CG2R61
   75    34    35    40	 9 ;       HGA2      CG321     CG2R61     CG2R61
   34    35    36    37	 9 ;      CG321     CG2R61     CG2R61     CG2R61
   34    35    36    76	 9 ;      CG321     CG2R61     CG2R61      HGR61
   40    35    36    37	 9 ;     CG2R61     CG2R61     CG2R61     CG2R61
   40    35    36    76	 9 ;     CG2R61     CG2R61     CG2R61      HGR61
   34    35    40    39	 9 ;      CG321     CG2R61     CG2R61     CG2R61
   34    35    40    80	 9 ;      CG321     CG2R61     CG2R61      HGR61
   36    35    40    39	 9 ;     CG2R61     CG2R61     CG2R61     CG2R61
   36    35    40    80	 9 ;     CG2R61     CG2R61     CG2R61      HGR61
   35    36    37    38	 9 ;     CG2R61     CG2R61     CG2R61     CG2R61
   35    36    37    77	 9 ;     CG2R61     CG2R61     CG2R61      HGR61
   76    36    37    38	 9 ;      HGR61     CG2R61     CG2R61     CG2R61
   76    36    37    77	 9 ;      HGR61     CG2R61     CG2R61      HGR61
   36    37    38    39	 9 ;     CG2R61     CG2R61     CG2R61     CG2R61
   36    37    38    78	 9 ;     CG2R61     CG2R61     CG2R61      HGR61
   77    37    38    39	 9 ;      HGR61     CG2R61     CG2R61     CG2R61
   77    37    38    78	 9 ;      HGR61     CG2R61     CG2R61      HGR61
   37    38    39    40	 9 ;     CG2R61     CG2R61     CG2R61     CG2R61
   37    38    39    79	 9 ;     CG2R61     CG2R61     CG2R61      HGR61
   78    38    39    40	 9 ;      HGR61     CG2R61     CG2R61     CG2R61
   78    38    39    79	 9 ;      HGR61     CG2R61     CG2R61      HGR61
   38    39    40    35	 9 ;     CG2R61     CG2R61     CG2R61     CG2R61
   38    39    40    80	 9 ;     CG2R61     CG2R61     CG2R61      HGR61
   79    39    40    35	 9 ;      HGR61     CG2R61     CG2R61     CG2R61
   79    39    40    80	 9 ;      HGR61     CG2R61     CG2R61      HGR61
   32    41    42    43	 9 ;      CG311     NG2R53     CG3C52     CG3C52
   32    41    42    81	 9 ;      CG311     NG2R53     CG3C52       HGA2
   32    41    42    82	 9 ;      CG311     NG2R53     CG3C52       HGA2
   45    41    42    43	 9 ;     CG2R53     NG2R53     CG3C52     CG3C52
   45    41    42    81	 9 ;     CG2R53     NG2R53     CG3C52       HGA2
   45    41    42    82	 9 ;     CG2R53     NG2R53     CG3C52       HGA2
   42    41    45    44	 9 ;     CG3C52     NG2R53     CG2R53     CG3C50
   42    41    45    46	 9 ;     CG3C52     NG2R53     CG2R53      OG2D1
   32    41    45    44	 9 ;      CG311     NG2R53     CG2R53     CG3C50
   32    41    45    46	 9 ;      CG311     NG2R53     CG2R53      OG2D1
   41    42    43    44	 9 ;     NG2R53     CG3C52     CG3C52     CG3C50
   41    42    43    83	 9 ;     NG2R53     CG3C52     CG3C52       HGA2
   41    42    43    84	 9 ;     NG2R53     CG3C52     CG3C52       HGA2
   81    42    43    44	 9 ;       HGA2     CG3C52     CG3C52     CG3C50
   81    42    43    83	 9 ;       HGA2     CG3C52     CG3C52       HGA2
   81    42    43    84	 9 ;       HGA2     CG3C52     CG3C52       HGA2
   82    42    43    44	 9 ;       HGA2     CG3C52     CG3C52     CG3C50
   82    42    43    83	 9 ;       HGA2     CG3C52     CG3C52       HGA2
   82    42    43    84	 9 ;       HGA2     CG3C52     CG3C52       HGA2
   42    43    44    51	 9 ;     CG3C52     CG3C52     CG3C50      NG2S1
   42    43    44    45	 9 ;     CG3C52     CG3C52     CG3C50     CG2R53
   42    43    44    47	 9 ;     CG3C52     CG3C52     CG3C50      CG311
   83    43    44    51	 9 ;       HGA2     CG3C52     CG3C50      NG2S1
   83    43    44    45	 9 ;       HGA2     CG3C52     CG3C50     CG2R53
   83    43    44    47	 9 ;       HGA2     CG3C52     CG3C50      CG311
   84    43    44    51	 9 ;       HGA2     CG3C52     CG3C50      NG2S1
   84    43    44    45	 9 ;       HGA2     CG3C52     CG3C50     CG2R53
   84    43    44    47	 9 ;       HGA2     CG3C52     CG3C50      CG311
   43    44    51    52	 9 ;     CG3C52     CG3C50      NG2S1      CG2O1
   43    44    51    55	 9 ;     CG3C52     CG3C50      NG2S1       HGP1
   45    44    51    52	 9 ;     CG2R53     CG3C50      NG2S1      CG2O1
   45    44    51    55	 9 ;     CG2R53     CG3C50      NG2S1       HGP1
   47    44    51    52	 9 ;      CG311     CG3C50      NG2S1      CG2O1
   47    44    51    55	 9 ;      CG311     CG3C50      NG2S1       HGP1
   43    44    45    41	 9 ;     CG3C52     CG3C50     CG2R53     NG2R53
   43    44    45    46	 9 ;     CG3C52     CG3C50     CG2R53      OG2D1
   51    44    45    41	 9 ;      NG2S1     CG3C50     CG2R53     NG2R53
   51    44    45    46	 9 ;      NG2S1     CG3C50     CG2R53      OG2D1
   47    44    45    41	 9 ;      CG311     CG3C50     CG2R53     NG2R53
   47    44    45    46	 9 ;      CG311     CG3C50     CG2R53      OG2D1
   43    44    47    48	 9 ;     CG3C52     CG3C50      CG311      CG331
   43    44    47    49	 9 ;     CG3C52     CG3C50      CG311      CG321
   43    44    47    85	 9 ;     CG3C52     CG3C50      CG311       HGA1
   51    44    47    48	 9 ;      NG2S1     CG3C50      CG311      CG331
   51    44    47    49	 9 ;      NG2S1     CG3C50      CG311      CG321
   51    44    47    85	 9 ;      NG2S1     CG3C50      CG311       HGA1
   45    44    47    48	 9 ;     CG2R53     CG3C50      CG311      CG331
   45    44    47    49	 9 ;     CG2R53     CG3C50      CG311      CG321
   45    44    47    85	 9 ;     CG2R53     CG3C50      CG311       HGA1
   44    47    48    86	 9 ;     CG3C50      CG311      CG331       HGA3
   44    47    48    87	 9 ;     CG3C50      CG311      CG331       HGA3
   44    47    48    88	 9 ;     CG3C50      CG311      CG331       HGA3
   49    47    48    86	 9 ;      CG321      CG311      CG331       HGA3
   49    47    48    87	 9 ;      CG321      CG311      CG331       HGA3
   49    47    48    88	 9 ;      CG321      CG311      CG331       HGA3
   85    47    48    86	 9 ;       HGA1      CG311      CG331       HGA3
   85    47    48    87	 9 ;       HGA1      CG311      CG331       HGA3
   85    47    48    88	 9 ;       HGA1      CG311      CG331       HGA3
   44    47    49    50	 9 ;     CG3C50      CG311      CG321      CG331
   44    47    49    89	 9 ;     CG3C50      CG311      CG321       HGA2
   44    47    49    90	 9 ;     CG3C50      CG311      CG321       HGA2
   48    47    49    50	 9 ;      CG331      CG311      CG321      CG331
   48    47    49    89	 9 ;      CG331      CG311      CG321       HGA2
   48    47    49    90	 9 ;      CG331      CG311      CG321       HGA2
   85    47    49    50	 9 ;       HGA1      CG311      CG321      CG331
   85    47    49    89	 9 ;       HGA1      CG311      CG321       HGA2
   85    47    49    90	 9 ;       HGA1      CG311      CG321       HGA2
   47    49    50    91	 9 ;      CG311      CG321      CG331       HGA3
   47    49    50    92	 9 ;      CG311      CG321      CG331       HGA3
   47    49    50    93	 9 ;      CG311      CG321      CG331       HGA3
   89    49    50    91	 9 ;       HGA2      CG321      CG331       HGA3
   89    49    50    92	 9 ;       HGA2      CG321      CG331       HGA3
   89    49    50    93	 9 ;       HGA2      CG321      CG331       HGA3
   90    49    50    91	 9 ;       HGA2      CG321      CG331       HGA3
   90    49    50    92	 9 ;       HGA2      CG321      CG331       HGA3
   90    49    50    93	 9 ;       HGA2      CG321      CG331       HGA3
   44    51    52    53	 9 ;     CG3C50      NG2S1      CG2O1      OG2D1
   44    51    52    54	 9 ;     CG3C50      NG2S1      CG2O1      CG331
   55    51    52    53	 9 ;       HGP1      NG2S1      CG2O1      OG2D1
   55    51    52    54	 9 ;       HGP1      NG2S1      CG2O1      CG331
   53    52    54    94	 9 ;      OG2D1      CG2O1      CG331       HGA3
   53    52    54    95	 9 ;      OG2D1      CG2O1      CG331       HGA3
   53    52    54    96	 9 ;      OG2D1      CG2O1      CG331       HGA3
   51    52    54    94	 9 ;      NG2S1      CG2O1      CG331       HGA3
   51    52    54    95	 9 ;      NG2S1      CG2O1      CG331       HGA3
   51    52    54    96	 9 ;      NG2S1      CG2O1      CG331       HGA3

[ dihedrals ]
;	ai	  aj	ak	  al funct			  c0			c1			  c2			c3
    2    32     1     3	 2
   45    44    41    46	 2
   52    54    51    53	 2

