Getting the Right Output Means no Artefacts in Calculating Stuff
   56
    1LIG     O1    1  -1.385   0.670  -1.633
    1LIG     C1    2  -1.383   0.548  -1.571
    1LIG     C2    3  -1.496   0.484  -1.523
    1LIG     C3    4  -1.477   0.379  -1.430
    1LIG     C4    5  -1.354   0.317  -1.409
    1LIG     C5    6  -1.243   0.374  -1.472
    1LIG     C6    7  -1.257   0.491  -1.548
    1LIG     C7    8  -1.635   0.533  -1.561
    1LIG     N1    9  -1.688   0.505  -1.699
    1LIG     HN   10  -1.655   0.546  -1.786
    1LIG     C8   11  -1.783   0.420  -1.685
    1LIG     N2   12  -1.785   0.353  -1.568
    1LIG     C9   13  -1.698   0.235  -1.586
    1LIG    C10   14  -1.741   0.453  -1.483
    1LIG     O2   15  -1.789   0.481  -1.372
    1LIG    C11   16  -1.625   0.685  -1.558
    1LIG    C12   17  -1.514   0.729  -1.661
    1LIG    C13   18  -1.542   0.697  -1.809
    1LIG    C14   19  -1.497   0.882  -1.653
    1LIG     N3   20  -1.872   0.388  -1.781
    1LIG     H1   21  -1.836   0.320  -1.847
    1LIG     H2   22  -1.960   0.356  -1.741
    1LIG    C15   23  -1.350   0.188  -1.328
    1LIG    C16   24  -1.273   0.200  -1.196
    1LIG    C17   25  -1.269   0.066  -1.122
    1LIG    C18   26  -1.213  -0.045  -1.209
    1LIG    C19   27  -1.293  -0.060  -1.338
    1LIG    C20   28  -1.299   0.072  -1.415
    1LIG     HC   29  -1.562   0.345  -1.372
    1LIG    HC1   30  -1.146   0.327  -1.463
    1LIG    HC2   31  -1.169   0.538  -1.590
    1LIG    HN2   32  -1.622   0.430  -1.709
    1LIG    HC3   33  -1.849   0.497  -1.645
    1LIG    HC4   34  -1.721   0.729  -1.586
    1LIG    HC5   35  -1.597   0.719  -1.458
    1LIG    HN1   36  -1.893   0.472  -1.833
    1LIG    HC6   37  -1.453   0.165  -1.302
    1LIG    HC7   38  -1.171   0.231  -1.217
    1LIG    HC8   39  -1.321   0.275  -1.133
    1LIG    HC9   40  -1.370   0.040  -1.091
    1LIG   HC10   41  -1.207   0.077  -1.033
    1LIG   HC11   42  -1.109  -0.022  -1.234
    1LIG   HC12   43  -1.217  -0.139  -1.154
    1LIG   HC13   44  -1.394  -0.091  -1.314
    1LIG   HC14   45  -1.246  -0.136  -1.401
    1LIG   HC15   46  -1.367   0.059  -1.500
    1LIG   HC16   47  -1.200   0.096  -1.452
    1LIG   HC17   48  -1.490   0.770  -1.872
    1LIG   HC18   49  -1.650   0.704  -1.828
    1LIG   HC19   50  -1.507   0.597  -1.832
    1LIG   HC20   51  -1.477   0.911  -1.550
    1LIG   HC21   52  -1.589   0.930  -1.687
    1LIG   HC22   53  -1.414   0.912  -1.716
    1LIG   HC23   54  -1.751   0.159  -1.643
    1LIG   HC24   55  -1.608   0.265  -1.640
    1LIG   HC25   56  -1.670   0.196  -1.488
   0.00000   0.00000   0.00000
