Georgetown Riga Oslo Madrid Amsterdam Chisinau Stockholm
   60
    1LIG     C1    1  -1.280   0.375  -1.531
    1LIG     N1    2  -1.202   0.287  -1.627
    1LIG     HN    3  -1.200   0.294  -1.729
    1LIG     C2    4  -1.139   0.202  -1.554
    1LIG     N2    5  -1.147   0.219  -1.420
    1LIG     C3    6  -1.098   0.131  -1.318
    1LIG     C4    7  -1.216   0.335  -1.396
    1LIG     O1    8  -1.229   0.391  -1.288
    1LIG     C5    9  -1.260   0.525  -1.577
    1LIG     C6   10  -1.117   0.571  -1.535
    1LIG     C7   11  -1.087   0.715  -1.576
    1LIG     C8   12  -1.188   0.808  -1.508
    1LIG     C9   13  -1.098   0.723  -1.729
    1LIG    C10   14  -1.330   0.771  -1.552
    1LIG    C11   15  -1.361   0.624  -1.512
    1LIG    C12   16  -1.339   0.787  -1.704
    1LIG    C13   17  -1.242   0.690  -1.773
    1LIG    C14   18  -1.276   0.545  -1.731
    1LIG    C15   19  -1.429   0.329  -1.533
    1LIG    C16   20  -1.483   0.250  -1.634
    1LIG    C17   21  -1.618   0.213  -1.631
    1LIG    C18   22  -1.704   0.253  -1.527
    1LIG    C19   23  -1.653   0.331  -1.423
    1LIG    C20   24  -1.516   0.368  -1.429
    1LIG    C21   25  -1.729   0.381  -1.304
    1LIG     O2   26  -1.831   0.205  -1.546
    1LIG    C22   27  -1.927   0.280  -1.617
    1LIG     N3   28  -1.066   0.103  -1.609
    1LIG     H1   29  -1.038   0.125  -1.704
    1LIG     H2   30  -0.990   0.066  -1.553
    1LIG    HN2   31  -1.124   0.351  -1.621
    1LIG     HC   32  -1.227   0.137  -1.552
    1LIG    HC1   33  -1.120   0.172  -1.220
    1LIG    HC2   34  -1.147   0.033  -1.328
    1LIG    HC3   35  -0.990   0.119  -1.329
    1LIG    HC4   36  -1.109   0.563  -1.426
    1LIG    HC5   37  -1.043   0.504  -1.580
    1LIG    HC6   38  -0.986   0.741  -1.546
    1LIG    HC7   39  -1.179   0.797  -1.400
    1LIG    HC8   40  -1.167   0.911  -1.536
    1LIG    HC9   41  -1.073   0.824  -1.762
    1LIG   HC10   42  -1.029   0.652  -1.774
    1LIG   HC11   43  -1.402   0.837  -1.504
    1LIG   HC12   44  -1.354   0.615  -1.403
    1LIG   HC13   45  -1.462   0.599  -1.543
    1LIG   HC14   46  -1.441   0.766  -1.737
    1LIG   HC15   47  -1.313   0.889  -1.731
    1LIG   HC16   48  -1.250   0.700  -1.881
    1LIG   HC17   49  -1.209   0.476  -1.783
    1LIG   HC18   50  -1.379   0.523  -1.759
    1LIG   HC19   51  -1.421   0.217  -1.716
    1LIG   HC20   52  -1.658   0.152  -1.711
    1LIG   HC21   53  -1.476   0.429  -1.349
    1LIG   HC22   54  -1.832   0.347  -1.310
    1LIG   HC23   55  -1.683   0.343  -1.213
    1LIG   HC24   56  -1.726   0.490  -1.302
    1LIG   HC25   57  -2.021   0.224  -1.621
    1LIG   HC26   58  -1.944   0.375  -1.566
    1LIG   HC27   59  -1.892   0.299  -1.718
    1LIG    HN1   60  -1.130   0.026  -1.619
   0.00000   0.00000   0.00000
