; Created by cgenff_charmm2gmx.py

[ moleculetype ]
; Name			   nrexcl
LIG				 3

[ atoms ]
;	 nr		  type	resnr residue  atom   cgnr	   charge		mass  typeB    chargeB		massB
; residue	 1 LIG rtp LIG q	qsum
     1     CG3C50      1    LIG     C1      1      1.422     12.011   ;
     2      NG3P2      1    LIG     N1      2     -0.588     14.007   ;
     3       HGP2      1    LIG     HN      3      0.336      1.008   ;
     4     CG3C53      1    LIG     C2      4      0.785     12.011   ;
     5     NG2R53      1    LIG     N2      5     -0.178     14.007   ;
     6      CG331      1    LIG     C3      6     -0.169     12.011   ;
     7     CG2R53      1    LIG     C4      7     -0.410     12.011   ;
     8      OG2D1      1    LIG     O1      8     -0.325     15.999   ;
     9      CG301      1    LIG     C5      9      0.062     12.011   ;
    10      CG321      1    LIG     C6     10     -0.175     12.011   ;
    11      CG311      1    LIG     C7     11     -0.106     12.011   ;
    12      CG321      1    LIG     C8     12     -0.178     12.011   ;
    13      CG321      1    LIG     C9     13     -0.178     12.011   ;
    14      CG311      1    LIG    C10     14     -0.106     12.011   ;
    15      CG321      1    LIG    C11     15     -0.175     12.011   ;
    16      CG321      1    LIG    C12     16     -0.178     12.011   ;
    17      CG311      1    LIG    C13     17     -0.106     12.011   ;
    18      CG321      1    LIG    C14     18     -0.175     12.011   ;
    19     CG2R61      1    LIG    C15     19     -0.230     12.011   ;
    20     CG2R61      1    LIG    C16     20     -0.128     12.011   ;
    21     CG2R61      1    LIG    C17     21     -0.125     12.011   ;
    22     CG2R61      1    LIG    C18     22      0.236     12.011   ;
    23     CG2R61      1    LIG    C19     23      0.015     12.011   ;
    24     CG2R61      1    LIG    C20     24     -0.133     12.011   ;
    25      CG331      1    LIG    C21     25     -0.262     12.011   ;
    26      OG301      1    LIG     O2     26     -0.390     15.999   ;
    27      CG331      1    LIG    C22     27     -0.094     12.011   ;
    28      NG3P3      1    LIG     N3     28     -0.267     14.007   ;
    29       HGP2      1    LIG     H1     29      0.301      1.008   ;
    30       HGP2      1    LIG     H2     30      0.301      1.008   ;
    31       HGP2      1    LIG    HN2     31      0.336      1.008   ;
    32       HGA1      1    LIG     HC     32      0.073      1.008   ;
    33       HGA3      1    LIG    HC1     33      0.090      1.008   ;
    34       HGA3      1    LIG    HC2     34      0.090      1.008   ;
    35       HGA3      1    LIG    HC3     35      0.090      1.008   ;
    36       HGA2      1    LIG    HC4     36      0.090      1.008   ;
    37       HGA2      1    LIG    HC5     37      0.090      1.008   ;
    38       HGA1      1    LIG    HC6     38      0.090      1.008   ;
    39       HGA2      1    LIG    HC7     39      0.090      1.008   ;
    40       HGA2      1    LIG    HC8     40      0.090      1.008   ;
    41       HGA2      1    LIG    HC9     41      0.090      1.008   ;
    42       HGA2      1    LIG   HC10     42      0.090      1.008   ;
    43       HGA1      1    LIG   HC11     43      0.090      1.008   ;
    44       HGA2      1    LIG   HC12     44      0.090      1.008   ;
    45       HGA2      1    LIG   HC13     45      0.090      1.008   ;
    46       HGA2      1    LIG   HC14     46      0.090      1.008   ;
    47       HGA2      1    LIG   HC15     47      0.090      1.008   ;
    48       HGA1      1    LIG   HC16     48      0.090      1.008   ;
    49       HGA2      1    LIG   HC17     49      0.090      1.008   ;
    50       HGA2      1    LIG   HC18     50      0.090      1.008   ;
    51      HGR61      1    LIG   HC19     51      0.116      1.008   ;
    52      HGR61      1    LIG   HC20     52      0.116      1.008   ;
    53      HGR61      1    LIG   HC21     53      0.116      1.008   ;
    54       HGA3      1    LIG   HC22     54      0.090      1.008   ;
    55       HGA3      1    LIG   HC23     55      0.090      1.008   ;
    56       HGA3      1    LIG   HC24     56      0.090      1.008   ;
    57       HGA3      1    LIG   HC25     57      0.090      1.008   ;
    58       HGA3      1    LIG   HC26     58      0.090      1.008   ;
    59       HGA3      1    LIG   HC27     59      0.090      1.008   ;
    60       HGP2      1    LIG    HN1     60      0.301      1.008   ;

[ bonds ]
;	ai	  aj funct			  c0			c1			  c2			c3
    1     9	 1 ;      CG3C50      CG301
    1     2	 1 ;      CG3C50      NG3P2
    1     7	 1 ;      CG3C50     CG2R53
    1    19	 1 ;      CG3C50     CG2R61
    2     3	 1 ;       NG3P2       HGP2
    2     4	 1 ;       NG3P2     CG3C53
    2    31	 1 ;       NG3P2       HGP2
    4    28	 1 ;      CG3C53      NG3P3
    4     5	 1 ;      CG3C53     NG2R53
    4    32	 1 ;      CG3C53       HGA1
    5     7	 1 ;      NG2R53     CG2R53
    5     6	 1 ;      NG2R53      CG331
    6    33	 1 ;       CG331       HGA3
    6    34	 1 ;       CG331       HGA3
    6    35	 1 ;       CG331       HGA3
    7     8	 1 ;      CG2R53      OG2D1
    9    18	 1 ;       CG301      CG321
    9    10	 1 ;       CG301      CG321
    9    15	 1 ;       CG301      CG321
   10    11	 1 ;       CG321      CG311
   10    36	 1 ;       CG321       HGA2
   10    37	 1 ;       CG321       HGA2
   11    13	 1 ;       CG311      CG321
   11    12	 1 ;       CG311      CG321
   11    38	 1 ;       CG311       HGA1
   12    14	 1 ;       CG321      CG311
   12    39	 1 ;       CG321       HGA2
   12    40	 1 ;       CG321       HGA2
   13    17	 1 ;       CG321      CG311
   13    41	 1 ;       CG321       HGA2
   13    42	 1 ;       CG321       HGA2
   14    16	 1 ;       CG311      CG321
   14    15	 1 ;       CG311      CG321
   14    43	 1 ;       CG311       HGA1
   15    44	 1 ;       CG321       HGA2
   15    45	 1 ;       CG321       HGA2
   16    17	 1 ;       CG321      CG311
   16    46	 1 ;       CG321       HGA2
   16    47	 1 ;       CG321       HGA2
   17    18	 1 ;       CG311      CG321
   17    48	 1 ;       CG311       HGA1
   18    49	 1 ;       CG321       HGA2
   18    50	 1 ;       CG321       HGA2
   19    20	 1 ;      CG2R61     CG2R61
   19    24	 1 ;      CG2R61     CG2R61
   20    21	 1 ;      CG2R61     CG2R61
   20    51	 1 ;      CG2R61      HGR61
   21    22	 1 ;      CG2R61     CG2R61
   21    52	 1 ;      CG2R61      HGR61
   22    23	 1 ;      CG2R61     CG2R61
   22    26	 1 ;      CG2R61      OG301
   23    24	 1 ;      CG2R61     CG2R61
   23    25	 1 ;      CG2R61      CG331
   24    53	 1 ;      CG2R61      HGR61
   25    54	 1 ;       CG331       HGA3
   25    55	 1 ;       CG331       HGA3
   25    56	 1 ;       CG331       HGA3
   26    27	 1 ;       OG301      CG331
   27    57	 1 ;       CG331       HGA3
   27    58	 1 ;       CG331       HGA3
   27    59	 1 ;       CG331       HGA3
   28    29	 1 ;       NG3P3       HGP2
   28    30	 1 ;       NG3P3       HGP2
   28    60	 1 ;       NG3P3       HGP2

[ pairs ]
;	ai	  aj funct			  c0			c1			  c2			c3
    1    28	 1
    1    32	 1
    1     6	 1
    1    17	 1
    1    49	 1
    1    50	 1
    1    11	 1
    1    36	 1
    1    37	 1
    1    14	 1
    1    44	 1
    1    45	 1
    1    21	 1
    1    51	 1
    1    23	 1
    1    53	 1
    2    18	 1
    2    10	 1
    2    15	 1
    2     8	 1
    2    20	 1
    2    24	 1
    2    29	 1
    2    30	 1
    2    60	 1
    2     6	 1
    3     9	 1
    3     7	 1
    3    19	 1
    3    28	 1
    3     5	 1
    3    32	 1
    4     9	 1
    4    19	 1
    4     8	 1
    4    33	 1
    4    34	 1
    4    35	 1
    5     9	 1
    5    19	 1
    5    31	 1
    5    29	 1
    5    30	 1
    5    60	 1
    6    28	 1
    6    32	 1
    6     8	 1
    7    18	 1
    7    10	 1
    7    15	 1
    7    31	 1
    7    20	 1
    7    24	 1
    7    28	 1
    7    32	 1
    7    33	 1
    7    34	 1
    7    35	 1
    8     9	 1
    8    19	 1
    9    31	 1
    9    20	 1
    9    24	 1
    9    13	 1
    9    12	 1
    9    38	 1
    9    16	 1
    9    43	 1
    9    48	 1
   10    19	 1
   10    17	 1
   10    49	 1
   10    50	 1
   10    14	 1
   10    44	 1
   10    45	 1
   10    41	 1
   10    42	 1
   10    39	 1
   10    40	 1
   11    18	 1
   11    15	 1
   11    16	 1
   11    43	 1
   11    48	 1
   12    36	 1
   12    37	 1
   12    17	 1
   12    41	 1
   12    42	 1
   12    46	 1
   12    47	 1
   12    44	 1
   12    45	 1
   13    36	 1
   13    37	 1
   13    14	 1
   13    39	 1
   13    40	 1
   13    46	 1
   13    47	 1
   13    49	 1
   13    50	 1
   14    18	 1
   14    38	 1
   14    48	 1
   15    19	 1
   15    17	 1
   15    49	 1
   15    50	 1
   15    36	 1
   15    37	 1
   15    39	 1
   15    40	 1
   15    46	 1
   15    47	 1
   16    39	 1
   16    40	 1
   16    41	 1
   16    42	 1
   16    44	 1
   16    45	 1
   16    49	 1
   16    50	 1
   17    38	 1
   17    43	 1
   18    19	 1
   18    36	 1
   18    37	 1
   18    44	 1
   18    45	 1
   18    41	 1
   18    42	 1
   18    46	 1
   18    47	 1
   19    31	 1
   19    22	 1
   19    52	 1
   19    25	 1
   20    23	 1
   20    53	 1
   20    26	 1
   21    24	 1
   21    25	 1
   21    27	 1
   22    51	 1
   22    53	 1
   22    54	 1
   22    55	 1
   22    56	 1
   22    57	 1
   22    58	 1
   22    59	 1
   23    52	 1
   23    27	 1
   24    51	 1
   24    26	 1
   24    54	 1
   24    55	 1
   24    56	 1
   25    26	 1
   25    53	 1
   26    52	 1
   28    31	 1
   29    32	 1
   30    32	 1
   31    32	 1
   32    60	 1
   36    38	 1
   37    38	 1
   38    41	 1
   38    42	 1
   38    39	 1
   38    40	 1
   39    43	 1
   40    43	 1
   41    48	 1
   42    48	 1
   43    46	 1
   43    47	 1
   43    44	 1
   43    45	 1
   46    48	 1
   47    48	 1
   48    49	 1
   48    50	 1
   51    52	 1

[ angles ]
;	ai	  aj	ak funct			c0			  c1			c2			  c3
    9     1     2	5 ;      CG301     CG3C50      NG3P2
    9     1     7	5 ;      CG301     CG3C50     CG2R53
    9     1    19	5 ;      CG301     CG3C50     CG2R61
    2     1     7	5 ;      NG3P2     CG3C50     CG2R53
    2     1    19	5 ;      NG3P2     CG3C50     CG2R61
    7     1    19	5 ;     CG2R53     CG3C50     CG2R61
    3     2     4	5 ;       HGP2      NG3P2     CG3C53
    3     2     1	5 ;       HGP2      NG3P2     CG3C50
    3     2    31	5 ;       HGP2      NG3P2       HGP2
    4     2     1	5 ;     CG3C53      NG3P2     CG3C50
    4     2    31	5 ;     CG3C53      NG3P2       HGP2
    1     2    31	5 ;     CG3C50      NG3P2       HGP2
   28     4     2	5 ;      NG3P3     CG3C53      NG3P2
   28     4     5	5 ;      NG3P3     CG3C53     NG2R53
   28     4    32	5 ;      NG3P3     CG3C53       HGA1
    2     4     5	5 ;      NG3P2     CG3C53     NG2R53
    2     4    32	5 ;      NG3P2     CG3C53       HGA1
    5     4    32	5 ;     NG2R53     CG3C53       HGA1
    4     5     7	5 ;     CG3C53     NG2R53     CG2R53
    4     5     6	5 ;     CG3C53     NG2R53      CG331
    7     5     6	5 ;     CG2R53     NG2R53      CG331
    5     6    33	5 ;     NG2R53      CG331       HGA3
    5     6    34	5 ;     NG2R53      CG331       HGA3
    5     6    35	5 ;     NG2R53      CG331       HGA3
   33     6    34	5 ;       HGA3      CG331       HGA3
   33     6    35	5 ;       HGA3      CG331       HGA3
   34     6    35	5 ;       HGA3      CG331       HGA3
    1     7     5	5 ;     CG3C50     CG2R53     NG2R53
    1     7     8	5 ;     CG3C50     CG2R53      OG2D1
    5     7     8	5 ;     NG2R53     CG2R53      OG2D1
   18     9    10	5 ;      CG321      CG301      CG321
   18     9    15	5 ;      CG321      CG301      CG321
   18     9     1	5 ;      CG321      CG301     CG3C50
   10     9    15	5 ;      CG321      CG301      CG321
   10     9     1	5 ;      CG321      CG301     CG3C50
   15     9     1	5 ;      CG321      CG301     CG3C50
   11    10     9	5 ;      CG311      CG321      CG301
   11    10    36	5 ;      CG311      CG321       HGA2
   11    10    37	5 ;      CG311      CG321       HGA2
    9    10    36	5 ;      CG301      CG321       HGA2
    9    10    37	5 ;      CG301      CG321       HGA2
   36    10    37	5 ;       HGA2      CG321       HGA2
   13    11    12	5 ;      CG321      CG311      CG321
   13    11    10	5 ;      CG321      CG311      CG321
   13    11    38	5 ;      CG321      CG311       HGA1
   12    11    10	5 ;      CG321      CG311      CG321
   12    11    38	5 ;      CG321      CG311       HGA1
   10    11    38	5 ;      CG321      CG311       HGA1
   11    12    14	5 ;      CG311      CG321      CG311
   11    12    39	5 ;      CG311      CG321       HGA2
   11    12    40	5 ;      CG311      CG321       HGA2
   14    12    39	5 ;      CG311      CG321       HGA2
   14    12    40	5 ;      CG311      CG321       HGA2
   39    12    40	5 ;       HGA2      CG321       HGA2
   17    13    11	5 ;      CG311      CG321      CG311
   17    13    41	5 ;      CG311      CG321       HGA2
   17    13    42	5 ;      CG311      CG321       HGA2
   11    13    41	5 ;      CG311      CG321       HGA2
   11    13    42	5 ;      CG311      CG321       HGA2
   41    13    42	5 ;       HGA2      CG321       HGA2
   16    14    12	5 ;      CG321      CG311      CG321
   16    14    15	5 ;      CG321      CG311      CG321
   16    14    43	5 ;      CG321      CG311       HGA1
   12    14    15	5 ;      CG321      CG311      CG321
   12    14    43	5 ;      CG321      CG311       HGA1
   15    14    43	5 ;      CG321      CG311       HGA1
   14    15     9	5 ;      CG311      CG321      CG301
   14    15    44	5 ;      CG311      CG321       HGA2
   14    15    45	5 ;      CG311      CG321       HGA2
    9    15    44	5 ;      CG301      CG321       HGA2
    9    15    45	5 ;      CG301      CG321       HGA2
   44    15    45	5 ;       HGA2      CG321       HGA2
   17    16    14	5 ;      CG311      CG321      CG311
   17    16    46	5 ;      CG311      CG321       HGA2
   17    16    47	5 ;      CG311      CG321       HGA2
   14    16    46	5 ;      CG311      CG321       HGA2
   14    16    47	5 ;      CG311      CG321       HGA2
   46    16    47	5 ;       HGA2      CG321       HGA2
   13    17    16	5 ;      CG321      CG311      CG321
   13    17    18	5 ;      CG321      CG311      CG321
   13    17    48	5 ;      CG321      CG311       HGA1
   16    17    18	5 ;      CG321      CG311      CG321
   16    17    48	5 ;      CG321      CG311       HGA1
   18    17    48	5 ;      CG321      CG311       HGA1
   17    18     9	5 ;      CG311      CG321      CG301
   17    18    49	5 ;      CG311      CG321       HGA2
   17    18    50	5 ;      CG311      CG321       HGA2
    9    18    49	5 ;      CG301      CG321       HGA2
    9    18    50	5 ;      CG301      CG321       HGA2
   49    18    50	5 ;       HGA2      CG321       HGA2
    1    19    20	5 ;     CG3C50     CG2R61     CG2R61
    1    19    24	5 ;     CG3C50     CG2R61     CG2R61
   20    19    24	5 ;     CG2R61     CG2R61     CG2R61
   19    20    21	5 ;     CG2R61     CG2R61     CG2R61
   19    20    51	5 ;     CG2R61     CG2R61      HGR61
   21    20    51	5 ;     CG2R61     CG2R61      HGR61
   20    21    22	5 ;     CG2R61     CG2R61     CG2R61
   20    21    52	5 ;     CG2R61     CG2R61      HGR61
   22    21    52	5 ;     CG2R61     CG2R61      HGR61
   21    22    23	5 ;     CG2R61     CG2R61     CG2R61
   21    22    26	5 ;     CG2R61     CG2R61      OG301
   23    22    26	5 ;     CG2R61     CG2R61      OG301
   24    23    22	5 ;     CG2R61     CG2R61     CG2R61
   24    23    25	5 ;     CG2R61     CG2R61      CG331
   22    23    25	5 ;     CG2R61     CG2R61      CG331
   19    24    23	5 ;     CG2R61     CG2R61     CG2R61
   19    24    53	5 ;     CG2R61     CG2R61      HGR61
   23    24    53	5 ;     CG2R61     CG2R61      HGR61
   23    25    54	5 ;     CG2R61      CG331       HGA3
   23    25    55	5 ;     CG2R61      CG331       HGA3
   23    25    56	5 ;     CG2R61      CG331       HGA3
   54    25    55	5 ;       HGA3      CG331       HGA3
   54    25    56	5 ;       HGA3      CG331       HGA3
   55    25    56	5 ;       HGA3      CG331       HGA3
   22    26    27	5 ;     CG2R61      OG301      CG331
   26    27    57	5 ;      OG301      CG331       HGA3
   26    27    58	5 ;      OG301      CG331       HGA3
   26    27    59	5 ;      OG301      CG331       HGA3
   57    27    58	5 ;       HGA3      CG331       HGA3
   57    27    59	5 ;       HGA3      CG331       HGA3
   58    27    59	5 ;       HGA3      CG331       HGA3
   29    28    30	5 ;       HGP2      NG3P3       HGP2
   29    28     4	5 ;       HGP2      NG3P3     CG3C53
   29    28    60	5 ;       HGP2      NG3P3       HGP2
   30    28     4	5 ;       HGP2      NG3P3     CG3C53
   30    28    60	5 ;       HGP2      NG3P3       HGP2
    4    28    60	5 ;     CG3C53      NG3P3       HGP2

[ dihedrals ]
;	ai	  aj	ak	  al funct			  c0			c1			  c2			c3			  c4			c5
    2     1     9    18	 9 ;      NG3P2     CG3C50      CG301      CG321
    2     1     9    10	 9 ;      NG3P2     CG3C50      CG301      CG321
    2     1     9    15	 9 ;      NG3P2     CG3C50      CG301      CG321
    7     1     9    18	 9 ;     CG2R53     CG3C50      CG301      CG321
    7     1     9    10	 9 ;     CG2R53     CG3C50      CG301      CG321
    7     1     9    15	 9 ;     CG2R53     CG3C50      CG301      CG321
   19     1     9    18	 9 ;     CG2R61     CG3C50      CG301      CG321
   19     1     9    10	 9 ;     CG2R61     CG3C50      CG301      CG321
   19     1     9    15	 9 ;     CG2R61     CG3C50      CG301      CG321
    9     1     2     3	 9 ;      CG301     CG3C50      NG3P2       HGP2
    9     1     2     4	 9 ;      CG301     CG3C50      NG3P2     CG3C53
    9     1     2    31	 9 ;      CG301     CG3C50      NG3P2       HGP2
    7     1     2     3	 9 ;     CG2R53     CG3C50      NG3P2       HGP2
    7     1     2     4	 9 ;     CG2R53     CG3C50      NG3P2     CG3C53
    7     1     2    31	 9 ;     CG2R53     CG3C50      NG3P2       HGP2
   19     1     2     3	 9 ;     CG2R61     CG3C50      NG3P2       HGP2
   19     1     2     4	 9 ;     CG2R61     CG3C50      NG3P2     CG3C53
   19     1     2    31	 9 ;     CG2R61     CG3C50      NG3P2       HGP2
    9     1     7     5	 9 ;      CG301     CG3C50     CG2R53     NG2R53
    9     1     7     8	 9 ;      CG301     CG3C50     CG2R53      OG2D1
    2     1     7     5	 9 ;      NG3P2     CG3C50     CG2R53     NG2R53
    2     1     7     8	 9 ;      NG3P2     CG3C50     CG2R53      OG2D1
   19     1     7     5	 9 ;     CG2R61     CG3C50     CG2R53     NG2R53
   19     1     7     8	 9 ;     CG2R61     CG3C50     CG2R53      OG2D1
    9     1    19    20	 9 ;      CG301     CG3C50     CG2R61     CG2R61
    9     1    19    24	 9 ;      CG301     CG3C50     CG2R61     CG2R61
    2     1    19    20	 9 ;      NG3P2     CG3C50     CG2R61     CG2R61
    2     1    19    24	 9 ;      NG3P2     CG3C50     CG2R61     CG2R61
    7     1    19    20	 9 ;     CG2R53     CG3C50     CG2R61     CG2R61
    7     1    19    24	 9 ;     CG2R53     CG3C50     CG2R61     CG2R61
    3     2     4    28	 9 ;       HGP2      NG3P2     CG3C53      NG3P3
    3     2     4     5	 9 ;       HGP2      NG3P2     CG3C53     NG2R53
    3     2     4    32	 9 ;       HGP2      NG3P2     CG3C53       HGA1
    1     2     4    28	 9 ;     CG3C50      NG3P2     CG3C53      NG3P3
    1     2     4     5	 9 ;     CG3C50      NG3P2     CG3C53     NG2R53
    1     2     4    32	 9 ;     CG3C50      NG3P2     CG3C53       HGA1
   31     2     4    28	 9 ;       HGP2      NG3P2     CG3C53      NG3P3
   31     2     4     5	 9 ;       HGP2      NG3P2     CG3C53     NG2R53
   31     2     4    32	 9 ;       HGP2      NG3P2     CG3C53       HGA1
    2     4    28    29	 9 ;      NG3P2     CG3C53      NG3P3       HGP2
    2     4    28    30	 9 ;      NG3P2     CG3C53      NG3P3       HGP2
    2     4    28    60	 9 ;      NG3P2     CG3C53      NG3P3       HGP2
    5     4    28    29	 9 ;     NG2R53     CG3C53      NG3P3       HGP2
    5     4    28    30	 9 ;     NG2R53     CG3C53      NG3P3       HGP2
    5     4    28    60	 9 ;     NG2R53     CG3C53      NG3P3       HGP2
   32     4    28    29	 9 ;       HGA1     CG3C53      NG3P3       HGP2
   32     4    28    30	 9 ;       HGA1     CG3C53      NG3P3       HGP2
   32     4    28    60	 9 ;       HGA1     CG3C53      NG3P3       HGP2
   28     4     5     7	 9 ;      NG3P3     CG3C53     NG2R53     CG2R53
   28     4     5     6	 9 ;      NG3P3     CG3C53     NG2R53      CG331
    2     4     5     7	 9 ;      NG3P2     CG3C53     NG2R53     CG2R53
    2     4     5     6	 9 ;      NG3P2     CG3C53     NG2R53      CG331
   32     4     5     7	 9 ;       HGA1     CG3C53     NG2R53     CG2R53
   32     4     5     6	 9 ;       HGA1     CG3C53     NG2R53      CG331
    4     5     7     1	 9 ;     CG3C53     NG2R53     CG2R53     CG3C50
    4     5     7     8	 9 ;     CG3C53     NG2R53     CG2R53      OG2D1
    6     5     7     1	 9 ;      CG331     NG2R53     CG2R53     CG3C50
    6     5     7     8	 9 ;      CG331     NG2R53     CG2R53      OG2D1
    4     5     6    33	 9 ;     CG3C53     NG2R53      CG331       HGA3
    4     5     6    34	 9 ;     CG3C53     NG2R53      CG331       HGA3
    4     5     6    35	 9 ;     CG3C53     NG2R53      CG331       HGA3
    7     5     6    33	 9 ;     CG2R53     NG2R53      CG331       HGA3
    7     5     6    34	 9 ;     CG2R53     NG2R53      CG331       HGA3
    7     5     6    35	 9 ;     CG2R53     NG2R53      CG331       HGA3
   10     9    18    17	 9 ;      CG321      CG301      CG321      CG311
   10     9    18    49	 9 ;      CG321      CG301      CG321       HGA2
   10     9    18    50	 9 ;      CG321      CG301      CG321       HGA2
   15     9    18    17	 9 ;      CG321      CG301      CG321      CG311
   15     9    18    49	 9 ;      CG321      CG301      CG321       HGA2
   15     9    18    50	 9 ;      CG321      CG301      CG321       HGA2
    1     9    18    17	 9 ;     CG3C50      CG301      CG321      CG311
    1     9    18    49	 9 ;     CG3C50      CG301      CG321       HGA2
    1     9    18    50	 9 ;     CG3C50      CG301      CG321       HGA2
   18     9    10    11	 9 ;      CG321      CG301      CG321      CG311
   18     9    10    36	 9 ;      CG321      CG301      CG321       HGA2
   18     9    10    37	 9 ;      CG321      CG301      CG321       HGA2
   15     9    10    11	 9 ;      CG321      CG301      CG321      CG311
   15     9    10    36	 9 ;      CG321      CG301      CG321       HGA2
   15     9    10    37	 9 ;      CG321      CG301      CG321       HGA2
    1     9    10    11	 9 ;     CG3C50      CG301      CG321      CG311
    1     9    10    36	 9 ;     CG3C50      CG301      CG321       HGA2
    1     9    10    37	 9 ;     CG3C50      CG301      CG321       HGA2
   18     9    15    14	 9 ;      CG321      CG301      CG321      CG311
   18     9    15    44	 9 ;      CG321      CG301      CG321       HGA2
   18     9    15    45	 9 ;      CG321      CG301      CG321       HGA2
   10     9    15    14	 9 ;      CG321      CG301      CG321      CG311
   10     9    15    44	 9 ;      CG321      CG301      CG321       HGA2
   10     9    15    45	 9 ;      CG321      CG301      CG321       HGA2
    1     9    15    14	 9 ;     CG3C50      CG301      CG321      CG311
    1     9    15    44	 9 ;     CG3C50      CG301      CG321       HGA2
    1     9    15    45	 9 ;     CG3C50      CG301      CG321       HGA2
    9    10    11    13	 9 ;      CG301      CG321      CG311      CG321
    9    10    11    12	 9 ;      CG301      CG321      CG311      CG321
    9    10    11    38	 9 ;      CG301      CG321      CG311       HGA1
   36    10    11    13	 9 ;       HGA2      CG321      CG311      CG321
   36    10    11    12	 9 ;       HGA2      CG321      CG311      CG321
   36    10    11    38	 9 ;       HGA2      CG321      CG311       HGA1
   37    10    11    13	 9 ;       HGA2      CG321      CG311      CG321
   37    10    11    12	 9 ;       HGA2      CG321      CG311      CG321
   37    10    11    38	 9 ;       HGA2      CG321      CG311       HGA1
   12    11    13    17	 9 ;      CG321      CG311      CG321      CG311
   12    11    13    41	 9 ;      CG321      CG311      CG321       HGA2
   12    11    13    42	 9 ;      CG321      CG311      CG321       HGA2
   10    11    13    17	 9 ;      CG321      CG311      CG321      CG311
   10    11    13    41	 9 ;      CG321      CG311      CG321       HGA2
   10    11    13    42	 9 ;      CG321      CG311      CG321       HGA2
   38    11    13    17	 9 ;       HGA1      CG311      CG321      CG311
   38    11    13    41	 9 ;       HGA1      CG311      CG321       HGA2
   38    11    13    42	 9 ;       HGA1      CG311      CG321       HGA2
   13    11    12    14	 9 ;      CG321      CG311      CG321      CG311
   13    11    12    39	 9 ;      CG321      CG311      CG321       HGA2
   13    11    12    40	 9 ;      CG321      CG311      CG321       HGA2
   10    11    12    14	 9 ;      CG321      CG311      CG321      CG311
   10    11    12    39	 9 ;      CG321      CG311      CG321       HGA2
   10    11    12    40	 9 ;      CG321      CG311      CG321       HGA2
   38    11    12    14	 9 ;       HGA1      CG311      CG321      CG311
   38    11    12    39	 9 ;       HGA1      CG311      CG321       HGA2
   38    11    12    40	 9 ;       HGA1      CG311      CG321       HGA2
   11    12    14    16	 9 ;      CG311      CG321      CG311      CG321
   11    12    14    15	 9 ;      CG311      CG321      CG311      CG321
   11    12    14    43	 9 ;      CG311      CG321      CG311       HGA1
   39    12    14    16	 9 ;       HGA2      CG321      CG311      CG321
   39    12    14    15	 9 ;       HGA2      CG321      CG311      CG321
   39    12    14    43	 9 ;       HGA2      CG321      CG311       HGA1
   40    12    14    16	 9 ;       HGA2      CG321      CG311      CG321
   40    12    14    15	 9 ;       HGA2      CG321      CG311      CG321
   40    12    14    43	 9 ;       HGA2      CG321      CG311       HGA1
   11    13    17    16	 9 ;      CG311      CG321      CG311      CG321
   11    13    17    18	 9 ;      CG311      CG321      CG311      CG321
   11    13    17    48	 9 ;      CG311      CG321      CG311       HGA1
   41    13    17    16	 9 ;       HGA2      CG321      CG311      CG321
   41    13    17    18	 9 ;       HGA2      CG321      CG311      CG321
   41    13    17    48	 9 ;       HGA2      CG321      CG311       HGA1
   42    13    17    16	 9 ;       HGA2      CG321      CG311      CG321
   42    13    17    18	 9 ;       HGA2      CG321      CG311      CG321
   42    13    17    48	 9 ;       HGA2      CG321      CG311       HGA1
   12    14    16    17	 9 ;      CG321      CG311      CG321      CG311
   12    14    16    46	 9 ;      CG321      CG311      CG321       HGA2
   12    14    16    47	 9 ;      CG321      CG311      CG321       HGA2
   15    14    16    17	 9 ;      CG321      CG311      CG321      CG311
   15    14    16    46	 9 ;      CG321      CG311      CG321       HGA2
   15    14    16    47	 9 ;      CG321      CG311      CG321       HGA2
   43    14    16    17	 9 ;       HGA1      CG311      CG321      CG311
   43    14    16    46	 9 ;       HGA1      CG311      CG321       HGA2
   43    14    16    47	 9 ;       HGA1      CG311      CG321       HGA2
   16    14    15     9	 9 ;      CG321      CG311      CG321      CG301
   16    14    15    44	 9 ;      CG321      CG311      CG321       HGA2
   16    14    15    45	 9 ;      CG321      CG311      CG321       HGA2
   12    14    15     9	 9 ;      CG321      CG311      CG321      CG301
   12    14    15    44	 9 ;      CG321      CG311      CG321       HGA2
   12    14    15    45	 9 ;      CG321      CG311      CG321       HGA2
   43    14    15     9	 9 ;       HGA1      CG311      CG321      CG301
   43    14    15    44	 9 ;       HGA1      CG311      CG321       HGA2
   43    14    15    45	 9 ;       HGA1      CG311      CG321       HGA2
   14    16    17    13	 9 ;      CG311      CG321      CG311      CG321
   14    16    17    18	 9 ;      CG311      CG321      CG311      CG321
   14    16    17    48	 9 ;      CG311      CG321      CG311       HGA1
   46    16    17    13	 9 ;       HGA2      CG321      CG311      CG321
   46    16    17    18	 9 ;       HGA2      CG321      CG311      CG321
   46    16    17    48	 9 ;       HGA2      CG321      CG311       HGA1
   47    16    17    13	 9 ;       HGA2      CG321      CG311      CG321
   47    16    17    18	 9 ;       HGA2      CG321      CG311      CG321
   47    16    17    48	 9 ;       HGA2      CG321      CG311       HGA1
   13    17    18     9	 9 ;      CG321      CG311      CG321      CG301
   13    17    18    49	 9 ;      CG321      CG311      CG321       HGA2
   13    17    18    50	 9 ;      CG321      CG311      CG321       HGA2
   16    17    18     9	 9 ;      CG321      CG311      CG321      CG301
   16    17    18    49	 9 ;      CG321      CG311      CG321       HGA2
   16    17    18    50	 9 ;      CG321      CG311      CG321       HGA2
   48    17    18     9	 9 ;       HGA1      CG311      CG321      CG301
   48    17    18    49	 9 ;       HGA1      CG311      CG321       HGA2
   48    17    18    50	 9 ;       HGA1      CG311      CG321       HGA2
    1    19    20    21	 9 ;     CG3C50     CG2R61     CG2R61     CG2R61
    1    19    20    51	 9 ;     CG3C50     CG2R61     CG2R61      HGR61
   24    19    20    21	 9 ;     CG2R61     CG2R61     CG2R61     CG2R61
   24    19    20    51	 9 ;     CG2R61     CG2R61     CG2R61      HGR61
    1    19    24    23	 9 ;     CG3C50     CG2R61     CG2R61     CG2R61
    1    19    24    53	 9 ;     CG3C50     CG2R61     CG2R61      HGR61
   20    19    24    23	 9 ;     CG2R61     CG2R61     CG2R61     CG2R61
   20    19    24    53	 9 ;     CG2R61     CG2R61     CG2R61      HGR61
   19    20    21    22	 9 ;     CG2R61     CG2R61     CG2R61     CG2R61
   19    20    21    52	 9 ;     CG2R61     CG2R61     CG2R61      HGR61
   51    20    21    22	 9 ;      HGR61     CG2R61     CG2R61     CG2R61
   51    20    21    52	 9 ;      HGR61     CG2R61     CG2R61      HGR61
   20    21    22    23	 9 ;     CG2R61     CG2R61     CG2R61     CG2R61
   20    21    22    26	 9 ;     CG2R61     CG2R61     CG2R61      OG301
   52    21    22    23	 9 ;      HGR61     CG2R61     CG2R61     CG2R61
   52    21    22    26	 9 ;      HGR61     CG2R61     CG2R61      OG301
   21    22    23    24	 9 ;     CG2R61     CG2R61     CG2R61     CG2R61
   21    22    23    25	 9 ;     CG2R61     CG2R61     CG2R61      CG331
   26    22    23    24	 9 ;      OG301     CG2R61     CG2R61     CG2R61
   26    22    23    25	 9 ;      OG301     CG2R61     CG2R61      CG331
   21    22    26    27	 9 ;     CG2R61     CG2R61      OG301      CG331
   23    22    26    27	 9 ;     CG2R61     CG2R61      OG301      CG331
   22    23    24    19	 9 ;     CG2R61     CG2R61     CG2R61     CG2R61
   22    23    24    53	 9 ;     CG2R61     CG2R61     CG2R61      HGR61
   25    23    24    19	 9 ;      CG331     CG2R61     CG2R61     CG2R61
   25    23    24    53	 9 ;      CG331     CG2R61     CG2R61      HGR61
   24    23    25    54	 9 ;     CG2R61     CG2R61      CG331       HGA3
   24    23    25    55	 9 ;     CG2R61     CG2R61      CG331       HGA3
   24    23    25    56	 9 ;     CG2R61     CG2R61      CG331       HGA3
   22    23    25    54	 9 ;     CG2R61     CG2R61      CG331       HGA3
   22    23    25    55	 9 ;     CG2R61     CG2R61      CG331       HGA3
   22    23    25    56	 9 ;     CG2R61     CG2R61      CG331       HGA3
   22    26    27    57	 9 ;     CG2R61      OG301      CG331       HGA3
   22    26    27    58	 9 ;     CG2R61      OG301      CG331       HGA3
   22    26    27    59	 9 ;     CG2R61      OG301      CG331       HGA3

[ dihedrals ]
;	ai	  aj	ak	  al funct			  c0			c1			  c2			c3
    7     1     5     8	 2

