; Created by cgenff_charmm2gmx.py

[ moleculetype ]
; Name			   nrexcl
LIG				 3

[ atoms ]
;	 nr		  type	resnr residue  atom   cgnr	   charge		mass  typeB    chargeB		massB
; residue	 1 LIG rtp LIG q	qsum
     1      OG2D1      1    LIG     O1      1     -0.325     15.999   ;
     2     CG2R53      1    LIG     C1      2     -0.445     12.011   ;
     3     NG2R53      1    LIG     N1      3     -0.178     14.007   ;
     4      CG331      1    LIG     C2      4     -0.169     12.011   ;
     5     CG3C53      1    LIG     C3      5      0.785     12.011   ;
     6      NG3P2      1    LIG     N2      6     -0.588     14.007   ;
     7       HGP2      1    LIG     HN      7      0.336      1.008   ;
     8     CG3C50      1    LIG     C4      8      1.440     12.011   ;
     9      CG311      1    LIG     C5      9     -0.044     12.011   ;
    10      CG321      1    LIG     C6     10     -0.129     12.011   ;
    11      CG321      1    LIG     C7     11     -0.241     12.011   ;
    12      CG321      1    LIG     C8     12     -0.154     12.011   ;
    13      CG321      1    LIG     C9     13     -0.241     12.011   ;
    14      CG321      1    LIG    C10     14     -0.129     12.011   ;
    15     CG2R61      1    LIG    C11     15     -0.212     12.011   ;
    16     CG2R61      1    LIG    C12     16     -0.134     12.011   ;
    17     CG2R61      1    LIG    C13     17      0.136     12.011   ;
    18     CG2R61      1    LIG    C14     18     -0.119     12.011   ;
    19     CG2R61      1    LIG    C15     19     -0.102     12.011   ;
    20     CG2R61      1    LIG    C16     20     -0.131     12.011   ;
    21      NG2S1      1    LIG     N3     21     -0.483     14.007   ;
    22      CG2O1      1    LIG    C17     22      0.552     12.011   ;
    23      OG2D1      1    LIG     O2     23     -0.460     15.999   ;
    24       HGP1      1    LIG     H1     24      0.341      1.008   ;
    25      CG321      1    LIG    C18     25      0.146     12.011   ;
    26      OG301      1    LIG     O3     26     -0.578     15.999   ;
    27      CG331      1    LIG    C19     27     -0.093     12.011   ;
    28      NG3P3      1    LIG     N4     28     -0.267     14.007   ;
    29       HGP2      1    LIG     H2     29      0.301      1.008   ;
    30       HGP2      1    LIG     H3     30      0.301      1.008   ;
    31       HGA1      1    LIG     HC     31      0.073      1.008   ;
    32       HGP2      1    LIG    HN2     32      0.336      1.008   ;
    33       HGA1      1    LIG    HC1     33      0.090      1.008   ;
    34       HGA2      1    LIG    HC2     34      0.090      1.008   ;
    35       HGA2      1    LIG    HC3     35      0.090      1.008   ;
    36       HGA2      1    LIG    HC4     36      0.090      1.008   ;
    37       HGA2      1    LIG    HC5     37      0.090      1.008   ;
    38       HGA2      1    LIG    HC6     38      0.090      1.008   ;
    39       HGA2      1    LIG    HC7     39      0.090      1.008   ;
    40       HGA2      1    LIG    HC8     40      0.090      1.008   ;
    41       HGA2      1    LIG    HC9     41      0.090      1.008   ;
    42       HGA2      1    LIG   HC10     42      0.090      1.008   ;
    43       HGA2      1    LIG   HC11     43      0.090      1.008   ;
    44      HGR61      1    LIG   HC12     44      0.116      1.008   ;
    45      HGR61      1    LIG   HC13     45      0.116      1.008   ;
    46      HGR61      1    LIG   HC14     46      0.116      1.008   ;
    47      HGR61      1    LIG   HC15     47      0.116      1.008   ;
    48       HGA2      1    LIG   HC16     48      0.090      1.008   ;
    49       HGA2      1    LIG   HC17     49      0.090      1.008   ;
    50       HGP2      1    LIG    HN1     50      0.301      1.008   ;
    51       HGA3      1    LIG   HC18     51      0.090      1.008   ;
    52       HGA3      1    LIG   HC19     52      0.090      1.008   ;
    53       HGA3      1    LIG   HC20     53      0.090      1.008   ;
    54       HGA3      1    LIG   HC21     54      0.090      1.008   ;
    55       HGA3      1    LIG   HC22     55      0.090      1.008   ;
    56       HGA3      1    LIG   HC23     56      0.090      1.008   ;

[ bonds ]
;	ai	  aj funct			  c0			c1			  c2			c3
    1     2	 1 ;       OG2D1     CG2R53
    2     3	 1 ;      CG2R53     NG2R53
    2     8	 1 ;      CG2R53     CG3C50
    3     4	 1 ;      NG2R53      CG331
    3     5	 1 ;      NG2R53     CG3C53
    4    51	 1 ;       CG331       HGA3
    4    52	 1 ;       CG331       HGA3
    4    53	 1 ;       CG331       HGA3
    5    28	 1 ;      CG3C53      NG3P3
    5     6	 1 ;      CG3C53      NG3P2
    5    31	 1 ;      CG3C53       HGA1
    6     7	 1 ;       NG3P2       HGP2
    6     8	 1 ;       NG3P2     CG3C50
    6    32	 1 ;       NG3P2       HGP2
    8     9	 1 ;      CG3C50      CG311
    8    15	 1 ;      CG3C50     CG2R61
    9    10	 1 ;       CG311      CG321
    9    14	 1 ;       CG311      CG321
    9    33	 1 ;       CG311       HGA1
   10    11	 1 ;       CG321      CG321
   10    34	 1 ;       CG321       HGA2
   10    35	 1 ;       CG321       HGA2
   11    12	 1 ;       CG321      CG321
   11    36	 1 ;       CG321       HGA2
   11    37	 1 ;       CG321       HGA2
   12    13	 1 ;       CG321      CG321
   12    38	 1 ;       CG321       HGA2
   12    39	 1 ;       CG321       HGA2
   13    14	 1 ;       CG321      CG321
   13    40	 1 ;       CG321       HGA2
   13    41	 1 ;       CG321       HGA2
   14    42	 1 ;       CG321       HGA2
   14    43	 1 ;       CG321       HGA2
   15    16	 1 ;      CG2R61     CG2R61
   15    20	 1 ;      CG2R61     CG2R61
   16    17	 1 ;      CG2R61     CG2R61
   16    44	 1 ;      CG2R61      HGR61
   17    21	 1 ;      CG2R61      NG2S1
   17    18	 1 ;      CG2R61     CG2R61
   18    19	 1 ;      CG2R61     CG2R61
   18    45	 1 ;      CG2R61      HGR61
   19    20	 1 ;      CG2R61     CG2R61
   19    46	 1 ;      CG2R61      HGR61
   20    47	 1 ;      CG2R61      HGR61
   21    24	 1 ;       NG2S1       HGP1
   21    22	 1 ;       NG2S1      CG2O1
   22    25	 1 ;       CG2O1      CG321
   22    23	 1 ;       CG2O1      OG2D1
   25    26	 1 ;       CG321      OG301
   25    48	 1 ;       CG321       HGA2
   25    49	 1 ;       CG321       HGA2
   26    27	 1 ;       OG301      CG331
   27    54	 1 ;       CG331       HGA3
   27    55	 1 ;       CG331       HGA3
   27    56	 1 ;       CG331       HGA3
   28    29	 1 ;       NG3P3       HGP2
   28    30	 1 ;       NG3P3       HGP2
   28    50	 1 ;       NG3P3       HGP2

[ pairs ]
;	ai	  aj funct			  c0			c1			  c2			c3
    1     4	 1
    1     5	 1
    1     6	 1
    1     9	 1
    1    15	 1
    2    51	 1
    2    52	 1
    2    53	 1
    2    28	 1
    2    31	 1
    2     7	 1
    2    32	 1
    2    10	 1
    2    14	 1
    2    33	 1
    2    16	 1
    2    20	 1
    3     9	 1
    3    15	 1
    3    29	 1
    3    30	 1
    3    50	 1
    3     7	 1
    3    32	 1
    4     8	 1
    4    28	 1
    4     6	 1
    4    31	 1
    5    51	 1
    5    52	 1
    5    53	 1
    5     9	 1
    5    15	 1
    6    29	 1
    6    30	 1
    6    50	 1
    6    10	 1
    6    14	 1
    6    33	 1
    6    16	 1
    6    20	 1
    7    28	 1
    7    31	 1
    7     9	 1
    7    15	 1
    8    28	 1
    8    31	 1
    8    11	 1
    8    34	 1
    8    35	 1
    8    13	 1
    8    42	 1
    8    43	 1
    8    17	 1
    8    44	 1
    8    19	 1
    8    47	 1
    9    32	 1
    9    16	 1
    9    20	 1
    9    12	 1
    9    36	 1
    9    37	 1
    9    40	 1
    9    41	 1
   10    15	 1
   10    13	 1
   10    42	 1
   10    43	 1
   10    38	 1
   10    39	 1
   11    14	 1
   11    33	 1
   11    40	 1
   11    41	 1
   12    34	 1
   12    35	 1
   12    42	 1
   12    43	 1
   13    33	 1
   13    36	 1
   13    37	 1
   14    15	 1
   14    34	 1
   14    35	 1
   14    38	 1
   14    39	 1
   15    32	 1
   15    33	 1
   15    21	 1
   15    18	 1
   15    46	 1
   16    19	 1
   16    47	 1
   16    24	 1
   16    22	 1
   16    45	 1
   17    20	 1
   17    46	 1
   17    25	 1
   17    23	 1
   18    44	 1
   18    24	 1
   18    22	 1
   18    47	 1
   19    21	 1
   20    44	 1
   20    45	 1
   21    44	 1
   21    45	 1
   21    26	 1
   21    48	 1
   21    49	 1
   22    27	 1
   23    24	 1
   23    26	 1
   23    48	 1
   23    49	 1
   24    25	 1
   25    54	 1
   25    55	 1
   25    56	 1
   27    48	 1
   27    49	 1
   28    32	 1
   29    31	 1
   30    31	 1
   31    50	 1
   31    32	 1
   33    34	 1
   33    35	 1
   33    42	 1
   33    43	 1
   34    36	 1
   34    37	 1
   35    36	 1
   35    37	 1
   36    38	 1
   36    39	 1
   37    38	 1
   37    39	 1
   38    40	 1
   38    41	 1
   39    40	 1
   39    41	 1
   40    42	 1
   40    43	 1
   41    42	 1
   41    43	 1
   45    46	 1
   46    47	 1

[ angles ]
;	ai	  aj	ak funct			c0			  c1			c2			  c3
    3     2     8	5 ;     NG2R53     CG2R53     CG3C50
    3     2     1	5 ;     NG2R53     CG2R53      OG2D1
    8     2     1	5 ;     CG3C50     CG2R53      OG2D1
    4     3     5	5 ;      CG331     NG2R53     CG3C53
    4     3     2	5 ;      CG331     NG2R53     CG2R53
    5     3     2	5 ;     CG3C53     NG2R53     CG2R53
    3     4    51	5 ;     NG2R53      CG331       HGA3
    3     4    52	5 ;     NG2R53      CG331       HGA3
    3     4    53	5 ;     NG2R53      CG331       HGA3
   51     4    52	5 ;       HGA3      CG331       HGA3
   51     4    53	5 ;       HGA3      CG331       HGA3
   52     4    53	5 ;       HGA3      CG331       HGA3
   28     5     3	5 ;      NG3P3     CG3C53     NG2R53
   28     5     6	5 ;      NG3P3     CG3C53      NG3P2
   28     5    31	5 ;      NG3P3     CG3C53       HGA1
    3     5     6	5 ;     NG2R53     CG3C53      NG3P2
    3     5    31	5 ;     NG2R53     CG3C53       HGA1
    6     5    31	5 ;      NG3P2     CG3C53       HGA1
    5     6     7	5 ;     CG3C53      NG3P2       HGP2
    5     6     8	5 ;     CG3C53      NG3P2     CG3C50
    5     6    32	5 ;     CG3C53      NG3P2       HGP2
    7     6     8	5 ;       HGP2      NG3P2     CG3C50
    7     6    32	5 ;       HGP2      NG3P2       HGP2
    8     6    32	5 ;     CG3C50      NG3P2       HGP2
    6     8     2	5 ;      NG3P2     CG3C50     CG2R53
    6     8     9	5 ;      NG3P2     CG3C50      CG311
    6     8    15	5 ;      NG3P2     CG3C50     CG2R61
    2     8     9	5 ;     CG2R53     CG3C50      CG311
    2     8    15	5 ;     CG2R53     CG3C50     CG2R61
    9     8    15	5 ;      CG311     CG3C50     CG2R61
   10     9     8	5 ;      CG321      CG311     CG3C50
   10     9    14	5 ;      CG321      CG311      CG321
   10     9    33	5 ;      CG321      CG311       HGA1
    8     9    14	5 ;     CG3C50      CG311      CG321
    8     9    33	5 ;     CG3C50      CG311       HGA1
   14     9    33	5 ;      CG321      CG311       HGA1
   11    10     9	5 ;      CG321      CG321      CG311
   11    10    34	5 ;      CG321      CG321       HGA2
   11    10    35	5 ;      CG321      CG321       HGA2
    9    10    34	5 ;      CG311      CG321       HGA2
    9    10    35	5 ;      CG311      CG321       HGA2
   34    10    35	5 ;       HGA2      CG321       HGA2
   10    11    12	5 ;      CG321      CG321      CG321
   10    11    36	5 ;      CG321      CG321       HGA2
   10    11    37	5 ;      CG321      CG321       HGA2
   12    11    36	5 ;      CG321      CG321       HGA2
   12    11    37	5 ;      CG321      CG321       HGA2
   36    11    37	5 ;       HGA2      CG321       HGA2
   11    12    13	5 ;      CG321      CG321      CG321
   11    12    38	5 ;      CG321      CG321       HGA2
   11    12    39	5 ;      CG321      CG321       HGA2
   13    12    38	5 ;      CG321      CG321       HGA2
   13    12    39	5 ;      CG321      CG321       HGA2
   38    12    39	5 ;       HGA2      CG321       HGA2
   12    13    14	5 ;      CG321      CG321      CG321
   12    13    40	5 ;      CG321      CG321       HGA2
   12    13    41	5 ;      CG321      CG321       HGA2
   14    13    40	5 ;      CG321      CG321       HGA2
   14    13    41	5 ;      CG321      CG321       HGA2
   40    13    41	5 ;       HGA2      CG321       HGA2
    9    14    13	5 ;      CG311      CG321      CG321
    9    14    42	5 ;      CG311      CG321       HGA2
    9    14    43	5 ;      CG311      CG321       HGA2
   13    14    42	5 ;      CG321      CG321       HGA2
   13    14    43	5 ;      CG321      CG321       HGA2
   42    14    43	5 ;       HGA2      CG321       HGA2
    8    15    16	5 ;     CG3C50     CG2R61     CG2R61
    8    15    20	5 ;     CG3C50     CG2R61     CG2R61
   16    15    20	5 ;     CG2R61     CG2R61     CG2R61
   15    16    17	5 ;     CG2R61     CG2R61     CG2R61
   15    16    44	5 ;     CG2R61     CG2R61      HGR61
   17    16    44	5 ;     CG2R61     CG2R61      HGR61
   16    17    21	5 ;     CG2R61     CG2R61      NG2S1
   16    17    18	5 ;     CG2R61     CG2R61     CG2R61
   21    17    18	5 ;      NG2S1     CG2R61     CG2R61
   17    18    19	5 ;     CG2R61     CG2R61     CG2R61
   17    18    45	5 ;     CG2R61     CG2R61      HGR61
   19    18    45	5 ;     CG2R61     CG2R61      HGR61
   20    19    18	5 ;     CG2R61     CG2R61     CG2R61
   20    19    46	5 ;     CG2R61     CG2R61      HGR61
   18    19    46	5 ;     CG2R61     CG2R61      HGR61
   15    20    19	5 ;     CG2R61     CG2R61     CG2R61
   15    20    47	5 ;     CG2R61     CG2R61      HGR61
   19    20    47	5 ;     CG2R61     CG2R61      HGR61
   24    21    17	5 ;       HGP1      NG2S1     CG2R61
   24    21    22	5 ;       HGP1      NG2S1      CG2O1
   17    21    22	5 ;     CG2R61      NG2S1      CG2O1
   21    22    25	5 ;      NG2S1      CG2O1      CG321
   21    22    23	5 ;      NG2S1      CG2O1      OG2D1
   25    22    23	5 ;      CG321      CG2O1      OG2D1
   26    25    22	5 ;      OG301      CG321      CG2O1
   26    25    48	5 ;      OG301      CG321       HGA2
   26    25    49	5 ;      OG301      CG321       HGA2
   22    25    48	5 ;      CG2O1      CG321       HGA2
   22    25    49	5 ;      CG2O1      CG321       HGA2
   48    25    49	5 ;       HGA2      CG321       HGA2
   27    26    25	5 ;      CG331      OG301      CG321
   26    27    54	5 ;      OG301      CG331       HGA3
   26    27    55	5 ;      OG301      CG331       HGA3
   26    27    56	5 ;      OG301      CG331       HGA3
   54    27    55	5 ;       HGA3      CG331       HGA3
   54    27    56	5 ;       HGA3      CG331       HGA3
   55    27    56	5 ;       HGA3      CG331       HGA3
   29    28    30	5 ;       HGP2      NG3P3       HGP2
   29    28     5	5 ;       HGP2      NG3P3     CG3C53
   29    28    50	5 ;       HGP2      NG3P3       HGP2
   30    28     5	5 ;       HGP2      NG3P3     CG3C53
   30    28    50	5 ;       HGP2      NG3P3       HGP2
    5    28    50	5 ;     CG3C53      NG3P3       HGP2

[ dihedrals ]
;	ai	  aj	ak	  al funct			  c0			c1			  c2			c3			  c4			c5
    8     2     3     4	 9 ;     CG3C50     CG2R53     NG2R53      CG331
    8     2     3     5	 9 ;     CG3C50     CG2R53     NG2R53     CG3C53
    1     2     3     4	 9 ;      OG2D1     CG2R53     NG2R53      CG331
    1     2     3     5	 9 ;      OG2D1     CG2R53     NG2R53     CG3C53
    3     2     8     6	 9 ;     NG2R53     CG2R53     CG3C50      NG3P2
    3     2     8     9	 9 ;     NG2R53     CG2R53     CG3C50      CG311
    3     2     8    15	 9 ;     NG2R53     CG2R53     CG3C50     CG2R61
    1     2     8     6	 9 ;      OG2D1     CG2R53     CG3C50      NG3P2
    1     2     8     9	 9 ;      OG2D1     CG2R53     CG3C50      CG311
    1     2     8    15	 9 ;      OG2D1     CG2R53     CG3C50     CG2R61
    5     3     4    51	 9 ;     CG3C53     NG2R53      CG331       HGA3
    5     3     4    52	 9 ;     CG3C53     NG2R53      CG331       HGA3
    5     3     4    53	 9 ;     CG3C53     NG2R53      CG331       HGA3
    2     3     4    51	 9 ;     CG2R53     NG2R53      CG331       HGA3
    2     3     4    52	 9 ;     CG2R53     NG2R53      CG331       HGA3
    2     3     4    53	 9 ;     CG2R53     NG2R53      CG331       HGA3
    4     3     5    28	 9 ;      CG331     NG2R53     CG3C53      NG3P3
    4     3     5     6	 9 ;      CG331     NG2R53     CG3C53      NG3P2
    4     3     5    31	 9 ;      CG331     NG2R53     CG3C53       HGA1
    2     3     5    28	 9 ;     CG2R53     NG2R53     CG3C53      NG3P3
    2     3     5     6	 9 ;     CG2R53     NG2R53     CG3C53      NG3P2
    2     3     5    31	 9 ;     CG2R53     NG2R53     CG3C53       HGA1
    3     5    28    29	 9 ;     NG2R53     CG3C53      NG3P3       HGP2
    3     5    28    30	 9 ;     NG2R53     CG3C53      NG3P3       HGP2
    3     5    28    50	 9 ;     NG2R53     CG3C53      NG3P3       HGP2
    6     5    28    29	 9 ;      NG3P2     CG3C53      NG3P3       HGP2
    6     5    28    30	 9 ;      NG3P2     CG3C53      NG3P3       HGP2
    6     5    28    50	 9 ;      NG3P2     CG3C53      NG3P3       HGP2
   31     5    28    29	 9 ;       HGA1     CG3C53      NG3P3       HGP2
   31     5    28    30	 9 ;       HGA1     CG3C53      NG3P3       HGP2
   31     5    28    50	 9 ;       HGA1     CG3C53      NG3P3       HGP2
   28     5     6     7	 9 ;      NG3P3     CG3C53      NG3P2       HGP2
   28     5     6     8	 9 ;      NG3P3     CG3C53      NG3P2     CG3C50
   28     5     6    32	 9 ;      NG3P3     CG3C53      NG3P2       HGP2
    3     5     6     7	 9 ;     NG2R53     CG3C53      NG3P2       HGP2
    3     5     6     8	 9 ;     NG2R53     CG3C53      NG3P2     CG3C50
    3     5     6    32	 9 ;     NG2R53     CG3C53      NG3P2       HGP2
   31     5     6     7	 9 ;       HGA1     CG3C53      NG3P2       HGP2
   31     5     6     8	 9 ;       HGA1     CG3C53      NG3P2     CG3C50
   31     5     6    32	 9 ;       HGA1     CG3C53      NG3P2       HGP2
    5     6     8     2	 9 ;     CG3C53      NG3P2     CG3C50     CG2R53
    5     6     8     9	 9 ;     CG3C53      NG3P2     CG3C50      CG311
    5     6     8    15	 9 ;     CG3C53      NG3P2     CG3C50     CG2R61
    7     6     8     2	 9 ;       HGP2      NG3P2     CG3C50     CG2R53
    7     6     8     9	 9 ;       HGP2      NG3P2     CG3C50      CG311
    7     6     8    15	 9 ;       HGP2      NG3P2     CG3C50     CG2R61
   32     6     8     2	 9 ;       HGP2      NG3P2     CG3C50     CG2R53
   32     6     8     9	 9 ;       HGP2      NG3P2     CG3C50      CG311
   32     6     8    15	 9 ;       HGP2      NG3P2     CG3C50     CG2R61
    6     8     9    10	 9 ;      NG3P2     CG3C50      CG311      CG321
    6     8     9    14	 9 ;      NG3P2     CG3C50      CG311      CG321
    6     8     9    33	 9 ;      NG3P2     CG3C50      CG311       HGA1
    2     8     9    10	 9 ;     CG2R53     CG3C50      CG311      CG321
    2     8     9    14	 9 ;     CG2R53     CG3C50      CG311      CG321
    2     8     9    33	 9 ;     CG2R53     CG3C50      CG311       HGA1
   15     8     9    10	 9 ;     CG2R61     CG3C50      CG311      CG321
   15     8     9    14	 9 ;     CG2R61     CG3C50      CG311      CG321
   15     8     9    33	 9 ;     CG2R61     CG3C50      CG311       HGA1
    6     8    15    16	 9 ;      NG3P2     CG3C50     CG2R61     CG2R61
    6     8    15    20	 9 ;      NG3P2     CG3C50     CG2R61     CG2R61
    2     8    15    16	 9 ;     CG2R53     CG3C50     CG2R61     CG2R61
    2     8    15    20	 9 ;     CG2R53     CG3C50     CG2R61     CG2R61
    9     8    15    16	 9 ;      CG311     CG3C50     CG2R61     CG2R61
    9     8    15    20	 9 ;      CG311     CG3C50     CG2R61     CG2R61
    8     9    10    11	 9 ;     CG3C50      CG311      CG321      CG321
    8     9    10    34	 9 ;     CG3C50      CG311      CG321       HGA2
    8     9    10    35	 9 ;     CG3C50      CG311      CG321       HGA2
   14     9    10    11	 9 ;      CG321      CG311      CG321      CG321
   14     9    10    34	 9 ;      CG321      CG311      CG321       HGA2
   14     9    10    35	 9 ;      CG321      CG311      CG321       HGA2
   33     9    10    11	 9 ;       HGA1      CG311      CG321      CG321
   33     9    10    34	 9 ;       HGA1      CG311      CG321       HGA2
   33     9    10    35	 9 ;       HGA1      CG311      CG321       HGA2
   10     9    14    13	 9 ;      CG321      CG311      CG321      CG321
   10     9    14    42	 9 ;      CG321      CG311      CG321       HGA2
   10     9    14    43	 9 ;      CG321      CG311      CG321       HGA2
    8     9    14    13	 9 ;     CG3C50      CG311      CG321      CG321
    8     9    14    42	 9 ;     CG3C50      CG311      CG321       HGA2
    8     9    14    43	 9 ;     CG3C50      CG311      CG321       HGA2
   33     9    14    13	 9 ;       HGA1      CG311      CG321      CG321
   33     9    14    42	 9 ;       HGA1      CG311      CG321       HGA2
   33     9    14    43	 9 ;       HGA1      CG311      CG321       HGA2
    9    10    11    12	 9 ;      CG311      CG321      CG321      CG321
    9    10    11    36	 9 ;      CG311      CG321      CG321       HGA2
    9    10    11    37	 9 ;      CG311      CG321      CG321       HGA2
   34    10    11    12	 9 ;       HGA2      CG321      CG321      CG321
   34    10    11    36	 9 ;       HGA2      CG321      CG321       HGA2
   34    10    11    37	 9 ;       HGA2      CG321      CG321       HGA2
   35    10    11    12	 9 ;       HGA2      CG321      CG321      CG321
   35    10    11    36	 9 ;       HGA2      CG321      CG321       HGA2
   35    10    11    37	 9 ;       HGA2      CG321      CG321       HGA2
   10    11    12    13	 9 ;      CG321      CG321      CG321      CG321
   10    11    12    38	 9 ;      CG321      CG321      CG321       HGA2
   10    11    12    39	 9 ;      CG321      CG321      CG321       HGA2
   36    11    12    13	 9 ;       HGA2      CG321      CG321      CG321
   36    11    12    38	 9 ;       HGA2      CG321      CG321       HGA2
   36    11    12    39	 9 ;       HGA2      CG321      CG321       HGA2
   37    11    12    13	 9 ;       HGA2      CG321      CG321      CG321
   37    11    12    38	 9 ;       HGA2      CG321      CG321       HGA2
   37    11    12    39	 9 ;       HGA2      CG321      CG321       HGA2
   11    12    13    14	 9 ;      CG321      CG321      CG321      CG321
   11    12    13    40	 9 ;      CG321      CG321      CG321       HGA2
   11    12    13    41	 9 ;      CG321      CG321      CG321       HGA2
   38    12    13    14	 9 ;       HGA2      CG321      CG321      CG321
   38    12    13    40	 9 ;       HGA2      CG321      CG321       HGA2
   38    12    13    41	 9 ;       HGA2      CG321      CG321       HGA2
   39    12    13    14	 9 ;       HGA2      CG321      CG321      CG321
   39    12    13    40	 9 ;       HGA2      CG321      CG321       HGA2
   39    12    13    41	 9 ;       HGA2      CG321      CG321       HGA2
   12    13    14     9	 9 ;      CG321      CG321      CG321      CG311
   12    13    14    42	 9 ;      CG321      CG321      CG321       HGA2
   12    13    14    43	 9 ;      CG321      CG321      CG321       HGA2
   40    13    14     9	 9 ;       HGA2      CG321      CG321      CG311
   40    13    14    42	 9 ;       HGA2      CG321      CG321       HGA2
   40    13    14    43	 9 ;       HGA2      CG321      CG321       HGA2
   41    13    14     9	 9 ;       HGA2      CG321      CG321      CG311
   41    13    14    42	 9 ;       HGA2      CG321      CG321       HGA2
   41    13    14    43	 9 ;       HGA2      CG321      CG321       HGA2
    8    15    16    17	 9 ;     CG3C50     CG2R61     CG2R61     CG2R61
    8    15    16    44	 9 ;     CG3C50     CG2R61     CG2R61      HGR61
   20    15    16    17	 9 ;     CG2R61     CG2R61     CG2R61     CG2R61
   20    15    16    44	 9 ;     CG2R61     CG2R61     CG2R61      HGR61
    8    15    20    19	 9 ;     CG3C50     CG2R61     CG2R61     CG2R61
    8    15    20    47	 9 ;     CG3C50     CG2R61     CG2R61      HGR61
   16    15    20    19	 9 ;     CG2R61     CG2R61     CG2R61     CG2R61
   16    15    20    47	 9 ;     CG2R61     CG2R61     CG2R61      HGR61
   15    16    17    21	 9 ;     CG2R61     CG2R61     CG2R61      NG2S1
   15    16    17    18	 9 ;     CG2R61     CG2R61     CG2R61     CG2R61
   44    16    17    21	 9 ;      HGR61     CG2R61     CG2R61      NG2S1
   44    16    17    18	 9 ;      HGR61     CG2R61     CG2R61     CG2R61
   16    17    21    24	 9 ;     CG2R61     CG2R61      NG2S1       HGP1
   16    17    21    22	 9 ;     CG2R61     CG2R61      NG2S1      CG2O1
   18    17    21    24	 9 ;     CG2R61     CG2R61      NG2S1       HGP1
   18    17    21    22	 9 ;     CG2R61     CG2R61      NG2S1      CG2O1
   16    17    18    19	 9 ;     CG2R61     CG2R61     CG2R61     CG2R61
   16    17    18    45	 9 ;     CG2R61     CG2R61     CG2R61      HGR61
   21    17    18    19	 9 ;      NG2S1     CG2R61     CG2R61     CG2R61
   21    17    18    45	 9 ;      NG2S1     CG2R61     CG2R61      HGR61
   17    18    19    20	 9 ;     CG2R61     CG2R61     CG2R61     CG2R61
   17    18    19    46	 9 ;     CG2R61     CG2R61     CG2R61      HGR61
   45    18    19    20	 9 ;      HGR61     CG2R61     CG2R61     CG2R61
   45    18    19    46	 9 ;      HGR61     CG2R61     CG2R61      HGR61
   18    19    20    15	 9 ;     CG2R61     CG2R61     CG2R61     CG2R61
   18    19    20    47	 9 ;     CG2R61     CG2R61     CG2R61      HGR61
   46    19    20    15	 9 ;      HGR61     CG2R61     CG2R61     CG2R61
   46    19    20    47	 9 ;      HGR61     CG2R61     CG2R61      HGR61
   24    21    22    25	 9 ;       HGP1      NG2S1      CG2O1      CG321
   24    21    22    23	 9 ;       HGP1      NG2S1      CG2O1      OG2D1
   17    21    22    25	 9 ;     CG2R61      NG2S1      CG2O1      CG321
   17    21    22    23	 9 ;     CG2R61      NG2S1      CG2O1      OG2D1
   21    22    25    26	 9 ;      NG2S1      CG2O1      CG321      OG301
   21    22    25    48	 9 ;      NG2S1      CG2O1      CG321       HGA2
   21    22    25    49	 9 ;      NG2S1      CG2O1      CG321       HGA2
   23    22    25    26	 9 ;      OG2D1      CG2O1      CG321      OG301
   23    22    25    48	 9 ;      OG2D1      CG2O1      CG321       HGA2
   23    22    25    49	 9 ;      OG2D1      CG2O1      CG321       HGA2
   22    25    26    27	 9 ;      CG2O1      CG321      OG301      CG331
   48    25    26    27	 9 ;       HGA2      CG321      OG301      CG331
   49    25    26    27	 9 ;       HGA2      CG321      OG301      CG331
   25    26    27    54	 9 ;      CG321      OG301      CG331       HGA3
   25    26    27    55	 9 ;      CG321      OG301      CG331       HGA3
   25    26    27    56	 9 ;      CG321      OG301      CG331       HGA3

[ dihedrals ]
;	ai	  aj	ak	  al funct			  c0			c1			  c2			c3
    2     8     3     1	 2
   22    25    21    23	 2

