GRowing Old MAkes el Chrono Sweat
   56
    1LIG     O1    1  -1.241   0.543  -1.466
    1LIG     C1    2  -1.219   0.446  -1.538
    1LIG     N1    3  -1.116   0.435  -1.627
    1LIG     C2    4  -1.006   0.528  -1.634
    1LIG     C3    5  -1.132   0.322  -1.696
    1LIG     N2    6  -1.229   0.245  -1.660
    1LIG     HN    7  -1.257   0.157  -1.703
    1LIG     C4    8  -1.293   0.311  -1.540
    1LIG     C5    9  -1.246   0.229  -1.414
    1LIG     C6   10  -1.233   0.078  -1.440
    1LIG     C7   11  -1.176   0.005  -1.317
    1LIG     C8   12  -1.263   0.030  -1.194
    1LIG     C9   13  -1.277   0.179  -1.166
    1LIG    C10   14  -1.331   0.254  -1.288
    1LIG    C11   15  -1.445   0.320  -1.559
    1LIG    C12   16  -1.504   0.444  -1.595
    1LIG    C13   17  -1.642   0.460  -1.613
    1LIG    C14   18  -1.724   0.348  -1.594
    1LIG    C15   19  -1.669   0.224  -1.560
    1LIG    C16   20  -1.530   0.210  -1.544
    1LIG     N3   21  -1.703   0.581  -1.653
    1LIG    C17   22  -1.747   0.683  -1.569
    1LIG     O2   23  -1.751   0.680  -1.447
    1LIG     H1   24  -1.720   0.596  -1.752
    1LIG    C18   25  -1.787   0.812  -1.642
    1LIG     O3   26  -1.719   0.931  -1.605
    1LIG    C19   27  -1.583   0.924  -1.648
    1LIG     N4   28  -1.052   0.290  -1.801
    1LIG     H2   29  -0.955   0.283  -1.772
    1LIG     H3   30  -1.081   0.211  -1.856
    1LIG     HC   31  -1.064   0.270  -1.628
    1LIG    HN2   32  -1.166   0.195  -1.599
    1LIG    HC1   33  -1.145   0.265  -1.390
    1LIG    HC2   34  -1.332   0.037  -1.462
    1LIG    HC3   35  -1.167   0.061  -1.525
    1LIG    HC4   36  -1.076   0.042  -1.298
    1LIG    HC5   37  -1.173  -0.102  -1.338
    1LIG    HC6   38  -1.216  -0.018  -1.108
    1LIG    HC7   39  -1.361  -0.013  -1.210
    1LIG    HC8   40  -1.179   0.220  -1.140
    1LIG    HC9   41  -1.345   0.193  -1.082
    1LIG   HC10   42  -1.433   0.221  -1.307
    1LIG   HC11   43  -1.332   0.361  -1.266
    1LIG   HC12   44  -1.440   0.530  -1.610
    1LIG   HC13   45  -1.831   0.357  -1.605
    1LIG   HC14   46  -1.733   0.139  -1.546
    1LIG   HC15   47  -1.489   0.113  -1.521
    1LIG   HC16   48  -1.770   0.796  -1.748
    1LIG   HC17   49  -1.894   0.827  -1.626
    1LIG    HN1   50  -1.056   0.370  -1.863
    1LIG   HC18   51  -1.023   0.610  -1.564
    1LIG   HC19   52  -0.913   0.477  -1.608
    1LIG   HC20   53  -0.998   0.568  -1.735
    1LIG   HC21   54  -1.531   1.016  -1.619
    1LIG   HC22   55  -1.534   0.839  -1.601
    1LIG   HC23   56  -1.580   0.913  -1.756
   0.00000   0.00000   0.00000
