Georgetown Riga Oslo Madrid Amsterdam Chisinau Stockholm
   56
    1LIG     C1    1  -1.590   0.395  -1.331
    1LIG     C2    2  -1.691   0.345  -1.247
    1LIG     C3    3  -1.684   0.358  -1.108
    1LIG     C4    4  -1.572   0.421  -1.055
    1LIG     N1    5  -1.472   0.471  -1.130
    1LIG    HN1    6  -1.391   0.517  -1.088
    1LIG     C5    7  -1.483   0.457  -1.265
    1LIG     C6    8  -1.787   0.308  -1.023
    1LIG     N2    9  -1.871   0.268  -0.954
    1LIG     C7   10  -1.596   0.378  -1.478
    1LIG     C8   11  -1.478   0.357  -1.553
    1LIG     C9   12  -1.475   0.358  -1.694
    1LIG    C10   13  -1.598   0.369  -1.761
    1LIG    C11   14  -1.717   0.383  -1.690
    1LIG    C12   15  -1.715   0.389  -1.550
    1LIG    C13   16  -1.339   0.350  -1.769
    1LIG    C14   17  -1.302   0.486  -1.824
    1LIG    C15   18  -1.301   0.479  -1.962
    1LIG    C16   19  -1.266   0.605  -1.760
    1LIG    C17   20  -1.268   0.587  -2.041
    1LIG    C18   21  -1.336   0.343  -1.997
    1LIG     F1   22  -1.272   0.579  -2.175
    1LIG    C19   23  -1.230   0.706  -1.979
    1LIG    C20   24  -1.228   0.714  -1.839
    1LIG     N3   25  -1.357   0.265  -1.894
    1LIG     N4   26  -1.347   0.299  -2.125
    1LIG    HN2   27  -1.380   0.166  -1.898
    1LIG     H1   28  -1.361   0.367  -2.199
    1LIG     H2   29  -1.395   0.211  -2.137
    1LIG    C21   30  -1.229   0.282  -1.685
    1LIG    C22   31  -1.212   0.142  -1.690
    1LIG    C23   32  -1.112   0.080  -1.616
    1LIG     N5   33  -1.029   0.150  -1.533
    1LIG    C24   34  -1.043   0.284  -1.531
    1LIG    HN3   35  -0.960   0.103  -1.475
    1LIG    C25   36  -1.137   0.353  -1.606
    1LIG    C26   37  -1.089  -0.070  -1.629
    1LIG     F2   38  -1.040  -0.108  -1.751
    1LIG     F3   39  -0.999  -0.118  -1.538
    1LIG     F4   40  -1.202  -0.144  -1.611
    1LIG     H3   41  -1.773   0.298  -1.289
    1LIG     H4   42  -1.609   0.503  -0.997
    1LIG     H5   43  -1.523   0.338  -1.007
    1LIG     H6   44  -1.407   0.495  -1.323
    1LIG     H7   45  -1.390   0.340  -1.502
    1LIG     H8   46  -1.600   0.366  -1.865
    1LIG     H9   47  -1.806   0.389  -1.741
    1LIG    H10   48  -1.804   0.402  -1.499
    1LIG    H11   49  -1.269   0.612  -1.658
    1LIG    H12   50  -1.336   0.314  -2.100
    1LIG    H13   51  -1.204   0.788  -2.036
    1LIG    H14   52  -1.198   0.802  -1.793
    1LIG    H15   53  -1.275   0.086  -1.750
    1LIG    H16   54  -1.201   0.131  -1.586
    1LIG    H17   55  -0.980   0.338  -1.470
    1LIG    H18   56  -1.140   0.456  -1.603
   0.00000   0.00000   0.00000
