; Created by cgenff_charmm2gmx.py

[ moleculetype ]
; Name			   nrexcl
LIG				 3

[ atoms ]
;	 nr		  type	resnr residue  atom   cgnr	   charge		mass  typeB    chargeB		massB
; residue	 1 LIG rtp LIG q	qsum
     1     CG2DC1      1    LIG     C1      1      0.173     12.011   ;
     2     CG2DC2      1    LIG     C2      2     -0.215     12.011   ;
     3     CG2DC2      1    LIG     C3      3      0.081     12.011   ;
     4      CG321      1    LIG     C4      4     -0.067     12.011   ;
     5      NG311      1    LIG     N1      5     -0.540     14.007   ;
     6     HGPAM1      1    LIG    HN1      6      0.389      1.008   ;
     7     CG2D1O      1    LIG     C5      7     -0.044     12.011   ;
     8      CG1N1      1    LIG     C6      8      0.297     12.011   ;
     9      NG1T1      1    LIG     N2      9     -0.413     14.007   ;
    10     CG2R61      1    LIG     C7     10     -0.139     12.011   ;
    11     CG2R61      1    LIG     C8     11     -0.182     12.011   ;
    12     CG2R61      1    LIG     C9     12     -0.048     12.011   ;
    13     CG2R61      1    LIG    C10     13     -0.181     12.011   ;
    14     CG2R61      1    LIG    C11     14     -0.102     12.011   ;
    15     CG2R61      1    LIG    C12     15     -0.117     12.011   ;
    16     CG3C50      1    LIG    C13     16      1.457     12.011   ;
    17     CG2RC0      1    LIG    C14     17     -0.703     12.011   ;
    18     CG2RC0      1    LIG    C15     18     -0.166     12.011   ;
    19     CG2R61      1    LIG    C16     19     -0.199     12.011   ;
    20     CG2R66      1    LIG    C17     20      0.188     12.011   ;
    21     CG3C51      1    LIG    C18     21      0.296     12.011   ;
    22       FGR1      1    LIG     F1     22     -0.165     18.998   ;
    23     CG2R61      1    LIG    C19     23     -0.088     12.011   ;
    24     CG2R61      1    LIG    C20     24     -0.288     12.011   ;
    25     NG3C51      1    LIG     N3     25     -0.814     14.007   ;
    26      NG321      1    LIG     N4     26     -0.998     14.007   ;
    27       HGP1      1    LIG    HN2     27      0.286      1.008   ;
    28     HGPAM2      1    LIG     H1     28      0.379      1.008   ;
    29     HGPAM2      1    LIG     H2     29      0.379      1.008   ;
    30     CG2DC1      1    LIG    C21     30      0.127     12.011   ;
    31     CG2DC1      1    LIG    C22     31     -0.328     12.011   ;
    32      CG311      1    LIG    C23     32      0.389     12.011   ;
    33      NG311      1    LIG     N5     33     -0.509     14.007   ;
    34     CG2D2O      1    LIG    C24     34     -0.054     12.011   ;
    35     HGPAM1      1    LIG    HN3     35      0.360      1.008   ;
    36     CG2DC2      1    LIG    C25     36     -0.372     12.011   ;
    37      CG302      1    LIG    C26     37      0.119     12.011   ;
    38       FGA3      1    LIG     F2     38     -0.098     18.998   ;
    39       FGA3      1    LIG     F3     39     -0.098     18.998   ;
    40       FGA3      1    LIG     F4     40     -0.098     18.998   ;
    41       HGA4      1    LIG     H3     41      0.153      1.008   ;
    42       HGA2      1    LIG     H4     42      0.090      1.008   ;
    43       HGA2      1    LIG     H5     43      0.090      1.008   ;
    44       HGA4      1    LIG     H6     44      0.152      1.008   ;
    45      HGR61      1    LIG     H7     45      0.116      1.008   ;
    46      HGR61      1    LIG     H8     46      0.116      1.008   ;
    47      HGR61      1    LIG     H9     47      0.116      1.008   ;
    48      HGR61      1    LIG    H10     48      0.116      1.008   ;
    49      HGR61      1    LIG    H11     49      0.189      1.008   ;
    50       HGA1      1    LIG    H12     50      0.116      1.008   ;
    51      HGR62      1    LIG    H13     51      0.166      1.008   ;
    52      HGR61      1    LIG    H14     52      0.134      1.008   ;
    53       HGA4      1    LIG    H15     53      0.150      1.008   ;
    54       HGA1      1    LIG    H16     54      0.090      1.008   ;
    55       HGA4      1    LIG    H17     55      0.162      1.008   ;
    56       HGA4      1    LIG    H18     56      0.150      1.008   ;

[ bonds ]
;	ai	  aj funct			  c0			c1			  c2			c3
    1    10	 1 ;      CG2DC1     CG2R61
    1     7	 1 ;      CG2DC1     CG2D1O
    1     2	 1 ;      CG2DC1     CG2DC2
    2     3	 1 ;      CG2DC2     CG2DC2
    2    41	 1 ;      CG2DC2       HGA4
    3     4	 1 ;      CG2DC2      CG321
    3     8	 1 ;      CG2DC2      CG1N1
    4     5	 1 ;       CG321      NG311
    4    42	 1 ;       CG321       HGA2
    4    43	 1 ;       CG321       HGA2
    5     7	 1 ;       NG311     CG2D1O
    5     6	 1 ;       NG311     HGPAM1
    7    44	 1 ;      CG2D1O       HGA4
    8     9	 1 ;       CG1N1      NG1T1
   10    11	 1 ;      CG2R61     CG2R61
   10    15	 1 ;      CG2R61     CG2R61
   11    12	 1 ;      CG2R61     CG2R61
   11    45	 1 ;      CG2R61      HGR61
   12    16	 1 ;      CG2R61     CG3C50
   12    13	 1 ;      CG2R61     CG2R61
   13    14	 1 ;      CG2R61     CG2R61
   13    46	 1 ;      CG2R61      HGR61
   14    15	 1 ;      CG2R61     CG2R61
   14    47	 1 ;      CG2R61      HGR61
   15    48	 1 ;      CG2R61      HGR61
   16    25	 1 ;      CG3C50     NG3C51
   16    17	 1 ;      CG3C50     CG2RC0
   16    30	 1 ;      CG3C50     CG2DC1
   17    18	 1 ;      CG2RC0     CG2RC0
   17    19	 1 ;      CG2RC0     CG2R61
   18    20	 1 ;      CG2RC0     CG2R66
   18    21	 1 ;      CG2RC0     CG3C51
   19    24	 1 ;      CG2R61     CG2R61
   19    49	 1 ;      CG2R61      HGR61
   20    22	 1 ;      CG2R66       FGR1
   20    23	 1 ;      CG2R66     CG2R61
   21    26	 1 ;      CG3C51      NG321
   21    25	 1 ;      CG3C51     NG3C51
   21    50	 1 ;      CG3C51       HGA1
   23    24	 1 ;      CG2R61     CG2R61
   23    51	 1 ;      CG2R61      HGR62
   24    52	 1 ;      CG2R61      HGR61
   25    27	 1 ;      NG3C51       HGP1
   26    28	 1 ;       NG321     HGPAM2
   26    29	 1 ;       NG321     HGPAM2
   30    31	 1 ;      CG2DC1     CG2DC1
   30    36	 1 ;      CG2DC1     CG2DC2
   31    32	 1 ;      CG2DC1      CG311
   31    53	 1 ;      CG2DC1       HGA4
   32    37	 1 ;       CG311      CG302
   32    33	 1 ;       CG311      NG311
   32    54	 1 ;       CG311       HGA1
   33    34	 1 ;       NG311     CG2D2O
   33    35	 1 ;       NG311     HGPAM1
   34    36	 1 ;      CG2D2O     CG2DC2
   34    55	 1 ;      CG2D2O       HGA4
   36    56	 1 ;      CG2DC2       HGA4
   37    38	 1 ;       CG302       FGA3
   37    40	 1 ;       CG302       FGA3
   37    39	 1 ;       CG302       FGA3

[ pairs ]
;	ai	  aj funct			  c0			c1			  c2			c3
    1     4	 1
    1     8	 1
    1     6	 1
    1    12	 1
    1    45	 1
    1    14	 1
    1    48	 1
    2    11	 1
    2    15	 1
    2     5	 1
    2    44	 1
    2    42	 1
    2    43	 1
    2     9	 1
    3    10	 1
    3     7	 1
    3     6	 1
    4    41	 1
    4     9	 1
    4    44	 1
    5    10	 1
    5     8	 1
    6    42	 1
    6    43	 1
    6    44	 1
    7    11	 1
    7    15	 1
    7    41	 1
    7    42	 1
    7    43	 1
    8    41	 1
    8    42	 1
    8    43	 1
   10    44	 1
   10    41	 1
   10    16	 1
   10    13	 1
   10    47	 1
   11    14	 1
   11    48	 1
   11    25	 1
   11    17	 1
   11    30	 1
   11    46	 1
   12    15	 1
   12    47	 1
   12    21	 1
   12    27	 1
   12    18	 1
   12    19	 1
   12    31	 1
   12    36	 1
   13    45	 1
   13    25	 1
   13    17	 1
   13    30	 1
   13    48	 1
   14    16	 1
   15    45	 1
   15    46	 1
   16    45	 1
   16    46	 1
   16    20	 1
   16    24	 1
   16    49	 1
   16    26	 1
   16    50	 1
   16    32	 1
   16    53	 1
   16    34	 1
   16    56	 1
   17    27	 1
   17    31	 1
   17    36	 1
   17    22	 1
   17    23	 1
   17    26	 1
   17    50	 1
   17    52	 1
   18    30	 1
   18    24	 1
   18    49	 1
   18    51	 1
   18    28	 1
   18    29	 1
   18    27	 1
   19    25	 1
   19    30	 1
   19    20	 1
   19    21	 1
   19    51	 1
   20    26	 1
   20    25	 1
   20    50	 1
   20    52	 1
   21    30	 1
   21    22	 1
   21    23	 1
   22    24	 1
   22    51	 1
   23    49	 1
   25    31	 1
   25    36	 1
   25    28	 1
   25    29	 1
   26    27	 1
   27    30	 1
   27    50	 1
   28    50	 1
   29    50	 1
   30    37	 1
   30    33	 1
   30    54	 1
   30    55	 1
   31    34	 1
   31    56	 1
   31    38	 1
   31    40	 1
   31    39	 1
   31    35	 1
   32    36	 1
   32    55	 1
   33    53	 1
   33    38	 1
   33    40	 1
   33    39	 1
   33    56	 1
   34    37	 1
   34    54	 1
   35    37	 1
   35    54	 1
   35    36	 1
   35    55	 1
   36    53	 1
   37    53	 1
   38    54	 1
   39    54	 1
   40    54	 1
   46    47	 1
   47    48	 1
   49    52	 1
   51    52	 1
   53    54	 1
   55    56	 1

[ angles ]
;	ai	  aj	ak funct			c0			  c1			c2			  c3
   10     1     7	5 ;     CG2R61     CG2DC1     CG2D1O
   10     1     2	5 ;     CG2R61     CG2DC1     CG2DC2
    7     1     2	5 ;     CG2D1O     CG2DC1     CG2DC2
    1     2     3	5 ;     CG2DC1     CG2DC2     CG2DC2
    1     2    41	5 ;     CG2DC1     CG2DC2       HGA4
    3     2    41	5 ;     CG2DC2     CG2DC2       HGA4
    2     3     4	5 ;     CG2DC2     CG2DC2      CG321
    2     3     8	5 ;     CG2DC2     CG2DC2      CG1N1
    4     3     8	5 ;      CG321     CG2DC2      CG1N1
    5     4     3	5 ;      NG311      CG321     CG2DC2
    5     4    42	5 ;      NG311      CG321       HGA2
    5     4    43	5 ;      NG311      CG321       HGA2
    3     4    42	5 ;     CG2DC2      CG321       HGA2
    3     4    43	5 ;     CG2DC2      CG321       HGA2
   42     4    43	5 ;       HGA2      CG321       HGA2
    7     5     6	5 ;     CG2D1O      NG311     HGPAM1
    7     5     4	5 ;     CG2D1O      NG311      CG321
    6     5     4	5 ;     HGPAM1      NG311      CG321
    1     7     5	5 ;     CG2DC1     CG2D1O      NG311
    1     7    44	5 ;     CG2DC1     CG2D1O       HGA4
    5     7    44	5 ;      NG311     CG2D1O       HGA4
    3     8     9	5 ;     CG2DC2      CG1N1      NG1T1
   11    10    15	5 ;     CG2R61     CG2R61     CG2R61
   11    10     1	5 ;     CG2R61     CG2R61     CG2DC1
   15    10     1	5 ;     CG2R61     CG2R61     CG2DC1
   12    11    10	5 ;     CG2R61     CG2R61     CG2R61
   12    11    45	5 ;     CG2R61     CG2R61      HGR61
   10    11    45	5 ;     CG2R61     CG2R61      HGR61
   16    12    13	5 ;     CG3C50     CG2R61     CG2R61
   16    12    11	5 ;     CG3C50     CG2R61     CG2R61
   13    12    11	5 ;     CG2R61     CG2R61     CG2R61
   12    13    14	5 ;     CG2R61     CG2R61     CG2R61
   12    13    46	5 ;     CG2R61     CG2R61      HGR61
   14    13    46	5 ;     CG2R61     CG2R61      HGR61
   13    14    15	5 ;     CG2R61     CG2R61     CG2R61
   13    14    47	5 ;     CG2R61     CG2R61      HGR61
   15    14    47	5 ;     CG2R61     CG2R61      HGR61
   14    15    10	5 ;     CG2R61     CG2R61     CG2R61
   14    15    48	5 ;     CG2R61     CG2R61      HGR61
   10    15    48	5 ;     CG2R61     CG2R61      HGR61
   25    16    17	5 ;     NG3C51     CG3C50     CG2RC0
   25    16    12	5 ;     NG3C51     CG3C50     CG2R61
   25    16    30	5 ;     NG3C51     CG3C50     CG2DC1
   17    16    12	5 ;     CG2RC0     CG3C50     CG2R61
   17    16    30	5 ;     CG2RC0     CG3C50     CG2DC1
   12    16    30	5 ;     CG2R61     CG3C50     CG2DC1
   18    17    16	5 ;     CG2RC0     CG2RC0     CG3C50
   18    17    19	5 ;     CG2RC0     CG2RC0     CG2R61
   16    17    19	5 ;     CG3C50     CG2RC0     CG2R61
   20    18    21	5 ;     CG2R66     CG2RC0     CG3C51
   20    18    17	5 ;     CG2R66     CG2RC0     CG2RC0
   21    18    17	5 ;     CG3C51     CG2RC0     CG2RC0
   24    19    17	5 ;     CG2R61     CG2R61     CG2RC0
   24    19    49	5 ;     CG2R61     CG2R61      HGR61
   17    19    49	5 ;     CG2RC0     CG2R61      HGR61
   22    20    23	5 ;       FGR1     CG2R66     CG2R61
   22    20    18	5 ;       FGR1     CG2R66     CG2RC0
   23    20    18	5 ;     CG2R61     CG2R66     CG2RC0
   26    21    18	5 ;      NG321     CG3C51     CG2RC0
   26    21    25	5 ;      NG321     CG3C51     NG3C51
   26    21    50	5 ;      NG321     CG3C51       HGA1
   18    21    25	5 ;     CG2RC0     CG3C51     NG3C51
   18    21    50	5 ;     CG2RC0     CG3C51       HGA1
   25    21    50	5 ;     NG3C51     CG3C51       HGA1
   20    23    24	5 ;     CG2R66     CG2R61     CG2R61
   20    23    51	5 ;     CG2R66     CG2R61      HGR62
   24    23    51	5 ;     CG2R61     CG2R61      HGR62
   23    24    19	5 ;     CG2R61     CG2R61     CG2R61
   23    24    52	5 ;     CG2R61     CG2R61      HGR61
   19    24    52	5 ;     CG2R61     CG2R61      HGR61
   21    25    27	5 ;     CG3C51     NG3C51       HGP1
   21    25    16	5 ;     CG3C51     NG3C51     CG3C50
   27    25    16	5 ;       HGP1     NG3C51     CG3C50
   28    26    29	5 ;     HGPAM2      NG321     HGPAM2
   28    26    21	5 ;     HGPAM2      NG321     CG3C51
   29    26    21	5 ;     HGPAM2      NG321     CG3C51
   16    30    31	5 ;     CG3C50     CG2DC1     CG2DC1
   16    30    36	5 ;     CG3C50     CG2DC1     CG2DC2
   31    30    36	5 ;     CG2DC1     CG2DC1     CG2DC2
   30    31    32	5 ;     CG2DC1     CG2DC1      CG311
   30    31    53	5 ;     CG2DC1     CG2DC1       HGA4
   32    31    53	5 ;      CG311     CG2DC1       HGA4
   31    32    37	5 ;     CG2DC1      CG311      CG302
   31    32    33	5 ;     CG2DC1      CG311      NG311
   31    32    54	5 ;     CG2DC1      CG311       HGA1
   37    32    33	5 ;      CG302      CG311      NG311
   37    32    54	5 ;      CG302      CG311       HGA1
   33    32    54	5 ;      NG311      CG311       HGA1
   32    33    34	5 ;      CG311      NG311     CG2D2O
   32    33    35	5 ;      CG311      NG311     HGPAM1
   34    33    35	5 ;     CG2D2O      NG311     HGPAM1
   36    34    33	5 ;     CG2DC2     CG2D2O      NG311
   36    34    55	5 ;     CG2DC2     CG2D2O       HGA4
   33    34    55	5 ;      NG311     CG2D2O       HGA4
   30    36    34	5 ;     CG2DC1     CG2DC2     CG2D2O
   30    36    56	5 ;     CG2DC1     CG2DC2       HGA4
   34    36    56	5 ;     CG2D2O     CG2DC2       HGA4
   38    37    32	5 ;       FGA3      CG302      CG311
   38    37    40	5 ;       FGA3      CG302       FGA3
   38    37    39	5 ;       FGA3      CG302       FGA3
   32    37    40	5 ;      CG311      CG302       FGA3
   32    37    39	5 ;      CG311      CG302       FGA3
   40    37    39	5 ;       FGA3      CG302       FGA3

[ dihedrals ]
;	ai	  aj	ak	  al funct			  c0			c1			  c2			c3			  c4			c5
    7     1    10    11	 9 ;     CG2D1O     CG2DC1     CG2R61     CG2R61
    7     1    10    15	 9 ;     CG2D1O     CG2DC1     CG2R61     CG2R61
    2     1    10    11	 9 ;     CG2DC2     CG2DC1     CG2R61     CG2R61
    2     1    10    15	 9 ;     CG2DC2     CG2DC1     CG2R61     CG2R61
   10     1     7     5	 9 ;     CG2R61     CG2DC1     CG2D1O      NG311
   10     1     7    44	 9 ;     CG2R61     CG2DC1     CG2D1O       HGA4
    2     1     7     5	 9 ;     CG2DC2     CG2DC1     CG2D1O      NG311
    2     1     7    44	 9 ;     CG2DC2     CG2DC1     CG2D1O       HGA4
   10     1     2     3	 9 ;     CG2R61     CG2DC1     CG2DC2     CG2DC2
   10     1     2    41	 9 ;     CG2R61     CG2DC1     CG2DC2       HGA4
    7     1     2     3	 9 ;     CG2D1O     CG2DC1     CG2DC2     CG2DC2
    7     1     2    41	 9 ;     CG2D1O     CG2DC1     CG2DC2       HGA4
    1     2     3     4	 9 ;     CG2DC1     CG2DC2     CG2DC2      CG321
    1     2     3     8	 9 ;     CG2DC1     CG2DC2     CG2DC2      CG1N1
   41     2     3     4	 9 ;       HGA4     CG2DC2     CG2DC2      CG321
   41     2     3     8	 9 ;       HGA4     CG2DC2     CG2DC2      CG1N1
    2     3     4     5	 9 ;     CG2DC2     CG2DC2      CG321      NG311
    2     3     4    42	 9 ;     CG2DC2     CG2DC2      CG321       HGA2
    2     3     4    43	 9 ;     CG2DC2     CG2DC2      CG321       HGA2
    8     3     4     5	 9 ;      CG1N1     CG2DC2      CG321      NG311
    8     3     4    42	 9 ;      CG1N1     CG2DC2      CG321       HGA2
    8     3     4    43	 9 ;      CG1N1     CG2DC2      CG321       HGA2
    3     4     5     7	 9 ;     CG2DC2      CG321      NG311     CG2D1O
    3     4     5     6	 9 ;     CG2DC2      CG321      NG311     HGPAM1
   42     4     5     7	 9 ;       HGA2      CG321      NG311     CG2D1O
   42     4     5     6	 9 ;       HGA2      CG321      NG311     HGPAM1
   43     4     5     7	 9 ;       HGA2      CG321      NG311     CG2D1O
   43     4     5     6	 9 ;       HGA2      CG321      NG311     HGPAM1
    6     5     7     1	 9 ;     HGPAM1      NG311     CG2D1O     CG2DC1
    6     5     7    44	 9 ;     HGPAM1      NG311     CG2D1O       HGA4
    4     5     7     1	 9 ;      CG321      NG311     CG2D1O     CG2DC1
    4     5     7    44	 9 ;      CG321      NG311     CG2D1O       HGA4
   15    10    11    12	 9 ;     CG2R61     CG2R61     CG2R61     CG2R61
   15    10    11    45	 9 ;     CG2R61     CG2R61     CG2R61      HGR61
    1    10    11    12	 9 ;     CG2DC1     CG2R61     CG2R61     CG2R61
    1    10    11    45	 9 ;     CG2DC1     CG2R61     CG2R61      HGR61
   11    10    15    14	 9 ;     CG2R61     CG2R61     CG2R61     CG2R61
   11    10    15    48	 9 ;     CG2R61     CG2R61     CG2R61      HGR61
    1    10    15    14	 9 ;     CG2DC1     CG2R61     CG2R61     CG2R61
    1    10    15    48	 9 ;     CG2DC1     CG2R61     CG2R61      HGR61
   10    11    12    16	 9 ;     CG2R61     CG2R61     CG2R61     CG3C50
   10    11    12    13	 9 ;     CG2R61     CG2R61     CG2R61     CG2R61
   45    11    12    16	 9 ;      HGR61     CG2R61     CG2R61     CG3C50
   45    11    12    13	 9 ;      HGR61     CG2R61     CG2R61     CG2R61
   13    12    16    25	 9 ;     CG2R61     CG2R61     CG3C50     NG3C51
   13    12    16    17	 9 ;     CG2R61     CG2R61     CG3C50     CG2RC0
   13    12    16    30	 9 ;     CG2R61     CG2R61     CG3C50     CG2DC1
   11    12    16    25	 9 ;     CG2R61     CG2R61     CG3C50     NG3C51
   11    12    16    17	 9 ;     CG2R61     CG2R61     CG3C50     CG2RC0
   11    12    16    30	 9 ;     CG2R61     CG2R61     CG3C50     CG2DC1
   16    12    13    14	 9 ;     CG3C50     CG2R61     CG2R61     CG2R61
   16    12    13    46	 9 ;     CG3C50     CG2R61     CG2R61      HGR61
   11    12    13    14	 9 ;     CG2R61     CG2R61     CG2R61     CG2R61
   11    12    13    46	 9 ;     CG2R61     CG2R61     CG2R61      HGR61
   12    13    14    15	 9 ;     CG2R61     CG2R61     CG2R61     CG2R61
   12    13    14    47	 9 ;     CG2R61     CG2R61     CG2R61      HGR61
   46    13    14    15	 9 ;      HGR61     CG2R61     CG2R61     CG2R61
   46    13    14    47	 9 ;      HGR61     CG2R61     CG2R61      HGR61
   13    14    15    10	 9 ;     CG2R61     CG2R61     CG2R61     CG2R61
   13    14    15    48	 9 ;     CG2R61     CG2R61     CG2R61      HGR61
   47    14    15    10	 9 ;      HGR61     CG2R61     CG2R61     CG2R61
   47    14    15    48	 9 ;      HGR61     CG2R61     CG2R61      HGR61
   17    16    25    21	 9 ;     CG2RC0     CG3C50     NG3C51     CG3C51
   17    16    25    27	 9 ;     CG2RC0     CG3C50     NG3C51       HGP1
   12    16    25    21	 9 ;     CG2R61     CG3C50     NG3C51     CG3C51
   12    16    25    27	 9 ;     CG2R61     CG3C50     NG3C51       HGP1
   30    16    25    21	 9 ;     CG2DC1     CG3C50     NG3C51     CG3C51
   30    16    25    27	 9 ;     CG2DC1     CG3C50     NG3C51       HGP1
   25    16    17    18	 9 ;     NG3C51     CG3C50     CG2RC0     CG2RC0
   25    16    17    19	 9 ;     NG3C51     CG3C50     CG2RC0     CG2R61
   12    16    17    18	 9 ;     CG2R61     CG3C50     CG2RC0     CG2RC0
   12    16    17    19	 9 ;     CG2R61     CG3C50     CG2RC0     CG2R61
   30    16    17    18	 9 ;     CG2DC1     CG3C50     CG2RC0     CG2RC0
   30    16    17    19	 9 ;     CG2DC1     CG3C50     CG2RC0     CG2R61
   25    16    30    31	 9 ;     NG3C51     CG3C50     CG2DC1     CG2DC1
   25    16    30    36	 9 ;     NG3C51     CG3C50     CG2DC1     CG2DC2
   17    16    30    31	 9 ;     CG2RC0     CG3C50     CG2DC1     CG2DC1
   17    16    30    36	 9 ;     CG2RC0     CG3C50     CG2DC1     CG2DC2
   12    16    30    31	 9 ;     CG2R61     CG3C50     CG2DC1     CG2DC1
   12    16    30    36	 9 ;     CG2R61     CG3C50     CG2DC1     CG2DC2
   16    17    18    20	 9 ;     CG3C50     CG2RC0     CG2RC0     CG2R66
   16    17    18    21	 9 ;     CG3C50     CG2RC0     CG2RC0     CG3C51
   19    17    18    20	 9 ;     CG2R61     CG2RC0     CG2RC0     CG2R66
   19    17    18    21	 9 ;     CG2R61     CG2RC0     CG2RC0     CG3C51
   18    17    19    24	 9 ;     CG2RC0     CG2RC0     CG2R61     CG2R61
   18    17    19    49	 9 ;     CG2RC0     CG2RC0     CG2R61      HGR61
   16    17    19    24	 9 ;     CG3C50     CG2RC0     CG2R61     CG2R61
   16    17    19    49	 9 ;     CG3C50     CG2RC0     CG2R61      HGR61
   21    18    20    22	 9 ;     CG3C51     CG2RC0     CG2R66       FGR1
   21    18    20    23	 9 ;     CG3C51     CG2RC0     CG2R66     CG2R61
   17    18    20    22	 9 ;     CG2RC0     CG2RC0     CG2R66       FGR1
   17    18    20    23	 9 ;     CG2RC0     CG2RC0     CG2R66     CG2R61
   20    18    21    26	 9 ;     CG2R66     CG2RC0     CG3C51      NG321
   20    18    21    25	 9 ;     CG2R66     CG2RC0     CG3C51     NG3C51
   20    18    21    50	 9 ;     CG2R66     CG2RC0     CG3C51       HGA1
   17    18    21    26	 9 ;     CG2RC0     CG2RC0     CG3C51      NG321
   17    18    21    25	 9 ;     CG2RC0     CG2RC0     CG3C51     NG3C51
   17    18    21    50	 9 ;     CG2RC0     CG2RC0     CG3C51       HGA1
   17    19    24    23	 9 ;     CG2RC0     CG2R61     CG2R61     CG2R61
   17    19    24    52	 9 ;     CG2RC0     CG2R61     CG2R61      HGR61
   49    19    24    23	 9 ;      HGR61     CG2R61     CG2R61     CG2R61
   49    19    24    52	 9 ;      HGR61     CG2R61     CG2R61      HGR61
   22    20    23    24	 9 ;       FGR1     CG2R66     CG2R61     CG2R61
   22    20    23    51	 9 ;       FGR1     CG2R66     CG2R61      HGR62
   18    20    23    24	 9 ;     CG2RC0     CG2R66     CG2R61     CG2R61
   18    20    23    51	 9 ;     CG2RC0     CG2R66     CG2R61      HGR62
   18    21    26    28	 9 ;     CG2RC0     CG3C51      NG321     HGPAM2
   18    21    26    29	 9 ;     CG2RC0     CG3C51      NG321     HGPAM2
   25    21    26    28	 9 ;     NG3C51     CG3C51      NG321     HGPAM2
   25    21    26    29	 9 ;     NG3C51     CG3C51      NG321     HGPAM2
   50    21    26    28	 9 ;       HGA1     CG3C51      NG321     HGPAM2
   50    21    26    29	 9 ;       HGA1     CG3C51      NG321     HGPAM2
   26    21    25    27	 9 ;      NG321     CG3C51     NG3C51       HGP1
   26    21    25    16	 9 ;      NG321     CG3C51     NG3C51     CG3C50
   18    21    25    27	 9 ;     CG2RC0     CG3C51     NG3C51       HGP1
   18    21    25    16	 9 ;     CG2RC0     CG3C51     NG3C51     CG3C50
   50    21    25    27	 9 ;       HGA1     CG3C51     NG3C51       HGP1
   50    21    25    16	 9 ;       HGA1     CG3C51     NG3C51     CG3C50
   20    23    24    19	 9 ;     CG2R66     CG2R61     CG2R61     CG2R61
   20    23    24    52	 9 ;     CG2R66     CG2R61     CG2R61      HGR61
   51    23    24    19	 9 ;      HGR62     CG2R61     CG2R61     CG2R61
   51    23    24    52	 9 ;      HGR62     CG2R61     CG2R61      HGR61
   16    30    31    32	 9 ;     CG3C50     CG2DC1     CG2DC1      CG311
   16    30    31    53	 9 ;     CG3C50     CG2DC1     CG2DC1       HGA4
   36    30    31    32	 9 ;     CG2DC2     CG2DC1     CG2DC1      CG311
   36    30    31    53	 9 ;     CG2DC2     CG2DC1     CG2DC1       HGA4
   16    30    36    34	 9 ;     CG3C50     CG2DC1     CG2DC2     CG2D2O
   16    30    36    56	 9 ;     CG3C50     CG2DC1     CG2DC2       HGA4
   31    30    36    34	 9 ;     CG2DC1     CG2DC1     CG2DC2     CG2D2O
   31    30    36    56	 9 ;     CG2DC1     CG2DC1     CG2DC2       HGA4
   30    31    32    37	 9 ;     CG2DC1     CG2DC1      CG311      CG302
   30    31    32    33	 9 ;     CG2DC1     CG2DC1      CG311      NG311
   30    31    32    54	 9 ;     CG2DC1     CG2DC1      CG311       HGA1
   53    31    32    37	 9 ;       HGA4     CG2DC1      CG311      CG302
   53    31    32    33	 9 ;       HGA4     CG2DC1      CG311      NG311
   53    31    32    54	 9 ;       HGA4     CG2DC1      CG311       HGA1
   31    32    37    38	 9 ;     CG2DC1      CG311      CG302       FGA3
   31    32    37    40	 9 ;     CG2DC1      CG311      CG302       FGA3
   31    32    37    39	 9 ;     CG2DC1      CG311      CG302       FGA3
   33    32    37    38	 9 ;      NG311      CG311      CG302       FGA3
   33    32    37    40	 9 ;      NG311      CG311      CG302       FGA3
   33    32    37    39	 9 ;      NG311      CG311      CG302       FGA3
   54    32    37    38	 9 ;       HGA1      CG311      CG302       FGA3
   54    32    37    40	 9 ;       HGA1      CG311      CG302       FGA3
   54    32    37    39	 9 ;       HGA1      CG311      CG302       FGA3
   31    32    33    34	 9 ;     CG2DC1      CG311      NG311     CG2D2O
   31    32    33    35	 9 ;     CG2DC1      CG311      NG311     HGPAM1
   37    32    33    34	 9 ;      CG302      CG311      NG311     CG2D2O
   37    32    33    35	 9 ;      CG302      CG311      NG311     HGPAM1
   54    32    33    34	 9 ;       HGA1      CG311      NG311     CG2D2O
   54    32    33    35	 9 ;       HGA1      CG311      NG311     HGPAM1
   32    33    34    36	 9 ;      CG311      NG311     CG2D2O     CG2DC2
   32    33    34    55	 9 ;      CG311      NG311     CG2D2O       HGA4
   35    33    34    36	 9 ;     HGPAM1      NG311     CG2D2O     CG2DC2
   35    33    34    55	 9 ;     HGPAM1      NG311     CG2D2O       HGA4
   33    34    36    30	 9 ;      NG311     CG2D2O     CG2DC2     CG2DC1
   33    34    36    56	 9 ;      NG311     CG2D2O     CG2DC2       HGA4
   55    34    36    30	 9 ;       HGA4     CG2D2O     CG2DC2     CG2DC1
   55    34    36    56	 9 ;       HGA4     CG2D2O     CG2DC2       HGA4

[ dihedrals ]
;	ai	  aj	ak	  al funct			  c0			c1			  c2			c3
    7     1     5    44	 2
   34    36    33    55	 2

