Glycine aRginine prOline Methionine Alanine Cystine Serine
   48
    1LIG     C2    1  -1.454   0.306  -1.778
    1LIG     O5    2  -1.638   0.396  -1.595
    1LIG     C4    3  -1.551   0.615  -1.588
    1LIG     C5    4  -1.474   0.711  -1.655
    1LIG     C6    5  -1.631   0.652  -1.480
    1LIG     C7    6  -1.480   0.844  -1.612
    1LIG     C8    7  -1.635   0.784  -1.436
    1LIG     C9    8  -1.559   0.880  -1.503
    1LIG    C10    9  -1.443   0.431  -1.729
    1LIG    C11   10  -1.336   0.531  -1.761
    1LIG    C12   11  -1.551   0.473  -1.633
    1LIG    C13   12  -1.392   0.673  -1.775
    1LIG     N1   13  -1.245   0.192  -1.818
    1LIG     O4   14  -1.375   0.248  -1.993
    1LIG     C3   15  -1.357   0.247  -1.872
    1LIG     H1   16  -1.189   0.145  -1.888
    1LIG    C14   17  -1.223   0.147  -1.679
    1LIG    C16   18  -1.110   0.228  -1.612
    1LIG    C17   19  -1.029   0.306  -1.717
    1LIG    C18   20  -1.164   0.327  -1.508
    1LIG     O1   21  -1.256  -0.090  -1.643
    1LIG    C15   22  -1.184  -0.002  -1.689
    1LIG     O2   23  -1.070  -0.034  -1.756
    1LIG    C19   24  -0.956  -0.090  -1.691
    1LIG     C1   25  -1.758   0.693  -1.254
    1LIG     O3   26  -1.717   0.807  -1.329
    1LIG     H2   27  -1.535   0.249  -1.747
    1LIG     H3   28  -1.688   0.580  -1.431
    1LIG     H4   29  -1.424   0.916  -1.661
    1LIG     H5   30  -1.562   0.979  -1.472
    1LIG     H6   31  -1.263   0.531  -1.683
    1LIG     H7   32  -1.293   0.504  -1.855
    1LIG     H8   33  -1.454   0.678  -1.862
    1LIG     H9   34  -1.310   0.741  -1.784
    1LIG    H10   35  -1.311   0.161  -1.619
    1LIG    H11   36  -1.046   0.158  -1.564
    1LIG    H12   37  -1.092   0.377  -1.766
    1LIG    H13   38  -0.989   0.238  -1.789
    1LIG    H14   39  -0.948   0.358  -1.669
    1LIG    H15   40  -1.228   0.398  -1.556
    1LIG    H16   41  -1.082   0.378  -1.461
    1LIG    H17   42  -1.220   0.273  -1.434
    1LIG    H18   43  -0.878  -0.108  -1.763
    1LIG    H19   44  -0.983  -0.183  -1.645
    1LIG    H20   45  -0.921  -0.023  -1.615
    1LIG    H21   46  -1.822   0.725  -1.174
    1LIG    H22   47  -1.672   0.644  -1.214
    1LIG    H23   48  -1.812   0.626  -1.317
   0.00000   0.00000   0.00000
