; Created by cgenff_charmm2gmx.py

[ moleculetype ]
; Name			   nrexcl
LIG				 3

[ atoms ]
;	 nr		  type	resnr residue  atom   cgnr	   charge		mass  typeB    chargeB		massB
; residue	 1 LIG rtp LIG q	qsum
     1      CG2O1      1    LIG     C1      1      0.300     12.011   ;
     2      OG2D1      1    LIG     O1      2     -0.463     15.999   ;
     3      NG2S1      1    LIG     N1      3     -0.331     14.007   ;
     4       HGP1      1    LIG     H1      4      0.328      1.008   ;
     5      CG311      1    LIG     C2      5      0.039     12.011   ;
     6      CG321      1    LIG     C3      6     -0.090     12.011   ;
     7     CG2R61      1    LIG     C4      7     -0.009     12.011   ;
     8     CG2R61      1    LIG     C5      8     -0.123     12.011   ;
     9     CG2R61      1    LIG     C6      9     -0.112     12.011   ;
    10     CG2R61      1    LIG     C7     10     -0.116     12.011   ;
    11     CG2R61      1    LIG     C8     11     -0.112     12.011   ;
    12     CG2R61      1    LIG     C9     12     -0.123     12.011   ;
    13      CG2O5      1    LIG    C10     13      0.383     12.011   ;
    14      OG2D3      1    LIG     O2     14     -0.443     15.999   ;
    15      CG324      1    LIG    C11     15      0.157     12.011   ;
    16      NG3P2      1    LIG     N2     16     -0.281     14.007   ;
    17       HGP2      1    LIG     H2     17      0.308      1.008   ;
    18       HGP2      1    LIG     H3     18      0.308      1.008   ;
    19      CG314      1    LIG    C12     19      0.145     12.011   ;
    20      CG321      1    LIG    C13     20     -0.147     12.011   ;
    21      CG321      1    LIG    C14     21      0.022     12.011   ;
    22     OG3C61      1    LIG     O3     22     -0.384     15.999   ;
    23      CG321      1    LIG    C15     23      0.022     12.011   ;
    24      CG321      1    LIG    C16     24     -0.147     12.011   ;
    25     CG2R61      1    LIG    C17     25     -0.126     12.011   ;
    26     CG2R61      1    LIG    C18     26     -0.153     12.011   ;
    27     CG2R61      1    LIG    C19     27      0.166     12.011   ;
    28      NG301      1    LIG     N3     28     -0.294     14.007   ;
    29     CG2RC0      1    LIG    C20     29      0.174     12.011   ;
    30      SG3O2      1    LIG      S     30      0.439     32.060   ;
    31      CG331      1    LIG    C21     31     -0.055     12.011   ;
    32      OG2P1      1    LIG     O4     32     -0.374     15.999   ;
    33      OG2P1      1    LIG     O5     33     -0.374     15.999   ;
    34      CG321      1    LIG    C22     34      0.085     12.011   ;
    35      CG321      1    LIG    C23     35     -0.173     12.011   ;
    36     CG2R51      1    LIG    C24     36     -0.141     12.011   ;
    37     CG2R51      1    LIG    C25     37     -0.130     12.011   ;
    38     NG2R51      1    LIG     N4     38     -0.061     14.007   ;
    39     CG2RC0      1    LIG    C26     39      0.193     12.011   ;
    40     CG2R61      1    LIG    C27     40     -0.202     12.011   ;
    41      CG321      1    LIG    C28     41     -0.225     12.011   ;
    42      CG331      1    LIG    C29     42     -0.272     12.011   ;
    43       HGA1      1    LIG     HC     43      0.090      1.008   ;
    44       HGA2      1    LIG    HC2     44      0.090      1.008   ;
    45       HGA2      1    LIG    HC3     45      0.090      1.008   ;
    46      HGR61      1    LIG    HC1     46      0.116      1.008   ;
    47      HGR61      1    LIG    HC4     47      0.116      1.008   ;
    48      HGR61      1    LIG    HC5     48      0.116      1.008   ;
    49      HGR61      1    LIG    HC6     49      0.116      1.008   ;
    50      HGR61      1    LIG    HC7     50      0.116      1.008   ;
    51       HGA2      1    LIG    HC8     51      0.090      1.008   ;
    52       HGA2      1    LIG    HC9     52      0.090      1.008   ;
    53       HGA1      1    LIG   HC10     53      0.090      1.008   ;
    54       HGA2      1    LIG   HC11     54      0.090      1.008   ;
    55       HGA2      1    LIG   HC12     55      0.090      1.008   ;
    56       HGA2      1    LIG   HC13     56      0.090      1.008   ;
    57       HGA2      1    LIG   HC14     57      0.090      1.008   ;
    58       HGA2      1    LIG   HC15     58      0.090      1.008   ;
    59       HGA2      1    LIG   HC16     59      0.090      1.008   ;
    60       HGA2      1    LIG   HC17     60      0.090      1.008   ;
    61       HGA2      1    LIG   HC18     61      0.090      1.008   ;
    62      HGR61      1    LIG   HC19     62      0.134      1.008   ;
    63       HGA2      1    LIG   HC20     63      0.090      1.008   ;
    64       HGA2      1    LIG   HC21     64      0.090      1.008   ;
    65       HGA2      1    LIG   HC22     65      0.090      1.008   ;
    66       HGA2      1    LIG   HC23     66      0.090      1.008   ;
    67      HGR52      1    LIG   HC24     67      0.154      1.008   ;
    68      HGR61      1    LIG   HC25     68      0.184      1.008   ;
    69       HGA2      1    LIG   HC26     69      0.090      1.008   ;
    70       HGA2      1    LIG   HC27     70      0.090      1.008   ;
    71       HGA3      1    LIG   HC28     71      0.090      1.008   ;
    72       HGA3      1    LIG   HC29     72      0.090      1.008   ;
    73       HGA3      1    LIG   HC30     73      0.090      1.008   ;
    74       HGA3      1    LIG   HC31     74      0.090      1.008   ;
    75       HGA3      1    LIG   HC32     75      0.090      1.008   ;
    76       HGA3      1    LIG   HC33     76      0.090      1.008   ;

[ bonds ]
;	ai	  aj funct			  c0			c1			  c2			c3
    1     2	 1 ;       CG2O1      OG2D1
    1     3	 1 ;       CG2O1      NG2S1
    1    25	 1 ;       CG2O1     CG2R61
    3     5	 1 ;       NG2S1      CG311
    3     4	 1 ;       NG2S1       HGP1
    5     6	 1 ;       CG311      CG321
    5    13	 1 ;       CG311      CG2O5
    5    43	 1 ;       CG311       HGA1
    6     7	 1 ;       CG321     CG2R61
    6    44	 1 ;       CG321       HGA2
    6    45	 1 ;       CG321       HGA2
    7    12	 1 ;      CG2R61     CG2R61
    7     8	 1 ;      CG2R61     CG2R61
    8     9	 1 ;      CG2R61     CG2R61
    8    46	 1 ;      CG2R61      HGR61
    9    10	 1 ;      CG2R61     CG2R61
    9    47	 1 ;      CG2R61      HGR61
   10    11	 1 ;      CG2R61     CG2R61
   10    48	 1 ;      CG2R61      HGR61
   11    12	 1 ;      CG2R61     CG2R61
   11    49	 1 ;      CG2R61      HGR61
   12    50	 1 ;      CG2R61      HGR61
   13    15	 1 ;       CG2O5      CG324
   13    14	 1 ;       CG2O5      OG2D3
   15    16	 1 ;       CG324      NG3P2
   15    51	 1 ;       CG324       HGA2
   15    52	 1 ;       CG324       HGA2
   16    19	 1 ;       NG3P2      CG314
   16    18	 1 ;       NG3P2       HGP2
   16    17	 1 ;       NG3P2       HGP2
   19    24	 1 ;       CG314      CG321
   19    20	 1 ;       CG314      CG321
   19    53	 1 ;       CG314       HGA1
   20    21	 1 ;       CG321      CG321
   20    54	 1 ;       CG321       HGA2
   20    55	 1 ;       CG321       HGA2
   21    22	 1 ;       CG321     OG3C61
   21    56	 1 ;       CG321       HGA2
   21    57	 1 ;       CG321       HGA2
   22    23	 1 ;      OG3C61      CG321
   23    24	 1 ;       CG321      CG321
   23    58	 1 ;       CG321       HGA2
   23    59	 1 ;       CG321       HGA2
   24    60	 1 ;       CG321       HGA2
   24    61	 1 ;       CG321       HGA2
   25    26	 1 ;      CG2R61     CG2R61
   25    40	 1 ;      CG2R61     CG2R61
   26    27	 1 ;      CG2R61     CG2R61
   26    62	 1 ;      CG2R61      HGR61
   27    28	 1 ;      CG2R61      NG301
   27    29	 1 ;      CG2R61     CG2RC0
   28    31	 1 ;       NG301      CG331
   28    30	 1 ;       NG301      SG3O2
   29    39	 1 ;      CG2RC0     CG2RC0
   29    36	 1 ;      CG2RC0     CG2R51
   30    32	 1 ;       SG3O2      OG2P1
   30    33	 1 ;       SG3O2      OG2P1
   30    34	 1 ;       SG3O2      CG321
   31    74	 1 ;       CG331       HGA3
   31    75	 1 ;       CG331       HGA3
   31    76	 1 ;       CG331       HGA3
   34    35	 1 ;       CG321      CG321
   34    63	 1 ;       CG321       HGA2
   34    64	 1 ;       CG321       HGA2
   35    36	 1 ;       CG321     CG2R51
   35    65	 1 ;       CG321       HGA2
   35    66	 1 ;       CG321       HGA2
   36    37	 1 ;      CG2R51     CG2R51
   37    38	 1 ;      CG2R51     NG2R51
   37    67	 1 ;      CG2R51      HGR52
   38    39	 1 ;      NG2R51     CG2RC0
   38    41	 1 ;      NG2R51      CG321
   39    40	 1 ;      CG2RC0     CG2R61
   40    68	 1 ;      CG2R61      HGR61
   41    42	 1 ;       CG321      CG331
   41    69	 1 ;       CG321       HGA2
   41    70	 1 ;       CG321       HGA2
   42    71	 1 ;       CG331       HGA3
   42    72	 1 ;       CG331       HGA3
   42    73	 1 ;       CG331       HGA3

[ pairs ]
;	ai	  aj funct			  c0			c1			  c2			c3
    1     6	 1
    1    13	 1
    1    43	 1
    1    27	 1
    1    62	 1
    1    39	 1
    1    68	 1
    2     5	 1
    2     4	 1
    2    26	 1
    2    40	 1
    3    26	 1
    3    40	 1
    3     7	 1
    3    44	 1
    3    45	 1
    3    15	 1
    3    14	 1
    4    25	 1
    4     6	 1
    4    13	 1
    4    43	 1
    5    25	 1
    5    12	 1
    5     8	 1
    5    16	 1
    5    51	 1
    5    52	 1
    6    15	 1
    6    14	 1
    6    11	 1
    6    50	 1
    6     9	 1
    6    46	 1
    7    13	 1
    7    43	 1
    7    10	 1
    7    47	 1
    7    49	 1
    8    44	 1
    8    45	 1
    8    11	 1
    8    50	 1
    8    48	 1
    9    12	 1
    9    49	 1
   10    46	 1
   10    50	 1
   11    47	 1
   12    44	 1
   12    45	 1
   12    46	 1
   12    48	 1
   13    44	 1
   13    45	 1
   13    19	 1
   13    18	 1
   13    17	 1
   14    43	 1
   14    16	 1
   14    51	 1
   14    52	 1
   15    43	 1
   15    24	 1
   15    20	 1
   15    53	 1
   16    23	 1
   16    60	 1
   16    61	 1
   16    21	 1
   16    54	 1
   16    55	 1
   17    51	 1
   17    52	 1
   17    24	 1
   17    20	 1
   17    53	 1
   18    51	 1
   18    52	 1
   18    24	 1
   18    20	 1
   18    53	 1
   19    51	 1
   19    52	 1
   19    22	 1
   19    56	 1
   19    57	 1
   19    58	 1
   19    59	 1
   20    23	 1
   20    60	 1
   20    61	 1
   21    24	 1
   21    53	 1
   21    58	 1
   21    59	 1
   22    54	 1
   22    55	 1
   22    60	 1
   22    61	 1
   23    53	 1
   23    56	 1
   23    57	 1
   24    54	 1
   24    55	 1
   25    28	 1
   25    29	 1
   25    38	 1
   26    39	 1
   26    68	 1
   26    31	 1
   26    30	 1
   26    36	 1
   27    40	 1
   27    74	 1
   27    75	 1
   27    76	 1
   27    32	 1
   27    33	 1
   27    34	 1
   27    38	 1
   27    35	 1
   27    37	 1
   28    62	 1
   28    39	 1
   28    36	 1
   28    35	 1
   28    63	 1
   28    64	 1
   29    62	 1
   29    31	 1
   29    30	 1
   29    34	 1
   29    65	 1
   29    66	 1
   29    67	 1
   29    41	 1
   29    68	 1
   30    74	 1
   30    75	 1
   30    76	 1
   30    36	 1
   30    65	 1
   30    66	 1
   31    32	 1
   31    33	 1
   31    34	 1
   32    35	 1
   32    63	 1
   32    64	 1
   33    35	 1
   33    63	 1
   33    64	 1
   34    37	 1
   35    39	 1
   35    38	 1
   35    67	 1
   36    40	 1
   36    63	 1
   36    64	 1
   36    41	 1
   37    65	 1
   37    66	 1
   37    40	 1
   37    42	 1
   37    69	 1
   37    70	 1
   38    68	 1
   38    71	 1
   38    72	 1
   38    73	 1
   39    67	 1
   39    42	 1
   39    69	 1
   39    70	 1
   40    62	 1
   40    41	 1
   41    67	 1
   43    44	 1
   43    45	 1
   46    47	 1
   47    48	 1
   48    49	 1
   49    50	 1
   53    60	 1
   53    61	 1
   53    54	 1
   53    55	 1
   54    56	 1
   54    57	 1
   55    56	 1
   55    57	 1
   58    60	 1
   58    61	 1
   59    60	 1
   59    61	 1
   63    65	 1
   63    66	 1
   64    65	 1
   64    66	 1
   69    71	 1
   69    72	 1
   69    73	 1
   70    71	 1
   70    72	 1
   70    73	 1

[ angles ]
;	ai	  aj	ak funct			c0			  c1			c2			  c3
    2     1     3	5 ;      OG2D1      CG2O1      NG2S1
    2     1    25	5 ;      OG2D1      CG2O1     CG2R61
    3     1    25	5 ;      NG2S1      CG2O1     CG2R61
    5     3     1	5 ;      CG311      NG2S1      CG2O1
    5     3     4	5 ;      CG311      NG2S1       HGP1
    1     3     4	5 ;      CG2O1      NG2S1       HGP1
    6     5    13	5 ;      CG321      CG311      CG2O5
    6     5     3	5 ;      CG321      CG311      NG2S1
    6     5    43	5 ;      CG321      CG311       HGA1
   13     5     3	5 ;      CG2O5      CG311      NG2S1
   13     5    43	5 ;      CG2O5      CG311       HGA1
    3     5    43	5 ;      NG2S1      CG311       HGA1
    7     6     5	5 ;     CG2R61      CG321      CG311
    7     6    44	5 ;     CG2R61      CG321       HGA2
    7     6    45	5 ;     CG2R61      CG321       HGA2
    5     6    44	5 ;      CG311      CG321       HGA2
    5     6    45	5 ;      CG311      CG321       HGA2
   44     6    45	5 ;       HGA2      CG321       HGA2
   12     7     6	5 ;     CG2R61     CG2R61      CG321
   12     7     8	5 ;     CG2R61     CG2R61     CG2R61
    6     7     8	5 ;      CG321     CG2R61     CG2R61
    7     8     9	5 ;     CG2R61     CG2R61     CG2R61
    7     8    46	5 ;     CG2R61     CG2R61      HGR61
    9     8    46	5 ;     CG2R61     CG2R61      HGR61
    8     9    10	5 ;     CG2R61     CG2R61     CG2R61
    8     9    47	5 ;     CG2R61     CG2R61      HGR61
   10     9    47	5 ;     CG2R61     CG2R61      HGR61
   11    10     9	5 ;     CG2R61     CG2R61     CG2R61
   11    10    48	5 ;     CG2R61     CG2R61      HGR61
    9    10    48	5 ;     CG2R61     CG2R61      HGR61
   12    11    10	5 ;     CG2R61     CG2R61     CG2R61
   12    11    49	5 ;     CG2R61     CG2R61      HGR61
   10    11    49	5 ;     CG2R61     CG2R61      HGR61
   11    12     7	5 ;     CG2R61     CG2R61     CG2R61
   11    12    50	5 ;     CG2R61     CG2R61      HGR61
    7    12    50	5 ;     CG2R61     CG2R61      HGR61
   15    13     5	5 ;      CG324      CG2O5      CG311
   15    13    14	5 ;      CG324      CG2O5      OG2D3
    5    13    14	5 ;      CG311      CG2O5      OG2D3
   16    15    13	5 ;      NG3P2      CG324      CG2O5
   16    15    51	5 ;      NG3P2      CG324       HGA2
   16    15    52	5 ;      NG3P2      CG324       HGA2
   13    15    51	5 ;      CG2O5      CG324       HGA2
   13    15    52	5 ;      CG2O5      CG324       HGA2
   51    15    52	5 ;       HGA2      CG324       HGA2
   19    16    15	5 ;      CG314      NG3P2      CG324
   19    16    18	5 ;      CG314      NG3P2       HGP2
   19    16    17	5 ;      CG314      NG3P2       HGP2
   15    16    18	5 ;      CG324      NG3P2       HGP2
   15    16    17	5 ;      CG324      NG3P2       HGP2
   18    16    17	5 ;       HGP2      NG3P2       HGP2
   24    19    16	5 ;      CG321      CG314      NG3P2
   24    19    20	5 ;      CG321      CG314      CG321
   24    19    53	5 ;      CG321      CG314       HGA1
   16    19    20	5 ;      NG3P2      CG314      CG321
   16    19    53	5 ;      NG3P2      CG314       HGA1
   20    19    53	5 ;      CG321      CG314       HGA1
   19    20    21	5 ;      CG314      CG321      CG321
   19    20    54	5 ;      CG314      CG321       HGA2
   19    20    55	5 ;      CG314      CG321       HGA2
   21    20    54	5 ;      CG321      CG321       HGA2
   21    20    55	5 ;      CG321      CG321       HGA2
   54    20    55	5 ;       HGA2      CG321       HGA2
   22    21    20	5 ;     OG3C61      CG321      CG321
   22    21    56	5 ;     OG3C61      CG321       HGA2
   22    21    57	5 ;     OG3C61      CG321       HGA2
   20    21    56	5 ;      CG321      CG321       HGA2
   20    21    57	5 ;      CG321      CG321       HGA2
   56    21    57	5 ;       HGA2      CG321       HGA2
   23    22    21	5 ;      CG321     OG3C61      CG321
   24    23    22	5 ;      CG321      CG321     OG3C61
   24    23    58	5 ;      CG321      CG321       HGA2
   24    23    59	5 ;      CG321      CG321       HGA2
   22    23    58	5 ;     OG3C61      CG321       HGA2
   22    23    59	5 ;     OG3C61      CG321       HGA2
   58    23    59	5 ;       HGA2      CG321       HGA2
   23    24    19	5 ;      CG321      CG321      CG314
   23    24    60	5 ;      CG321      CG321       HGA2
   23    24    61	5 ;      CG321      CG321       HGA2
   19    24    60	5 ;      CG314      CG321       HGA2
   19    24    61	5 ;      CG314      CG321       HGA2
   60    24    61	5 ;       HGA2      CG321       HGA2
    1    25    26	5 ;      CG2O1     CG2R61     CG2R61
    1    25    40	5 ;      CG2O1     CG2R61     CG2R61
   26    25    40	5 ;     CG2R61     CG2R61     CG2R61
   25    26    27	5 ;     CG2R61     CG2R61     CG2R61
   25    26    62	5 ;     CG2R61     CG2R61      HGR61
   27    26    62	5 ;     CG2R61     CG2R61      HGR61
   26    27    28	5 ;     CG2R61     CG2R61      NG301
   26    27    29	5 ;     CG2R61     CG2R61     CG2RC0
   28    27    29	5 ;      NG301     CG2R61     CG2RC0
   31    28    27	5 ;      CG331      NG301     CG2R61
   31    28    30	5 ;      CG331      NG301      SG3O2
   27    28    30	5 ;     CG2R61      NG301      SG3O2
   27    29    39	5 ;     CG2R61     CG2RC0     CG2RC0
   27    29    36	5 ;     CG2R61     CG2RC0     CG2R51
   39    29    36	5 ;     CG2RC0     CG2RC0     CG2R51
   32    30    28	5 ;      OG2P1      SG3O2      NG301
   32    30    33	5 ;      OG2P1      SG3O2      OG2P1
   32    30    34	5 ;      OG2P1      SG3O2      CG321
   28    30    33	5 ;      NG301      SG3O2      OG2P1
   28    30    34	5 ;      NG301      SG3O2      CG321
   33    30    34	5 ;      OG2P1      SG3O2      CG321
   28    31    74	5 ;      NG301      CG331       HGA3
   28    31    75	5 ;      NG301      CG331       HGA3
   28    31    76	5 ;      NG301      CG331       HGA3
   74    31    75	5 ;       HGA3      CG331       HGA3
   74    31    76	5 ;       HGA3      CG331       HGA3
   75    31    76	5 ;       HGA3      CG331       HGA3
   30    34    35	5 ;      SG3O2      CG321      CG321
   30    34    63	5 ;      SG3O2      CG321       HGA2
   30    34    64	5 ;      SG3O2      CG321       HGA2
   35    34    63	5 ;      CG321      CG321       HGA2
   35    34    64	5 ;      CG321      CG321       HGA2
   63    34    64	5 ;       HGA2      CG321       HGA2
   34    35    36	5 ;      CG321      CG321     CG2R51
   34    35    65	5 ;      CG321      CG321       HGA2
   34    35    66	5 ;      CG321      CG321       HGA2
   36    35    65	5 ;     CG2R51      CG321       HGA2
   36    35    66	5 ;     CG2R51      CG321       HGA2
   65    35    66	5 ;       HGA2      CG321       HGA2
   29    36    35	5 ;     CG2RC0     CG2R51      CG321
   29    36    37	5 ;     CG2RC0     CG2R51     CG2R51
   35    36    37	5 ;      CG321     CG2R51     CG2R51
   36    37    38	5 ;     CG2R51     CG2R51     NG2R51
   36    37    67	5 ;     CG2R51     CG2R51      HGR52
   38    37    67	5 ;     NG2R51     CG2R51      HGR52
   39    38    37	5 ;     CG2RC0     NG2R51     CG2R51
   39    38    41	5 ;     CG2RC0     NG2R51      CG321
   37    38    41	5 ;     CG2R51     NG2R51      CG321
   40    39    29	5 ;     CG2R61     CG2RC0     CG2RC0
   40    39    38	5 ;     CG2R61     CG2RC0     NG2R51
   29    39    38	5 ;     CG2RC0     CG2RC0     NG2R51
   25    40    39	5 ;     CG2R61     CG2R61     CG2RC0
   25    40    68	5 ;     CG2R61     CG2R61      HGR61
   39    40    68	5 ;     CG2RC0     CG2R61      HGR61
   38    41    42	5 ;     NG2R51      CG321      CG331
   38    41    69	5 ;     NG2R51      CG321       HGA2
   38    41    70	5 ;     NG2R51      CG321       HGA2
   42    41    69	5 ;      CG331      CG321       HGA2
   42    41    70	5 ;      CG331      CG321       HGA2
   69    41    70	5 ;       HGA2      CG321       HGA2
   41    42    71	5 ;      CG321      CG331       HGA3
   41    42    72	5 ;      CG321      CG331       HGA3
   41    42    73	5 ;      CG321      CG331       HGA3
   71    42    72	5 ;       HGA3      CG331       HGA3
   71    42    73	5 ;       HGA3      CG331       HGA3
   72    42    73	5 ;       HGA3      CG331       HGA3

[ dihedrals ]
;	ai	  aj	ak	  al funct			  c0			c1			  c2			c3			  c4			c5
    2     1     3     5	 9 ;      OG2D1      CG2O1      NG2S1      CG311
    2     1     3     4	 9 ;      OG2D1      CG2O1      NG2S1       HGP1
   25     1     3     5	 9 ;     CG2R61      CG2O1      NG2S1      CG311
   25     1     3     4	 9 ;     CG2R61      CG2O1      NG2S1       HGP1
    2     1    25    26	 9 ;      OG2D1      CG2O1     CG2R61     CG2R61
    2     1    25    40	 9 ;      OG2D1      CG2O1     CG2R61     CG2R61
    3     1    25    26	 9 ;      NG2S1      CG2O1     CG2R61     CG2R61
    3     1    25    40	 9 ;      NG2S1      CG2O1     CG2R61     CG2R61
    1     3     5     6	 9 ;      CG2O1      NG2S1      CG311      CG321
    1     3     5    13	 9 ;      CG2O1      NG2S1      CG311      CG2O5
    1     3     5    43	 9 ;      CG2O1      NG2S1      CG311       HGA1
    4     3     5     6	 9 ;       HGP1      NG2S1      CG311      CG321
    4     3     5    13	 9 ;       HGP1      NG2S1      CG311      CG2O5
    4     3     5    43	 9 ;       HGP1      NG2S1      CG311       HGA1
   13     5     6     7	 9 ;      CG2O5      CG311      CG321     CG2R61
   13     5     6    44	 9 ;      CG2O5      CG311      CG321       HGA2
   13     5     6    45	 9 ;      CG2O5      CG311      CG321       HGA2
    3     5     6     7	 9 ;      NG2S1      CG311      CG321     CG2R61
    3     5     6    44	 9 ;      NG2S1      CG311      CG321       HGA2
    3     5     6    45	 9 ;      NG2S1      CG311      CG321       HGA2
   43     5     6     7	 9 ;       HGA1      CG311      CG321     CG2R61
   43     5     6    44	 9 ;       HGA1      CG311      CG321       HGA2
   43     5     6    45	 9 ;       HGA1      CG311      CG321       HGA2
    6     5    13    15	 9 ;      CG321      CG311      CG2O5      CG324
    6     5    13    14	 9 ;      CG321      CG311      CG2O5      OG2D3
    3     5    13    15	 9 ;      NG2S1      CG311      CG2O5      CG324
    3     5    13    14	 9 ;      NG2S1      CG311      CG2O5      OG2D3
   43     5    13    15	 9 ;       HGA1      CG311      CG2O5      CG324
   43     5    13    14	 9 ;       HGA1      CG311      CG2O5      OG2D3
    5     6     7    12	 9 ;      CG311      CG321     CG2R61     CG2R61
    5     6     7     8	 9 ;      CG311      CG321     CG2R61     CG2R61
   44     6     7    12	 9 ;       HGA2      CG321     CG2R61     CG2R61
   44     6     7     8	 9 ;       HGA2      CG321     CG2R61     CG2R61
   45     6     7    12	 9 ;       HGA2      CG321     CG2R61     CG2R61
   45     6     7     8	 9 ;       HGA2      CG321     CG2R61     CG2R61
    6     7    12    11	 9 ;      CG321     CG2R61     CG2R61     CG2R61
    6     7    12    50	 9 ;      CG321     CG2R61     CG2R61      HGR61
    8     7    12    11	 9 ;     CG2R61     CG2R61     CG2R61     CG2R61
    8     7    12    50	 9 ;     CG2R61     CG2R61     CG2R61      HGR61
   12     7     8     9	 9 ;     CG2R61     CG2R61     CG2R61     CG2R61
   12     7     8    46	 9 ;     CG2R61     CG2R61     CG2R61      HGR61
    6     7     8     9	 9 ;      CG321     CG2R61     CG2R61     CG2R61
    6     7     8    46	 9 ;      CG321     CG2R61     CG2R61      HGR61
    7     8     9    10	 9 ;     CG2R61     CG2R61     CG2R61     CG2R61
    7     8     9    47	 9 ;     CG2R61     CG2R61     CG2R61      HGR61
   46     8     9    10	 9 ;      HGR61     CG2R61     CG2R61     CG2R61
   46     8     9    47	 9 ;      HGR61     CG2R61     CG2R61      HGR61
    8     9    10    11	 9 ;     CG2R61     CG2R61     CG2R61     CG2R61
    8     9    10    48	 9 ;     CG2R61     CG2R61     CG2R61      HGR61
   47     9    10    11	 9 ;      HGR61     CG2R61     CG2R61     CG2R61
   47     9    10    48	 9 ;      HGR61     CG2R61     CG2R61      HGR61
    9    10    11    12	 9 ;     CG2R61     CG2R61     CG2R61     CG2R61
    9    10    11    49	 9 ;     CG2R61     CG2R61     CG2R61      HGR61
   48    10    11    12	 9 ;      HGR61     CG2R61     CG2R61     CG2R61
   48    10    11    49	 9 ;      HGR61     CG2R61     CG2R61      HGR61
   10    11    12     7	 9 ;     CG2R61     CG2R61     CG2R61     CG2R61
   10    11    12    50	 9 ;     CG2R61     CG2R61     CG2R61      HGR61
   49    11    12     7	 9 ;      HGR61     CG2R61     CG2R61     CG2R61
   49    11    12    50	 9 ;      HGR61     CG2R61     CG2R61      HGR61
    5    13    15    16	 9 ;      CG311      CG2O5      CG324      NG3P2
    5    13    15    51	 9 ;      CG311      CG2O5      CG324       HGA2
    5    13    15    52	 9 ;      CG311      CG2O5      CG324       HGA2
   14    13    15    16	 9 ;      OG2D3      CG2O5      CG324      NG3P2
   14    13    15    51	 9 ;      OG2D3      CG2O5      CG324       HGA2
   14    13    15    52	 9 ;      OG2D3      CG2O5      CG324       HGA2
   13    15    16    19	 9 ;      CG2O5      CG324      NG3P2      CG314
   13    15    16    18	 9 ;      CG2O5      CG324      NG3P2       HGP2
   13    15    16    17	 9 ;      CG2O5      CG324      NG3P2       HGP2
   51    15    16    19	 9 ;       HGA2      CG324      NG3P2      CG314
   51    15    16    18	 9 ;       HGA2      CG324      NG3P2       HGP2
   51    15    16    17	 9 ;       HGA2      CG324      NG3P2       HGP2
   52    15    16    19	 9 ;       HGA2      CG324      NG3P2      CG314
   52    15    16    18	 9 ;       HGA2      CG324      NG3P2       HGP2
   52    15    16    17	 9 ;       HGA2      CG324      NG3P2       HGP2
   15    16    19    24	 9 ;      CG324      NG3P2      CG314      CG321
   15    16    19    20	 9 ;      CG324      NG3P2      CG314      CG321
   15    16    19    53	 9 ;      CG324      NG3P2      CG314       HGA1
   18    16    19    24	 9 ;       HGP2      NG3P2      CG314      CG321
   18    16    19    20	 9 ;       HGP2      NG3P2      CG314      CG321
   18    16    19    53	 9 ;       HGP2      NG3P2      CG314       HGA1
   17    16    19    24	 9 ;       HGP2      NG3P2      CG314      CG321
   17    16    19    20	 9 ;       HGP2      NG3P2      CG314      CG321
   17    16    19    53	 9 ;       HGP2      NG3P2      CG314       HGA1
   16    19    24    23	 9 ;      NG3P2      CG314      CG321      CG321
   16    19    24    60	 9 ;      NG3P2      CG314      CG321       HGA2
   16    19    24    61	 9 ;      NG3P2      CG314      CG321       HGA2
   20    19    24    23	 9 ;      CG321      CG314      CG321      CG321
   20    19    24    60	 9 ;      CG321      CG314      CG321       HGA2
   20    19    24    61	 9 ;      CG321      CG314      CG321       HGA2
   53    19    24    23	 9 ;       HGA1      CG314      CG321      CG321
   53    19    24    60	 9 ;       HGA1      CG314      CG321       HGA2
   53    19    24    61	 9 ;       HGA1      CG314      CG321       HGA2
   24    19    20    21	 9 ;      CG321      CG314      CG321      CG321
   24    19    20    54	 9 ;      CG321      CG314      CG321       HGA2
   24    19    20    55	 9 ;      CG321      CG314      CG321       HGA2
   16    19    20    21	 9 ;      NG3P2      CG314      CG321      CG321
   16    19    20    54	 9 ;      NG3P2      CG314      CG321       HGA2
   16    19    20    55	 9 ;      NG3P2      CG314      CG321       HGA2
   53    19    20    21	 9 ;       HGA1      CG314      CG321      CG321
   53    19    20    54	 9 ;       HGA1      CG314      CG321       HGA2
   53    19    20    55	 9 ;       HGA1      CG314      CG321       HGA2
   19    20    21    22	 9 ;      CG314      CG321      CG321     OG3C61
   19    20    21    56	 9 ;      CG314      CG321      CG321       HGA2
   19    20    21    57	 9 ;      CG314      CG321      CG321       HGA2
   54    20    21    22	 9 ;       HGA2      CG321      CG321     OG3C61
   54    20    21    56	 9 ;       HGA2      CG321      CG321       HGA2
   54    20    21    57	 9 ;       HGA2      CG321      CG321       HGA2
   55    20    21    22	 9 ;       HGA2      CG321      CG321     OG3C61
   55    20    21    56	 9 ;       HGA2      CG321      CG321       HGA2
   55    20    21    57	 9 ;       HGA2      CG321      CG321       HGA2
   20    21    22    23	 9 ;      CG321      CG321     OG3C61      CG321
   56    21    22    23	 9 ;       HGA2      CG321     OG3C61      CG321
   57    21    22    23	 9 ;       HGA2      CG321     OG3C61      CG321
   21    22    23    24	 9 ;      CG321     OG3C61      CG321      CG321
   21    22    23    58	 9 ;      CG321     OG3C61      CG321       HGA2
   21    22    23    59	 9 ;      CG321     OG3C61      CG321       HGA2
   22    23    24    19	 9 ;     OG3C61      CG321      CG321      CG314
   22    23    24    60	 9 ;     OG3C61      CG321      CG321       HGA2
   22    23    24    61	 9 ;     OG3C61      CG321      CG321       HGA2
   58    23    24    19	 9 ;       HGA2      CG321      CG321      CG314
   58    23    24    60	 9 ;       HGA2      CG321      CG321       HGA2
   58    23    24    61	 9 ;       HGA2      CG321      CG321       HGA2
   59    23    24    19	 9 ;       HGA2      CG321      CG321      CG314
   59    23    24    60	 9 ;       HGA2      CG321      CG321       HGA2
   59    23    24    61	 9 ;       HGA2      CG321      CG321       HGA2
    1    25    26    27	 9 ;      CG2O1     CG2R61     CG2R61     CG2R61
    1    25    26    62	 9 ;      CG2O1     CG2R61     CG2R61      HGR61
   40    25    26    27	 9 ;     CG2R61     CG2R61     CG2R61     CG2R61
   40    25    26    62	 9 ;     CG2R61     CG2R61     CG2R61      HGR61
    1    25    40    39	 9 ;      CG2O1     CG2R61     CG2R61     CG2RC0
    1    25    40    68	 9 ;      CG2O1     CG2R61     CG2R61      HGR61
   26    25    40    39	 9 ;     CG2R61     CG2R61     CG2R61     CG2RC0
   26    25    40    68	 9 ;     CG2R61     CG2R61     CG2R61      HGR61
   25    26    27    28	 9 ;     CG2R61     CG2R61     CG2R61      NG301
   25    26    27    29	 9 ;     CG2R61     CG2R61     CG2R61     CG2RC0
   62    26    27    28	 9 ;      HGR61     CG2R61     CG2R61      NG301
   62    26    27    29	 9 ;      HGR61     CG2R61     CG2R61     CG2RC0
   26    27    28    31	 9 ;     CG2R61     CG2R61      NG301      CG331
   26    27    28    30	 9 ;     CG2R61     CG2R61      NG301      SG3O2
   29    27    28    31	 9 ;     CG2RC0     CG2R61      NG301      CG331
   29    27    28    30	 9 ;     CG2RC0     CG2R61      NG301      SG3O2
   26    27    29    39	 9 ;     CG2R61     CG2R61     CG2RC0     CG2RC0
   26    27    29    36	 9 ;     CG2R61     CG2R61     CG2RC0     CG2R51
   28    27    29    39	 9 ;      NG301     CG2R61     CG2RC0     CG2RC0
   28    27    29    36	 9 ;      NG301     CG2R61     CG2RC0     CG2R51
   27    28    31    74	 9 ;     CG2R61      NG301      CG331       HGA3
   27    28    31    75	 9 ;     CG2R61      NG301      CG331       HGA3
   27    28    31    76	 9 ;     CG2R61      NG301      CG331       HGA3
   30    28    31    74	 9 ;      SG3O2      NG301      CG331       HGA3
   30    28    31    75	 9 ;      SG3O2      NG301      CG331       HGA3
   30    28    31    76	 9 ;      SG3O2      NG301      CG331       HGA3
   31    28    30    32	 9 ;      CG331      NG301      SG3O2      OG2P1
   31    28    30    33	 9 ;      CG331      NG301      SG3O2      OG2P1
   31    28    30    34	 9 ;      CG331      NG301      SG3O2      CG321
   27    28    30    32	 9 ;     CG2R61      NG301      SG3O2      OG2P1
   27    28    30    33	 9 ;     CG2R61      NG301      SG3O2      OG2P1
   27    28    30    34	 9 ;     CG2R61      NG301      SG3O2      CG321
   27    29    39    40	 9 ;     CG2R61     CG2RC0     CG2RC0     CG2R61
   27    29    39    38	 9 ;     CG2R61     CG2RC0     CG2RC0     NG2R51
   36    29    39    40	 9 ;     CG2R51     CG2RC0     CG2RC0     CG2R61
   36    29    39    38	 9 ;     CG2R51     CG2RC0     CG2RC0     NG2R51
   27    29    36    35	 9 ;     CG2R61     CG2RC0     CG2R51      CG321
   27    29    36    37	 9 ;     CG2R61     CG2RC0     CG2R51     CG2R51
   39    29    36    35	 9 ;     CG2RC0     CG2RC0     CG2R51      CG321
   39    29    36    37	 9 ;     CG2RC0     CG2RC0     CG2R51     CG2R51
   32    30    34    35	 9 ;      OG2P1      SG3O2      CG321      CG321
   32    30    34    63	 9 ;      OG2P1      SG3O2      CG321       HGA2
   32    30    34    64	 9 ;      OG2P1      SG3O2      CG321       HGA2
   28    30    34    35	 9 ;      NG301      SG3O2      CG321      CG321
   28    30    34    63	 9 ;      NG301      SG3O2      CG321       HGA2
   28    30    34    64	 9 ;      NG301      SG3O2      CG321       HGA2
   33    30    34    35	 9 ;      OG2P1      SG3O2      CG321      CG321
   33    30    34    63	 9 ;      OG2P1      SG3O2      CG321       HGA2
   33    30    34    64	 9 ;      OG2P1      SG3O2      CG321       HGA2
   30    34    35    36	 9 ;      SG3O2      CG321      CG321     CG2R51
   30    34    35    65	 9 ;      SG3O2      CG321      CG321       HGA2
   30    34    35    66	 9 ;      SG3O2      CG321      CG321       HGA2
   63    34    35    36	 9 ;       HGA2      CG321      CG321     CG2R51
   63    34    35    65	 9 ;       HGA2      CG321      CG321       HGA2
   63    34    35    66	 9 ;       HGA2      CG321      CG321       HGA2
   64    34    35    36	 9 ;       HGA2      CG321      CG321     CG2R51
   64    34    35    65	 9 ;       HGA2      CG321      CG321       HGA2
   64    34    35    66	 9 ;       HGA2      CG321      CG321       HGA2
   34    35    36    29	 9 ;      CG321      CG321     CG2R51     CG2RC0
   34    35    36    37	 9 ;      CG321      CG321     CG2R51     CG2R51
   65    35    36    29	 9 ;       HGA2      CG321     CG2R51     CG2RC0
   65    35    36    37	 9 ;       HGA2      CG321     CG2R51     CG2R51
   66    35    36    29	 9 ;       HGA2      CG321     CG2R51     CG2RC0
   66    35    36    37	 9 ;       HGA2      CG321     CG2R51     CG2R51
   29    36    37    38	 9 ;     CG2RC0     CG2R51     CG2R51     NG2R51
   29    36    37    67	 9 ;     CG2RC0     CG2R51     CG2R51      HGR52
   35    36    37    38	 9 ;      CG321     CG2R51     CG2R51     NG2R51
   35    36    37    67	 9 ;      CG321     CG2R51     CG2R51      HGR52
   36    37    38    39	 9 ;     CG2R51     CG2R51     NG2R51     CG2RC0
   36    37    38    41	 9 ;     CG2R51     CG2R51     NG2R51      CG321
   67    37    38    39	 9 ;      HGR52     CG2R51     NG2R51     CG2RC0
   67    37    38    41	 9 ;      HGR52     CG2R51     NG2R51      CG321
   37    38    39    40	 9 ;     CG2R51     NG2R51     CG2RC0     CG2R61
   37    38    39    29	 9 ;     CG2R51     NG2R51     CG2RC0     CG2RC0
   41    38    39    40	 9 ;      CG321     NG2R51     CG2RC0     CG2R61
   41    38    39    29	 9 ;      CG321     NG2R51     CG2RC0     CG2RC0
   39    38    41    42	 9 ;     CG2RC0     NG2R51      CG321      CG331
   39    38    41    69	 9 ;     CG2RC0     NG2R51      CG321       HGA2
   39    38    41    70	 9 ;     CG2RC0     NG2R51      CG321       HGA2
   37    38    41    42	 9 ;     CG2R51     NG2R51      CG321      CG331
   37    38    41    69	 9 ;     CG2R51     NG2R51      CG321       HGA2
   37    38    41    70	 9 ;     CG2R51     NG2R51      CG321       HGA2
   29    39    40    25	 9 ;     CG2RC0     CG2RC0     CG2R61     CG2R61
   29    39    40    68	 9 ;     CG2RC0     CG2RC0     CG2R61      HGR61
   38    39    40    25	 9 ;     NG2R51     CG2RC0     CG2R61     CG2R61
   38    39    40    68	 9 ;     NG2R51     CG2RC0     CG2R61      HGR61
   38    41    42    71	 9 ;     NG2R51      CG321      CG331       HGA3
   38    41    42    72	 9 ;     NG2R51      CG321      CG331       HGA3
   38    41    42    73	 9 ;     NG2R51      CG321      CG331       HGA3
   69    41    42    71	 9 ;       HGA2      CG321      CG331       HGA3
   69    41    42    72	 9 ;       HGA2      CG321      CG331       HGA3
   69    41    42    73	 9 ;       HGA2      CG321      CG331       HGA3
   70    41    42    71	 9 ;       HGA2      CG321      CG331       HGA3
   70    41    42    72	 9 ;       HGA2      CG321      CG331       HGA3
   70    41    42    73	 9 ;       HGA2      CG321      CG331       HGA3

[ dihedrals ]
;	ai	  aj	ak	  al funct			  c0			c1			  c2			c3
    1    25     3     2	 2
   13     5    15    14	 2

