Good ROcking Metal Altar for Chronical Sinners
   76
    1LIG     C1    1  -1.495   0.368  -1.557
    1LIG     O1    2  -1.463   0.363  -1.675
    1LIG     N1    3  -1.428   0.299  -1.455
    1LIG     H1    4  -1.467   0.305  -1.361
    1LIG     C2    5  -1.306   0.222  -1.485
    1LIG     C3    6  -1.320   0.124  -1.606
    1LIG     C4    7  -1.282  -0.017  -1.566
    1LIG     C5    8  -1.379  -0.112  -1.533
    1LIG     C6    9  -1.344  -0.227  -1.461
    1LIG     C7   10  -1.211  -0.249  -1.424
    1LIG     C8   11  -1.112  -0.160  -1.466
    1LIG     C9   12  -1.147  -0.047  -1.539
    1LIG    C10   13  -1.174   0.305  -1.482
    1LIG     O2   14  -1.106   0.315  -1.380
    1LIG    C11   15  -1.134   0.394  -1.599
    1LIG     N2   16  -1.143   0.544  -1.567
    1LIG     H2   17  -1.186   0.554  -1.474
    1LIG     H3   18  -1.045   0.573  -1.554
    1LIG    C12   19  -1.206   0.649  -1.658
    1LIG    C13   20  -1.325   0.721  -1.597
    1LIG    C14   21  -1.395   0.808  -1.701
    1LIG     O3   22  -1.424   0.731  -1.817
    1LIG    C15   23  -1.307   0.689  -1.886
    1LIG    C16   24  -1.230   0.591  -1.798
    1LIG    C17   25  -1.613   0.449  -1.520
    1LIG    C18   26  -1.649   0.553  -1.605
    1LIG    C19   27  -1.750   0.641  -1.566
    1LIG     N3   28  -1.772   0.763  -1.636
    1LIG    C20   29  -1.821   0.618  -1.446
    1LIG      S   30  -1.759   0.906  -1.546
    1LIG    C21   31  -1.782   0.769  -1.781
    1LIG     O4   32  -1.740   1.015  -1.638
    1LIG     O5   33  -1.663   0.885  -1.438
    1LIG    C22   34  -1.922   0.926  -1.473
    1LIG    C23   35  -2.003   0.798  -1.456
    1LIG    C24   36  -1.931   0.687  -1.388
    1LIG    C25   37  -1.953   0.630  -1.265
    1LIG     N4   38  -1.859   0.530  -1.246
    1LIG    C26   39  -1.780   0.517  -1.359
    1LIG    C27   40  -1.674   0.431  -1.393
    1LIG    C28   41  -1.849   0.451  -1.124
    1LIG    C29   42  -1.979   0.378  -1.091
    1LIG     HC   43  -1.295   0.155  -1.399
    1LIG    HC2   44  -1.255   0.158  -1.687
    1LIG    HC3   45  -1.424   0.125  -1.640
    1LIG    HC1   46  -1.482  -0.097  -1.563
    1LIG    HC4   47  -1.419  -0.300  -1.434
    1LIG    HC5   48  -1.185  -0.334  -1.363
    1LIG    HC6   49  -1.009  -0.179  -1.441
    1LIG    HC7   50  -1.069   0.019  -1.576
    1LIG    HC8   51  -1.199   0.372  -1.683
    1LIG    HC9   52  -1.031   0.370  -1.627
    1LIG   HC10   53  -1.129   0.725  -1.672
    1LIG   HC11   54  -1.396   0.648  -1.558
    1LIG   HC12   55  -1.290   0.785  -1.515
    1LIG   HC13   56  -1.330   0.891  -1.729
    1LIG   HC14   57  -1.488   0.847  -1.660
    1LIG   HC15   58  -1.335   0.640  -1.979
    1LIG   HC16   59  -1.244   0.775  -1.907
    1LIG   HC17   60  -1.288   0.499  -1.788
    1LIG   HC18   61  -1.134   0.569  -1.844
    1LIG   HC19   62  -1.599   0.566  -1.700
    1LIG   HC20   63  -1.909   0.970  -1.374
    1LIG   HC21   64  -1.979   0.995  -1.535
    1LIG   HC22   65  -2.033   0.764  -1.555
    1LIG   HC23   66  -2.093   0.822  -1.399
    1LIG   HC24   67  -2.030   0.658  -1.194
    1LIG   HC25   68  -1.639   0.355  -1.325
    1LIG   HC26   69  -1.825   0.518  -1.042
    1LIG   HC27   70  -1.769   0.378  -1.136
    1LIG   HC28   71  -1.965   0.321  -0.999
    1LIG   HC29   72  -2.004   0.310  -1.173
    1LIG   HC30   73  -2.059   0.450  -1.078
    1LIG   HC31   74  -1.798   0.668  -1.821
    1LIG   HC32   75  -1.866   0.832  -1.810
    1LIG   HC33   76  -1.690   0.809  -1.823
   0.00000   0.00000   0.00000
