; Created by cgenff_charmm2gmx.py

[ moleculetype ]
; Name			   nrexcl
LIG				 3

[ atoms ]
;	 nr		  type	resnr residue  atom   cgnr	   charge		mass  typeB    chargeB		massB
; residue	 1 LIG rtp LIG q	qsum
     1     CG2R67      1    LIG     C1      1     -0.026     12.011   ;
     2     CG2R61      1    LIG     C2      2     -0.178     12.011   ;
     3     CG2R61      1    LIG     C3      3     -0.123     12.011   ;
     4     CG2R61      1    LIG     C4      4      0.102     12.011   ;
     5     OG3R60      1    LIG     O1      5     -0.292     15.999   ;
     6     CG2R61      1    LIG     C5      6      0.096     12.011   ;
     7     CG2R61      1    LIG     C6      7     -0.118     12.011   ;
     8     CG2R61      1    LIG     C7      8     -0.182     12.011   ;
     9     CG2R61      1    LIG     C8      9      0.222     12.011   ;
    10     CG2R61      1    LIG     C9     10     -0.117     12.011   ;
    11     CG2R61      1    LIG    C10     11     -0.106     12.011   ;
    12     CG3C50      1    LIG    C11     12      1.097     12.011   ;
    13     NG3C51      1    LIG     N1     13     -0.874     14.007   ;
    14       HGP1      1    LIG     HN     14      0.233      1.008   ;
    15     CG3C51      1    LIG    C12     15      0.318     12.011   ;
    16     OG3C51      1    LIG     O2     16     -0.328     15.999   ;
    17     CG3C52      1    LIG    C13     17     -0.151     12.011   ;
    18      NG321      1    LIG     N2     18     -1.079     14.007   ;
    19     CG2R61      1    LIG    C14     19     -0.112     12.011   ;
    20     CG2R61      1    LIG    C15     20     -0.115     12.011   ;
    21     HGPAM2      1    LIG     H1     21      0.454      1.008   ;
    22     HGPAM2      1    LIG     H2     22      0.454      1.008   ;
    23     CG2R67      1    LIG    C16     23      0.170     12.011   ;
    24     CG2R61      1    LIG    C17     24     -0.156     12.011   ;
    25     CG2R61      1    LIG    C18     25      0.238     12.011   ;
    26     CG2R61      1    LIG    C19     26     -0.154     12.011   ;
    27     CG2R61      1    LIG    C20     27     -0.146     12.011   ;
    28     CG2R66      1    LIG    C21     28      0.103     12.011   ;
    29       FGR1      1    LIG      F     29     -0.230     18.998   ;
    30      OG301      1    LIG     O3     30     -0.383     15.999   ;
    31      CG331      1    LIG    C22     31     -0.094     12.011   ;
    32      OG301      1    LIG     O4     32     -0.383     15.999   ;
    33      CG331      1    LIG    C23     33     -0.094     12.011   ;
    34      HGR61      1    LIG     HC     34      0.116      1.008   ;
    35      HGR61      1    LIG    HC1     35      0.116      1.008   ;
    36      HGR61      1    LIG    HC2     36      0.116      1.008   ;
    37      HGR61      1    LIG    HC3     37      0.116      1.008   ;
    38       HGA2      1    LIG    HC4     38      0.090      1.008   ;
    39       HGA2      1    LIG    HC5     39      0.090      1.008   ;
    40      HGR61      1    LIG    HC6     40      0.116      1.008   ;
    41      HGR61      1    LIG    HC7     41      0.116      1.008   ;
    42      HGR61      1    LIG    HC8     42      0.116      1.008   ;
    43      HGR61      1    LIG    HC9     43      0.116      1.008   ;
    44      HGR62      1    LIG   HC10     44      0.190      1.008   ;
    45       HGA3      1    LIG   HC11     45      0.090      1.008   ;
    46       HGA3      1    LIG   HC12     46      0.090      1.008   ;
    47       HGA3      1    LIG   HC13     47      0.090      1.008   ;
    48       HGA3      1    LIG   HC14     48      0.090      1.008   ;
    49       HGA3      1    LIG   HC15     49      0.090      1.008   ;
    50       HGA3      1    LIG   HC16     50      0.090      1.008   ;
    51       HGA1      1    LIG    H21     51      0.116      1.008   ;

[ bonds ]
;	ai	  aj funct			  c0			c1			  c2			c3
    1    20	 1 ;      CG2R67     CG2R61
    1    23	 1 ;      CG2R67     CG2R67
    1     2	 1 ;      CG2R67     CG2R61
    2     3	 1 ;      CG2R61     CG2R61
    2    34	 1 ;      CG2R61      HGR61
    3     4	 1 ;      CG2R61     CG2R61
    3    12	 1 ;      CG2R61     CG3C50
    4    19	 1 ;      CG2R61     CG2R61
    4     5	 1 ;      CG2R61     OG3R60
    5     6	 1 ;      OG3R60     CG2R61
    6    11	 1 ;      CG2R61     CG2R61
    6     7	 1 ;      CG2R61     CG2R61
    7    12	 1 ;      CG2R61     CG3C50
    7     8	 1 ;      CG2R61     CG2R61
    8     9	 1 ;      CG2R61     CG2R61
    8    35	 1 ;      CG2R61      HGR61
    9    10	 1 ;      CG2R61     CG2R61
    9    32	 1 ;      CG2R61      OG301
   10    11	 1 ;      CG2R61     CG2R61
   10    36	 1 ;      CG2R61      HGR61
   11    37	 1 ;      CG2R61      HGR61
   12    13	 1 ;      CG3C50     NG3C51
   12    17	 1 ;      CG3C50     CG3C52
   13    14	 1 ;      NG3C51       HGP1
   13    15	 1 ;      NG3C51     CG3C51
   15    18	 1 ;      CG3C51      NG321
   15    16	 1 ;      CG3C51     OG3C51
   15    51	 1 ;      CG3C51       HGA1
   16    17	 1 ;      OG3C51     CG3C52
   17    38	 1 ;      CG3C52       HGA2
   17    39	 1 ;      CG3C52       HGA2
   18    22	 1 ;       NG321     HGPAM2
   18    21	 1 ;       NG321     HGPAM2
   19    20	 1 ;      CG2R61     CG2R61
   19    40	 1 ;      CG2R61      HGR61
   20    41	 1 ;      CG2R61      HGR61
   23    28	 1 ;      CG2R67     CG2R66
   23    24	 1 ;      CG2R67     CG2R61
   24    25	 1 ;      CG2R61     CG2R61
   24    42	 1 ;      CG2R61      HGR61
   25    26	 1 ;      CG2R61     CG2R61
   25    30	 1 ;      CG2R61      OG301
   26    27	 1 ;      CG2R61     CG2R61
   26    43	 1 ;      CG2R61      HGR61
   27    28	 1 ;      CG2R61     CG2R66
   27    44	 1 ;      CG2R61      HGR62
   28    29	 1 ;      CG2R66       FGR1
   30    31	 1 ;       OG301      CG331
   31    45	 1 ;       CG331       HGA3
   31    46	 1 ;       CG331       HGA3
   31    47	 1 ;       CG331       HGA3
   32    33	 1 ;       OG301      CG331
   33    48	 1 ;       CG331       HGA3
   33    49	 1 ;       CG331       HGA3
   33    50	 1 ;       CG331       HGA3

[ pairs ]
;	ai	  aj funct			  c0			c1			  c2			c3
    1     4	 1
    1    12	 1
    1    40	 1
    1    29	 1
    1    27	 1
    1    25	 1
    1    42	 1
    2    19	 1
    2    41	 1
    2    28	 1
    2    24	 1
    2     5	 1
    2    13	 1
    2     7	 1
    2    17	 1
    3    20	 1
    3    23	 1
    3    40	 1
    3     6	 1
    3     8	 1
    3    14	 1
    3    15	 1
    3    16	 1
    3    38	 1
    3    39	 1
    4    34	 1
    4    13	 1
    4     7	 1
    4    17	 1
    4    11	 1
    4    41	 1
    5    12	 1
    5    20	 1
    5    40	 1
    5    10	 1
    5    37	 1
    5     8	 1
    6    19	 1
    6    13	 1
    6    17	 1
    6     9	 1
    6    35	 1
    6    36	 1
    7    10	 1
    7    37	 1
    7    32	 1
    7    14	 1
    7    15	 1
    7    16	 1
    7    38	 1
    7    39	 1
    8    11	 1
    8    13	 1
    8    17	 1
    8    36	 1
    8    33	 1
    9    12	 1
    9    37	 1
    9    48	 1
    9    49	 1
    9    50	 1
   10    35	 1
   10    33	 1
   11    12	 1
   11    32	 1
   12    34	 1
   12    19	 1
   12    35	 1
   12    18	 1
   12    51	 1
   13    38	 1
   13    39	 1
   13    22	 1
   13    21	 1
   14    17	 1
   14    18	 1
   14    16	 1
   14    51	 1
   15    38	 1
   15    39	 1
   16    22	 1
   16    21	 1
   17    18	 1
   17    51	 1
   19    23	 1
   20    28	 1
   20    24	 1
   20    34	 1
   21    51	 1
   22    51	 1
   23    41	 1
   23    34	 1
   23    26	 1
   23    30	 1
   23    44	 1
   24    29	 1
   24    27	 1
   24    43	 1
   24    31	 1
   25    28	 1
   25    44	 1
   25    45	 1
   25    46	 1
   25    47	 1
   26    42	 1
   26    31	 1
   26    29	 1
   27    30	 1
   28    42	 1
   28    43	 1
   29    44	 1
   30    42	 1
   30    43	 1
   32    35	 1
   32    36	 1
   36    37	 1
   40    41	 1
   43    44	 1

[ angles ]
;	ai	  aj	ak funct			c0			  c1			c2			  c3
   20     1    23	5 ;     CG2R61     CG2R67     CG2R67
   20     1     2	5 ;     CG2R61     CG2R67     CG2R61
   23     1     2	5 ;     CG2R67     CG2R67     CG2R61
    1     2     3	5 ;     CG2R67     CG2R61     CG2R61
    1     2    34	5 ;     CG2R67     CG2R61      HGR61
    3     2    34	5 ;     CG2R61     CG2R61      HGR61
    4     3     2	5 ;     CG2R61     CG2R61     CG2R61
    4     3    12	5 ;     CG2R61     CG2R61     CG3C50
    2     3    12	5 ;     CG2R61     CG2R61     CG3C50
   19     4     5	5 ;     CG2R61     CG2R61     OG3R60
   19     4     3	5 ;     CG2R61     CG2R61     CG2R61
    5     4     3	5 ;     OG3R60     CG2R61     CG2R61
    4     5     6	5 ;     CG2R61     OG3R60     CG2R61
    5     6    11	5 ;     OG3R60     CG2R61     CG2R61
    5     6     7	5 ;     OG3R60     CG2R61     CG2R61
   11     6     7	5 ;     CG2R61     CG2R61     CG2R61
    6     7    12	5 ;     CG2R61     CG2R61     CG3C50
    6     7     8	5 ;     CG2R61     CG2R61     CG2R61
   12     7     8	5 ;     CG3C50     CG2R61     CG2R61
    7     8     9	5 ;     CG2R61     CG2R61     CG2R61
    7     8    35	5 ;     CG2R61     CG2R61      HGR61
    9     8    35	5 ;     CG2R61     CG2R61      HGR61
   10     9     8	5 ;     CG2R61     CG2R61     CG2R61
   10     9    32	5 ;     CG2R61     CG2R61      OG301
    8     9    32	5 ;     CG2R61     CG2R61      OG301
   11    10     9	5 ;     CG2R61     CG2R61     CG2R61
   11    10    36	5 ;     CG2R61     CG2R61      HGR61
    9    10    36	5 ;     CG2R61     CG2R61      HGR61
    6    11    10	5 ;     CG2R61     CG2R61     CG2R61
    6    11    37	5 ;     CG2R61     CG2R61      HGR61
   10    11    37	5 ;     CG2R61     CG2R61      HGR61
    3    12    13	5 ;     CG2R61     CG3C50     NG3C51
    3    12     7	5 ;     CG2R61     CG3C50     CG2R61
    3    12    17	5 ;     CG2R61     CG3C50     CG3C52
   13    12     7	5 ;     NG3C51     CG3C50     CG2R61
   13    12    17	5 ;     NG3C51     CG3C50     CG3C52
    7    12    17	5 ;     CG2R61     CG3C50     CG3C52
   14    13    12	5 ;       HGP1     NG3C51     CG3C50
   14    13    15	5 ;       HGP1     NG3C51     CG3C51
   12    13    15	5 ;     CG3C50     NG3C51     CG3C51
   13    15    18	5 ;     NG3C51     CG3C51      NG321
   13    15    16	5 ;     NG3C51     CG3C51     OG3C51
   13    15    51	5 ;     NG3C51     CG3C51       HGA1
   18    15    16	5 ;      NG321     CG3C51     OG3C51
   18    15    51	5 ;      NG321     CG3C51       HGA1
   16    15    51	5 ;     OG3C51     CG3C51       HGA1
   15    16    17	5 ;     CG3C51     OG3C51     CG3C52
   12    17    16	5 ;     CG3C50     CG3C52     OG3C51
   12    17    38	5 ;     CG3C50     CG3C52       HGA2
   12    17    39	5 ;     CG3C50     CG3C52       HGA2
   16    17    38	5 ;     OG3C51     CG3C52       HGA2
   16    17    39	5 ;     OG3C51     CG3C52       HGA2
   38    17    39	5 ;       HGA2     CG3C52       HGA2
   22    18    15	5 ;     HGPAM2      NG321     CG3C51
   22    18    21	5 ;     HGPAM2      NG321     HGPAM2
   15    18    21	5 ;     CG3C51      NG321     HGPAM2
   20    19     4	5 ;     CG2R61     CG2R61     CG2R61
   20    19    40	5 ;     CG2R61     CG2R61      HGR61
    4    19    40	5 ;     CG2R61     CG2R61      HGR61
   19    20     1	5 ;     CG2R61     CG2R61     CG2R67
   19    20    41	5 ;     CG2R61     CG2R61      HGR61
    1    20    41	5 ;     CG2R67     CG2R61      HGR61
   28    23     1	5 ;     CG2R66     CG2R67     CG2R67
   28    23    24	5 ;     CG2R66     CG2R67     CG2R61
    1    23    24	5 ;     CG2R67     CG2R67     CG2R61
   23    24    25	5 ;     CG2R67     CG2R61     CG2R61
   23    24    42	5 ;     CG2R67     CG2R61      HGR61
   25    24    42	5 ;     CG2R61     CG2R61      HGR61
   26    25    24	5 ;     CG2R61     CG2R61     CG2R61
   26    25    30	5 ;     CG2R61     CG2R61      OG301
   24    25    30	5 ;     CG2R61     CG2R61      OG301
   27    26    25	5 ;     CG2R61     CG2R61     CG2R61
   27    26    43	5 ;     CG2R61     CG2R61      HGR61
   25    26    43	5 ;     CG2R61     CG2R61      HGR61
   28    27    26	5 ;     CG2R66     CG2R61     CG2R61
   28    27    44	5 ;     CG2R66     CG2R61      HGR62
   26    27    44	5 ;     CG2R61     CG2R61      HGR62
   29    28    27	5 ;       FGR1     CG2R66     CG2R61
   29    28    23	5 ;       FGR1     CG2R66     CG2R67
   27    28    23	5 ;     CG2R61     CG2R66     CG2R67
   25    30    31	5 ;     CG2R61      OG301      CG331
   30    31    45	5 ;      OG301      CG331       HGA3
   30    31    46	5 ;      OG301      CG331       HGA3
   30    31    47	5 ;      OG301      CG331       HGA3
   45    31    46	5 ;       HGA3      CG331       HGA3
   45    31    47	5 ;       HGA3      CG331       HGA3
   46    31    47	5 ;       HGA3      CG331       HGA3
    9    32    33	5 ;     CG2R61      OG301      CG331
   32    33    48	5 ;      OG301      CG331       HGA3
   32    33    49	5 ;      OG301      CG331       HGA3
   32    33    50	5 ;      OG301      CG331       HGA3
   48    33    49	5 ;       HGA3      CG331       HGA3
   48    33    50	5 ;       HGA3      CG331       HGA3
   49    33    50	5 ;       HGA3      CG331       HGA3

[ dihedrals ]
;	ai	  aj	ak	  al funct			  c0			c1			  c2			c3			  c4			c5
   23     1    20    19	 9 ;     CG2R67     CG2R67     CG2R61     CG2R61
   23     1    20    41	 9 ;     CG2R67     CG2R67     CG2R61      HGR61
    2     1    20    19	 9 ;     CG2R61     CG2R67     CG2R61     CG2R61
    2     1    20    41	 9 ;     CG2R61     CG2R67     CG2R61      HGR61
   20     1    23    28	 9 ;     CG2R61     CG2R67     CG2R67     CG2R66
   20     1    23    24	 9 ;     CG2R61     CG2R67     CG2R67     CG2R61
    2     1    23    28	 9 ;     CG2R61     CG2R67     CG2R67     CG2R66
    2     1    23    24	 9 ;     CG2R61     CG2R67     CG2R67     CG2R61
   20     1     2     3	 9 ;     CG2R61     CG2R67     CG2R61     CG2R61
   20     1     2    34	 9 ;     CG2R61     CG2R67     CG2R61      HGR61
   23     1     2     3	 9 ;     CG2R67     CG2R67     CG2R61     CG2R61
   23     1     2    34	 9 ;     CG2R67     CG2R67     CG2R61      HGR61
    1     2     3     4	 9 ;     CG2R67     CG2R61     CG2R61     CG2R61
    1     2     3    12	 9 ;     CG2R67     CG2R61     CG2R61     CG3C50
   34     2     3     4	 9 ;      HGR61     CG2R61     CG2R61     CG2R61
   34     2     3    12	 9 ;      HGR61     CG2R61     CG2R61     CG3C50
    2     3     4    19	 9 ;     CG2R61     CG2R61     CG2R61     CG2R61
    2     3     4     5	 9 ;     CG2R61     CG2R61     CG2R61     OG3R60
   12     3     4    19	 9 ;     CG3C50     CG2R61     CG2R61     CG2R61
   12     3     4     5	 9 ;     CG3C50     CG2R61     CG2R61     OG3R60
    4     3    12    13	 9 ;     CG2R61     CG2R61     CG3C50     NG3C51
    4     3    12     7	 9 ;     CG2R61     CG2R61     CG3C50     CG2R61
    4     3    12    17	 9 ;     CG2R61     CG2R61     CG3C50     CG3C52
    2     3    12    13	 9 ;     CG2R61     CG2R61     CG3C50     NG3C51
    2     3    12     7	 9 ;     CG2R61     CG2R61     CG3C50     CG2R61
    2     3    12    17	 9 ;     CG2R61     CG2R61     CG3C50     CG3C52
    5     4    19    20	 9 ;     OG3R60     CG2R61     CG2R61     CG2R61
    5     4    19    40	 9 ;     OG3R60     CG2R61     CG2R61      HGR61
    3     4    19    20	 9 ;     CG2R61     CG2R61     CG2R61     CG2R61
    3     4    19    40	 9 ;     CG2R61     CG2R61     CG2R61      HGR61
   19     4     5     6	 9 ;     CG2R61     CG2R61     OG3R60     CG2R61
    3     4     5     6	 9 ;     CG2R61     CG2R61     OG3R60     CG2R61
    4     5     6    11	 9 ;     CG2R61     OG3R60     CG2R61     CG2R61
    4     5     6     7	 9 ;     CG2R61     OG3R60     CG2R61     CG2R61
    5     6    11    10	 9 ;     OG3R60     CG2R61     CG2R61     CG2R61
    5     6    11    37	 9 ;     OG3R60     CG2R61     CG2R61      HGR61
    7     6    11    10	 9 ;     CG2R61     CG2R61     CG2R61     CG2R61
    7     6    11    37	 9 ;     CG2R61     CG2R61     CG2R61      HGR61
    5     6     7    12	 9 ;     OG3R60     CG2R61     CG2R61     CG3C50
    5     6     7     8	 9 ;     OG3R60     CG2R61     CG2R61     CG2R61
   11     6     7    12	 9 ;     CG2R61     CG2R61     CG2R61     CG3C50
   11     6     7     8	 9 ;     CG2R61     CG2R61     CG2R61     CG2R61
    6     7    12     3	 9 ;     CG2R61     CG2R61     CG3C50     CG2R61
    6     7    12    13	 9 ;     CG2R61     CG2R61     CG3C50     NG3C51
    6     7    12    17	 9 ;     CG2R61     CG2R61     CG3C50     CG3C52
    8     7    12     3	 9 ;     CG2R61     CG2R61     CG3C50     CG2R61
    8     7    12    13	 9 ;     CG2R61     CG2R61     CG3C50     NG3C51
    8     7    12    17	 9 ;     CG2R61     CG2R61     CG3C50     CG3C52
    6     7     8     9	 9 ;     CG2R61     CG2R61     CG2R61     CG2R61
    6     7     8    35	 9 ;     CG2R61     CG2R61     CG2R61      HGR61
   12     7     8     9	 9 ;     CG3C50     CG2R61     CG2R61     CG2R61
   12     7     8    35	 9 ;     CG3C50     CG2R61     CG2R61      HGR61
    7     8     9    10	 9 ;     CG2R61     CG2R61     CG2R61     CG2R61
    7     8     9    32	 9 ;     CG2R61     CG2R61     CG2R61      OG301
   35     8     9    10	 9 ;      HGR61     CG2R61     CG2R61     CG2R61
   35     8     9    32	 9 ;      HGR61     CG2R61     CG2R61      OG301
    8     9    10    11	 9 ;     CG2R61     CG2R61     CG2R61     CG2R61
    8     9    10    36	 9 ;     CG2R61     CG2R61     CG2R61      HGR61
   32     9    10    11	 9 ;      OG301     CG2R61     CG2R61     CG2R61
   32     9    10    36	 9 ;      OG301     CG2R61     CG2R61      HGR61
   10     9    32    33	 9 ;     CG2R61     CG2R61      OG301      CG331
    8     9    32    33	 9 ;     CG2R61     CG2R61      OG301      CG331
    9    10    11     6	 9 ;     CG2R61     CG2R61     CG2R61     CG2R61
    9    10    11    37	 9 ;     CG2R61     CG2R61     CG2R61      HGR61
   36    10    11     6	 9 ;      HGR61     CG2R61     CG2R61     CG2R61
   36    10    11    37	 9 ;      HGR61     CG2R61     CG2R61      HGR61
    3    12    13    14	 9 ;     CG2R61     CG3C50     NG3C51       HGP1
    3    12    13    15	 9 ;     CG2R61     CG3C50     NG3C51     CG3C51
    7    12    13    14	 9 ;     CG2R61     CG3C50     NG3C51       HGP1
    7    12    13    15	 9 ;     CG2R61     CG3C50     NG3C51     CG3C51
   17    12    13    14	 9 ;     CG3C52     CG3C50     NG3C51       HGP1
   17    12    13    15	 9 ;     CG3C52     CG3C50     NG3C51     CG3C51
    3    12    17    16	 9 ;     CG2R61     CG3C50     CG3C52     OG3C51
    3    12    17    38	 9 ;     CG2R61     CG3C50     CG3C52       HGA2
    3    12    17    39	 9 ;     CG2R61     CG3C50     CG3C52       HGA2
   13    12    17    16	 9 ;     NG3C51     CG3C50     CG3C52     OG3C51
   13    12    17    38	 9 ;     NG3C51     CG3C50     CG3C52       HGA2
   13    12    17    39	 9 ;     NG3C51     CG3C50     CG3C52       HGA2
    7    12    17    16	 9 ;     CG2R61     CG3C50     CG3C52     OG3C51
    7    12    17    38	 9 ;     CG2R61     CG3C50     CG3C52       HGA2
    7    12    17    39	 9 ;     CG2R61     CG3C50     CG3C52       HGA2
   14    13    15    18	 9 ;       HGP1     NG3C51     CG3C51      NG321
   14    13    15    16	 9 ;       HGP1     NG3C51     CG3C51     OG3C51
   14    13    15    51	 9 ;       HGP1     NG3C51     CG3C51       HGA1
   12    13    15    18	 9 ;     CG3C50     NG3C51     CG3C51      NG321
   12    13    15    16	 9 ;     CG3C50     NG3C51     CG3C51     OG3C51
   12    13    15    51	 9 ;     CG3C50     NG3C51     CG3C51       HGA1
   13    15    18    22	 9 ;     NG3C51     CG3C51      NG321     HGPAM2
   13    15    18    21	 9 ;     NG3C51     CG3C51      NG321     HGPAM2
   16    15    18    22	 9 ;     OG3C51     CG3C51      NG321     HGPAM2
   16    15    18    21	 9 ;     OG3C51     CG3C51      NG321     HGPAM2
   51    15    18    22	 9 ;       HGA1     CG3C51      NG321     HGPAM2
   51    15    18    21	 9 ;       HGA1     CG3C51      NG321     HGPAM2
   13    15    16    17	 9 ;     NG3C51     CG3C51     OG3C51     CG3C52
   18    15    16    17	 9 ;      NG321     CG3C51     OG3C51     CG3C52
   51    15    16    17	 9 ;       HGA1     CG3C51     OG3C51     CG3C52
   15    16    17    12	 9 ;     CG3C51     OG3C51     CG3C52     CG3C50
   15    16    17    38	 9 ;     CG3C51     OG3C51     CG3C52       HGA2
   15    16    17    39	 9 ;     CG3C51     OG3C51     CG3C52       HGA2
    4    19    20     1	 9 ;     CG2R61     CG2R61     CG2R61     CG2R67
    4    19    20    41	 9 ;     CG2R61     CG2R61     CG2R61      HGR61
   40    19    20     1	 9 ;      HGR61     CG2R61     CG2R61     CG2R67
   40    19    20    41	 9 ;      HGR61     CG2R61     CG2R61      HGR61
    1    23    28    29	 9 ;     CG2R67     CG2R67     CG2R66       FGR1
    1    23    28    27	 9 ;     CG2R67     CG2R67     CG2R66     CG2R61
   24    23    28    29	 9 ;     CG2R61     CG2R67     CG2R66       FGR1
   24    23    28    27	 9 ;     CG2R61     CG2R67     CG2R66     CG2R61
   28    23    24    25	 9 ;     CG2R66     CG2R67     CG2R61     CG2R61
   28    23    24    42	 9 ;     CG2R66     CG2R67     CG2R61      HGR61
    1    23    24    25	 9 ;     CG2R67     CG2R67     CG2R61     CG2R61
    1    23    24    42	 9 ;     CG2R67     CG2R67     CG2R61      HGR61
   23    24    25    26	 9 ;     CG2R67     CG2R61     CG2R61     CG2R61
   23    24    25    30	 9 ;     CG2R67     CG2R61     CG2R61      OG301
   42    24    25    26	 9 ;      HGR61     CG2R61     CG2R61     CG2R61
   42    24    25    30	 9 ;      HGR61     CG2R61     CG2R61      OG301
   24    25    26    27	 9 ;     CG2R61     CG2R61     CG2R61     CG2R61
   24    25    26    43	 9 ;     CG2R61     CG2R61     CG2R61      HGR61
   30    25    26    27	 9 ;      OG301     CG2R61     CG2R61     CG2R61
   30    25    26    43	 9 ;      OG301     CG2R61     CG2R61      HGR61
   26    25    30    31	 9 ;     CG2R61     CG2R61      OG301      CG331
   24    25    30    31	 9 ;     CG2R61     CG2R61      OG301      CG331
   25    26    27    28	 9 ;     CG2R61     CG2R61     CG2R61     CG2R66
   25    26    27    44	 9 ;     CG2R61     CG2R61     CG2R61      HGR62
   43    26    27    28	 9 ;      HGR61     CG2R61     CG2R61     CG2R66
   43    26    27    44	 9 ;      HGR61     CG2R61     CG2R61      HGR62
   26    27    28    29	 9 ;     CG2R61     CG2R61     CG2R66       FGR1
   26    27    28    23	 9 ;     CG2R61     CG2R61     CG2R66     CG2R67
   44    27    28    29	 9 ;      HGR62     CG2R61     CG2R66       FGR1
   44    27    28    23	 9 ;      HGR62     CG2R61     CG2R66     CG2R67
   25    30    31    45	 9 ;     CG2R61      OG301      CG331       HGA3
   25    30    31    46	 9 ;     CG2R61      OG301      CG331       HGA3
   25    30    31    47	 9 ;     CG2R61      OG301      CG331       HGA3
    9    32    33    48	 9 ;     CG2R61      OG301      CG331       HGA3
    9    32    33    49	 9 ;     CG2R61      OG301      CG331       HGA3
    9    32    33    50	 9 ;     CG2R61      OG301      CG331       HGA3

