Getting the Right Output Means no Artefacts in Calculating Stuff
   51
    1LIG     C1    1  -1.374   0.754  -1.623
    1LIG     C2    2  -1.413   0.618  -1.619
    1LIG     C3    3  -1.335   0.521  -1.554
    1LIG     C4    4  -1.216   0.560  -1.494
    1LIG     O1    5  -1.132   0.474  -1.428
    1LIG     C5    6  -1.161   0.340  -1.429
    1LIG     C6    7  -1.276   0.286  -1.485
    1LIG     C7    8  -1.294   0.146  -1.479
    1LIG     C8    9  -1.200   0.063  -1.419
    1LIG     C9   10  -1.085   0.120  -1.363
    1LIG    C10   11  -1.066   0.258  -1.368
    1LIG    C11   12  -1.380   0.375  -1.552
    1LIG     N1   13  -1.401   0.329  -1.692
    1LIG     HN   14  -1.334   0.329  -1.768
    1LIG    C12   15  -1.524   0.289  -1.695
    1LIG     O2   16  -1.601   0.299  -1.585
    1LIG    C13   17  -1.518   0.359  -1.486
    1LIG     N2   18  -1.586   0.235  -1.801
    1LIG    C14   19  -1.175   0.693  -1.497
    1LIG    C15   20  -1.254   0.789  -1.561
    1LIG     H1   21  -1.686   0.230  -1.801
    1LIG     H2   22  -1.540   0.248  -1.891
    1LIG    C16   23  -1.460   0.855  -1.688
    1LIG    C17   24  -1.578   0.901  -1.626
    1LIG    C18   25  -1.661   0.996  -1.688
    1LIG    C19   26  -1.625   1.046  -1.813
    1LIG    C20   27  -1.508   1.002  -1.875
    1LIG    C21   28  -1.428   0.908  -1.813
    1LIG      F   29  -1.318   0.868  -1.879
    1LIG     O3   30  -1.772   1.032  -1.617
    1LIG    C22   31  -1.750   1.113  -1.503
    1LIG     O4   32  -1.209  -0.073  -1.410
    1LIG    C23   33  -1.131  -0.134  -1.307
    1LIG     HC   34  -1.504   0.589  -1.667
    1LIG    HC1   35  -1.383   0.103  -1.522
    1LIG    HC2   36  -1.011   0.056  -1.317
    1LIG    HC3   37  -0.977   0.301  -1.325
    1LIG    HC4   38  -1.511   0.296  -1.398
    1LIG    HC5   39  -1.558   0.457  -1.458
    1LIG    HC6   40  -1.083   0.723  -1.450
    1LIG    HC7   41  -1.220   0.892  -1.564
    1LIG    HC8   42  -1.606   0.863  -1.529
    1LIG    HC9   43  -1.687   1.120  -1.862
    1LIG   HC10   44  -1.481   1.041  -1.972
    1LIG   HC11   45  -1.845   1.135  -1.454
    1LIG   HC12   46  -1.702   1.207  -1.533
    1LIG   HC13   47  -1.685   1.061  -1.433
    1LIG   HC14   48  -1.161  -0.238  -1.296
    1LIG   HC15   49  -1.147  -0.081  -1.213
    1LIG   HC16   50  -1.026  -0.130  -1.334
    1LIG    H21   51  -1.556   0.388  -1.727
   0.00000   0.00000   0.00000
