; Created by cgenff_charmm2gmx.py

[ moleculetype ]
; Name			   nrexcl
LIG				 3

[ atoms ]
;	 nr		  type	resnr residue  atom   cgnr	   charge		mass  typeB    chargeB		massB
; residue	 1 LIG rtp LIG q	qsum
     1     CG2R61      1    LIG     C1      1      0.108     12.011   ;
     2     CG2R61      1    LIG     C2      2     -0.134     12.011   ;
     3     CG2R61      1    LIG     C3      3     -0.212     12.011   ;
     4     CG2R61      1    LIG     C4      4     -0.131     12.011   ;
     5     CG2R61      1    LIG     C5      5     -0.102     12.011   ;
     6     CG2R61      1    LIG     C6      6     -0.119     12.011   ;
     7     CG3C50      1    LIG     C7      7      1.440     12.011   ;
     8      NG3P2      1    LIG     N1      8     -0.588     14.007   ;
     9     CG3C53      1    LIG     C8      9      0.785     12.011   ;
    10       HGP2      1    LIG     HN     10      0.336      1.008   ;
    11     NG2R53      1    LIG     N2     11     -0.178     14.007   ;
    12      CG331      1    LIG     C9     12     -0.169     12.011   ;
    13     CG2R53      1    LIG    C10     13     -0.445     12.011   ;
    14      OG2D1      1    LIG     O1     14     -0.325     15.999   ;
    15      NG3P3      1    LIG     N3     15     -0.267     14.007   ;
    16       HGP2      1    LIG     H1     16      0.301      1.008   ;
    17       HGP2      1    LIG     H2     17      0.301      1.008   ;
    18      CG311      1    LIG    C11     18     -0.044     12.011   ;
    19      CG321      1    LIG    C12     19     -0.129     12.011   ;
    20      CG321      1    LIG    C13     20     -0.241     12.011   ;
    21      CG321      1    LIG    C14     21     -0.154     12.011   ;
    22      CG321      1    LIG    C15     22     -0.241     12.011   ;
    23      CG321      1    LIG    C16     23     -0.129     12.011   ;
    24      NG2S1      1    LIG     N4     24     -0.434     14.007   ;
    25      CG2O1      1    LIG    C17     25      0.498     12.011   ;
    26      OG2D1      1    LIG     O2     26     -0.470     15.999   ;
    27       HGP1      1    LIG     H3     27      0.322      1.008   ;
    28     CG2R61      1    LIG    C18     28     -0.126     12.011   ;
    29     CG2R61      1    LIG    C19     29     -0.065     12.011   ;
    30     CG2R61      1    LIG    C20     30      0.213     12.011   ;
    31     CG2R61      1    LIG    C21     31     -0.121     12.011   ;
    32     CG2R61      1    LIG    C22     32     -0.111     12.011   ;
    33     CG2R61      1    LIG    C23     33     -0.060     12.011   ;
    34      OG301      1    LIG     O3     34     -0.383     15.999   ;
    35      CG331      1    LIG    C24     35     -0.094     12.011   ;
    36      HGR61      1    LIG     HC     36      0.116      1.008   ;
    37      HGR61      1    LIG    HC1     37      0.116      1.008   ;
    38      HGR61      1    LIG    HC2     38      0.116      1.008   ;
    39      HGR61      1    LIG    HC3     39      0.116      1.008   ;
    40       HGP2      1    LIG    HN2     40      0.336      1.008   ;
    41       HGA1      1    LIG    HC4     41      0.073      1.008   ;
    42       HGA3      1    LIG    HC5     42      0.090      1.008   ;
    43       HGA3      1    LIG    HC6     43      0.090      1.008   ;
    44       HGA3      1    LIG    HC7     44      0.090      1.008   ;
    45       HGP2      1    LIG    HN1     45      0.301      1.008   ;
    46       HGA1      1    LIG    HC8     46      0.090      1.008   ;
    47       HGA2      1    LIG    HC9     47      0.090      1.008   ;
    48       HGA2      1    LIG   HC10     48      0.090      1.008   ;
    49       HGA2      1    LIG   HC11     49      0.090      1.008   ;
    50       HGA2      1    LIG   HC12     50      0.090      1.008   ;
    51       HGA2      1    LIG   HC13     51      0.090      1.008   ;
    52       HGA2      1    LIG   HC14     52      0.090      1.008   ;
    53       HGA2      1    LIG   HC15     53      0.090      1.008   ;
    54       HGA2      1    LIG   HC16     54      0.090      1.008   ;
    55       HGA2      1    LIG   HC17     55      0.090      1.008   ;
    56       HGA2      1    LIG   HC18     56      0.090      1.008   ;
    57      HGR61      1    LIG   HC19     57      0.116      1.008   ;
    58      HGR61      1    LIG   HC20     58      0.116      1.008   ;
    59      HGR61      1    LIG   HC21     59      0.116      1.008   ;
    60      HGR61      1    LIG   HC22     60      0.116      1.008   ;
    61       HGA3      1    LIG   HC23     61      0.090      1.008   ;
    62       HGA3      1    LIG   HC24     62      0.090      1.008   ;
    63       HGA3      1    LIG   HC25     63      0.090      1.008   ;

[ bonds ]
;	ai	  aj funct			  c0			c1			  c2			c3
    1     2	 1 ;      CG2R61     CG2R61
    1     6	 1 ;      CG2R61     CG2R61
    1    24	 1 ;      CG2R61      NG2S1
    2     3	 1 ;      CG2R61     CG2R61
    2    36	 1 ;      CG2R61      HGR61
    3     7	 1 ;      CG2R61     CG3C50
    3     4	 1 ;      CG2R61     CG2R61
    4     5	 1 ;      CG2R61     CG2R61
    4    37	 1 ;      CG2R61      HGR61
    5     6	 1 ;      CG2R61     CG2R61
    5    38	 1 ;      CG2R61      HGR61
    6    39	 1 ;      CG2R61      HGR61
    7    13	 1 ;      CG3C50     CG2R53
    7     8	 1 ;      CG3C50      NG3P2
    7    18	 1 ;      CG3C50      CG311
    8     9	 1 ;       NG3P2     CG3C53
    8    10	 1 ;       NG3P2       HGP2
    8    40	 1 ;       NG3P2       HGP2
    9    11	 1 ;      CG3C53     NG2R53
    9    15	 1 ;      CG3C53      NG3P3
    9    41	 1 ;      CG3C53       HGA1
   11    12	 1 ;      NG2R53      CG331
   11    13	 1 ;      NG2R53     CG2R53
   12    42	 1 ;       CG331       HGA3
   12    43	 1 ;       CG331       HGA3
   12    44	 1 ;       CG331       HGA3
   13    14	 1 ;      CG2R53      OG2D1
   15    16	 1 ;       NG3P3       HGP2
   15    17	 1 ;       NG3P3       HGP2
   15    45	 1 ;       NG3P3       HGP2
   18    19	 1 ;       CG311      CG321
   18    23	 1 ;       CG311      CG321
   18    46	 1 ;       CG311       HGA1
   19    20	 1 ;       CG321      CG321
   19    47	 1 ;       CG321       HGA2
   19    48	 1 ;       CG321       HGA2
   20    21	 1 ;       CG321      CG321
   20    49	 1 ;       CG321       HGA2
   20    50	 1 ;       CG321       HGA2
   21    22	 1 ;       CG321      CG321
   21    51	 1 ;       CG321       HGA2
   21    52	 1 ;       CG321       HGA2
   22    23	 1 ;       CG321      CG321
   22    53	 1 ;       CG321       HGA2
   22    54	 1 ;       CG321       HGA2
   23    55	 1 ;       CG321       HGA2
   23    56	 1 ;       CG321       HGA2
   24    27	 1 ;       NG2S1       HGP1
   24    25	 1 ;       NG2S1      CG2O1
   25    26	 1 ;       CG2O1      OG2D1
   25    28	 1 ;       CG2O1     CG2R61
   28    33	 1 ;      CG2R61     CG2R61
   28    29	 1 ;      CG2R61     CG2R61
   29    30	 1 ;      CG2R61     CG2R61
   29    57	 1 ;      CG2R61      HGR61
   30    31	 1 ;      CG2R61     CG2R61
   30    34	 1 ;      CG2R61      OG301
   31    32	 1 ;      CG2R61     CG2R61
   31    58	 1 ;      CG2R61      HGR61
   32    33	 1 ;      CG2R61     CG2R61
   32    59	 1 ;      CG2R61      HGR61
   33    60	 1 ;      CG2R61      HGR61
   34    35	 1 ;       OG301      CG331
   35    61	 1 ;       CG331       HGA3
   35    62	 1 ;       CG331       HGA3
   35    63	 1 ;       CG331       HGA3

[ pairs ]
;	ai	  aj funct			  c0			c1			  c2			c3
    1     7	 1
    1     4	 1
    1    38	 1
    1    26	 1
    1    28	 1
    2     5	 1
    2    39	 1
    2    27	 1
    2    25	 1
    2    13	 1
    2     8	 1
    2    18	 1
    2    37	 1
    3     6	 1
    3    24	 1
    3    38	 1
    3    11	 1
    3    14	 1
    3     9	 1
    3    10	 1
    3    40	 1
    3    19	 1
    3    23	 1
    3    46	 1
    4    36	 1
    4    13	 1
    4     8	 1
    4    18	 1
    4    39	 1
    5    24	 1
    5     7	 1
    6    36	 1
    6    27	 1
    6    25	 1
    6    37	 1
    7    36	 1
    7    37	 1
    7    15	 1
    7    41	 1
    7    12	 1
    7    20	 1
    7    47	 1
    7    48	 1
    7    22	 1
    7    55	 1
    7    56	 1
    8    14	 1
    8    19	 1
    8    23	 1
    8    46	 1
    8    12	 1
    8    16	 1
    8    17	 1
    8    45	 1
    9    18	 1
    9    42	 1
    9    43	 1
    9    44	 1
    9    14	 1
   10    13	 1
   10    18	 1
   10    11	 1
   10    15	 1
   10    41	 1
   11    18	 1
   11    40	 1
   11    16	 1
   11    17	 1
   11    45	 1
   12    15	 1
   12    41	 1
   12    14	 1
   13    40	 1
   13    19	 1
   13    23	 1
   13    46	 1
   13    15	 1
   13    41	 1
   13    42	 1
   13    43	 1
   13    44	 1
   14    18	 1
   15    40	 1
   16    41	 1
   17    41	 1
   18    40	 1
   18    21	 1
   18    49	 1
   18    50	 1
   18    53	 1
   18    54	 1
   19    22	 1
   19    55	 1
   19    56	 1
   19    51	 1
   19    52	 1
   20    23	 1
   20    46	 1
   20    53	 1
   20    54	 1
   21    47	 1
   21    48	 1
   21    55	 1
   21    56	 1
   22    46	 1
   22    49	 1
   22    50	 1
   23    47	 1
   23    48	 1
   23    51	 1
   23    52	 1
   24    36	 1
   24    39	 1
   24    33	 1
   24    29	 1
   25    32	 1
   25    60	 1
   25    30	 1
   25    57	 1
   26    27	 1
   26    33	 1
   26    29	 1
   27    28	 1
   28    31	 1
   28    34	 1
   28    59	 1
   29    32	 1
   29    60	 1
   29    58	 1
   29    35	 1
   30    33	 1
   30    59	 1
   30    61	 1
   30    62	 1
   30    63	 1
   31    57	 1
   31    35	 1
   31    60	 1
   32    34	 1
   33    57	 1
   33    58	 1
   34    57	 1
   34    58	 1
   37    38	 1
   38    39	 1
   40    41	 1
   41    45	 1
   46    47	 1
   46    48	 1
   46    55	 1
   46    56	 1
   47    49	 1
   47    50	 1
   48    49	 1
   48    50	 1
   49    51	 1
   49    52	 1
   50    51	 1
   50    52	 1
   51    53	 1
   51    54	 1
   52    53	 1
   52    54	 1
   53    55	 1
   53    56	 1
   54    55	 1
   54    56	 1
   58    59	 1
   59    60	 1

[ angles ]
;	ai	  aj	ak funct			c0			  c1			c2			  c3
    2     1     6	5 ;     CG2R61     CG2R61     CG2R61
    2     1    24	5 ;     CG2R61     CG2R61      NG2S1
    6     1    24	5 ;     CG2R61     CG2R61      NG2S1
    3     2     1	5 ;     CG2R61     CG2R61     CG2R61
    3     2    36	5 ;     CG2R61     CG2R61      HGR61
    1     2    36	5 ;     CG2R61     CG2R61      HGR61
    7     3     4	5 ;     CG3C50     CG2R61     CG2R61
    7     3     2	5 ;     CG3C50     CG2R61     CG2R61
    4     3     2	5 ;     CG2R61     CG2R61     CG2R61
    3     4     5	5 ;     CG2R61     CG2R61     CG2R61
    3     4    37	5 ;     CG2R61     CG2R61      HGR61
    5     4    37	5 ;     CG2R61     CG2R61      HGR61
    4     5     6	5 ;     CG2R61     CG2R61     CG2R61
    4     5    38	5 ;     CG2R61     CG2R61      HGR61
    6     5    38	5 ;     CG2R61     CG2R61      HGR61
    5     6     1	5 ;     CG2R61     CG2R61     CG2R61
    5     6    39	5 ;     CG2R61     CG2R61      HGR61
    1     6    39	5 ;     CG2R61     CG2R61      HGR61
   13     7     8	5 ;     CG2R53     CG3C50      NG3P2
   13     7    18	5 ;     CG2R53     CG3C50      CG311
   13     7     3	5 ;     CG2R53     CG3C50     CG2R61
    8     7    18	5 ;      NG3P2     CG3C50      CG311
    8     7     3	5 ;      NG3P2     CG3C50     CG2R61
   18     7     3	5 ;      CG311     CG3C50     CG2R61
    9     8     7	5 ;     CG3C53      NG3P2     CG3C50
    9     8    10	5 ;     CG3C53      NG3P2       HGP2
    9     8    40	5 ;     CG3C53      NG3P2       HGP2
    7     8    10	5 ;     CG3C50      NG3P2       HGP2
    7     8    40	5 ;     CG3C50      NG3P2       HGP2
   10     8    40	5 ;       HGP2      NG3P2       HGP2
   11     9    15	5 ;     NG2R53     CG3C53      NG3P3
   11     9     8	5 ;     NG2R53     CG3C53      NG3P2
   11     9    41	5 ;     NG2R53     CG3C53       HGA1
   15     9     8	5 ;      NG3P3     CG3C53      NG3P2
   15     9    41	5 ;      NG3P3     CG3C53       HGA1
    8     9    41	5 ;      NG3P2     CG3C53       HGA1
   12    11     9	5 ;      CG331     NG2R53     CG3C53
   12    11    13	5 ;      CG331     NG2R53     CG2R53
    9    11    13	5 ;     CG3C53     NG2R53     CG2R53
   11    12    42	5 ;     NG2R53      CG331       HGA3
   11    12    43	5 ;     NG2R53      CG331       HGA3
   11    12    44	5 ;     NG2R53      CG331       HGA3
   42    12    43	5 ;       HGA3      CG331       HGA3
   42    12    44	5 ;       HGA3      CG331       HGA3
   43    12    44	5 ;       HGA3      CG331       HGA3
   11    13    14	5 ;     NG2R53     CG2R53      OG2D1
   11    13     7	5 ;     NG2R53     CG2R53     CG3C50
   14    13     7	5 ;      OG2D1     CG2R53     CG3C50
   16    15    17	5 ;       HGP2      NG3P3       HGP2
   16    15     9	5 ;       HGP2      NG3P3     CG3C53
   16    15    45	5 ;       HGP2      NG3P3       HGP2
   17    15     9	5 ;       HGP2      NG3P3     CG3C53
   17    15    45	5 ;       HGP2      NG3P3       HGP2
    9    15    45	5 ;     CG3C53      NG3P3       HGP2
    7    18    19	5 ;     CG3C50      CG311      CG321
    7    18    23	5 ;     CG3C50      CG311      CG321
    7    18    46	5 ;     CG3C50      CG311       HGA1
   19    18    23	5 ;      CG321      CG311      CG321
   19    18    46	5 ;      CG321      CG311       HGA1
   23    18    46	5 ;      CG321      CG311       HGA1
   18    19    20	5 ;      CG311      CG321      CG321
   18    19    47	5 ;      CG311      CG321       HGA2
   18    19    48	5 ;      CG311      CG321       HGA2
   20    19    47	5 ;      CG321      CG321       HGA2
   20    19    48	5 ;      CG321      CG321       HGA2
   47    19    48	5 ;       HGA2      CG321       HGA2
   19    20    21	5 ;      CG321      CG321      CG321
   19    20    49	5 ;      CG321      CG321       HGA2
   19    20    50	5 ;      CG321      CG321       HGA2
   21    20    49	5 ;      CG321      CG321       HGA2
   21    20    50	5 ;      CG321      CG321       HGA2
   49    20    50	5 ;       HGA2      CG321       HGA2
   20    21    22	5 ;      CG321      CG321      CG321
   20    21    51	5 ;      CG321      CG321       HGA2
   20    21    52	5 ;      CG321      CG321       HGA2
   22    21    51	5 ;      CG321      CG321       HGA2
   22    21    52	5 ;      CG321      CG321       HGA2
   51    21    52	5 ;       HGA2      CG321       HGA2
   23    22    21	5 ;      CG321      CG321      CG321
   23    22    53	5 ;      CG321      CG321       HGA2
   23    22    54	5 ;      CG321      CG321       HGA2
   21    22    53	5 ;      CG321      CG321       HGA2
   21    22    54	5 ;      CG321      CG321       HGA2
   53    22    54	5 ;       HGA2      CG321       HGA2
   18    23    22	5 ;      CG311      CG321      CG321
   18    23    55	5 ;      CG311      CG321       HGA2
   18    23    56	5 ;      CG311      CG321       HGA2
   22    23    55	5 ;      CG321      CG321       HGA2
   22    23    56	5 ;      CG321      CG321       HGA2
   55    23    56	5 ;       HGA2      CG321       HGA2
    1    24    27	5 ;     CG2R61      NG2S1       HGP1
    1    24    25	5 ;     CG2R61      NG2S1      CG2O1
   27    24    25	5 ;       HGP1      NG2S1      CG2O1
   24    25    26	5 ;      NG2S1      CG2O1      OG2D1
   24    25    28	5 ;      NG2S1      CG2O1     CG2R61
   26    25    28	5 ;      OG2D1      CG2O1     CG2R61
   25    28    33	5 ;      CG2O1     CG2R61     CG2R61
   25    28    29	5 ;      CG2O1     CG2R61     CG2R61
   33    28    29	5 ;     CG2R61     CG2R61     CG2R61
   28    29    30	5 ;     CG2R61     CG2R61     CG2R61
   28    29    57	5 ;     CG2R61     CG2R61      HGR61
   30    29    57	5 ;     CG2R61     CG2R61      HGR61
   29    30    31	5 ;     CG2R61     CG2R61     CG2R61
   29    30    34	5 ;     CG2R61     CG2R61      OG301
   31    30    34	5 ;     CG2R61     CG2R61      OG301
   32    31    30	5 ;     CG2R61     CG2R61     CG2R61
   32    31    58	5 ;     CG2R61     CG2R61      HGR61
   30    31    58	5 ;     CG2R61     CG2R61      HGR61
   33    32    31	5 ;     CG2R61     CG2R61     CG2R61
   33    32    59	5 ;     CG2R61     CG2R61      HGR61
   31    32    59	5 ;     CG2R61     CG2R61      HGR61
   28    33    32	5 ;     CG2R61     CG2R61     CG2R61
   28    33    60	5 ;     CG2R61     CG2R61      HGR61
   32    33    60	5 ;     CG2R61     CG2R61      HGR61
   30    34    35	5 ;     CG2R61      OG301      CG331
   34    35    61	5 ;      OG301      CG331       HGA3
   34    35    62	5 ;      OG301      CG331       HGA3
   34    35    63	5 ;      OG301      CG331       HGA3
   61    35    62	5 ;       HGA3      CG331       HGA3
   61    35    63	5 ;       HGA3      CG331       HGA3
   62    35    63	5 ;       HGA3      CG331       HGA3

[ dihedrals ]
;	ai	  aj	ak	  al funct			  c0			c1			  c2			c3			  c4			c5
    6     1     2     3	 9 ;     CG2R61     CG2R61     CG2R61     CG2R61
    6     1     2    36	 9 ;     CG2R61     CG2R61     CG2R61      HGR61
   24     1     2     3	 9 ;      NG2S1     CG2R61     CG2R61     CG2R61
   24     1     2    36	 9 ;      NG2S1     CG2R61     CG2R61      HGR61
    2     1     6     5	 9 ;     CG2R61     CG2R61     CG2R61     CG2R61
    2     1     6    39	 9 ;     CG2R61     CG2R61     CG2R61      HGR61
   24     1     6     5	 9 ;      NG2S1     CG2R61     CG2R61     CG2R61
   24     1     6    39	 9 ;      NG2S1     CG2R61     CG2R61      HGR61
    2     1    24    27	 9 ;     CG2R61     CG2R61      NG2S1       HGP1
    2     1    24    25	 9 ;     CG2R61     CG2R61      NG2S1      CG2O1
    6     1    24    27	 9 ;     CG2R61     CG2R61      NG2S1       HGP1
    6     1    24    25	 9 ;     CG2R61     CG2R61      NG2S1      CG2O1
    1     2     3     7	 9 ;     CG2R61     CG2R61     CG2R61     CG3C50
    1     2     3     4	 9 ;     CG2R61     CG2R61     CG2R61     CG2R61
   36     2     3     7	 9 ;      HGR61     CG2R61     CG2R61     CG3C50
   36     2     3     4	 9 ;      HGR61     CG2R61     CG2R61     CG2R61
    4     3     7    13	 9 ;     CG2R61     CG2R61     CG3C50     CG2R53
    4     3     7     8	 9 ;     CG2R61     CG2R61     CG3C50      NG3P2
    4     3     7    18	 9 ;     CG2R61     CG2R61     CG3C50      CG311
    2     3     7    13	 9 ;     CG2R61     CG2R61     CG3C50     CG2R53
    2     3     7     8	 9 ;     CG2R61     CG2R61     CG3C50      NG3P2
    2     3     7    18	 9 ;     CG2R61     CG2R61     CG3C50      CG311
    7     3     4     5	 9 ;     CG3C50     CG2R61     CG2R61     CG2R61
    7     3     4    37	 9 ;     CG3C50     CG2R61     CG2R61      HGR61
    2     3     4     5	 9 ;     CG2R61     CG2R61     CG2R61     CG2R61
    2     3     4    37	 9 ;     CG2R61     CG2R61     CG2R61      HGR61
    3     4     5     6	 9 ;     CG2R61     CG2R61     CG2R61     CG2R61
    3     4     5    38	 9 ;     CG2R61     CG2R61     CG2R61      HGR61
   37     4     5     6	 9 ;      HGR61     CG2R61     CG2R61     CG2R61
   37     4     5    38	 9 ;      HGR61     CG2R61     CG2R61      HGR61
    4     5     6     1	 9 ;     CG2R61     CG2R61     CG2R61     CG2R61
    4     5     6    39	 9 ;     CG2R61     CG2R61     CG2R61      HGR61
   38     5     6     1	 9 ;      HGR61     CG2R61     CG2R61     CG2R61
   38     5     6    39	 9 ;      HGR61     CG2R61     CG2R61      HGR61
    8     7    13    11	 9 ;      NG3P2     CG3C50     CG2R53     NG2R53
    8     7    13    14	 9 ;      NG3P2     CG3C50     CG2R53      OG2D1
   18     7    13    11	 9 ;      CG311     CG3C50     CG2R53     NG2R53
   18     7    13    14	 9 ;      CG311     CG3C50     CG2R53      OG2D1
    3     7    13    11	 9 ;     CG2R61     CG3C50     CG2R53     NG2R53
    3     7    13    14	 9 ;     CG2R61     CG3C50     CG2R53      OG2D1
   13     7     8     9	 9 ;     CG2R53     CG3C50      NG3P2     CG3C53
   13     7     8    10	 9 ;     CG2R53     CG3C50      NG3P2       HGP2
   13     7     8    40	 9 ;     CG2R53     CG3C50      NG3P2       HGP2
   18     7     8     9	 9 ;      CG311     CG3C50      NG3P2     CG3C53
   18     7     8    10	 9 ;      CG311     CG3C50      NG3P2       HGP2
   18     7     8    40	 9 ;      CG311     CG3C50      NG3P2       HGP2
    3     7     8     9	 9 ;     CG2R61     CG3C50      NG3P2     CG3C53
    3     7     8    10	 9 ;     CG2R61     CG3C50      NG3P2       HGP2
    3     7     8    40	 9 ;     CG2R61     CG3C50      NG3P2       HGP2
   13     7    18    19	 9 ;     CG2R53     CG3C50      CG311      CG321
   13     7    18    23	 9 ;     CG2R53     CG3C50      CG311      CG321
   13     7    18    46	 9 ;     CG2R53     CG3C50      CG311       HGA1
    8     7    18    19	 9 ;      NG3P2     CG3C50      CG311      CG321
    8     7    18    23	 9 ;      NG3P2     CG3C50      CG311      CG321
    8     7    18    46	 9 ;      NG3P2     CG3C50      CG311       HGA1
    3     7    18    19	 9 ;     CG2R61     CG3C50      CG311      CG321
    3     7    18    23	 9 ;     CG2R61     CG3C50      CG311      CG321
    3     7    18    46	 9 ;     CG2R61     CG3C50      CG311       HGA1
    7     8     9    11	 9 ;     CG3C50      NG3P2     CG3C53     NG2R53
    7     8     9    15	 9 ;     CG3C50      NG3P2     CG3C53      NG3P3
    7     8     9    41	 9 ;     CG3C50      NG3P2     CG3C53       HGA1
   10     8     9    11	 9 ;       HGP2      NG3P2     CG3C53     NG2R53
   10     8     9    15	 9 ;       HGP2      NG3P2     CG3C53      NG3P3
   10     8     9    41	 9 ;       HGP2      NG3P2     CG3C53       HGA1
   40     8     9    11	 9 ;       HGP2      NG3P2     CG3C53     NG2R53
   40     8     9    15	 9 ;       HGP2      NG3P2     CG3C53      NG3P3
   40     8     9    41	 9 ;       HGP2      NG3P2     CG3C53       HGA1
   15     9    11    12	 9 ;      NG3P3     CG3C53     NG2R53      CG331
   15     9    11    13	 9 ;      NG3P3     CG3C53     NG2R53     CG2R53
    8     9    11    12	 9 ;      NG3P2     CG3C53     NG2R53      CG331
    8     9    11    13	 9 ;      NG3P2     CG3C53     NG2R53     CG2R53
   41     9    11    12	 9 ;       HGA1     CG3C53     NG2R53      CG331
   41     9    11    13	 9 ;       HGA1     CG3C53     NG2R53     CG2R53
   11     9    15    16	 9 ;     NG2R53     CG3C53      NG3P3       HGP2
   11     9    15    17	 9 ;     NG2R53     CG3C53      NG3P3       HGP2
   11     9    15    45	 9 ;     NG2R53     CG3C53      NG3P3       HGP2
    8     9    15    16	 9 ;      NG3P2     CG3C53      NG3P3       HGP2
    8     9    15    17	 9 ;      NG3P2     CG3C53      NG3P3       HGP2
    8     9    15    45	 9 ;      NG3P2     CG3C53      NG3P3       HGP2
   41     9    15    16	 9 ;       HGA1     CG3C53      NG3P3       HGP2
   41     9    15    17	 9 ;       HGA1     CG3C53      NG3P3       HGP2
   41     9    15    45	 9 ;       HGA1     CG3C53      NG3P3       HGP2
    9    11    12    42	 9 ;     CG3C53     NG2R53      CG331       HGA3
    9    11    12    43	 9 ;     CG3C53     NG2R53      CG331       HGA3
    9    11    12    44	 9 ;     CG3C53     NG2R53      CG331       HGA3
   13    11    12    42	 9 ;     CG2R53     NG2R53      CG331       HGA3
   13    11    12    43	 9 ;     CG2R53     NG2R53      CG331       HGA3
   13    11    12    44	 9 ;     CG2R53     NG2R53      CG331       HGA3
   12    11    13    14	 9 ;      CG331     NG2R53     CG2R53      OG2D1
   12    11    13     7	 9 ;      CG331     NG2R53     CG2R53     CG3C50
    9    11    13    14	 9 ;     CG3C53     NG2R53     CG2R53      OG2D1
    9    11    13     7	 9 ;     CG3C53     NG2R53     CG2R53     CG3C50
    7    18    19    20	 9 ;     CG3C50      CG311      CG321      CG321
    7    18    19    47	 9 ;     CG3C50      CG311      CG321       HGA2
    7    18    19    48	 9 ;     CG3C50      CG311      CG321       HGA2
   23    18    19    20	 9 ;      CG321      CG311      CG321      CG321
   23    18    19    47	 9 ;      CG321      CG311      CG321       HGA2
   23    18    19    48	 9 ;      CG321      CG311      CG321       HGA2
   46    18    19    20	 9 ;       HGA1      CG311      CG321      CG321
   46    18    19    47	 9 ;       HGA1      CG311      CG321       HGA2
   46    18    19    48	 9 ;       HGA1      CG311      CG321       HGA2
    7    18    23    22	 9 ;     CG3C50      CG311      CG321      CG321
    7    18    23    55	 9 ;     CG3C50      CG311      CG321       HGA2
    7    18    23    56	 9 ;     CG3C50      CG311      CG321       HGA2
   19    18    23    22	 9 ;      CG321      CG311      CG321      CG321
   19    18    23    55	 9 ;      CG321      CG311      CG321       HGA2
   19    18    23    56	 9 ;      CG321      CG311      CG321       HGA2
   46    18    23    22	 9 ;       HGA1      CG311      CG321      CG321
   46    18    23    55	 9 ;       HGA1      CG311      CG321       HGA2
   46    18    23    56	 9 ;       HGA1      CG311      CG321       HGA2
   18    19    20    21	 9 ;      CG311      CG321      CG321      CG321
   18    19    20    49	 9 ;      CG311      CG321      CG321       HGA2
   18    19    20    50	 9 ;      CG311      CG321      CG321       HGA2
   47    19    20    21	 9 ;       HGA2      CG321      CG321      CG321
   47    19    20    49	 9 ;       HGA2      CG321      CG321       HGA2
   47    19    20    50	 9 ;       HGA2      CG321      CG321       HGA2
   48    19    20    21	 9 ;       HGA2      CG321      CG321      CG321
   48    19    20    49	 9 ;       HGA2      CG321      CG321       HGA2
   48    19    20    50	 9 ;       HGA2      CG321      CG321       HGA2
   19    20    21    22	 9 ;      CG321      CG321      CG321      CG321
   19    20    21    51	 9 ;      CG321      CG321      CG321       HGA2
   19    20    21    52	 9 ;      CG321      CG321      CG321       HGA2
   49    20    21    22	 9 ;       HGA2      CG321      CG321      CG321
   49    20    21    51	 9 ;       HGA2      CG321      CG321       HGA2
   49    20    21    52	 9 ;       HGA2      CG321      CG321       HGA2
   50    20    21    22	 9 ;       HGA2      CG321      CG321      CG321
   50    20    21    51	 9 ;       HGA2      CG321      CG321       HGA2
   50    20    21    52	 9 ;       HGA2      CG321      CG321       HGA2
   20    21    22    23	 9 ;      CG321      CG321      CG321      CG321
   20    21    22    53	 9 ;      CG321      CG321      CG321       HGA2
   20    21    22    54	 9 ;      CG321      CG321      CG321       HGA2
   51    21    22    23	 9 ;       HGA2      CG321      CG321      CG321
   51    21    22    53	 9 ;       HGA2      CG321      CG321       HGA2
   51    21    22    54	 9 ;       HGA2      CG321      CG321       HGA2
   52    21    22    23	 9 ;       HGA2      CG321      CG321      CG321
   52    21    22    53	 9 ;       HGA2      CG321      CG321       HGA2
   52    21    22    54	 9 ;       HGA2      CG321      CG321       HGA2
   21    22    23    18	 9 ;      CG321      CG321      CG321      CG311
   21    22    23    55	 9 ;      CG321      CG321      CG321       HGA2
   21    22    23    56	 9 ;      CG321      CG321      CG321       HGA2
   53    22    23    18	 9 ;       HGA2      CG321      CG321      CG311
   53    22    23    55	 9 ;       HGA2      CG321      CG321       HGA2
   53    22    23    56	 9 ;       HGA2      CG321      CG321       HGA2
   54    22    23    18	 9 ;       HGA2      CG321      CG321      CG311
   54    22    23    55	 9 ;       HGA2      CG321      CG321       HGA2
   54    22    23    56	 9 ;       HGA2      CG321      CG321       HGA2
    1    24    25    26	 9 ;     CG2R61      NG2S1      CG2O1      OG2D1
    1    24    25    28	 9 ;     CG2R61      NG2S1      CG2O1     CG2R61
   27    24    25    26	 9 ;       HGP1      NG2S1      CG2O1      OG2D1
   27    24    25    28	 9 ;       HGP1      NG2S1      CG2O1     CG2R61
   24    25    28    33	 9 ;      NG2S1      CG2O1     CG2R61     CG2R61
   24    25    28    29	 9 ;      NG2S1      CG2O1     CG2R61     CG2R61
   26    25    28    33	 9 ;      OG2D1      CG2O1     CG2R61     CG2R61
   26    25    28    29	 9 ;      OG2D1      CG2O1     CG2R61     CG2R61
   25    28    33    32	 9 ;      CG2O1     CG2R61     CG2R61     CG2R61
   25    28    33    60	 9 ;      CG2O1     CG2R61     CG2R61      HGR61
   29    28    33    32	 9 ;     CG2R61     CG2R61     CG2R61     CG2R61
   29    28    33    60	 9 ;     CG2R61     CG2R61     CG2R61      HGR61
   25    28    29    30	 9 ;      CG2O1     CG2R61     CG2R61     CG2R61
   25    28    29    57	 9 ;      CG2O1     CG2R61     CG2R61      HGR61
   33    28    29    30	 9 ;     CG2R61     CG2R61     CG2R61     CG2R61
   33    28    29    57	 9 ;     CG2R61     CG2R61     CG2R61      HGR61
   28    29    30    31	 9 ;     CG2R61     CG2R61     CG2R61     CG2R61
   28    29    30    34	 9 ;     CG2R61     CG2R61     CG2R61      OG301
   57    29    30    31	 9 ;      HGR61     CG2R61     CG2R61     CG2R61
   57    29    30    34	 9 ;      HGR61     CG2R61     CG2R61      OG301
   29    30    31    32	 9 ;     CG2R61     CG2R61     CG2R61     CG2R61
   29    30    31    58	 9 ;     CG2R61     CG2R61     CG2R61      HGR61
   34    30    31    32	 9 ;      OG301     CG2R61     CG2R61     CG2R61
   34    30    31    58	 9 ;      OG301     CG2R61     CG2R61      HGR61
   29    30    34    35	 9 ;     CG2R61     CG2R61      OG301      CG331
   31    30    34    35	 9 ;     CG2R61     CG2R61      OG301      CG331
   30    31    32    33	 9 ;     CG2R61     CG2R61     CG2R61     CG2R61
   30    31    32    59	 9 ;     CG2R61     CG2R61     CG2R61      HGR61
   58    31    32    33	 9 ;      HGR61     CG2R61     CG2R61     CG2R61
   58    31    32    59	 9 ;      HGR61     CG2R61     CG2R61      HGR61
   31    32    33    28	 9 ;     CG2R61     CG2R61     CG2R61     CG2R61
   31    32    33    60	 9 ;     CG2R61     CG2R61     CG2R61      HGR61
   59    32    33    28	 9 ;      HGR61     CG2R61     CG2R61     CG2R61
   59    32    33    60	 9 ;      HGR61     CG2R61     CG2R61      HGR61
   30    34    35    61	 9 ;     CG2R61      OG301      CG331       HGA3
   30    34    35    62	 9 ;     CG2R61      OG301      CG331       HGA3
   30    34    35    63	 9 ;     CG2R61      OG301      CG331       HGA3

[ dihedrals ]
;	ai	  aj	ak	  al funct			  c0			c1			  c2			c3
   13     7    11    14	 2
   25    28    24    26	 2

