Giant Rising Ordinary Mutants for A Clerical Setup
   63
    1LIG     C1    1  -1.568   0.602  -1.535
    1LIG     C2    2  -1.454   0.547  -1.596
    1LIG     C3    3  -1.339   0.625  -1.625
    1LIG     C4    4  -1.345   0.762  -1.596
    1LIG     C5    5  -1.461   0.819  -1.543
    1LIG     C6    6  -1.573   0.740  -1.514
    1LIG     C7    7  -1.210   0.554  -1.669
    1LIG     N1    8  -1.237   0.455  -1.780
    1LIG     C8    9  -1.146   0.475  -1.870
    1LIG     HN   10  -1.312   0.386  -1.784
    1LIG     N2   11  -1.063   0.579  -1.848
    1LIG     C9   12  -0.946   0.614  -1.926
    1LIG    C10   13  -1.103   0.644  -1.735
    1LIG     O1   14  -1.056   0.749  -1.693
    1LIG     N3   15  -1.137   0.397  -1.980
    1LIG     H1   16  -1.045   0.407  -2.024
    1LIG     H2   17  -1.166   0.301  -1.970
    1LIG    C11   18  -1.141   0.472  -1.554
    1LIG    C12   19  -1.176   0.322  -1.559
    1LIG    C13   20  -1.103   0.243  -1.451
    1LIG    C14   21  -1.138   0.297  -1.314
    1LIG    C15   22  -1.101   0.444  -1.302
    1LIG    C16   23  -1.167   0.528  -1.412
    1LIG     N4   24  -1.676   0.523  -1.488
    1LIG    C17   25  -1.664   0.403  -1.420
    1LIG     O2   26  -1.558   0.347  -1.392
    1LIG     H3   27  -1.766   0.570  -1.483
    1LIG    C18   28  -1.789   0.339  -1.370
    1LIG    C19   29  -1.857   0.385  -1.255
    1LIG    C20   30  -1.974   0.320  -1.214
    1LIG    C21   31  -2.026   0.215  -1.290
    1LIG    C22   32  -1.961   0.171  -1.405
    1LIG    C23   33  -1.842   0.233  -1.444
    1LIG     O3   34  -2.048   0.353  -1.104
    1LIG    C24   35  -2.187   0.322  -1.110
    1LIG     HC   36  -1.454   0.442  -1.621
    1LIG    HC1   37  -1.258   0.823  -1.614
    1LIG    HC2   38  -1.465   0.925  -1.525
    1LIG    HC3   39  -1.663   0.785  -1.476
    1LIG    HN2   40  -1.177   0.388  -1.734
    1LIG    HC4   41  -1.078   0.409  -1.816
    1LIG    HC5   42  -0.900   0.703  -1.884
    1LIG    HC6   43  -0.875   0.532  -1.924
    1LIG    HC7   44  -0.976   0.634  -2.029
    1LIG    HN1   45  -1.201   0.438  -2.045
    1LIG    HC8   46  -1.034   0.480  -1.570
    1LIG    HC9   47  -1.148   0.283  -1.657
    1LIG   HC10   48  -1.283   0.310  -1.546
    1LIG   HC11   49  -1.133   0.138  -1.457
    1LIG   HC12   50  -0.996   0.251  -1.467
    1LIG   HC13   51  -1.084   0.241  -1.238
    1LIG   HC14   52  -1.245   0.285  -1.296
    1LIG   HC15   53  -1.134   0.482  -1.205
    1LIG   HC16   54  -0.993   0.455  -1.310
    1LIG   HC17   55  -1.128   0.630  -1.407
    1LIG   HC18   56  -1.275   0.531  -1.394
    1LIG   HC19   57  -1.819   0.469  -1.199
    1LIG   HC20   58  -2.118   0.167  -1.259
    1LIG   HC21   59  -2.002   0.089  -1.463
    1LIG   HC22   60  -1.791   0.198  -1.532
    1LIG   HC23   61  -2.239   0.373  -1.030
    1LIG   HC24   62  -2.200   0.214  -1.099
    1LIG   HC25   63  -2.227   0.354  -1.206
   0.00000   0.00000   0.00000
