Gallium Rubidium Oxygen Manganese Argon Carbon Silicon
   76
    1LIG     N1    1  -1.385   0.589  -1.693
    1LIG     H1    2  -1.328   0.637  -1.622
    1LIG     H2    3  -1.464   0.653  -1.708
    1LIG     C1    4  -1.299   0.590  -1.820
    1LIG     C2    5  -1.183   0.689  -1.794
    1LIG     O1    6  -1.227   0.766  -1.680
    1LIG     H3    7  -1.164   0.752  -1.607
    1LIG     C3    8  -1.041   0.627  -1.771
    1LIG     C4    9  -0.985   0.659  -1.630
    1LIG     C5   10  -0.857   0.739  -1.629
    1LIG     C6   11  -0.736   0.685  -1.675
    1LIG     C7   12  -0.619   0.761  -1.673
    1LIG     F1   13  -0.505   0.707  -1.718
    1LIG     C8   14  -0.619   0.892  -1.627
    1LIG     C9   15  -0.738   0.947  -1.582
    1LIG    C10   16  -0.856   0.872  -1.583
    1LIG     F2   17  -0.740   1.073  -1.538
    1LIG     N2   18  -1.043   0.482  -1.801
    1LIG    C11   19  -0.953   0.422  -1.887
    1LIG     O2   20  -0.863   0.484  -1.943
    1LIG    C12   21  -0.975   0.275  -1.906
    1LIG     H4   22  -1.125   0.428  -1.776
    1LIG    C13   23  -1.442   0.460  -1.634
    1LIG    C14   24  -1.441   0.349  -1.742
    1LIG    C15   25  -1.517   0.223  -1.697
    1LIG    C16   26  -1.662   0.255  -1.663
    1LIG    C17   27  -1.674   0.366  -1.560
    1LIG    C18   28  -1.591   0.490  -1.598
    1LIG    C19   29  -1.352   0.420  -1.514
    1LIG    C20   30  -1.349   0.287  -1.464
    1LIG    C21   31  -1.270   0.250  -1.353
    1LIG    C22   32  -1.195   0.348  -1.288
    1LIG    C23   33  -1.195   0.479  -1.335
    1LIG    C24   34  -1.269   0.513  -1.449
    1LIG    C25   35  -1.262   0.107  -1.303
    1LIG    C26   36  -1.162   0.012  -1.377
    1LIG    C27   37  -1.198  -0.005  -1.526
    1LIG    C28   38  -1.021   0.074  -1.369
    1LIG    C29   39  -1.157  -0.126  -1.311
    1LIG    HC2   40  -1.358   0.623  -1.905
    1LIG    HC3   41  -1.259   0.491  -1.839
    1LIG     HC   42  -1.177   0.756  -1.880
    1LIG    HC1   43  -0.974   0.674  -1.843
    1LIG    HC4   44  -0.966   0.565  -1.579
    1LIG    HC5   45  -1.061   0.714  -1.574
    1LIG    HC6   46  -0.733   0.583  -1.711
    1LIG    HC7   47  -0.528   0.950  -1.626
    1LIG    HC8   48  -0.948   0.918  -1.549
    1LIG    HC9   49  -0.900   0.236  -1.975
    1LIG   HC10   50  -0.966   0.224  -1.810
    1LIG   HC11   51  -1.075   0.258  -1.947
    1LIG   HC12   52  -1.338   0.322  -1.764
    1LIG   HC13   53  -1.487   0.387  -1.833
    1LIG   HC14   54  -1.515   0.150  -1.778
    1LIG   HC15   55  -1.467   0.182  -1.610
    1LIG   HC16   56  -1.709   0.165  -1.623
    1LIG   HC17   57  -1.714   0.285  -1.754
    1LIG   HC18   58  -1.778   0.395  -1.551
    1LIG   HC19   59  -1.640   0.329  -1.463
    1LIG   HC20   60  -1.592   0.559  -1.513
    1LIG   HC21   61  -1.639   0.539  -1.683
    1LIG   HC22   62  -1.410   0.212  -1.512
    1LIG   HC23   63  -1.138   0.323  -1.200
    1LIG   HC24   64  -1.136   0.554  -1.285
    1LIG   HC25   65  -1.263   0.614  -1.487
    1LIG   HC26   66  -1.361   0.063  -1.312
    1LIG   HC27   67  -1.235   0.109  -1.198
    1LIG   HC28   68  -1.297  -0.049  -1.535
    1LIG   HC29   69  -1.196   0.092  -1.575
    1LIG   HC30   70  -1.125  -0.071  -1.574
    1LIG   HC31   71  -0.993   0.087  -1.265
    1LIG   HC32   72  -0.950   0.008  -1.418
    1LIG   HC33   73  -1.021   0.171  -1.420
    1LIG   HC34   74  -1.256  -0.172  -1.315
    1LIG   HC35   75  -1.127  -0.116  -1.207
    1LIG   HC36   76  -1.086  -0.190  -1.363
   0.00000   0.00000   0.00000
