GROningen Mixture of Alchemy and Childrens' Stories
   74
    1LIG      S    1  -1.270   0.725  -1.920
    1LIG     O1    2  -1.339   0.597  -1.909
    1LIG     O2    3  -1.235   0.784  -2.046
    1LIG     C1    4  -1.360   0.843  -1.822
    1LIG     C2    5  -1.385   0.790  -1.681
    1LIG     C3    6  -1.254   0.751  -1.607
    1LIG     C4    7  -1.155   0.658  -1.686
    1LIG     C5    8  -1.122   0.709  -1.825
    1LIG     C6    9  -1.464   0.896  -1.600
    1LIG     C7   10  -1.600   0.847  -1.557
    1LIG     C8   11  -1.611   0.739  -1.468
    1LIG     C9   12  -1.737   0.687  -1.431
    1LIG    C10   13  -1.852   0.748  -1.484
    1LIG    C11   14  -1.842   0.857  -1.571
    1LIG    C12   15  -1.717   0.905  -1.608
    1LIG    C13   16  -1.741   0.562  -1.347
    1LIG    C14   17  -1.734   0.433  -1.427
    1LIG    C15   18  -1.614   0.385  -1.482
    1LIG    C16   19  -1.610   0.269  -1.562
    1LIG    C17   20  -1.729   0.200  -1.586
    1LIG    C18   21  -1.482   0.222  -1.622
    1LIG    C19   22  -1.849   0.246  -1.532
    1LIG    C20   23  -1.852   0.362  -1.454
    1LIG     O3   24  -1.978   0.703  -1.460
    1LIG     H1   25  -2.038   0.778  -1.440
    1LIG     O4   26  -1.284   0.676  -1.488
    1LIG     H2   27  -1.300   0.582  -1.509
    1LIG      N   28  -1.214   0.518  -1.686
    1LIG     H3   29  -1.273   0.510  -1.601
    1LIG     H4   30  -1.281   0.507  -1.765
    1LIG    C21   31  -1.122   0.402  -1.697
    1LIG    C22   32  -1.132   0.318  -1.573
    1LIG    C23   33  -1.081   0.188  -1.574
    1LIG    C24   34  -1.074   0.112  -1.456
    1LIG    C25   35  -1.126   0.166  -1.338
    1LIG    C26   36  -1.180   0.295  -1.337
    1LIG    C27   37  -1.182   0.371  -1.453
    1LIG    C28   38  -1.003  -0.022  -1.460
    1LIG    C29   39  -0.853  -0.002  -1.486
    1LIG    C30   40  -1.027  -0.106  -1.334
    1LIG    HC2   41  -1.301   0.935  -1.816
    1LIG    HC3   42  -1.455   0.864  -1.870
    1LIG     HC   43  -1.447   0.701  -1.689
    1LIG    HC1   44  -1.201   0.841  -1.579
    1LIG    HC4   45  -1.062   0.654  -1.630
    1LIG    HC5   46  -1.055   0.639  -1.874
    1LIG    HC6   47  -1.074   0.807  -1.817
    1LIG    HC7   48  -1.407   0.922  -1.512
    1LIG    HC8   49  -1.477   0.985  -1.662
    1LIG    HC9   50  -1.522   0.696  -1.426
    1LIG   HC10   51  -1.931   0.903  -1.609
    1LIG   HC11   52  -1.710   0.988  -1.677
    1LIG   HC12   53  -1.834   0.561  -1.291
    1LIG   HC13   54  -1.658   0.564  -1.277
    1LIG   HC14   55  -1.522   0.438  -1.463
    1LIG   HC15   56  -1.728   0.111  -1.647
    1LIG   HC16   57  -1.401   0.289  -1.592
    1LIG   HC17   58  -1.490   0.223  -1.731
    1LIG   HC18   59  -1.460   0.121  -1.588
    1LIG   HC19   60  -1.941   0.192  -1.551
    1LIG   HC20   61  -1.946   0.397  -1.413
    1LIG   HC21   62  -1.148   0.342  -1.784
    1LIG   HC22   63  -1.019   0.438  -1.707
    1LIG   HC23   64  -1.046   0.145  -1.667
    1LIG   HC24   65  -1.124   0.108  -1.247
    1LIG   HC25   66  -1.221   0.335  -1.245
    1LIG   HC26   67  -1.221   0.472  -1.451
    1LIG   HC27   68  -1.043  -0.078  -1.544
    1LIG   HC28   69  -0.840   0.058  -1.576
    1LIG   HC29   70  -0.806  -0.099  -1.500
    1LIG   HC30   71  -0.808   0.049  -1.401
    1LIG   HC31   72  -0.984  -0.205  -1.348
    1LIG   HC32   73  -0.980  -0.058  -1.249
    1LIG   HC33   74  -1.134  -0.115  -1.317
   0.00000   0.00000   0.00000
