; Created by cgenff_charmm2gmx.py

[ moleculetype ]
; Name			   nrexcl
LIG				 3

[ atoms ]
;	 nr		  type	resnr residue  atom   cgnr	   charge		mass  typeB    chargeB		massB
; residue	 1 LIG rtp LIG q	qsum
     1      SG3O2      1    LIG      S      1      0.113     32.060   ;
     2      OG2P1      1    LIG     O1      2     -0.300     15.999   ;
     3      OG2P1      1    LIG     O2      3     -0.300     15.999   ;
     4      CG321      1    LIG     C1      4      0.180     12.011   ;
     5      CG311      1    LIG     C2      5     -0.145     12.011   ;
     6      CG311      1    LIG     C3      6      0.100     12.011   ;
     7      CG314      1    LIG     C4      7     -0.043     12.011   ;
     8      CG321      1    LIG     C5      8      0.224     12.011   ;
     9      CG321      1    LIG     C6      9     -0.087     12.011   ;
    10     CG2R61      1    LIG     C7     10     -0.031     12.011   ;
    11     CG2R61      1    LIG     C8     11     -0.128     12.011   ;
    12     CG2R61      1    LIG     C9     12      0.031     12.011   ;
    13     CG2R61      1    LIG    C10     13      0.094     12.011   ;
    14     CG2R61      1    LIG    C11     14     -0.109     12.011   ;
    15     CG2R61      1    LIG    C12     15     -0.121     12.011   ;
    16      CG321      1    LIG    C13     16     -0.189     12.011   ;
    17     CG2R61      1    LIG    C14     17     -0.009     12.011   ;
    18     CG2R61      1    LIG    C15     18     -0.128     12.011   ;
    19     CG2R61      1    LIG    C16     19      0.038     12.011   ;
    20     CG2R61      1    LIG    C17     20     -0.121     12.011   ;
    21      CG331      1    LIG    C18     21     -0.264     12.011   ;
    22     CG2R61      1    LIG    C19     22     -0.127     12.011   ;
    23     CG2R61      1    LIG    C20     23     -0.123     12.011   ;
    24      OG311      1    LIG     O3     24     -0.537     15.999   ;
    25       HGP1      1    LIG     H1     25      0.421      1.008   ;
    26      OG311      1    LIG     O4     26     -0.595     15.999   ;
    27       HGP1      1    LIG     H2     27      0.422      1.008   ;
    28      NG3P2      1    LIG      N     28     -0.444     14.007   ;
    29       HGP2      1    LIG     H3     29      0.346      1.008   ;
    30       HGP2      1    LIG     H4     30      0.346      1.008   ;
    31      CG324      1    LIG    C21     31      0.178     12.011   ;
    32     CG2R61      1    LIG    C22     32      0.035     12.011   ;
    33     CG2R61      1    LIG    C23     33     -0.117     12.011   ;
    34     CG2R61      1    LIG    C24     34     -0.017     12.011   ;
    35     CG2R61      1    LIG    C25     35     -0.114     12.011   ;
    36     CG2R61      1    LIG    C26     36     -0.109     12.011   ;
    37     CG2R61      1    LIG    C27     37     -0.119     12.011   ;
    38      CG311      1    LIG    C28     38     -0.088     12.011   ;
    39      CG331      1    LIG    C29     39     -0.264     12.011   ;
    40      CG331      1    LIG    C30     40     -0.264     12.011   ;
    41       HGA2      1    LIG    HC2     41      0.090      1.008   ;
    42       HGA2      1    LIG    HC3     42      0.090      1.008   ;
    43       HGA1      1    LIG     HC     43      0.090      1.008   ;
    44       HGA1      1    LIG    HC1     44      0.090      1.008   ;
    45       HGA1      1    LIG    HC4     45      0.109      1.008   ;
    46       HGA2      1    LIG    HC5     46      0.090      1.008   ;
    47       HGA2      1    LIG    HC6     47      0.090      1.008   ;
    48       HGA2      1    LIG    HC7     48      0.090      1.008   ;
    49       HGA2      1    LIG    HC8     49      0.090      1.008   ;
    50      HGR61      1    LIG    HC9     50      0.116      1.008   ;
    51      HGR61      1    LIG   HC10     51      0.116      1.008   ;
    52      HGR61      1    LIG   HC11     52      0.116      1.008   ;
    53       HGA2      1    LIG   HC12     53      0.090      1.008   ;
    54       HGA2      1    LIG   HC13     54      0.090      1.008   ;
    55      HGR61      1    LIG   HC14     55      0.116      1.008   ;
    56      HGR61      1    LIG   HC15     56      0.116      1.008   ;
    57       HGA3      1    LIG   HC16     57      0.090      1.008   ;
    58       HGA3      1    LIG   HC17     58      0.090      1.008   ;
    59       HGA3      1    LIG   HC18     59      0.090      1.008   ;
    60      HGR61      1    LIG   HC19     60      0.116      1.008   ;
    61      HGR61      1    LIG   HC20     61      0.116      1.008   ;
    62       HGA2      1    LIG   HC21     62      0.090      1.008   ;
    63       HGA2      1    LIG   HC22     63      0.090      1.008   ;
    64      HGR61      1    LIG   HC23     64      0.116      1.008   ;
    65      HGR61      1    LIG   HC24     65      0.116      1.008   ;
    66      HGR61      1    LIG   HC25     66      0.116      1.008   ;
    67      HGR61      1    LIG   HC26     67      0.116      1.008   ;
    68       HGA1      1    LIG   HC27     68      0.090      1.008   ;
    69       HGA3      1    LIG   HC28     69      0.090      1.008   ;
    70       HGA3      1    LIG   HC29     70      0.090      1.008   ;
    71       HGA3      1    LIG   HC30     71      0.090      1.008   ;
    72       HGA3      1    LIG   HC31     72      0.090      1.008   ;
    73       HGA3      1    LIG   HC32     73      0.090      1.008   ;
    74       HGA3      1    LIG   HC33     74      0.090      1.008   ;

[ bonds ]
;	ai	  aj funct			  c0			c1			  c2			c3
    1     3	 1 ;       SG3O2      OG2P1
    1     8	 1 ;       SG3O2      CG321
    1     4	 1 ;       SG3O2      CG321
    1     2	 1 ;       SG3O2      OG2P1
    4     5	 1 ;       CG321      CG311
    4    41	 1 ;       CG321       HGA2
    4    42	 1 ;       CG321       HGA2
    5     6	 1 ;       CG311      CG311
    5     9	 1 ;       CG311      CG321
    5    43	 1 ;       CG311       HGA1
    6     7	 1 ;       CG311      CG314
    6    26	 1 ;       CG311      OG311
    6    44	 1 ;       CG311       HGA1
    7     8	 1 ;       CG314      CG321
    7    28	 1 ;       CG314      NG3P2
    7    45	 1 ;       CG314       HGA1
    8    46	 1 ;       CG321       HGA2
    8    47	 1 ;       CG321       HGA2
    9    10	 1 ;       CG321     CG2R61
    9    48	 1 ;       CG321       HGA2
    9    49	 1 ;       CG321       HGA2
   10    15	 1 ;      CG2R61     CG2R61
   10    11	 1 ;      CG2R61     CG2R61
   11    12	 1 ;      CG2R61     CG2R61
   11    50	 1 ;      CG2R61      HGR61
   12    13	 1 ;      CG2R61     CG2R61
   12    16	 1 ;      CG2R61      CG321
   13    14	 1 ;      CG2R61     CG2R61
   13    24	 1 ;      CG2R61      OG311
   14    15	 1 ;      CG2R61     CG2R61
   14    51	 1 ;      CG2R61      HGR61
   15    52	 1 ;      CG2R61      HGR61
   16    17	 1 ;       CG321     CG2R61
   16    53	 1 ;       CG321       HGA2
   16    54	 1 ;       CG321       HGA2
   17    18	 1 ;      CG2R61     CG2R61
   17    23	 1 ;      CG2R61     CG2R61
   18    19	 1 ;      CG2R61     CG2R61
   18    55	 1 ;      CG2R61      HGR61
   19    21	 1 ;      CG2R61      CG331
   19    20	 1 ;      CG2R61     CG2R61
   20    22	 1 ;      CG2R61     CG2R61
   20    56	 1 ;      CG2R61      HGR61
   21    57	 1 ;       CG331       HGA3
   21    58	 1 ;       CG331       HGA3
   21    59	 1 ;       CG331       HGA3
   22    23	 1 ;      CG2R61     CG2R61
   22    60	 1 ;      CG2R61      HGR61
   23    61	 1 ;      CG2R61      HGR61
   24    25	 1 ;       OG311       HGP1
   26    27	 1 ;       OG311       HGP1
   28    31	 1 ;       NG3P2      CG324
   28    30	 1 ;       NG3P2       HGP2
   28    29	 1 ;       NG3P2       HGP2
   31    32	 1 ;       CG324     CG2R61
   31    62	 1 ;       CG324       HGA2
   31    63	 1 ;       CG324       HGA2
   32    33	 1 ;      CG2R61     CG2R61
   32    37	 1 ;      CG2R61     CG2R61
   33    34	 1 ;      CG2R61     CG2R61
   33    64	 1 ;      CG2R61      HGR61
   34    38	 1 ;      CG2R61      CG311
   34    35	 1 ;      CG2R61     CG2R61
   35    36	 1 ;      CG2R61     CG2R61
   35    65	 1 ;      CG2R61      HGR61
   36    37	 1 ;      CG2R61     CG2R61
   36    66	 1 ;      CG2R61      HGR61
   37    67	 1 ;      CG2R61      HGR61
   38    39	 1 ;       CG311      CG331
   38    40	 1 ;       CG311      CG331
   38    68	 1 ;       CG311       HGA1
   39    69	 1 ;       CG331       HGA3
   39    70	 1 ;       CG331       HGA3
   39    71	 1 ;       CG331       HGA3
   40    72	 1 ;       CG331       HGA3
   40    73	 1 ;       CG331       HGA3
   40    74	 1 ;       CG331       HGA3

[ pairs ]
;	ai	  aj funct			  c0			c1			  c2			c3
    1     6	 1
    1     9	 1
    1    43	 1
    1    28	 1
    1    45	 1
    2     7	 1
    2    46	 1
    2    47	 1
    2     5	 1
    2    41	 1
    2    42	 1
    3     7	 1
    3    46	 1
    3    47	 1
    3     5	 1
    3    41	 1
    3    42	 1
    4     7	 1
    4    46	 1
    4    47	 1
    4    26	 1
    4    44	 1
    4    10	 1
    4    48	 1
    4    49	 1
    5     8	 1
    5    28	 1
    5    45	 1
    5    27	 1
    5    15	 1
    5    11	 1
    6    41	 1
    6    42	 1
    6    10	 1
    6    48	 1
    6    49	 1
    6    46	 1
    6    47	 1
    6    31	 1
    6    30	 1
    6    29	 1
    7     9	 1
    7    43	 1
    7    27	 1
    7    32	 1
    7    62	 1
    7    63	 1
    8    41	 1
    8    42	 1
    8    26	 1
    8    44	 1
    8    31	 1
    8    30	 1
    8    29	 1
    9    41	 1
    9    42	 1
    9    26	 1
    9    44	 1
    9    14	 1
    9    52	 1
    9    12	 1
    9    50	 1
   10    43	 1
   10    13	 1
   10    16	 1
   10    51	 1
   11    48	 1
   11    49	 1
   11    14	 1
   11    52	 1
   11    24	 1
   11    17	 1
   11    53	 1
   11    54	 1
   12    15	 1
   12    51	 1
   12    25	 1
   12    18	 1
   12    23	 1
   13    50	 1
   13    17	 1
   13    53	 1
   13    54	 1
   13    52	 1
   14    16	 1
   14    25	 1
   15    48	 1
   15    49	 1
   15    50	 1
   15    24	 1
   16    50	 1
   16    24	 1
   16    19	 1
   16    55	 1
   16    22	 1
   16    61	 1
   17    21	 1
   17    20	 1
   17    60	 1
   18    53	 1
   18    54	 1
   18    22	 1
   18    61	 1
   18    57	 1
   18    58	 1
   18    59	 1
   18    56	 1
   19    23	 1
   19    60	 1
   20    55	 1
   20    57	 1
   20    58	 1
   20    59	 1
   20    61	 1
   21    55	 1
   21    22	 1
   21    56	 1
   23    53	 1
   23    54	 1
   23    55	 1
   23    56	 1
   24    51	 1
   26    43	 1
   26    28	 1
   26    45	 1
   27    44	 1
   28    44	 1
   28    46	 1
   28    47	 1
   28    33	 1
   28    37	 1
   29    45	 1
   29    32	 1
   29    62	 1
   29    63	 1
   30    45	 1
   30    32	 1
   30    62	 1
   30    63	 1
   31    45	 1
   31    34	 1
   31    64	 1
   31    36	 1
   31    67	 1
   32    38	 1
   32    35	 1
   32    66	 1
   33    62	 1
   33    63	 1
   33    36	 1
   33    67	 1
   33    39	 1
   33    40	 1
   33    68	 1
   33    65	 1
   34    37	 1
   34    66	 1
   34    69	 1
   34    70	 1
   34    71	 1
   34    72	 1
   34    73	 1
   34    74	 1
   35    64	 1
   35    39	 1
   35    40	 1
   35    68	 1
   35    67	 1
   36    38	 1
   37    62	 1
   37    63	 1
   37    64	 1
   37    65	 1
   38    64	 1
   38    65	 1
   39    72	 1
   39    73	 1
   39    74	 1
   40    69	 1
   40    70	 1
   40    71	 1
   41    43	 1
   42    43	 1
   43    44	 1
   43    48	 1
   43    49	 1
   44    45	 1
   45    46	 1
   45    47	 1
   51    52	 1
   56    60	 1
   60    61	 1
   65    66	 1
   66    67	 1
   68    69	 1
   68    70	 1
   68    71	 1
   68    72	 1
   68    73	 1
   68    74	 1

[ angles ]
;	ai	  aj	ak funct			c0			  c1			c2			  c3
    3     1     8	5 ;      OG2P1      SG3O2      CG321
    3     1     4	5 ;      OG2P1      SG3O2      CG321
    3     1     2	5 ;      OG2P1      SG3O2      OG2P1
    8     1     4	5 ;      CG321      SG3O2      CG321
    8     1     2	5 ;      CG321      SG3O2      OG2P1
    4     1     2	5 ;      CG321      SG3O2      OG2P1
    1     4     5	5 ;      SG3O2      CG321      CG311
    1     4    41	5 ;      SG3O2      CG321       HGA2
    1     4    42	5 ;      SG3O2      CG321       HGA2
    5     4    41	5 ;      CG311      CG321       HGA2
    5     4    42	5 ;      CG311      CG321       HGA2
   41     4    42	5 ;       HGA2      CG321       HGA2
    4     5     6	5 ;      CG321      CG311      CG311
    4     5     9	5 ;      CG321      CG311      CG321
    4     5    43	5 ;      CG321      CG311       HGA1
    6     5     9	5 ;      CG311      CG311      CG321
    6     5    43	5 ;      CG311      CG311       HGA1
    9     5    43	5 ;      CG321      CG311       HGA1
    7     6     5	5 ;      CG314      CG311      CG311
    7     6    26	5 ;      CG314      CG311      OG311
    7     6    44	5 ;      CG314      CG311       HGA1
    5     6    26	5 ;      CG311      CG311      OG311
    5     6    44	5 ;      CG311      CG311       HGA1
   26     6    44	5 ;      OG311      CG311       HGA1
    8     7    28	5 ;      CG321      CG314      NG3P2
    8     7     6	5 ;      CG321      CG314      CG311
    8     7    45	5 ;      CG321      CG314       HGA1
   28     7     6	5 ;      NG3P2      CG314      CG311
   28     7    45	5 ;      NG3P2      CG314       HGA1
    6     7    45	5 ;      CG311      CG314       HGA1
    1     8     7	5 ;      SG3O2      CG321      CG314
    1     8    46	5 ;      SG3O2      CG321       HGA2
    1     8    47	5 ;      SG3O2      CG321       HGA2
    7     8    46	5 ;      CG314      CG321       HGA2
    7     8    47	5 ;      CG314      CG321       HGA2
   46     8    47	5 ;       HGA2      CG321       HGA2
    5     9    10	5 ;      CG311      CG321     CG2R61
    5     9    48	5 ;      CG311      CG321       HGA2
    5     9    49	5 ;      CG311      CG321       HGA2
   10     9    48	5 ;     CG2R61      CG321       HGA2
   10     9    49	5 ;     CG2R61      CG321       HGA2
   48     9    49	5 ;       HGA2      CG321       HGA2
    9    10    15	5 ;      CG321     CG2R61     CG2R61
    9    10    11	5 ;      CG321     CG2R61     CG2R61
   15    10    11	5 ;     CG2R61     CG2R61     CG2R61
   10    11    12	5 ;     CG2R61     CG2R61     CG2R61
   10    11    50	5 ;     CG2R61     CG2R61      HGR61
   12    11    50	5 ;     CG2R61     CG2R61      HGR61
   11    12    13	5 ;     CG2R61     CG2R61     CG2R61
   11    12    16	5 ;     CG2R61     CG2R61      CG321
   13    12    16	5 ;     CG2R61     CG2R61      CG321
   14    13    12	5 ;     CG2R61     CG2R61     CG2R61
   14    13    24	5 ;     CG2R61     CG2R61      OG311
   12    13    24	5 ;     CG2R61     CG2R61      OG311
   15    14    13	5 ;     CG2R61     CG2R61     CG2R61
   15    14    51	5 ;     CG2R61     CG2R61      HGR61
   13    14    51	5 ;     CG2R61     CG2R61      HGR61
   10    15    14	5 ;     CG2R61     CG2R61     CG2R61
   10    15    52	5 ;     CG2R61     CG2R61      HGR61
   14    15    52	5 ;     CG2R61     CG2R61      HGR61
   12    16    17	5 ;     CG2R61      CG321     CG2R61
   12    16    53	5 ;     CG2R61      CG321       HGA2
   12    16    54	5 ;     CG2R61      CG321       HGA2
   17    16    53	5 ;     CG2R61      CG321       HGA2
   17    16    54	5 ;     CG2R61      CG321       HGA2
   53    16    54	5 ;       HGA2      CG321       HGA2
   18    17    16	5 ;     CG2R61     CG2R61      CG321
   18    17    23	5 ;     CG2R61     CG2R61     CG2R61
   16    17    23	5 ;      CG321     CG2R61     CG2R61
   19    18    17	5 ;     CG2R61     CG2R61     CG2R61
   19    18    55	5 ;     CG2R61     CG2R61      HGR61
   17    18    55	5 ;     CG2R61     CG2R61      HGR61
   21    19    18	5 ;      CG331     CG2R61     CG2R61
   21    19    20	5 ;      CG331     CG2R61     CG2R61
   18    19    20	5 ;     CG2R61     CG2R61     CG2R61
   19    20    22	5 ;     CG2R61     CG2R61     CG2R61
   19    20    56	5 ;     CG2R61     CG2R61      HGR61
   22    20    56	5 ;     CG2R61     CG2R61      HGR61
   19    21    57	5 ;     CG2R61      CG331       HGA3
   19    21    58	5 ;     CG2R61      CG331       HGA3
   19    21    59	5 ;     CG2R61      CG331       HGA3
   57    21    58	5 ;       HGA3      CG331       HGA3
   57    21    59	5 ;       HGA3      CG331       HGA3
   58    21    59	5 ;       HGA3      CG331       HGA3
   20    22    23	5 ;     CG2R61     CG2R61     CG2R61
   20    22    60	5 ;     CG2R61     CG2R61      HGR61
   23    22    60	5 ;     CG2R61     CG2R61      HGR61
   17    23    22	5 ;     CG2R61     CG2R61     CG2R61
   17    23    61	5 ;     CG2R61     CG2R61      HGR61
   22    23    61	5 ;     CG2R61     CG2R61      HGR61
   13    24    25	5 ;     CG2R61      OG311       HGP1
    6    26    27	5 ;      CG311      OG311       HGP1
    7    28    31	5 ;      CG314      NG3P2      CG324
    7    28    30	5 ;      CG314      NG3P2       HGP2
    7    28    29	5 ;      CG314      NG3P2       HGP2
   31    28    30	5 ;      CG324      NG3P2       HGP2
   31    28    29	5 ;      CG324      NG3P2       HGP2
   30    28    29	5 ;       HGP2      NG3P2       HGP2
   28    31    32	5 ;      NG3P2      CG324     CG2R61
   28    31    62	5 ;      NG3P2      CG324       HGA2
   28    31    63	5 ;      NG3P2      CG324       HGA2
   32    31    62	5 ;     CG2R61      CG324       HGA2
   32    31    63	5 ;     CG2R61      CG324       HGA2
   62    31    63	5 ;       HGA2      CG324       HGA2
   31    32    33	5 ;      CG324     CG2R61     CG2R61
   31    32    37	5 ;      CG324     CG2R61     CG2R61
   33    32    37	5 ;     CG2R61     CG2R61     CG2R61
   32    33    34	5 ;     CG2R61     CG2R61     CG2R61
   32    33    64	5 ;     CG2R61     CG2R61      HGR61
   34    33    64	5 ;     CG2R61     CG2R61      HGR61
   33    34    38	5 ;     CG2R61     CG2R61      CG311
   33    34    35	5 ;     CG2R61     CG2R61     CG2R61
   38    34    35	5 ;      CG311     CG2R61     CG2R61
   34    35    36	5 ;     CG2R61     CG2R61     CG2R61
   34    35    65	5 ;     CG2R61     CG2R61      HGR61
   36    35    65	5 ;     CG2R61     CG2R61      HGR61
   37    36    35	5 ;     CG2R61     CG2R61     CG2R61
   37    36    66	5 ;     CG2R61     CG2R61      HGR61
   35    36    66	5 ;     CG2R61     CG2R61      HGR61
   32    37    36	5 ;     CG2R61     CG2R61     CG2R61
   32    37    67	5 ;     CG2R61     CG2R61      HGR61
   36    37    67	5 ;     CG2R61     CG2R61      HGR61
   39    38    34	5 ;      CG331      CG311     CG2R61
   39    38    40	5 ;      CG331      CG311      CG331
   39    38    68	5 ;      CG331      CG311       HGA1
   34    38    40	5 ;     CG2R61      CG311      CG331
   34    38    68	5 ;     CG2R61      CG311       HGA1
   40    38    68	5 ;      CG331      CG311       HGA1
   38    39    69	5 ;      CG311      CG331       HGA3
   38    39    70	5 ;      CG311      CG331       HGA3
   38    39    71	5 ;      CG311      CG331       HGA3
   69    39    70	5 ;       HGA3      CG331       HGA3
   69    39    71	5 ;       HGA3      CG331       HGA3
   70    39    71	5 ;       HGA3      CG331       HGA3
   38    40    72	5 ;      CG311      CG331       HGA3
   38    40    73	5 ;      CG311      CG331       HGA3
   38    40    74	5 ;      CG311      CG331       HGA3
   72    40    73	5 ;       HGA3      CG331       HGA3
   72    40    74	5 ;       HGA3      CG331       HGA3
   73    40    74	5 ;       HGA3      CG331       HGA3

[ dihedrals ]
;	ai	  aj	ak	  al funct			  c0			c1			  c2			c3			  c4			c5
    3     1     8     7	 9 ;      OG2P1      SG3O2      CG321      CG314
    3     1     8    46	 9 ;      OG2P1      SG3O2      CG321       HGA2
    3     1     8    47	 9 ;      OG2P1      SG3O2      CG321       HGA2
    4     1     8     7	 9 ;      CG321      SG3O2      CG321      CG314
    4     1     8    46	 9 ;      CG321      SG3O2      CG321       HGA2
    4     1     8    47	 9 ;      CG321      SG3O2      CG321       HGA2
    2     1     8     7	 9 ;      OG2P1      SG3O2      CG321      CG314
    2     1     8    46	 9 ;      OG2P1      SG3O2      CG321       HGA2
    2     1     8    47	 9 ;      OG2P1      SG3O2      CG321       HGA2
    3     1     4     5	 9 ;      OG2P1      SG3O2      CG321      CG311
    3     1     4    41	 9 ;      OG2P1      SG3O2      CG321       HGA2
    3     1     4    42	 9 ;      OG2P1      SG3O2      CG321       HGA2
    8     1     4     5	 9 ;      CG321      SG3O2      CG321      CG311
    8     1     4    41	 9 ;      CG321      SG3O2      CG321       HGA2
    8     1     4    42	 9 ;      CG321      SG3O2      CG321       HGA2
    2     1     4     5	 9 ;      OG2P1      SG3O2      CG321      CG311
    2     1     4    41	 9 ;      OG2P1      SG3O2      CG321       HGA2
    2     1     4    42	 9 ;      OG2P1      SG3O2      CG321       HGA2
    1     4     5     6	 9 ;      SG3O2      CG321      CG311      CG311
    1     4     5     9	 9 ;      SG3O2      CG321      CG311      CG321
    1     4     5    43	 9 ;      SG3O2      CG321      CG311       HGA1
   41     4     5     6	 9 ;       HGA2      CG321      CG311      CG311
   41     4     5     9	 9 ;       HGA2      CG321      CG311      CG321
   41     4     5    43	 9 ;       HGA2      CG321      CG311       HGA1
   42     4     5     6	 9 ;       HGA2      CG321      CG311      CG311
   42     4     5     9	 9 ;       HGA2      CG321      CG311      CG321
   42     4     5    43	 9 ;       HGA2      CG321      CG311       HGA1
    4     5     6     7	 9 ;      CG321      CG311      CG311      CG314
    4     5     6    26	 9 ;      CG321      CG311      CG311      OG311
    4     5     6    44	 9 ;      CG321      CG311      CG311       HGA1
    9     5     6     7	 9 ;      CG321      CG311      CG311      CG314
    9     5     6    26	 9 ;      CG321      CG311      CG311      OG311
    9     5     6    44	 9 ;      CG321      CG311      CG311       HGA1
   43     5     6     7	 9 ;       HGA1      CG311      CG311      CG314
   43     5     6    26	 9 ;       HGA1      CG311      CG311      OG311
   43     5     6    44	 9 ;       HGA1      CG311      CG311       HGA1
    4     5     9    10	 9 ;      CG321      CG311      CG321     CG2R61
    4     5     9    48	 9 ;      CG321      CG311      CG321       HGA2
    4     5     9    49	 9 ;      CG321      CG311      CG321       HGA2
    6     5     9    10	 9 ;      CG311      CG311      CG321     CG2R61
    6     5     9    48	 9 ;      CG311      CG311      CG321       HGA2
    6     5     9    49	 9 ;      CG311      CG311      CG321       HGA2
   43     5     9    10	 9 ;       HGA1      CG311      CG321     CG2R61
   43     5     9    48	 9 ;       HGA1      CG311      CG321       HGA2
   43     5     9    49	 9 ;       HGA1      CG311      CG321       HGA2
    5     6     7     8	 9 ;      CG311      CG311      CG314      CG321
    5     6     7    28	 9 ;      CG311      CG311      CG314      NG3P2
    5     6     7    45	 9 ;      CG311      CG311      CG314       HGA1
   26     6     7     8	 9 ;      OG311      CG311      CG314      CG321
   26     6     7    28	 9 ;      OG311      CG311      CG314      NG3P2
   26     6     7    45	 9 ;      OG311      CG311      CG314       HGA1
   44     6     7     8	 9 ;       HGA1      CG311      CG314      CG321
   44     6     7    28	 9 ;       HGA1      CG311      CG314      NG3P2
   44     6     7    45	 9 ;       HGA1      CG311      CG314       HGA1
    7     6    26    27	 9 ;      CG314      CG311      OG311       HGP1
    5     6    26    27	 9 ;      CG311      CG311      OG311       HGP1
   44     6    26    27	 9 ;       HGA1      CG311      OG311       HGP1
   28     7     8     1	 9 ;      NG3P2      CG314      CG321      SG3O2
   28     7     8    46	 9 ;      NG3P2      CG314      CG321       HGA2
   28     7     8    47	 9 ;      NG3P2      CG314      CG321       HGA2
    6     7     8     1	 9 ;      CG311      CG314      CG321      SG3O2
    6     7     8    46	 9 ;      CG311      CG314      CG321       HGA2
    6     7     8    47	 9 ;      CG311      CG314      CG321       HGA2
   45     7     8     1	 9 ;       HGA1      CG314      CG321      SG3O2
   45     7     8    46	 9 ;       HGA1      CG314      CG321       HGA2
   45     7     8    47	 9 ;       HGA1      CG314      CG321       HGA2
    8     7    28    31	 9 ;      CG321      CG314      NG3P2      CG324
    8     7    28    30	 9 ;      CG321      CG314      NG3P2       HGP2
    8     7    28    29	 9 ;      CG321      CG314      NG3P2       HGP2
    6     7    28    31	 9 ;      CG311      CG314      NG3P2      CG324
    6     7    28    30	 9 ;      CG311      CG314      NG3P2       HGP2
    6     7    28    29	 9 ;      CG311      CG314      NG3P2       HGP2
   45     7    28    31	 9 ;       HGA1      CG314      NG3P2      CG324
   45     7    28    30	 9 ;       HGA1      CG314      NG3P2       HGP2
   45     7    28    29	 9 ;       HGA1      CG314      NG3P2       HGP2
    5     9    10    15	 9 ;      CG311      CG321     CG2R61     CG2R61
    5     9    10    11	 9 ;      CG311      CG321     CG2R61     CG2R61
   48     9    10    15	 9 ;       HGA2      CG321     CG2R61     CG2R61
   48     9    10    11	 9 ;       HGA2      CG321     CG2R61     CG2R61
   49     9    10    15	 9 ;       HGA2      CG321     CG2R61     CG2R61
   49     9    10    11	 9 ;       HGA2      CG321     CG2R61     CG2R61
    9    10    15    14	 9 ;      CG321     CG2R61     CG2R61     CG2R61
    9    10    15    52	 9 ;      CG321     CG2R61     CG2R61      HGR61
   11    10    15    14	 9 ;     CG2R61     CG2R61     CG2R61     CG2R61
   11    10    15    52	 9 ;     CG2R61     CG2R61     CG2R61      HGR61
    9    10    11    12	 9 ;      CG321     CG2R61     CG2R61     CG2R61
    9    10    11    50	 9 ;      CG321     CG2R61     CG2R61      HGR61
   15    10    11    12	 9 ;     CG2R61     CG2R61     CG2R61     CG2R61
   15    10    11    50	 9 ;     CG2R61     CG2R61     CG2R61      HGR61
   10    11    12    13	 9 ;     CG2R61     CG2R61     CG2R61     CG2R61
   10    11    12    16	 9 ;     CG2R61     CG2R61     CG2R61      CG321
   50    11    12    13	 9 ;      HGR61     CG2R61     CG2R61     CG2R61
   50    11    12    16	 9 ;      HGR61     CG2R61     CG2R61      CG321
   11    12    13    14	 9 ;     CG2R61     CG2R61     CG2R61     CG2R61
   11    12    13    24	 9 ;     CG2R61     CG2R61     CG2R61      OG311
   16    12    13    14	 9 ;      CG321     CG2R61     CG2R61     CG2R61
   16    12    13    24	 9 ;      CG321     CG2R61     CG2R61      OG311
   11    12    16    17	 9 ;     CG2R61     CG2R61      CG321     CG2R61
   11    12    16    53	 9 ;     CG2R61     CG2R61      CG321       HGA2
   11    12    16    54	 9 ;     CG2R61     CG2R61      CG321       HGA2
   13    12    16    17	 9 ;     CG2R61     CG2R61      CG321     CG2R61
   13    12    16    53	 9 ;     CG2R61     CG2R61      CG321       HGA2
   13    12    16    54	 9 ;     CG2R61     CG2R61      CG321       HGA2
   12    13    14    15	 9 ;     CG2R61     CG2R61     CG2R61     CG2R61
   12    13    14    51	 9 ;     CG2R61     CG2R61     CG2R61      HGR61
   24    13    14    15	 9 ;      OG311     CG2R61     CG2R61     CG2R61
   24    13    14    51	 9 ;      OG311     CG2R61     CG2R61      HGR61
   14    13    24    25	 9 ;     CG2R61     CG2R61      OG311       HGP1
   12    13    24    25	 9 ;     CG2R61     CG2R61      OG311       HGP1
   13    14    15    10	 9 ;     CG2R61     CG2R61     CG2R61     CG2R61
   13    14    15    52	 9 ;     CG2R61     CG2R61     CG2R61      HGR61
   51    14    15    10	 9 ;      HGR61     CG2R61     CG2R61     CG2R61
   51    14    15    52	 9 ;      HGR61     CG2R61     CG2R61      HGR61
   12    16    17    18	 9 ;     CG2R61      CG321     CG2R61     CG2R61
   12    16    17    23	 9 ;     CG2R61      CG321     CG2R61     CG2R61
   53    16    17    18	 9 ;       HGA2      CG321     CG2R61     CG2R61
   53    16    17    23	 9 ;       HGA2      CG321     CG2R61     CG2R61
   54    16    17    18	 9 ;       HGA2      CG321     CG2R61     CG2R61
   54    16    17    23	 9 ;       HGA2      CG321     CG2R61     CG2R61
   16    17    18    19	 9 ;      CG321     CG2R61     CG2R61     CG2R61
   16    17    18    55	 9 ;      CG321     CG2R61     CG2R61      HGR61
   23    17    18    19	 9 ;     CG2R61     CG2R61     CG2R61     CG2R61
   23    17    18    55	 9 ;     CG2R61     CG2R61     CG2R61      HGR61
   18    17    23    22	 9 ;     CG2R61     CG2R61     CG2R61     CG2R61
   18    17    23    61	 9 ;     CG2R61     CG2R61     CG2R61      HGR61
   16    17    23    22	 9 ;      CG321     CG2R61     CG2R61     CG2R61
   16    17    23    61	 9 ;      CG321     CG2R61     CG2R61      HGR61
   17    18    19    21	 9 ;     CG2R61     CG2R61     CG2R61      CG331
   17    18    19    20	 9 ;     CG2R61     CG2R61     CG2R61     CG2R61
   55    18    19    21	 9 ;      HGR61     CG2R61     CG2R61      CG331
   55    18    19    20	 9 ;      HGR61     CG2R61     CG2R61     CG2R61
   18    19    21    57	 9 ;     CG2R61     CG2R61      CG331       HGA3
   18    19    21    58	 9 ;     CG2R61     CG2R61      CG331       HGA3
   18    19    21    59	 9 ;     CG2R61     CG2R61      CG331       HGA3
   20    19    21    57	 9 ;     CG2R61     CG2R61      CG331       HGA3
   20    19    21    58	 9 ;     CG2R61     CG2R61      CG331       HGA3
   20    19    21    59	 9 ;     CG2R61     CG2R61      CG331       HGA3
   21    19    20    22	 9 ;      CG331     CG2R61     CG2R61     CG2R61
   21    19    20    56	 9 ;      CG331     CG2R61     CG2R61      HGR61
   18    19    20    22	 9 ;     CG2R61     CG2R61     CG2R61     CG2R61
   18    19    20    56	 9 ;     CG2R61     CG2R61     CG2R61      HGR61
   19    20    22    23	 9 ;     CG2R61     CG2R61     CG2R61     CG2R61
   19    20    22    60	 9 ;     CG2R61     CG2R61     CG2R61      HGR61
   56    20    22    23	 9 ;      HGR61     CG2R61     CG2R61     CG2R61
   56    20    22    60	 9 ;      HGR61     CG2R61     CG2R61      HGR61
   20    22    23    17	 9 ;     CG2R61     CG2R61     CG2R61     CG2R61
   20    22    23    61	 9 ;     CG2R61     CG2R61     CG2R61      HGR61
   60    22    23    17	 9 ;      HGR61     CG2R61     CG2R61     CG2R61
   60    22    23    61	 9 ;      HGR61     CG2R61     CG2R61      HGR61
    7    28    31    32	 9 ;      CG314      NG3P2      CG324     CG2R61
    7    28    31    62	 9 ;      CG314      NG3P2      CG324       HGA2
    7    28    31    63	 9 ;      CG314      NG3P2      CG324       HGA2
   30    28    31    32	 9 ;       HGP2      NG3P2      CG324     CG2R61
   30    28    31    62	 9 ;       HGP2      NG3P2      CG324       HGA2
   30    28    31    63	 9 ;       HGP2      NG3P2      CG324       HGA2
   29    28    31    32	 9 ;       HGP2      NG3P2      CG324     CG2R61
   29    28    31    62	 9 ;       HGP2      NG3P2      CG324       HGA2
   29    28    31    63	 9 ;       HGP2      NG3P2      CG324       HGA2
   28    31    32    33	 9 ;      NG3P2      CG324     CG2R61     CG2R61
   28    31    32    37	 9 ;      NG3P2      CG324     CG2R61     CG2R61
   62    31    32    33	 9 ;       HGA2      CG324     CG2R61     CG2R61
   62    31    32    37	 9 ;       HGA2      CG324     CG2R61     CG2R61
   63    31    32    33	 9 ;       HGA2      CG324     CG2R61     CG2R61
   63    31    32    37	 9 ;       HGA2      CG324     CG2R61     CG2R61
   31    32    33    34	 9 ;      CG324     CG2R61     CG2R61     CG2R61
   31    32    33    64	 9 ;      CG324     CG2R61     CG2R61      HGR61
   37    32    33    34	 9 ;     CG2R61     CG2R61     CG2R61     CG2R61
   37    32    33    64	 9 ;     CG2R61     CG2R61     CG2R61      HGR61
   31    32    37    36	 9 ;      CG324     CG2R61     CG2R61     CG2R61
   31    32    37    67	 9 ;      CG324     CG2R61     CG2R61      HGR61
   33    32    37    36	 9 ;     CG2R61     CG2R61     CG2R61     CG2R61
   33    32    37    67	 9 ;     CG2R61     CG2R61     CG2R61      HGR61
   32    33    34    38	 9 ;     CG2R61     CG2R61     CG2R61      CG311
   32    33    34    35	 9 ;     CG2R61     CG2R61     CG2R61     CG2R61
   64    33    34    38	 9 ;      HGR61     CG2R61     CG2R61      CG311
   64    33    34    35	 9 ;      HGR61     CG2R61     CG2R61     CG2R61
   33    34    38    39	 9 ;     CG2R61     CG2R61      CG311      CG331
   33    34    38    40	 9 ;     CG2R61     CG2R61      CG311      CG331
   33    34    38    68	 9 ;     CG2R61     CG2R61      CG311       HGA1
   35    34    38    39	 9 ;     CG2R61     CG2R61      CG311      CG331
   35    34    38    40	 9 ;     CG2R61     CG2R61      CG311      CG331
   35    34    38    68	 9 ;     CG2R61     CG2R61      CG311       HGA1
   33    34    35    36	 9 ;     CG2R61     CG2R61     CG2R61     CG2R61
   33    34    35    65	 9 ;     CG2R61     CG2R61     CG2R61      HGR61
   38    34    35    36	 9 ;      CG311     CG2R61     CG2R61     CG2R61
   38    34    35    65	 9 ;      CG311     CG2R61     CG2R61      HGR61
   34    35    36    37	 9 ;     CG2R61     CG2R61     CG2R61     CG2R61
   34    35    36    66	 9 ;     CG2R61     CG2R61     CG2R61      HGR61
   65    35    36    37	 9 ;      HGR61     CG2R61     CG2R61     CG2R61
   65    35    36    66	 9 ;      HGR61     CG2R61     CG2R61      HGR61
   35    36    37    32	 9 ;     CG2R61     CG2R61     CG2R61     CG2R61
   35    36    37    67	 9 ;     CG2R61     CG2R61     CG2R61      HGR61
   66    36    37    32	 9 ;      HGR61     CG2R61     CG2R61     CG2R61
   66    36    37    67	 9 ;      HGR61     CG2R61     CG2R61      HGR61
   34    38    39    69	 9 ;     CG2R61      CG311      CG331       HGA3
   34    38    39    70	 9 ;     CG2R61      CG311      CG331       HGA3
   34    38    39    71	 9 ;     CG2R61      CG311      CG331       HGA3
   40    38    39    69	 9 ;      CG331      CG311      CG331       HGA3
   40    38    39    70	 9 ;      CG331      CG311      CG331       HGA3
   40    38    39    71	 9 ;      CG331      CG311      CG331       HGA3
   68    38    39    69	 9 ;       HGA1      CG311      CG331       HGA3
   68    38    39    70	 9 ;       HGA1      CG311      CG331       HGA3
   68    38    39    71	 9 ;       HGA1      CG311      CG331       HGA3
   39    38    40    72	 9 ;      CG331      CG311      CG331       HGA3
   39    38    40    73	 9 ;      CG331      CG311      CG331       HGA3
   39    38    40    74	 9 ;      CG331      CG311      CG331       HGA3
   34    38    40    72	 9 ;     CG2R61      CG311      CG331       HGA3
   34    38    40    73	 9 ;     CG2R61      CG311      CG331       HGA3
   34    38    40    74	 9 ;     CG2R61      CG311      CG331       HGA3
   68    38    40    72	 9 ;       HGA1      CG311      CG331       HGA3
   68    38    40    73	 9 ;       HGA1      CG311      CG331       HGA3
   68    38    40    74	 9 ;       HGA1      CG311      CG331       HGA3

