Giant Rising Ordinary Mutants for A Clerical Setup
   73
    1LIG     C1    1  -1.719   0.571  -1.536
    1LIG     C2    2  -1.587   0.550  -1.576
    1LIG     C3    3  -1.508   0.455  -1.511
    1LIG     C4    4  -1.564   0.376  -1.410
    1LIG     C5    5  -1.696   0.400  -1.365
    1LIG     C6    6  -1.774   0.496  -1.431
    1LIG     C7    7  -1.751   0.330  -1.243
    1LIG     O1    8  -1.894   0.317  -1.249
    1LIG     C8    9  -1.941   0.188  -1.204
    1LIG     C9   10  -2.096   0.183  -1.213
    1LIG     N1   11  -2.132   0.155  -1.359
    1LIG     H1   12  -2.149   0.240  -1.414
    1LIG     H2   13  -2.061   0.098  -1.406
    1LIG     H3   14  -2.218   0.098  -1.357
    1LIG    C10   15  -2.157   0.068  -1.130
    1LIG    C11   16  -2.084  -0.064  -1.133
    1LIG    C12   17  -2.006  -0.104  -1.024
    1LIG    C13   18  -1.950  -0.232  -1.022
    1LIG    C14   19  -1.970  -0.319  -1.128
    1LIG    C15   20  -2.044  -0.278  -1.239
    1LIG    C16   21  -2.101  -0.151  -1.242
    1LIG    C17   22  -2.158   0.321  -1.183
    1LIG     O2   23  -2.090   0.380  -1.071
    1LIG     H4   24  -2.121   0.334  -0.989
    1LIG    C18   25  -1.360   0.461  -1.531
    1LIG     O3   26  -1.299   0.558  -1.490
    1LIG     N2   27  -1.299   0.350  -1.586
    1LIG     H5   28  -1.354   0.279  -1.632
    1LIG    C19   29  -1.153   0.342  -1.597
    1LIG    C20   30  -1.112   0.336  -1.745
    1LIG    C21   31  -1.101   0.225  -1.515
    1LIG    C22   32  -1.011   0.133  -1.573
    1LIG    C23   33  -0.964   0.023  -1.501
    1LIG    C24   34  -1.005   0.005  -1.370
    1LIG      F   35  -0.957  -0.099  -1.299
    1LIG    C25   36  -1.093   0.093  -1.310
    1LIG    C26   37  -1.141   0.203  -1.382
    1LIG     N3   38  -1.791   0.684  -1.585
    1LIG    C27   39  -1.868   0.669  -1.709
    1LIG      S   40  -1.796   0.828  -1.499
    1LIG     O4   41  -1.759   0.800  -1.362
    1LIG     O5   42  -1.920   0.897  -1.531
    1LIG    C28   43  -1.662   0.919  -1.573
    1LIG     HC   44  -1.546   0.608  -1.657
    1LIG    HC1   45  -1.507   0.296  -1.366
    1LIG    HC2   46  -1.876   0.512  -1.402
    1LIG    HC3   47  -1.724   0.387  -1.155
    1LIG    HC4   48  -1.706   0.230  -1.237
    1LIG    HC5   49  -1.910   0.172  -1.101
    1LIG    HC6   50  -1.898   0.110  -1.267
    1LIG    HC7   51  -2.258   0.051  -1.167
    1LIG    HC8   52  -2.163   0.101  -1.026
    1LIG    HC9   53  -1.989  -0.037  -0.942
    1LIG   HC10   54  -1.891  -0.263  -0.937
    1LIG   HC11   55  -1.928  -0.419  -1.125
    1LIG   HC12   56  -2.057  -0.345  -1.323
    1LIG   HC13   57  -2.157  -0.120  -1.328
    1LIG   HC14   58  -2.263   0.310  -1.159
    1LIG   HC15   59  -2.146   0.386  -1.270
    1LIG   HC16   60  -1.111   0.433  -1.555
    1LIG   HC17   61  -1.157   0.419  -1.799
    1LIG   HC18   62  -1.003   0.342  -1.753
    1LIG   HC19   63  -1.146   0.241  -1.788
    1LIG   HC20   64  -0.979   0.148  -1.675
    1LIG   HC21   65  -0.895  -0.046  -1.547
    1LIG   HC22   66  -1.125   0.077  -1.208
    1LIG   HC23   67  -1.209   0.272  -1.334
    1LIG   HC24   68  -1.917   0.763  -1.733
    1LIG   HC25   69  -1.801   0.641  -1.790
    1LIG   HC26   70  -1.943   0.591  -1.696
    1LIG   HC27   71  -1.654   1.017  -1.526
    1LIG   HC28   72  -1.682   0.932  -1.680
    1LIG   HC29   73  -1.569   0.864  -1.560
   0.00000   0.00000   0.00000
