Gyas ROwers Mature At Cryogenic Speed
   48
    1LIG     C1    1  -1.357   0.752  -1.622
    1LIG     C2    2  -1.398   0.618  -1.620
    1LIG     C3    3  -1.324   0.518  -1.555
    1LIG     C4    4  -1.204   0.553  -1.493
    1LIG     O1    5  -1.123   0.466  -1.427
    1LIG     C5    6  -1.157   0.333  -1.428
    1LIG     C6    7  -1.273   0.282  -1.485
    1LIG     C7    8  -1.295   0.142  -1.480
    1LIG     C8    9  -1.204   0.057  -1.417
    1LIG     C9   10  -1.089   0.110  -1.360
    1LIG    C10   11  -1.065   0.247  -1.365
    1LIG    C11   12  -1.372   0.374  -1.553
    1LIG     N1   13  -1.394   0.328  -1.693
    1LIG     HN   14  -1.327   0.326  -1.769
    1LIG    C12   15  -1.518   0.289  -1.696
    1LIG     O2   16  -1.596   0.303  -1.587
    1LIG    C13   17  -1.512   0.362  -1.488
    1LIG     N2   18  -1.581   0.235  -1.802
    1LIG    C14   19  -1.160   0.686  -1.496
    1LIG    C15   20  -1.235   0.784  -1.559
    1LIG     H1   21  -1.681   0.244  -1.801
    1LIG     H2   22  -1.536   0.252  -1.891
    1LIG    C16   23  -1.438   0.856  -1.689
    1LIG    C17   24  -1.399   0.908  -1.814
    1LIG    C18   25  -1.475   1.006  -1.878
    1LIG    C19   26  -1.591   1.054  -1.819
    1LIG    C20   27  -1.631   1.004  -1.695
    1LIG     CL   28  -1.775   1.064  -1.622
    1LIG    C21   29  -1.556   0.906  -1.631
    1LIG      F   30  -1.597   0.860  -1.512
    1LIG     O3   31  -1.217  -0.079  -1.406
    1LIG    C22   32  -1.128  -0.144  -1.317
    1LIG     HC   33  -1.490   0.591  -1.669
    1LIG    HC1   34  -1.384   0.101  -1.524
    1LIG    HC2   35  -1.018   0.045  -1.312
    1LIG    HC3   36  -0.975   0.288  -1.321
    1LIG    HC4   37  -1.507   0.299  -1.399
    1LIG    HC5   38  -1.549   0.461  -1.461
    1LIG    HC6   39  -1.067   0.713  -1.448
    1LIG    HC7   40  -1.200   0.886  -1.560
    1LIG    HC8   41  -1.309   0.871  -1.861
    1LIG    HC9   42  -1.443   1.045  -1.974
    1LIG   HC10   43  -1.649   1.130  -1.869
    1LIG   HC11   44  -1.162  -0.247  -1.301
    1LIG   HC12   45  -1.028  -0.145  -1.359
    1LIG   HC13   46  -1.127  -0.091  -1.222
    1LIG    H18   47  -1.488   0.190  -1.663
    1LIG    LP1   48  -1.913   1.121  -1.552
   0.00000   0.00000   0.00000
