; Created by cgenff_charmm2gmx.py

[ moleculetype ]
; Name			   nrexcl
LIG				 3

[ atoms ]
;	 nr		  type	resnr residue  atom   cgnr	   charge		mass  typeB    chargeB		massB
; residue	 1 LIG rtp LIG q	qsum
     1       FGR1      1    LIG     F1      1     -0.165     18.998   ;
     2     CG2R66      1    LIG     C1      2      0.188     12.011   ;
     3     CG2RC0      1    LIG     C2      3     -0.166     12.011   ;
     4     CG2RC0      1    LIG     C3      4     -0.703     12.011   ;
     5     CG2R61      1    LIG     C4      5     -0.199     12.011   ;
     6     CG2R61      1    LIG     C5      6     -0.288     12.011   ;
     7     CG2R61      1    LIG     C6      7     -0.088     12.011   ;
     8     CG3C50      1    LIG     C7      8      1.457     12.011   ;
     9     NG3C51      1    LIG     N1      9     -0.814     14.007   ;
    10       HGP1      1    LIG    HN1     10      0.286      1.008   ;
    11     CG3C51      1    LIG     C8     11      0.296     12.011   ;
    12      NG321      1    LIG     N2     12     -0.998     14.007   ;
    13     HGPAM2      1    LIG     H1     13      0.379      1.008   ;
    14     HGPAM2      1    LIG     H2     14      0.379      1.008   ;
    15     CG2DC1      1    LIG     C9     15      0.127     12.011   ;
    16     CG2DC1      1    LIG    C10     16     -0.328     12.011   ;
    17      CG311      1    LIG    C11     17      0.389     12.011   ;
    18      NG311      1    LIG     N3     18     -0.509     14.007   ;
    19     CG2D2O      1    LIG    C12     19     -0.054     12.011   ;
    20     HGPAM1      1    LIG    HN2     20      0.360      1.008   ;
    21     CG2DC2      1    LIG    C13     21     -0.372     12.011   ;
    22      CG302      1    LIG    C14     22      0.119     12.011   ;
    23       FGA3      1    LIG     F2     23     -0.098     18.998   ;
    24       FGA3      1    LIG     F3     24     -0.098     18.998   ;
    25       FGA3      1    LIG     F4     25     -0.098     18.998   ;
    26     CG2R61      1    LIG    C15     26     -0.048     12.011   ;
    27     CG2R61      1    LIG    C16     27     -0.185     12.011   ;
    28     CG2R61      1    LIG    C17     28      0.025     12.011   ;
    29     CG2R61      1    LIG    C18     29     -0.120     12.011   ;
    30     CG2R61      1    LIG    C19     30     -0.102     12.011   ;
    31     CG2R61      1    LIG    C20     31     -0.181     12.011   ;
    32     CG2DC1      1    LIG    C21     32     -0.086     12.011   ;
    33      CG321      1    LIG    C22     33      0.013     12.011   ;
    34      NG311      1    LIG     N4     34     -0.656     14.007   ;
    35      CG321      1    LIG    C23     35      0.131     12.011   ;
    36     HGPAM1      1    LIG    HN3     36      0.367      1.008   ;
    37      NG311      1    LIG     N5     37     -0.598     14.007   ;
    38     CG2D1O      1    LIG    C24     38     -0.097     12.011   ;
    39     HGPAM1      1    LIG    HN4     39      0.406      1.008   ;
    40      HGR61      1    LIG     H3     40      0.189      1.008   ;
    41      HGR61      1    LIG     H4     41      0.134      1.008   ;
    42      HGR62      1    LIG     H5     42      0.166      1.008   ;
    43       HGA1      1    LIG     H6     43      0.116      1.008   ;
    44       HGA4      1    LIG     H7     44      0.150      1.008   ;
    45       HGA1      1    LIG     H8     45      0.090      1.008   ;
    46       HGA4      1    LIG     H9     46      0.162      1.008   ;
    47       HGA4      1    LIG    H10     47      0.150      1.008   ;
    48      HGR61      1    LIG    H11     48      0.116      1.008   ;
    49      HGR61      1    LIG    H12     49      0.116      1.008   ;
    50      HGR61      1    LIG    H13     50      0.116      1.008   ;
    51      HGR61      1    LIG    H14     51      0.116      1.008   ;
    52       HGA2      1    LIG    H15     52      0.090      1.008   ;
    53       HGA2      1    LIG    H16     53      0.090      1.008   ;
    54       HGA2      1    LIG    H17     54      0.090      1.008   ;
    55       HGA2      1    LIG    H18     55      0.090      1.008   ;
    56       HGA4      1    LIG    H19     56      0.148      1.008   ;

[ bonds ]
;	ai	  aj funct			  c0			c1			  c2			c3
    1     2	 1 ;        FGR1     CG2R66
    2     7	 1 ;      CG2R66     CG2R61
    2     3	 1 ;      CG2R66     CG2RC0
    3     4	 1 ;      CG2RC0     CG2RC0
    3    11	 1 ;      CG2RC0     CG3C51
    4     5	 1 ;      CG2RC0     CG2R61
    4     8	 1 ;      CG2RC0     CG3C50
    5     6	 1 ;      CG2R61     CG2R61
    5    40	 1 ;      CG2R61      HGR61
    6     7	 1 ;      CG2R61     CG2R61
    6    41	 1 ;      CG2R61      HGR61
    7    42	 1 ;      CG2R61      HGR62
    8     9	 1 ;      CG3C50     NG3C51
    8    15	 1 ;      CG3C50     CG2DC1
    8    26	 1 ;      CG3C50     CG2R61
    9    11	 1 ;      NG3C51     CG3C51
    9    10	 1 ;      NG3C51       HGP1
   11    12	 1 ;      CG3C51      NG321
   11    43	 1 ;      CG3C51       HGA1
   12    13	 1 ;       NG321     HGPAM2
   12    14	 1 ;       NG321     HGPAM2
   15    16	 1 ;      CG2DC1     CG2DC1
   15    21	 1 ;      CG2DC1     CG2DC2
   16    17	 1 ;      CG2DC1      CG311
   16    44	 1 ;      CG2DC1       HGA4
   17    22	 1 ;       CG311      CG302
   17    18	 1 ;       CG311      NG311
   17    45	 1 ;       CG311       HGA1
   18    19	 1 ;       NG311     CG2D2O
   18    20	 1 ;       NG311     HGPAM1
   19    21	 1 ;      CG2D2O     CG2DC2
   19    46	 1 ;      CG2D2O       HGA4
   21    47	 1 ;      CG2DC2       HGA4
   22    25	 1 ;       CG302       FGA3
   22    24	 1 ;       CG302       FGA3
   22    23	 1 ;       CG302       FGA3
   26    31	 1 ;      CG2R61     CG2R61
   26    27	 1 ;      CG2R61     CG2R61
   27    28	 1 ;      CG2R61     CG2R61
   27    48	 1 ;      CG2R61      HGR61
   28    29	 1 ;      CG2R61     CG2R61
   28    32	 1 ;      CG2R61     CG2DC1
   29    30	 1 ;      CG2R61     CG2R61
   29    49	 1 ;      CG2R61      HGR61
   30    31	 1 ;      CG2R61     CG2R61
   30    50	 1 ;      CG2R61      HGR61
   31    51	 1 ;      CG2R61      HGR61
   32    33	 1 ;      CG2DC1      CG321
   32    38	 1 ;      CG2DC1     CG2D1O
   33    34	 1 ;       CG321      NG311
   33    52	 1 ;       CG321       HGA2
   33    53	 1 ;       CG321       HGA2
   34    36	 1 ;       NG311     HGPAM1
   34    35	 1 ;       NG311      CG321
   35    37	 1 ;       CG321      NG311
   35    54	 1 ;       CG321       HGA2
   35    55	 1 ;       CG321       HGA2
   37    38	 1 ;       NG311     CG2D1O
   37    39	 1 ;       NG311     HGPAM1
   38    56	 1 ;      CG2D1O       HGA4

[ pairs ]
;	ai	  aj funct			  c0			c1			  c2			c3
    1     6	 1
    1    42	 1
    1     4	 1
    1    11	 1
    2     5	 1
    2     8	 1
    2    12	 1
    2     9	 1
    2    43	 1
    2    41	 1
    3     6	 1
    3    42	 1
    3    40	 1
    3    15	 1
    3    26	 1
    3    10	 1
    3    13	 1
    3    14	 1
    4     7	 1
    4    12	 1
    4    43	 1
    4    41	 1
    4    10	 1
    4    16	 1
    4    21	 1
    4    31	 1
    4    27	 1
    5    11	 1
    5     9	 1
    5    15	 1
    5    26	 1
    5    42	 1
    6     8	 1
    7    11	 1
    7    40	 1
    8    40	 1
    8    12	 1
    8    43	 1
    8    17	 1
    8    44	 1
    8    19	 1
    8    47	 1
    8    30	 1
    8    51	 1
    8    28	 1
    8    48	 1
    9    16	 1
    9    21	 1
    9    31	 1
    9    27	 1
    9    13	 1
    9    14	 1
   10    15	 1
   10    26	 1
   10    12	 1
   10    43	 1
   11    15	 1
   11    26	 1
   13    43	 1
   14    43	 1
   15    31	 1
   15    27	 1
   15    22	 1
   15    18	 1
   15    45	 1
   15    46	 1
   16    26	 1
   16    19	 1
   16    47	 1
   16    25	 1
   16    24	 1
   16    23	 1
   16    20	 1
   17    21	 1
   17    46	 1
   18    44	 1
   18    25	 1
   18    24	 1
   18    23	 1
   18    47	 1
   19    22	 1
   19    45	 1
   20    22	 1
   20    45	 1
   20    21	 1
   20    46	 1
   21    26	 1
   21    44	 1
   22    44	 1
   23    45	 1
   24    45	 1
   25    45	 1
   26    29	 1
   26    32	 1
   26    50	 1
   27    30	 1
   27    51	 1
   27    49	 1
   27    33	 1
   27    38	 1
   28    31	 1
   28    50	 1
   28    34	 1
   28    52	 1
   28    53	 1
   28    37	 1
   28    56	 1
   29    48	 1
   29    33	 1
   29    38	 1
   29    51	 1
   30    32	 1
   31    48	 1
   31    49	 1
   32    48	 1
   32    49	 1
   32    36	 1
   32    35	 1
   32    39	 1
   33    37	 1
   33    56	 1
   33    54	 1
   33    55	 1
   34    38	 1
   34    39	 1
   35    52	 1
   35    53	 1
   35    56	 1
   36    52	 1
   36    53	 1
   36    37	 1
   36    54	 1
   36    55	 1
   38    52	 1
   38    53	 1
   38    54	 1
   38    55	 1
   39    54	 1
   39    55	 1
   39    56	 1
   40    41	 1
   41    42	 1
   44    45	 1
   46    47	 1
   49    50	 1
   50    51	 1

[ angles ]
;	ai	  aj	ak funct			c0			  c1			c2			  c3
    7     2     1	5 ;     CG2R61     CG2R66       FGR1
    7     2     3	5 ;     CG2R61     CG2R66     CG2RC0
    1     2     3	5 ;       FGR1     CG2R66     CG2RC0
    2     3     4	5 ;     CG2R66     CG2RC0     CG2RC0
    2     3    11	5 ;     CG2R66     CG2RC0     CG3C51
    4     3    11	5 ;     CG2RC0     CG2RC0     CG3C51
    5     4     3	5 ;     CG2R61     CG2RC0     CG2RC0
    5     4     8	5 ;     CG2R61     CG2RC0     CG3C50
    3     4     8	5 ;     CG2RC0     CG2RC0     CG3C50
    6     5     4	5 ;     CG2R61     CG2R61     CG2RC0
    6     5    40	5 ;     CG2R61     CG2R61      HGR61
    4     5    40	5 ;     CG2RC0     CG2R61      HGR61
    7     6     5	5 ;     CG2R61     CG2R61     CG2R61
    7     6    41	5 ;     CG2R61     CG2R61      HGR61
    5     6    41	5 ;     CG2R61     CG2R61      HGR61
    6     7     2	5 ;     CG2R61     CG2R61     CG2R66
    6     7    42	5 ;     CG2R61     CG2R61      HGR62
    2     7    42	5 ;     CG2R66     CG2R61      HGR62
    4     8     9	5 ;     CG2RC0     CG3C50     NG3C51
    4     8    15	5 ;     CG2RC0     CG3C50     CG2DC1
    4     8    26	5 ;     CG2RC0     CG3C50     CG2R61
    9     8    15	5 ;     NG3C51     CG3C50     CG2DC1
    9     8    26	5 ;     NG3C51     CG3C50     CG2R61
   15     8    26	5 ;     CG2DC1     CG3C50     CG2R61
   11     9     8	5 ;     CG3C51     NG3C51     CG3C50
   11     9    10	5 ;     CG3C51     NG3C51       HGP1
    8     9    10	5 ;     CG3C50     NG3C51       HGP1
    3    11    12	5 ;     CG2RC0     CG3C51      NG321
    3    11     9	5 ;     CG2RC0     CG3C51     NG3C51
    3    11    43	5 ;     CG2RC0     CG3C51       HGA1
   12    11     9	5 ;      NG321     CG3C51     NG3C51
   12    11    43	5 ;      NG321     CG3C51       HGA1
    9    11    43	5 ;     NG3C51     CG3C51       HGA1
   13    12    11	5 ;     HGPAM2      NG321     CG3C51
   13    12    14	5 ;     HGPAM2      NG321     HGPAM2
   11    12    14	5 ;     CG3C51      NG321     HGPAM2
    8    15    16	5 ;     CG3C50     CG2DC1     CG2DC1
    8    15    21	5 ;     CG3C50     CG2DC1     CG2DC2
   16    15    21	5 ;     CG2DC1     CG2DC1     CG2DC2
   15    16    17	5 ;     CG2DC1     CG2DC1      CG311
   15    16    44	5 ;     CG2DC1     CG2DC1       HGA4
   17    16    44	5 ;      CG311     CG2DC1       HGA4
   16    17    22	5 ;     CG2DC1      CG311      CG302
   16    17    18	5 ;     CG2DC1      CG311      NG311
   16    17    45	5 ;     CG2DC1      CG311       HGA1
   22    17    18	5 ;      CG302      CG311      NG311
   22    17    45	5 ;      CG302      CG311       HGA1
   18    17    45	5 ;      NG311      CG311       HGA1
   17    18    19	5 ;      CG311      NG311     CG2D2O
   17    18    20	5 ;      CG311      NG311     HGPAM1
   19    18    20	5 ;     CG2D2O      NG311     HGPAM1
   21    19    18	5 ;     CG2DC2     CG2D2O      NG311
   21    19    46	5 ;     CG2DC2     CG2D2O       HGA4
   18    19    46	5 ;      NG311     CG2D2O       HGA4
   15    21    19	5 ;     CG2DC1     CG2DC2     CG2D2O
   15    21    47	5 ;     CG2DC1     CG2DC2       HGA4
   19    21    47	5 ;     CG2D2O     CG2DC2       HGA4
   25    22    24	5 ;       FGA3      CG302       FGA3
   25    22    17	5 ;       FGA3      CG302      CG311
   25    22    23	5 ;       FGA3      CG302       FGA3
   24    22    17	5 ;       FGA3      CG302      CG311
   24    22    23	5 ;       FGA3      CG302       FGA3
   17    22    23	5 ;      CG311      CG302       FGA3
   31    26     8	5 ;     CG2R61     CG2R61     CG3C50
   31    26    27	5 ;     CG2R61     CG2R61     CG2R61
    8    26    27	5 ;     CG3C50     CG2R61     CG2R61
   26    27    28	5 ;     CG2R61     CG2R61     CG2R61
   26    27    48	5 ;     CG2R61     CG2R61      HGR61
   28    27    48	5 ;     CG2R61     CG2R61      HGR61
   29    28    27	5 ;     CG2R61     CG2R61     CG2R61
   29    28    32	5 ;     CG2R61     CG2R61     CG2DC1
   27    28    32	5 ;     CG2R61     CG2R61     CG2DC1
   30    29    28	5 ;     CG2R61     CG2R61     CG2R61
   30    29    49	5 ;     CG2R61     CG2R61      HGR61
   28    29    49	5 ;     CG2R61     CG2R61      HGR61
   31    30    29	5 ;     CG2R61     CG2R61     CG2R61
   31    30    50	5 ;     CG2R61     CG2R61      HGR61
   29    30    50	5 ;     CG2R61     CG2R61      HGR61
   30    31    26	5 ;     CG2R61     CG2R61     CG2R61
   30    31    51	5 ;     CG2R61     CG2R61      HGR61
   26    31    51	5 ;     CG2R61     CG2R61      HGR61
   28    32    33	5 ;     CG2R61     CG2DC1      CG321
   28    32    38	5 ;     CG2R61     CG2DC1     CG2D1O
   33    32    38	5 ;      CG321     CG2DC1     CG2D1O
   32    33    34	5 ;     CG2DC1      CG321      NG311
   32    33    52	5 ;     CG2DC1      CG321       HGA2
   32    33    53	5 ;     CG2DC1      CG321       HGA2
   34    33    52	5 ;      NG311      CG321       HGA2
   34    33    53	5 ;      NG311      CG321       HGA2
   52    33    53	5 ;       HGA2      CG321       HGA2
   33    34    36	5 ;      CG321      NG311     HGPAM1
   33    34    35	5 ;      CG321      NG311      CG321
   36    34    35	5 ;     HGPAM1      NG311      CG321
   34    35    37	5 ;      NG311      CG321      NG311
   34    35    54	5 ;      NG311      CG321       HGA2
   34    35    55	5 ;      NG311      CG321       HGA2
   37    35    54	5 ;      NG311      CG321       HGA2
   37    35    55	5 ;      NG311      CG321       HGA2
   54    35    55	5 ;       HGA2      CG321       HGA2
   38    37    35	5 ;     CG2D1O      NG311      CG321
   38    37    39	5 ;     CG2D1O      NG311     HGPAM1
   35    37    39	5 ;      CG321      NG311     HGPAM1
   32    38    37	5 ;     CG2DC1     CG2D1O      NG311
   32    38    56	5 ;     CG2DC1     CG2D1O       HGA4
   37    38    56	5 ;      NG311     CG2D1O       HGA4

[ dihedrals ]
;	ai	  aj	ak	  al funct			  c0			c1			  c2			c3			  c4			c5
    1     2     7     6	 9 ;       FGR1     CG2R66     CG2R61     CG2R61
    1     2     7    42	 9 ;       FGR1     CG2R66     CG2R61      HGR62
    3     2     7     6	 9 ;     CG2RC0     CG2R66     CG2R61     CG2R61
    3     2     7    42	 9 ;     CG2RC0     CG2R66     CG2R61      HGR62
    7     2     3     4	 9 ;     CG2R61     CG2R66     CG2RC0     CG2RC0
    7     2     3    11	 9 ;     CG2R61     CG2R66     CG2RC0     CG3C51
    1     2     3     4	 9 ;       FGR1     CG2R66     CG2RC0     CG2RC0
    1     2     3    11	 9 ;       FGR1     CG2R66     CG2RC0     CG3C51
    2     3     4     5	 9 ;     CG2R66     CG2RC0     CG2RC0     CG2R61
    2     3     4     8	 9 ;     CG2R66     CG2RC0     CG2RC0     CG3C50
   11     3     4     5	 9 ;     CG3C51     CG2RC0     CG2RC0     CG2R61
   11     3     4     8	 9 ;     CG3C51     CG2RC0     CG2RC0     CG3C50
    2     3    11    12	 9 ;     CG2R66     CG2RC0     CG3C51      NG321
    2     3    11     9	 9 ;     CG2R66     CG2RC0     CG3C51     NG3C51
    2     3    11    43	 9 ;     CG2R66     CG2RC0     CG3C51       HGA1
    4     3    11    12	 9 ;     CG2RC0     CG2RC0     CG3C51      NG321
    4     3    11     9	 9 ;     CG2RC0     CG2RC0     CG3C51     NG3C51
    4     3    11    43	 9 ;     CG2RC0     CG2RC0     CG3C51       HGA1
    3     4     5     6	 9 ;     CG2RC0     CG2RC0     CG2R61     CG2R61
    3     4     5    40	 9 ;     CG2RC0     CG2RC0     CG2R61      HGR61
    8     4     5     6	 9 ;     CG3C50     CG2RC0     CG2R61     CG2R61
    8     4     5    40	 9 ;     CG3C50     CG2RC0     CG2R61      HGR61
    5     4     8     9	 9 ;     CG2R61     CG2RC0     CG3C50     NG3C51
    5     4     8    15	 9 ;     CG2R61     CG2RC0     CG3C50     CG2DC1
    5     4     8    26	 9 ;     CG2R61     CG2RC0     CG3C50     CG2R61
    3     4     8     9	 9 ;     CG2RC0     CG2RC0     CG3C50     NG3C51
    3     4     8    15	 9 ;     CG2RC0     CG2RC0     CG3C50     CG2DC1
    3     4     8    26	 9 ;     CG2RC0     CG2RC0     CG3C50     CG2R61
    4     5     6     7	 9 ;     CG2RC0     CG2R61     CG2R61     CG2R61
    4     5     6    41	 9 ;     CG2RC0     CG2R61     CG2R61      HGR61
   40     5     6     7	 9 ;      HGR61     CG2R61     CG2R61     CG2R61
   40     5     6    41	 9 ;      HGR61     CG2R61     CG2R61      HGR61
    5     6     7     2	 9 ;     CG2R61     CG2R61     CG2R61     CG2R66
    5     6     7    42	 9 ;     CG2R61     CG2R61     CG2R61      HGR62
   41     6     7     2	 9 ;      HGR61     CG2R61     CG2R61     CG2R66
   41     6     7    42	 9 ;      HGR61     CG2R61     CG2R61      HGR62
    4     8     9    11	 9 ;     CG2RC0     CG3C50     NG3C51     CG3C51
    4     8     9    10	 9 ;     CG2RC0     CG3C50     NG3C51       HGP1
   15     8     9    11	 9 ;     CG2DC1     CG3C50     NG3C51     CG3C51
   15     8     9    10	 9 ;     CG2DC1     CG3C50     NG3C51       HGP1
   26     8     9    11	 9 ;     CG2R61     CG3C50     NG3C51     CG3C51
   26     8     9    10	 9 ;     CG2R61     CG3C50     NG3C51       HGP1
    4     8    15    16	 9 ;     CG2RC0     CG3C50     CG2DC1     CG2DC1
    4     8    15    21	 9 ;     CG2RC0     CG3C50     CG2DC1     CG2DC2
    9     8    15    16	 9 ;     NG3C51     CG3C50     CG2DC1     CG2DC1
    9     8    15    21	 9 ;     NG3C51     CG3C50     CG2DC1     CG2DC2
   26     8    15    16	 9 ;     CG2R61     CG3C50     CG2DC1     CG2DC1
   26     8    15    21	 9 ;     CG2R61     CG3C50     CG2DC1     CG2DC2
    4     8    26    31	 9 ;     CG2RC0     CG3C50     CG2R61     CG2R61
    4     8    26    27	 9 ;     CG2RC0     CG3C50     CG2R61     CG2R61
    9     8    26    31	 9 ;     NG3C51     CG3C50     CG2R61     CG2R61
    9     8    26    27	 9 ;     NG3C51     CG3C50     CG2R61     CG2R61
   15     8    26    31	 9 ;     CG2DC1     CG3C50     CG2R61     CG2R61
   15     8    26    27	 9 ;     CG2DC1     CG3C50     CG2R61     CG2R61
    8     9    11     3	 9 ;     CG3C50     NG3C51     CG3C51     CG2RC0
    8     9    11    12	 9 ;     CG3C50     NG3C51     CG3C51      NG321
    8     9    11    43	 9 ;     CG3C50     NG3C51     CG3C51       HGA1
   10     9    11     3	 9 ;       HGP1     NG3C51     CG3C51     CG2RC0
   10     9    11    12	 9 ;       HGP1     NG3C51     CG3C51      NG321
   10     9    11    43	 9 ;       HGP1     NG3C51     CG3C51       HGA1
    3    11    12    13	 9 ;     CG2RC0     CG3C51      NG321     HGPAM2
    3    11    12    14	 9 ;     CG2RC0     CG3C51      NG321     HGPAM2
    9    11    12    13	 9 ;     NG3C51     CG3C51      NG321     HGPAM2
    9    11    12    14	 9 ;     NG3C51     CG3C51      NG321     HGPAM2
   43    11    12    13	 9 ;       HGA1     CG3C51      NG321     HGPAM2
   43    11    12    14	 9 ;       HGA1     CG3C51      NG321     HGPAM2
    8    15    16    17	 9 ;     CG3C50     CG2DC1     CG2DC1      CG311
    8    15    16    44	 9 ;     CG3C50     CG2DC1     CG2DC1       HGA4
   21    15    16    17	 9 ;     CG2DC2     CG2DC1     CG2DC1      CG311
   21    15    16    44	 9 ;     CG2DC2     CG2DC1     CG2DC1       HGA4
    8    15    21    19	 9 ;     CG3C50     CG2DC1     CG2DC2     CG2D2O
    8    15    21    47	 9 ;     CG3C50     CG2DC1     CG2DC2       HGA4
   16    15    21    19	 9 ;     CG2DC1     CG2DC1     CG2DC2     CG2D2O
   16    15    21    47	 9 ;     CG2DC1     CG2DC1     CG2DC2       HGA4
   15    16    17    22	 9 ;     CG2DC1     CG2DC1      CG311      CG302
   15    16    17    18	 9 ;     CG2DC1     CG2DC1      CG311      NG311
   15    16    17    45	 9 ;     CG2DC1     CG2DC1      CG311       HGA1
   44    16    17    22	 9 ;       HGA4     CG2DC1      CG311      CG302
   44    16    17    18	 9 ;       HGA4     CG2DC1      CG311      NG311
   44    16    17    45	 9 ;       HGA4     CG2DC1      CG311       HGA1
   16    17    22    25	 9 ;     CG2DC1      CG311      CG302       FGA3
   16    17    22    24	 9 ;     CG2DC1      CG311      CG302       FGA3
   16    17    22    23	 9 ;     CG2DC1      CG311      CG302       FGA3
   18    17    22    25	 9 ;      NG311      CG311      CG302       FGA3
   18    17    22    24	 9 ;      NG311      CG311      CG302       FGA3
   18    17    22    23	 9 ;      NG311      CG311      CG302       FGA3
   45    17    22    25	 9 ;       HGA1      CG311      CG302       FGA3
   45    17    22    24	 9 ;       HGA1      CG311      CG302       FGA3
   45    17    22    23	 9 ;       HGA1      CG311      CG302       FGA3
   16    17    18    19	 9 ;     CG2DC1      CG311      NG311     CG2D2O
   16    17    18    20	 9 ;     CG2DC1      CG311      NG311     HGPAM1
   22    17    18    19	 9 ;      CG302      CG311      NG311     CG2D2O
   22    17    18    20	 9 ;      CG302      CG311      NG311     HGPAM1
   45    17    18    19	 9 ;       HGA1      CG311      NG311     CG2D2O
   45    17    18    20	 9 ;       HGA1      CG311      NG311     HGPAM1
   17    18    19    21	 9 ;      CG311      NG311     CG2D2O     CG2DC2
   17    18    19    46	 9 ;      CG311      NG311     CG2D2O       HGA4
   20    18    19    21	 9 ;     HGPAM1      NG311     CG2D2O     CG2DC2
   20    18    19    46	 9 ;     HGPAM1      NG311     CG2D2O       HGA4
   18    19    21    15	 9 ;      NG311     CG2D2O     CG2DC2     CG2DC1
   18    19    21    47	 9 ;      NG311     CG2D2O     CG2DC2       HGA4
   46    19    21    15	 9 ;       HGA4     CG2D2O     CG2DC2     CG2DC1
   46    19    21    47	 9 ;       HGA4     CG2D2O     CG2DC2       HGA4
    8    26    31    30	 9 ;     CG3C50     CG2R61     CG2R61     CG2R61
    8    26    31    51	 9 ;     CG3C50     CG2R61     CG2R61      HGR61
   27    26    31    30	 9 ;     CG2R61     CG2R61     CG2R61     CG2R61
   27    26    31    51	 9 ;     CG2R61     CG2R61     CG2R61      HGR61
   31    26    27    28	 9 ;     CG2R61     CG2R61     CG2R61     CG2R61
   31    26    27    48	 9 ;     CG2R61     CG2R61     CG2R61      HGR61
    8    26    27    28	 9 ;     CG3C50     CG2R61     CG2R61     CG2R61
    8    26    27    48	 9 ;     CG3C50     CG2R61     CG2R61      HGR61
   26    27    28    29	 9 ;     CG2R61     CG2R61     CG2R61     CG2R61
   26    27    28    32	 9 ;     CG2R61     CG2R61     CG2R61     CG2DC1
   48    27    28    29	 9 ;      HGR61     CG2R61     CG2R61     CG2R61
   48    27    28    32	 9 ;      HGR61     CG2R61     CG2R61     CG2DC1
   27    28    29    30	 9 ;     CG2R61     CG2R61     CG2R61     CG2R61
   27    28    29    49	 9 ;     CG2R61     CG2R61     CG2R61      HGR61
   32    28    29    30	 9 ;     CG2DC1     CG2R61     CG2R61     CG2R61
   32    28    29    49	 9 ;     CG2DC1     CG2R61     CG2R61      HGR61
   29    28    32    33	 9 ;     CG2R61     CG2R61     CG2DC1      CG321
   29    28    32    38	 9 ;     CG2R61     CG2R61     CG2DC1     CG2D1O
   27    28    32    33	 9 ;     CG2R61     CG2R61     CG2DC1      CG321
   27    28    32    38	 9 ;     CG2R61     CG2R61     CG2DC1     CG2D1O
   28    29    30    31	 9 ;     CG2R61     CG2R61     CG2R61     CG2R61
   28    29    30    50	 9 ;     CG2R61     CG2R61     CG2R61      HGR61
   49    29    30    31	 9 ;      HGR61     CG2R61     CG2R61     CG2R61
   49    29    30    50	 9 ;      HGR61     CG2R61     CG2R61      HGR61
   29    30    31    26	 9 ;     CG2R61     CG2R61     CG2R61     CG2R61
   29    30    31    51	 9 ;     CG2R61     CG2R61     CG2R61      HGR61
   50    30    31    26	 9 ;      HGR61     CG2R61     CG2R61     CG2R61
   50    30    31    51	 9 ;      HGR61     CG2R61     CG2R61      HGR61
   28    32    33    34	 9 ;     CG2R61     CG2DC1      CG321      NG311
   28    32    33    52	 9 ;     CG2R61     CG2DC1      CG321       HGA2
   28    32    33    53	 9 ;     CG2R61     CG2DC1      CG321       HGA2
   38    32    33    34	 9 ;     CG2D1O     CG2DC1      CG321      NG311
   38    32    33    52	 9 ;     CG2D1O     CG2DC1      CG321       HGA2
   38    32    33    53	 9 ;     CG2D1O     CG2DC1      CG321       HGA2
   28    32    38    37	 9 ;     CG2R61     CG2DC1     CG2D1O      NG311
   28    32    38    56	 9 ;     CG2R61     CG2DC1     CG2D1O       HGA4
   33    32    38    37	 9 ;      CG321     CG2DC1     CG2D1O      NG311
   33    32    38    56	 9 ;      CG321     CG2DC1     CG2D1O       HGA4
   32    33    34    36	 9 ;     CG2DC1      CG321      NG311     HGPAM1
   32    33    34    35	 9 ;     CG2DC1      CG321      NG311      CG321
   52    33    34    36	 9 ;       HGA2      CG321      NG311     HGPAM1
   52    33    34    35	 9 ;       HGA2      CG321      NG311      CG321
   53    33    34    36	 9 ;       HGA2      CG321      NG311     HGPAM1
   53    33    34    35	 9 ;       HGA2      CG321      NG311      CG321
   33    34    35    37	 9 ;      CG321      NG311      CG321      NG311
   33    34    35    54	 9 ;      CG321      NG311      CG321       HGA2
   33    34    35    55	 9 ;      CG321      NG311      CG321       HGA2
   36    34    35    37	 9 ;     HGPAM1      NG311      CG321      NG311
   36    34    35    54	 9 ;     HGPAM1      NG311      CG321       HGA2
   36    34    35    55	 9 ;     HGPAM1      NG311      CG321       HGA2
   34    35    37    38	 9 ;      NG311      CG321      NG311     CG2D1O
   34    35    37    39	 9 ;      NG311      CG321      NG311     HGPAM1
   54    35    37    38	 9 ;       HGA2      CG321      NG311     CG2D1O
   54    35    37    39	 9 ;       HGA2      CG321      NG311     HGPAM1
   55    35    37    38	 9 ;       HGA2      CG321      NG311     CG2D1O
   55    35    37    39	 9 ;       HGA2      CG321      NG311     HGPAM1
   35    37    38    32	 9 ;      CG321      NG311     CG2D1O     CG2DC1
   35    37    38    56	 9 ;      CG321      NG311     CG2D1O       HGA4
   39    37    38    32	 9 ;     HGPAM1      NG311     CG2D1O     CG2DC1
   39    37    38    56	 9 ;     HGPAM1      NG311     CG2D1O       HGA4

[ dihedrals ]
;	ai	  aj	ak	  al funct			  c0			c1			  c2			c3
   19    21    18    46	 2
   38    32    37    56	 2

