Georgetown Riga Oslo Madrid Amsterdam Chisinau Stockholm
   56
    1LIG     F1    1  -1.311   0.601  -2.151
    1LIG     C1    2  -1.334   0.486  -2.087
    1LIG     C2    3  -1.324   0.477  -1.950
    1LIG     C3    4  -1.350   0.360  -1.881
    1LIG     C4    5  -1.386   0.245  -1.951
    1LIG     C5    6  -1.393   0.251  -2.091
    1LIG     C6    7  -1.368   0.372  -2.158
    1LIG     C7    8  -1.332   0.385  -1.732
    1LIG     N1    9  -1.289   0.531  -1.727
    1LIG    HN1   10  -1.267   0.585  -1.643
    1LIG     C8   11  -1.286   0.575  -1.849
    1LIG     N2   12  -1.252   0.703  -1.881
    1LIG     H1   13  -1.280   0.741  -1.970
    1LIG     H2   14  -1.251   0.768  -1.803
    1LIG     C9   15  -1.217   0.304  -1.668
    1LIG    C10   16  -1.216   0.163  -1.677
    1LIG    C11   17  -1.114   0.089  -1.617
    1LIG     N3   18  -1.015   0.149  -1.545
    1LIG    C12   19  -1.018   0.283  -1.534
    1LIG    HN2   20  -0.942   0.094  -1.500
    1LIG    C13   21  -1.114   0.363  -1.594
    1LIG    C14   22  -1.109  -0.062  -1.633
    1LIG     F2   23  -1.032  -0.125  -1.539
    1LIG     F3   24  -1.232  -0.120  -1.623
    1LIG     F4   25  -1.059  -0.102  -1.754
    1LIG    C15   26  -1.469   0.368  -1.662
    1LIG    C16   27  -1.476   0.365  -1.521
    1LIG    C17   28  -1.598   0.364  -1.450
    1LIG    C18   29  -1.716   0.358  -1.525
    1LIG    C19   30  -1.712   0.357  -1.665
    1LIG    C20   31  -1.590   0.365  -1.733
    1LIG    C21   32  -1.599   0.377  -1.303
    1LIG    C22   33  -1.505   0.453  -1.234
    1LIG     N4   34  -1.501   0.470  -1.099
    1LIG    C23   35  -1.597   0.406  -1.031
    1LIG    HN3   36  -1.430   0.526  -1.054
    1LIG     N5   37  -1.694   0.330  -1.084
    1LIG    C24   38  -1.692   0.317  -1.219
    1LIG    HN4   39  -1.765   0.284  -1.027
    1LIG     H3   40  -1.407   0.157  -1.901
    1LIG     H4   41  -1.416   0.166  -2.145
    1LIG     H5   42  -1.375   0.375  -2.261
    1LIG     H6   43  -1.251   0.672  -1.876
    1LIG     H7   44  -1.292   0.115  -1.729
    1LIG     H8   45  -1.191   0.158  -1.590
    1LIG     H9   46  -0.945   0.329  -1.478
    1LIG    H10   47  -1.110   0.465  -1.583
    1LIG    H11   48  -1.388   0.365  -1.467
    1LIG    H12   49  -1.807   0.353  -1.477
    1LIG    H13   50  -1.800   0.352  -1.718
    1LIG    H14   51  -1.589   0.368  -1.836
    1LIG    H15   52  -1.514   0.552  -1.274
    1LIG    H16   53  -1.418   0.393  -1.248
    1LIG    H17   54  -1.649   0.483  -0.977
    1LIG    H18   55  -1.539   0.331  -0.983
    1LIG    H19   56  -1.765   0.258  -1.263
   0.00000   0.00000   0.00000
