GROwing Monsters And Cloning Shrimps
   45
    1LIG     C2    1  -1.346   0.517  -1.712
    1LIG     O5    2  -1.084   0.441  -1.743
    1LIG     C4    3  -1.130   0.214  -1.694
    1LIG     C5    4  -1.227   0.117  -1.663
    1LIG     C6    5  -0.997   0.176  -1.719
    1LIG     C7    6  -1.189  -0.019  -1.660
    1LIG     C8    7  -0.961   0.042  -1.713
    1LIG     C9    8  -1.056  -0.055  -1.684
    1LIG    C10    9  -1.305   0.397  -1.667
    1LIG    C11   10  -1.379   0.299  -1.581
    1LIG    C12   11  -1.166   0.358  -1.705
    1LIG    C13   12  -1.370   0.158  -1.640
    1LIG     N1   13  -1.474   0.692  -1.615
    1LIG     O4   14  -1.584   0.524  -1.729
    1LIG     C3   15  -1.480   0.575  -1.688
    1LIG     H5   16  -1.390   0.700  -1.559
    1LIG    C14   17  -1.598   0.753  -1.562
    1LIG    C16   18  -1.649   0.872  -1.648
    1LIG    C17   19  -1.562   0.902  -1.770
    1LIG    C18   20  -1.793   0.848  -1.695
    1LIG     O2   21  -1.559   0.733  -1.321
    1LIG    C15   22  -1.565   0.803  -1.420
    1LIG     O3   23  -1.554   0.939  -1.413
    1LIG     H4   24  -1.461   0.968  -1.414
    1LIG     C1   25  -1.267  -0.204  -1.530
    1LIG     O1   26  -1.290  -0.108  -1.633
    1LIG     H1   27  -1.279   0.573  -1.767
    1LIG     H2   28  -0.926   0.248  -1.741
    1LIG     H3   29  -0.863   0.015  -1.731
    1LIG     H6   30  -1.029  -0.154  -1.680
    1LIG     H7   31  -1.482   0.328  -1.575
    1LIG     H8   32  -1.334   0.298  -1.484
    1LIG     H9   33  -1.416   0.089  -1.572
    1LIG    H10   34  -1.421   0.158  -1.734
    1LIG     HA   35  -1.676   0.679  -1.564
    1LIG     HB   36  -1.644   0.957  -1.583
    1LIG   HG11   37  -1.565   0.818  -1.837
    1LIG   HG12   38  -1.461   0.919  -1.739
    1LIG   HG13   39  -1.599   0.989  -1.820
    1LIG   HG21   40  -1.795   0.763  -1.760
    1LIG   HG22   41  -1.828   0.934  -1.748
    1LIG   HG23   42  -1.856   0.830  -1.611
    1LIG    H11   43  -1.354  -0.266  -1.520
    1LIG    H12   44  -1.248  -0.154  -1.438
    1LIG    H13   45  -1.183  -0.264  -1.556
   0.00000   0.00000   0.00000
