; Created by cgenff_charmm2gmx.py

[ moleculetype ]
; Name			   nrexcl
LIG				 3

[ atoms ]
;	 nr		  type	resnr residue  atom   cgnr	   charge		mass  typeB    chargeB		massB
; residue	 1 LIG rtp LIG q	qsum
     1      SG3O2      1    LIG      S      1      0.318     32.060   ;
     2      OG2P1      1    LIG     O1      2     -0.251     15.999   ;
     3      OG2P1      1    LIG     O2      3     -0.251     15.999   ;
     4     NG3C51      1    LIG     N1      4     -0.408     14.007   ;
     5     CG3C50      1    LIG     C1      5      0.273     12.011   ;
     6      CG321      1    LIG     C2      6     -0.124     12.011   ;
     7      CG314      1    LIG     C3      7      0.198     12.011   ;
     8      NG3P1      1    LIG     N2      8     -0.462     14.007   ;
     9      CG324      1    LIG     C4      9      0.103     12.011   ;
    10      CG321      1    LIG     C5     10     -0.123     12.011   ;
    11      CG331      1    LIG     C6     11     -0.213     12.011   ;
    12     CG3C52      1    LIG     C7     12     -0.099     12.011   ;
    13     NG3C51      1    LIG     N3     13     -0.263     14.007   ;
    14       HGP2      1    LIG      H     14      0.319      1.008   ;
    15     CG2R61      1    LIG     C8     15      0.378     12.011   ;
    16     CG2R61      1    LIG     C9     16     -0.169     12.011   ;
    17     CG2R66      1    LIG    C10     17      0.105     12.011   ;
    18       FGR1      1    LIG      F     18     -0.211     18.998   ;
    19     CG2R61      1    LIG    C11     19     -0.107     12.011   ;
    20     CG2R61      1    LIG    C12     20     -0.149     12.011   ;
    21     CG2R61      1    LIG    C13     21     -0.107     12.011   ;
    22     CG2D1O      1    LIG    C14     22      0.262     12.011   ;
    23     CG2DC1      1    LIG    C15     23     -0.297     12.011   ;
    24      CG321      1    LIG    C16     24     -0.045     12.011   ;
    25      NG311      1    LIG     N4     25     -0.531     14.007   ;
    26     CG2D2O      1    LIG    C17     26     -0.179     12.011   ;
    27     HGPAM1      1    LIG     HN     27      0.389      1.008   ;
    28     CG2DC2      1    LIG    C18     28     -0.002     12.011   ;
    29      CG324      1    LIG    C19     29      0.119     12.011   ;
    30     CG2R61      1    LIG    C20     30      0.069     12.011   ;
    31     CG2R61      1    LIG    C21     31     -0.123     12.011   ;
    32     CG2R61      1    LIG    C22     32      0.159     12.011   ;
    33     CG2R61      1    LIG    C23     33     -0.119     12.011   ;
    34     CG2R61      1    LIG    C24     34     -0.108     12.011   ;
    35     CG2R61      1    LIG    C25     35     -0.120     12.011   ;
    36      OG301      1    LIG     O3     36     -0.341     15.999   ;
    37      CG311      1    LIG    C26     37      0.059     12.011   ;
    38      CG331      1    LIG    C27     38     -0.251     12.011   ;
    39      CG331      1    LIG    C28     39     -0.251     12.011   ;
    40       HGA2      1    LIG    HC2     40      0.090      1.008   ;
    41       HGA2      1    LIG    HC3     41      0.090      1.008   ;
    42       HGA1      1    LIG     HC     42      0.090      1.008   ;
    43       HGA2      1    LIG    HC4     43      0.090      1.008   ;
    44       HGA2      1    LIG    HC5     44      0.090      1.008   ;
    45       HGA2      1    LIG    HC6     45      0.090      1.008   ;
    46       HGA2      1    LIG    HC7     46      0.090      1.008   ;
    47       HGA3      1    LIG    HC1     47      0.090      1.008   ;
    48       HGA3      1    LIG    HC8     48      0.090      1.008   ;
    49       HGA3      1    LIG    HC9     49      0.090      1.008   ;
    50       HGA2      1    LIG   HC10     50      0.090      1.008   ;
    51       HGA2      1    LIG   HC11     51      0.090      1.008   ;
    52      HGR62      1    LIG   HC12     52      0.175      1.008   ;
    53      HGR62      1    LIG   HC13     53      0.179      1.008   ;
    54      HGR61      1    LIG   HC14     54      0.116      1.008   ;
    55      HGR61      1    LIG   HC15     55      0.116      1.008   ;
    56       HGA4      1    LIG   HC16     56      0.131      1.008   ;
    57       HGA2      1    LIG   HC17     57      0.090      1.008   ;
    58       HGA4      1    LIG   HC18     58      0.152      1.008   ;
    59       HGA4      1    LIG   HC19     59      0.150      1.008   ;
    60       HGA2      1    LIG   HC20     60      0.090      1.008   ;
    61       HGA2      1    LIG   HC21     61      0.090      1.008   ;
    62      HGR61      1    LIG   HC22     62      0.116      1.008   ;
    63      HGR61      1    LIG   HC23     63      0.116      1.008   ;
    64      HGR61      1    LIG   HC24     64      0.116      1.008   ;
    65      HGR61      1    LIG   HC25     65      0.116      1.008   ;
    66       HGA1      1    LIG   HC26     66      0.090      1.008   ;
    67       HGA3      1    LIG   HC27     67      0.090      1.008   ;
    68       HGA3      1    LIG   HC28     68      0.090      1.008   ;
    69       HGA3      1    LIG   HC29     69      0.090      1.008   ;
    70       HGA3      1    LIG   HC30     70      0.090      1.008   ;
    71       HGA3      1    LIG   HC31     71      0.090      1.008   ;
    72       HGA3      1    LIG   HC32     72      0.090      1.008   ;
    73       HGA2      1    LIG    H36     73      0.090      1.008   ;

[ bonds ]
;	ai	  aj funct			  c0			c1			  c2			c3
    1     3	 1 ;       SG3O2      OG2P1
    1     2	 1 ;       SG3O2      OG2P1
    1    13	 1 ;       SG3O2     NG3C51
    1     4	 1 ;       SG3O2     NG3C51
    4    15	 1 ;      NG3C51     CG2R61
    4     5	 1 ;      NG3C51     CG3C50
    5    12	 1 ;      CG3C50     CG3C52
    5     6	 1 ;      CG3C50      CG321
    5    10	 1 ;      CG3C50      CG321
    6     7	 1 ;       CG321      CG314
    6    40	 1 ;       CG321       HGA2
    6    41	 1 ;       CG321       HGA2
    7    11	 1 ;       CG314      CG331
    7     8	 1 ;       CG314      NG3P1
    7    42	 1 ;       CG314       HGA1
    8     9	 1 ;       NG3P1      CG324
    8    14	 1 ;       NG3P1       HGP2
    8    29	 1 ;       NG3P1      CG324
    9    10	 1 ;       CG324      CG321
    9    43	 1 ;       CG324       HGA2
    9    44	 1 ;       CG324       HGA2
   10    45	 1 ;       CG321       HGA2
   10    46	 1 ;       CG321       HGA2
   11    47	 1 ;       CG331       HGA3
   11    48	 1 ;       CG331       HGA3
   11    49	 1 ;       CG331       HGA3
   12    13	 1 ;      CG3C52     NG3C51
   12    50	 1 ;      CG3C52       HGA2
   12    51	 1 ;      CG3C52       HGA2
   13    22	 1 ;      NG3C51     CG2D1O
   15    16	 1 ;      CG2R61     CG2R61
   15    21	 1 ;      CG2R61     CG2R61
   16    17	 1 ;      CG2R61     CG2R66
   16    52	 1 ;      CG2R61      HGR62
   17    18	 1 ;      CG2R66       FGR1
   17    19	 1 ;      CG2R66     CG2R61
   19    20	 1 ;      CG2R61     CG2R61
   19    53	 1 ;      CG2R61      HGR62
   20    21	 1 ;      CG2R61     CG2R61
   20    54	 1 ;      CG2R61      HGR61
   21    55	 1 ;      CG2R61      HGR61
   22    23	 1 ;      CG2D1O     CG2DC1
   22    28	 1 ;      CG2D1O     CG2DC2
   23    24	 1 ;      CG2DC1      CG321
   23    56	 1 ;      CG2DC1       HGA4
   24    25	 1 ;       CG321      NG311
   24    57	 1 ;       CG321       HGA2
   24    73	 1 ;       CG321       HGA2
   25    27	 1 ;       NG311     HGPAM1
   25    26	 1 ;       NG311     CG2D2O
   26    28	 1 ;      CG2D2O     CG2DC2
   26    58	 1 ;      CG2D2O       HGA4
   28    59	 1 ;      CG2DC2       HGA4
   29    30	 1 ;       CG324     CG2R61
   29    60	 1 ;       CG324       HGA2
   29    61	 1 ;       CG324       HGA2
   30    35	 1 ;      CG2R61     CG2R61
   30    31	 1 ;      CG2R61     CG2R61
   31    32	 1 ;      CG2R61     CG2R61
   31    62	 1 ;      CG2R61      HGR61
   32    33	 1 ;      CG2R61     CG2R61
   32    36	 1 ;      CG2R61      OG301
   33    34	 1 ;      CG2R61     CG2R61
   33    63	 1 ;      CG2R61      HGR61
   34    35	 1 ;      CG2R61     CG2R61
   34    64	 1 ;      CG2R61      HGR61
   35    65	 1 ;      CG2R61      HGR61
   36    37	 1 ;       OG301      CG311
   37    39	 1 ;       CG311      CG331
   37    38	 1 ;       CG311      CG331
   37    66	 1 ;       CG311       HGA1
   38    67	 1 ;       CG331       HGA3
   38    68	 1 ;       CG331       HGA3
   38    69	 1 ;       CG331       HGA3
   39    70	 1 ;       CG331       HGA3
   39    71	 1 ;       CG331       HGA3
   39    72	 1 ;       CG331       HGA3

[ pairs ]
;	ai	  aj funct			  c0			c1			  c2			c3
    1    16	 1
    1    21	 1
    1     6	 1
    1    10	 1
    1    50	 1
    1    51	 1
    1    23	 1
    1    28	 1
    2    22	 1
    2    12	 1
    2    15	 1
    2     5	 1
    3    22	 1
    3    12	 1
    3    15	 1
    3     5	 1
    4    22	 1
    4    50	 1
    4    51	 1
    4     7	 1
    4    40	 1
    4    41	 1
    4     9	 1
    4    45	 1
    4    46	 1
    4    17	 1
    4    52	 1
    4    20	 1
    4    55	 1
    5    16	 1
    5    21	 1
    5    11	 1
    5     8	 1
    5    42	 1
    5    43	 1
    5    44	 1
    5    22	 1
    6    15	 1
    6    13	 1
    6    50	 1
    6    51	 1
    6     9	 1
    6    45	 1
    6    46	 1
    6    47	 1
    6    48	 1
    6    49	 1
    6    14	 1
    6    29	 1
    7    12	 1
    7    10	 1
    7    43	 1
    7    44	 1
    7    30	 1
    7    60	 1
    7    61	 1
    8    40	 1
    8    41	 1
    8    47	 1
    8    48	 1
    8    49	 1
    8    45	 1
    8    46	 1
    8    35	 1
    8    31	 1
    9    12	 1
    9    11	 1
    9    42	 1
    9    30	 1
    9    60	 1
    9    61	 1
   10    15	 1
   10    13	 1
   10    50	 1
   10    51	 1
   10    40	 1
   10    41	 1
   10    14	 1
   10    29	 1
   11    40	 1
   11    41	 1
   11    14	 1
   11    29	 1
   12    15	 1
   12    40	 1
   12    41	 1
   12    45	 1
   12    46	 1
   12    23	 1
   12    28	 1
   13    15	 1
   13    24	 1
   13    56	 1
   13    26	 1
   13    59	 1
   14    42	 1
   14    43	 1
   14    44	 1
   14    30	 1
   14    60	 1
   14    61	 1
   15    18	 1
   15    19	 1
   15    54	 1
   16    20	 1
   16    55	 1
   16    53	 1
   17    21	 1
   17    54	 1
   18    52	 1
   18    20	 1
   18    53	 1
   19    52	 1
   19    55	 1
   21    52	 1
   21    53	 1
   22    50	 1
   22    51	 1
   22    25	 1
   22    57	 1
   22    73	 1
   22    58	 1
   23    26	 1
   23    59	 1
   23    27	 1
   24    28	 1
   24    58	 1
   25    56	 1
   25    59	 1
   26    57	 1
   26    73	 1
   27    57	 1
   27    73	 1
   27    28	 1
   27    58	 1
   28    56	 1
   29    42	 1
   29    43	 1
   29    44	 1
   29    34	 1
   29    65	 1
   29    32	 1
   29    62	 1
   30    33	 1
   30    36	 1
   30    64	 1
   31    60	 1
   31    61	 1
   31    34	 1
   31    65	 1
   31    63	 1
   31    37	 1
   32    35	 1
   32    64	 1
   32    39	 1
   32    38	 1
   32    66	 1
   33    62	 1
   33    37	 1
   33    65	 1
   34    36	 1
   35    60	 1
   35    61	 1
   35    62	 1
   35    63	 1
   36    62	 1
   36    63	 1
   36    70	 1
   36    71	 1
   36    72	 1
   36    67	 1
   36    68	 1
   36    69	 1
   38    70	 1
   38    71	 1
   38    72	 1
   39    67	 1
   39    68	 1
   39    69	 1
   40    42	 1
   41    42	 1
   42    47	 1
   42    48	 1
   42    49	 1
   43    45	 1
   43    46	 1
   44    45	 1
   44    46	 1
   53    54	 1
   54    55	 1
   56    57	 1
   56    73	 1
   58    59	 1
   63    64	 1
   64    65	 1
   66    70	 1
   66    71	 1
   66    72	 1
   66    67	 1
   66    68	 1
   66    69	 1

[ angles ]
;	ai	  aj	ak funct			c0			  c1			c2			  c3
    3     1     2	5 ;      OG2P1      SG3O2      OG2P1
    3     1    13	5 ;      OG2P1      SG3O2     NG3C51
    3     1     4	5 ;      OG2P1      SG3O2     NG3C51
    2     1    13	5 ;      OG2P1      SG3O2     NG3C51
    2     1     4	5 ;      OG2P1      SG3O2     NG3C51
   13     1     4	5 ;     NG3C51      SG3O2     NG3C51
    1     4    15	5 ;      SG3O2     NG3C51     CG2R61
    1     4     5	5 ;      SG3O2     NG3C51     CG3C50
   15     4     5	5 ;     CG2R61     NG3C51     CG3C50
   12     5     4	5 ;     CG3C52     CG3C50     NG3C51
   12     5     6	5 ;     CG3C52     CG3C50      CG321
   12     5    10	5 ;     CG3C52     CG3C50      CG321
    4     5     6	5 ;     NG3C51     CG3C50      CG321
    4     5    10	5 ;     NG3C51     CG3C50      CG321
    6     5    10	5 ;      CG321     CG3C50      CG321
    5     6     7	5 ;     CG3C50      CG321      CG314
    5     6    40	5 ;     CG3C50      CG321       HGA2
    5     6    41	5 ;     CG3C50      CG321       HGA2
    7     6    40	5 ;      CG314      CG321       HGA2
    7     6    41	5 ;      CG314      CG321       HGA2
   40     6    41	5 ;       HGA2      CG321       HGA2
    6     7    11	5 ;      CG321      CG314      CG331
    6     7     8	5 ;      CG321      CG314      NG3P1
    6     7    42	5 ;      CG321      CG314       HGA1
   11     7     8	5 ;      CG331      CG314      NG3P1
   11     7    42	5 ;      CG331      CG314       HGA1
    8     7    42	5 ;      NG3P1      CG314       HGA1
    7     8     9	5 ;      CG314      NG3P1      CG324
    7     8    14	5 ;      CG314      NG3P1       HGP2
    7     8    29	5 ;      CG314      NG3P1      CG324
    9     8    14	5 ;      CG324      NG3P1       HGP2
    9     8    29	5 ;      CG324      NG3P1      CG324
   14     8    29	5 ;       HGP2      NG3P1      CG324
   10     9     8	5 ;      CG321      CG324      NG3P1
   10     9    43	5 ;      CG321      CG324       HGA2
   10     9    44	5 ;      CG321      CG324       HGA2
    8     9    43	5 ;      NG3P1      CG324       HGA2
    8     9    44	5 ;      NG3P1      CG324       HGA2
   43     9    44	5 ;       HGA2      CG324       HGA2
    5    10     9	5 ;     CG3C50      CG321      CG324
    5    10    45	5 ;     CG3C50      CG321       HGA2
    5    10    46	5 ;     CG3C50      CG321       HGA2
    9    10    45	5 ;      CG324      CG321       HGA2
    9    10    46	5 ;      CG324      CG321       HGA2
   45    10    46	5 ;       HGA2      CG321       HGA2
    7    11    47	5 ;      CG314      CG331       HGA3
    7    11    48	5 ;      CG314      CG331       HGA3
    7    11    49	5 ;      CG314      CG331       HGA3
   47    11    48	5 ;       HGA3      CG331       HGA3
   47    11    49	5 ;       HGA3      CG331       HGA3
   48    11    49	5 ;       HGA3      CG331       HGA3
   13    12     5	5 ;     NG3C51     CG3C52     CG3C50
   13    12    50	5 ;     NG3C51     CG3C52       HGA2
   13    12    51	5 ;     NG3C51     CG3C52       HGA2
    5    12    50	5 ;     CG3C50     CG3C52       HGA2
    5    12    51	5 ;     CG3C50     CG3C52       HGA2
   50    12    51	5 ;       HGA2     CG3C52       HGA2
   22    13     1	5 ;     CG2D1O     NG3C51      SG3O2
   22    13    12	5 ;     CG2D1O     NG3C51     CG3C52
    1    13    12	5 ;      SG3O2     NG3C51     CG3C52
    4    15    16	5 ;     NG3C51     CG2R61     CG2R61
    4    15    21	5 ;     NG3C51     CG2R61     CG2R61
   16    15    21	5 ;     CG2R61     CG2R61     CG2R61
   15    16    17	5 ;     CG2R61     CG2R61     CG2R66
   15    16    52	5 ;     CG2R61     CG2R61      HGR62
   17    16    52	5 ;     CG2R66     CG2R61      HGR62
   16    17    18	5 ;     CG2R61     CG2R66       FGR1
   16    17    19	5 ;     CG2R61     CG2R66     CG2R61
   18    17    19	5 ;       FGR1     CG2R66     CG2R61
   17    19    20	5 ;     CG2R66     CG2R61     CG2R61
   17    19    53	5 ;     CG2R66     CG2R61      HGR62
   20    19    53	5 ;     CG2R61     CG2R61      HGR62
   21    20    19	5 ;     CG2R61     CG2R61     CG2R61
   21    20    54	5 ;     CG2R61     CG2R61      HGR61
   19    20    54	5 ;     CG2R61     CG2R61      HGR61
   15    21    20	5 ;     CG2R61     CG2R61     CG2R61
   15    21    55	5 ;     CG2R61     CG2R61      HGR61
   20    21    55	5 ;     CG2R61     CG2R61      HGR61
   23    22    28	5 ;     CG2DC1     CG2D1O     CG2DC2
   23    22    13	5 ;     CG2DC1     CG2D1O     NG3C51
   28    22    13	5 ;     CG2DC2     CG2D1O     NG3C51
   24    23    22	5 ;      CG321     CG2DC1     CG2D1O
   24    23    56	5 ;      CG321     CG2DC1       HGA4
   22    23    56	5 ;     CG2D1O     CG2DC1       HGA4
   25    24    23	5 ;      NG311      CG321     CG2DC1
   25    24    57	5 ;      NG311      CG321       HGA2
   25    24    73	5 ;      NG311      CG321       HGA2
   23    24    57	5 ;     CG2DC1      CG321       HGA2
   23    24    73	5 ;     CG2DC1      CG321       HGA2
   57    24    73	5 ;       HGA2      CG321       HGA2
   27    25    24	5 ;     HGPAM1      NG311      CG321
   27    25    26	5 ;     HGPAM1      NG311     CG2D2O
   24    25    26	5 ;      CG321      NG311     CG2D2O
   25    26    28	5 ;      NG311     CG2D2O     CG2DC2
   25    26    58	5 ;      NG311     CG2D2O       HGA4
   28    26    58	5 ;     CG2DC2     CG2D2O       HGA4
   26    28    22	5 ;     CG2D2O     CG2DC2     CG2D1O
   26    28    59	5 ;     CG2D2O     CG2DC2       HGA4
   22    28    59	5 ;     CG2D1O     CG2DC2       HGA4
    8    29    30	5 ;      NG3P1      CG324     CG2R61
    8    29    60	5 ;      NG3P1      CG324       HGA2
    8    29    61	5 ;      NG3P1      CG324       HGA2
   30    29    60	5 ;     CG2R61      CG324       HGA2
   30    29    61	5 ;     CG2R61      CG324       HGA2
   60    29    61	5 ;       HGA2      CG324       HGA2
   29    30    35	5 ;      CG324     CG2R61     CG2R61
   29    30    31	5 ;      CG324     CG2R61     CG2R61
   35    30    31	5 ;     CG2R61     CG2R61     CG2R61
   30    31    32	5 ;     CG2R61     CG2R61     CG2R61
   30    31    62	5 ;     CG2R61     CG2R61      HGR61
   32    31    62	5 ;     CG2R61     CG2R61      HGR61
   31    32    33	5 ;     CG2R61     CG2R61     CG2R61
   31    32    36	5 ;     CG2R61     CG2R61      OG301
   33    32    36	5 ;     CG2R61     CG2R61      OG301
   34    33    32	5 ;     CG2R61     CG2R61     CG2R61
   34    33    63	5 ;     CG2R61     CG2R61      HGR61
   32    33    63	5 ;     CG2R61     CG2R61      HGR61
   35    34    33	5 ;     CG2R61     CG2R61     CG2R61
   35    34    64	5 ;     CG2R61     CG2R61      HGR61
   33    34    64	5 ;     CG2R61     CG2R61      HGR61
   30    35    34	5 ;     CG2R61     CG2R61     CG2R61
   30    35    65	5 ;     CG2R61     CG2R61      HGR61
   34    35    65	5 ;     CG2R61     CG2R61      HGR61
   32    36    37	5 ;     CG2R61      OG301      CG311
   36    37    39	5 ;      OG301      CG311      CG331
   36    37    38	5 ;      OG301      CG311      CG331
   36    37    66	5 ;      OG301      CG311       HGA1
   39    37    38	5 ;      CG331      CG311      CG331
   39    37    66	5 ;      CG331      CG311       HGA1
   38    37    66	5 ;      CG331      CG311       HGA1
   37    38    67	5 ;      CG311      CG331       HGA3
   37    38    68	5 ;      CG311      CG331       HGA3
   37    38    69	5 ;      CG311      CG331       HGA3
   67    38    68	5 ;       HGA3      CG331       HGA3
   67    38    69	5 ;       HGA3      CG331       HGA3
   68    38    69	5 ;       HGA3      CG331       HGA3
   37    39    70	5 ;      CG311      CG331       HGA3
   37    39    71	5 ;      CG311      CG331       HGA3
   37    39    72	5 ;      CG311      CG331       HGA3
   70    39    71	5 ;       HGA3      CG331       HGA3
   70    39    72	5 ;       HGA3      CG331       HGA3
   71    39    72	5 ;       HGA3      CG331       HGA3

[ dihedrals ]
;	ai	  aj	ak	  al funct			  c0			c1			  c2			c3			  c4			c5
    3     1    13    22	 9 ;      OG2P1      SG3O2     NG3C51     CG2D1O
    3     1    13    12	 9 ;      OG2P1      SG3O2     NG3C51     CG3C52
    2     1    13    22	 9 ;      OG2P1      SG3O2     NG3C51     CG2D1O
    2     1    13    12	 9 ;      OG2P1      SG3O2     NG3C51     CG3C52
    4     1    13    22	 9 ;     NG3C51      SG3O2     NG3C51     CG2D1O
    4     1    13    12	 9 ;     NG3C51      SG3O2     NG3C51     CG3C52
    3     1     4    15	 9 ;      OG2P1      SG3O2     NG3C51     CG2R61
    3     1     4     5	 9 ;      OG2P1      SG3O2     NG3C51     CG3C50
    2     1     4    15	 9 ;      OG2P1      SG3O2     NG3C51     CG2R61
    2     1     4     5	 9 ;      OG2P1      SG3O2     NG3C51     CG3C50
   13     1     4    15	 9 ;     NG3C51      SG3O2     NG3C51     CG2R61
   13     1     4     5	 9 ;     NG3C51      SG3O2     NG3C51     CG3C50
    1     4    15    16	 9 ;      SG3O2     NG3C51     CG2R61     CG2R61
    1     4    15    21	 9 ;      SG3O2     NG3C51     CG2R61     CG2R61
    5     4    15    16	 9 ;     CG3C50     NG3C51     CG2R61     CG2R61
    5     4    15    21	 9 ;     CG3C50     NG3C51     CG2R61     CG2R61
    1     4     5    12	 9 ;      SG3O2     NG3C51     CG3C50     CG3C52
    1     4     5     6	 9 ;      SG3O2     NG3C51     CG3C50      CG321
    1     4     5    10	 9 ;      SG3O2     NG3C51     CG3C50      CG321
   15     4     5    12	 9 ;     CG2R61     NG3C51     CG3C50     CG3C52
   15     4     5     6	 9 ;     CG2R61     NG3C51     CG3C50      CG321
   15     4     5    10	 9 ;     CG2R61     NG3C51     CG3C50      CG321
    4     5    12    13	 9 ;     NG3C51     CG3C50     CG3C52     NG3C51
    4     5    12    50	 9 ;     NG3C51     CG3C50     CG3C52       HGA2
    4     5    12    51	 9 ;     NG3C51     CG3C50     CG3C52       HGA2
    6     5    12    13	 9 ;      CG321     CG3C50     CG3C52     NG3C51
    6     5    12    50	 9 ;      CG321     CG3C50     CG3C52       HGA2
    6     5    12    51	 9 ;      CG321     CG3C50     CG3C52       HGA2
   10     5    12    13	 9 ;      CG321     CG3C50     CG3C52     NG3C51
   10     5    12    50	 9 ;      CG321     CG3C50     CG3C52       HGA2
   10     5    12    51	 9 ;      CG321     CG3C50     CG3C52       HGA2
   12     5     6     7	 9 ;     CG3C52     CG3C50      CG321      CG314
   12     5     6    40	 9 ;     CG3C52     CG3C50      CG321       HGA2
   12     5     6    41	 9 ;     CG3C52     CG3C50      CG321       HGA2
    4     5     6     7	 9 ;     NG3C51     CG3C50      CG321      CG314
    4     5     6    40	 9 ;     NG3C51     CG3C50      CG321       HGA2
    4     5     6    41	 9 ;     NG3C51     CG3C50      CG321       HGA2
   10     5     6     7	 9 ;      CG321     CG3C50      CG321      CG314
   10     5     6    40	 9 ;      CG321     CG3C50      CG321       HGA2
   10     5     6    41	 9 ;      CG321     CG3C50      CG321       HGA2
   12     5    10     9	 9 ;     CG3C52     CG3C50      CG321      CG324
   12     5    10    45	 9 ;     CG3C52     CG3C50      CG321       HGA2
   12     5    10    46	 9 ;     CG3C52     CG3C50      CG321       HGA2
    4     5    10     9	 9 ;     NG3C51     CG3C50      CG321      CG324
    4     5    10    45	 9 ;     NG3C51     CG3C50      CG321       HGA2
    4     5    10    46	 9 ;     NG3C51     CG3C50      CG321       HGA2
    6     5    10     9	 9 ;      CG321     CG3C50      CG321      CG324
    6     5    10    45	 9 ;      CG321     CG3C50      CG321       HGA2
    6     5    10    46	 9 ;      CG321     CG3C50      CG321       HGA2
    5     6     7    11	 9 ;     CG3C50      CG321      CG314      CG331
    5     6     7     8	 9 ;     CG3C50      CG321      CG314      NG3P1
    5     6     7    42	 9 ;     CG3C50      CG321      CG314       HGA1
   40     6     7    11	 9 ;       HGA2      CG321      CG314      CG331
   40     6     7     8	 9 ;       HGA2      CG321      CG314      NG3P1
   40     6     7    42	 9 ;       HGA2      CG321      CG314       HGA1
   41     6     7    11	 9 ;       HGA2      CG321      CG314      CG331
   41     6     7     8	 9 ;       HGA2      CG321      CG314      NG3P1
   41     6     7    42	 9 ;       HGA2      CG321      CG314       HGA1
    6     7    11    47	 9 ;      CG321      CG314      CG331       HGA3
    6     7    11    48	 9 ;      CG321      CG314      CG331       HGA3
    6     7    11    49	 9 ;      CG321      CG314      CG331       HGA3
    8     7    11    47	 9 ;      NG3P1      CG314      CG331       HGA3
    8     7    11    48	 9 ;      NG3P1      CG314      CG331       HGA3
    8     7    11    49	 9 ;      NG3P1      CG314      CG331       HGA3
   42     7    11    47	 9 ;       HGA1      CG314      CG331       HGA3
   42     7    11    48	 9 ;       HGA1      CG314      CG331       HGA3
   42     7    11    49	 9 ;       HGA1      CG314      CG331       HGA3
    6     7     8     9	 9 ;      CG321      CG314      NG3P1      CG324
    6     7     8    14	 9 ;      CG321      CG314      NG3P1       HGP2
    6     7     8    29	 9 ;      CG321      CG314      NG3P1      CG324
   11     7     8     9	 9 ;      CG331      CG314      NG3P1      CG324
   11     7     8    14	 9 ;      CG331      CG314      NG3P1       HGP2
   11     7     8    29	 9 ;      CG331      CG314      NG3P1      CG324
   42     7     8     9	 9 ;       HGA1      CG314      NG3P1      CG324
   42     7     8    14	 9 ;       HGA1      CG314      NG3P1       HGP2
   42     7     8    29	 9 ;       HGA1      CG314      NG3P1      CG324
    7     8     9    10	 9 ;      CG314      NG3P1      CG324      CG321
    7     8     9    43	 9 ;      CG314      NG3P1      CG324       HGA2
    7     8     9    44	 9 ;      CG314      NG3P1      CG324       HGA2
   14     8     9    10	 9 ;       HGP2      NG3P1      CG324      CG321
   14     8     9    43	 9 ;       HGP2      NG3P1      CG324       HGA2
   14     8     9    44	 9 ;       HGP2      NG3P1      CG324       HGA2
   29     8     9    10	 9 ;      CG324      NG3P1      CG324      CG321
   29     8     9    43	 9 ;      CG324      NG3P1      CG324       HGA2
   29     8     9    44	 9 ;      CG324      NG3P1      CG324       HGA2
    7     8    29    30	 9 ;      CG314      NG3P1      CG324     CG2R61
    7     8    29    60	 9 ;      CG314      NG3P1      CG324       HGA2
    7     8    29    61	 9 ;      CG314      NG3P1      CG324       HGA2
    9     8    29    30	 9 ;      CG324      NG3P1      CG324     CG2R61
    9     8    29    60	 9 ;      CG324      NG3P1      CG324       HGA2
    9     8    29    61	 9 ;      CG324      NG3P1      CG324       HGA2
   14     8    29    30	 9 ;       HGP2      NG3P1      CG324     CG2R61
   14     8    29    60	 9 ;       HGP2      NG3P1      CG324       HGA2
   14     8    29    61	 9 ;       HGP2      NG3P1      CG324       HGA2
    8     9    10     5	 9 ;      NG3P1      CG324      CG321     CG3C50
    8     9    10    45	 9 ;      NG3P1      CG324      CG321       HGA2
    8     9    10    46	 9 ;      NG3P1      CG324      CG321       HGA2
   43     9    10     5	 9 ;       HGA2      CG324      CG321     CG3C50
   43     9    10    45	 9 ;       HGA2      CG324      CG321       HGA2
   43     9    10    46	 9 ;       HGA2      CG324      CG321       HGA2
   44     9    10     5	 9 ;       HGA2      CG324      CG321     CG3C50
   44     9    10    45	 9 ;       HGA2      CG324      CG321       HGA2
   44     9    10    46	 9 ;       HGA2      CG324      CG321       HGA2
    5    12    13    22	 9 ;     CG3C50     CG3C52     NG3C51     CG2D1O
    5    12    13     1	 9 ;     CG3C50     CG3C52     NG3C51      SG3O2
   50    12    13    22	 9 ;       HGA2     CG3C52     NG3C51     CG2D1O
   50    12    13     1	 9 ;       HGA2     CG3C52     NG3C51      SG3O2
   51    12    13    22	 9 ;       HGA2     CG3C52     NG3C51     CG2D1O
   51    12    13     1	 9 ;       HGA2     CG3C52     NG3C51      SG3O2
    1    13    22    23	 9 ;      SG3O2     NG3C51     CG2D1O     CG2DC1
    1    13    22    28	 9 ;      SG3O2     NG3C51     CG2D1O     CG2DC2
   12    13    22    23	 9 ;     CG3C52     NG3C51     CG2D1O     CG2DC1
   12    13    22    28	 9 ;     CG3C52     NG3C51     CG2D1O     CG2DC2
    4    15    16    17	 9 ;     NG3C51     CG2R61     CG2R61     CG2R66
    4    15    16    52	 9 ;     NG3C51     CG2R61     CG2R61      HGR62
   21    15    16    17	 9 ;     CG2R61     CG2R61     CG2R61     CG2R66
   21    15    16    52	 9 ;     CG2R61     CG2R61     CG2R61      HGR62
    4    15    21    20	 9 ;     NG3C51     CG2R61     CG2R61     CG2R61
    4    15    21    55	 9 ;     NG3C51     CG2R61     CG2R61      HGR61
   16    15    21    20	 9 ;     CG2R61     CG2R61     CG2R61     CG2R61
   16    15    21    55	 9 ;     CG2R61     CG2R61     CG2R61      HGR61
   15    16    17    18	 9 ;     CG2R61     CG2R61     CG2R66       FGR1
   15    16    17    19	 9 ;     CG2R61     CG2R61     CG2R66     CG2R61
   52    16    17    18	 9 ;      HGR62     CG2R61     CG2R66       FGR1
   52    16    17    19	 9 ;      HGR62     CG2R61     CG2R66     CG2R61
   16    17    19    20	 9 ;     CG2R61     CG2R66     CG2R61     CG2R61
   16    17    19    53	 9 ;     CG2R61     CG2R66     CG2R61      HGR62
   18    17    19    20	 9 ;       FGR1     CG2R66     CG2R61     CG2R61
   18    17    19    53	 9 ;       FGR1     CG2R66     CG2R61      HGR62
   17    19    20    21	 9 ;     CG2R66     CG2R61     CG2R61     CG2R61
   17    19    20    54	 9 ;     CG2R66     CG2R61     CG2R61      HGR61
   53    19    20    21	 9 ;      HGR62     CG2R61     CG2R61     CG2R61
   53    19    20    54	 9 ;      HGR62     CG2R61     CG2R61      HGR61
   19    20    21    15	 9 ;     CG2R61     CG2R61     CG2R61     CG2R61
   19    20    21    55	 9 ;     CG2R61     CG2R61     CG2R61      HGR61
   54    20    21    15	 9 ;      HGR61     CG2R61     CG2R61     CG2R61
   54    20    21    55	 9 ;      HGR61     CG2R61     CG2R61      HGR61
   28    22    23    24	 9 ;     CG2DC2     CG2D1O     CG2DC1      CG321
   28    22    23    56	 9 ;     CG2DC2     CG2D1O     CG2DC1       HGA4
   13    22    23    24	 9 ;     NG3C51     CG2D1O     CG2DC1      CG321
   13    22    23    56	 9 ;     NG3C51     CG2D1O     CG2DC1       HGA4
   23    22    28    26	 9 ;     CG2DC1     CG2D1O     CG2DC2     CG2D2O
   23    22    28    59	 9 ;     CG2DC1     CG2D1O     CG2DC2       HGA4
   13    22    28    26	 9 ;     NG3C51     CG2D1O     CG2DC2     CG2D2O
   13    22    28    59	 9 ;     NG3C51     CG2D1O     CG2DC2       HGA4
   22    23    24    25	 9 ;     CG2D1O     CG2DC1      CG321      NG311
   22    23    24    57	 9 ;     CG2D1O     CG2DC1      CG321       HGA2
   22    23    24    73	 9 ;     CG2D1O     CG2DC1      CG321       HGA2
   56    23    24    25	 9 ;       HGA4     CG2DC1      CG321      NG311
   56    23    24    57	 9 ;       HGA4     CG2DC1      CG321       HGA2
   56    23    24    73	 9 ;       HGA4     CG2DC1      CG321       HGA2
   23    24    25    27	 9 ;     CG2DC1      CG321      NG311     HGPAM1
   23    24    25    26	 9 ;     CG2DC1      CG321      NG311     CG2D2O
   57    24    25    27	 9 ;       HGA2      CG321      NG311     HGPAM1
   57    24    25    26	 9 ;       HGA2      CG321      NG311     CG2D2O
   73    24    25    27	 9 ;       HGA2      CG321      NG311     HGPAM1
   73    24    25    26	 9 ;       HGA2      CG321      NG311     CG2D2O
   27    25    26    28	 9 ;     HGPAM1      NG311     CG2D2O     CG2DC2
   27    25    26    58	 9 ;     HGPAM1      NG311     CG2D2O       HGA4
   24    25    26    28	 9 ;      CG321      NG311     CG2D2O     CG2DC2
   24    25    26    58	 9 ;      CG321      NG311     CG2D2O       HGA4
   25    26    28    22	 9 ;      NG311     CG2D2O     CG2DC2     CG2D1O
   25    26    28    59	 9 ;      NG311     CG2D2O     CG2DC2       HGA4
   58    26    28    22	 9 ;       HGA4     CG2D2O     CG2DC2     CG2D1O
   58    26    28    59	 9 ;       HGA4     CG2D2O     CG2DC2       HGA4
    8    29    30    35	 9 ;      NG3P1      CG324     CG2R61     CG2R61
    8    29    30    31	 9 ;      NG3P1      CG324     CG2R61     CG2R61
   60    29    30    35	 9 ;       HGA2      CG324     CG2R61     CG2R61
   60    29    30    31	 9 ;       HGA2      CG324     CG2R61     CG2R61
   61    29    30    35	 9 ;       HGA2      CG324     CG2R61     CG2R61
   61    29    30    31	 9 ;       HGA2      CG324     CG2R61     CG2R61
   29    30    35    34	 9 ;      CG324     CG2R61     CG2R61     CG2R61
   29    30    35    65	 9 ;      CG324     CG2R61     CG2R61      HGR61
   31    30    35    34	 9 ;     CG2R61     CG2R61     CG2R61     CG2R61
   31    30    35    65	 9 ;     CG2R61     CG2R61     CG2R61      HGR61
   29    30    31    32	 9 ;      CG324     CG2R61     CG2R61     CG2R61
   29    30    31    62	 9 ;      CG324     CG2R61     CG2R61      HGR61
   35    30    31    32	 9 ;     CG2R61     CG2R61     CG2R61     CG2R61
   35    30    31    62	 9 ;     CG2R61     CG2R61     CG2R61      HGR61
   30    31    32    33	 9 ;     CG2R61     CG2R61     CG2R61     CG2R61
   30    31    32    36	 9 ;     CG2R61     CG2R61     CG2R61      OG301
   62    31    32    33	 9 ;      HGR61     CG2R61     CG2R61     CG2R61
   62    31    32    36	 9 ;      HGR61     CG2R61     CG2R61      OG301
   31    32    33    34	 9 ;     CG2R61     CG2R61     CG2R61     CG2R61
   31    32    33    63	 9 ;     CG2R61     CG2R61     CG2R61      HGR61
   36    32    33    34	 9 ;      OG301     CG2R61     CG2R61     CG2R61
   36    32    33    63	 9 ;      OG301     CG2R61     CG2R61      HGR61
   31    32    36    37	 9 ;     CG2R61     CG2R61      OG301      CG311
   33    32    36    37	 9 ;     CG2R61     CG2R61      OG301      CG311
   32    33    34    35	 9 ;     CG2R61     CG2R61     CG2R61     CG2R61
   32    33    34    64	 9 ;     CG2R61     CG2R61     CG2R61      HGR61
   63    33    34    35	 9 ;      HGR61     CG2R61     CG2R61     CG2R61
   63    33    34    64	 9 ;      HGR61     CG2R61     CG2R61      HGR61
   33    34    35    30	 9 ;     CG2R61     CG2R61     CG2R61     CG2R61
   33    34    35    65	 9 ;     CG2R61     CG2R61     CG2R61      HGR61
   64    34    35    30	 9 ;      HGR61     CG2R61     CG2R61     CG2R61
   64    34    35    65	 9 ;      HGR61     CG2R61     CG2R61      HGR61
   32    36    37    39	 9 ;     CG2R61      OG301      CG311      CG331
   32    36    37    38	 9 ;     CG2R61      OG301      CG311      CG331
   32    36    37    66	 9 ;     CG2R61      OG301      CG311       HGA1
   36    37    39    70	 9 ;      OG301      CG311      CG331       HGA3
   36    37    39    71	 9 ;      OG301      CG311      CG331       HGA3
   36    37    39    72	 9 ;      OG301      CG311      CG331       HGA3
   38    37    39    70	 9 ;      CG331      CG311      CG331       HGA3
   38    37    39    71	 9 ;      CG331      CG311      CG331       HGA3
   38    37    39    72	 9 ;      CG331      CG311      CG331       HGA3
   66    37    39    70	 9 ;       HGA1      CG311      CG331       HGA3
   66    37    39    71	 9 ;       HGA1      CG311      CG331       HGA3
   66    37    39    72	 9 ;       HGA1      CG311      CG331       HGA3
   36    37    38    67	 9 ;      OG301      CG311      CG331       HGA3
   36    37    38    68	 9 ;      OG301      CG311      CG331       HGA3
   36    37    38    69	 9 ;      OG301      CG311      CG331       HGA3
   39    37    38    67	 9 ;      CG331      CG311      CG331       HGA3
   39    37    38    68	 9 ;      CG331      CG311      CG331       HGA3
   39    37    38    69	 9 ;      CG331      CG311      CG331       HGA3
   66    37    38    67	 9 ;       HGA1      CG311      CG331       HGA3
   66    37    38    68	 9 ;       HGA1      CG311      CG331       HGA3
   66    37    38    69	 9 ;       HGA1      CG311      CG331       HGA3

[ dihedrals ]
;	ai	  aj	ak	  al funct			  c0			c1			  c2			c3
   22    23    28    13	 2
   26    28    25    58	 2

