Gromacs Runs On Most of All Computer Systems
   73
    1LIG      S    1  -1.221   0.458  -1.717
    1LIG     O1    2  -1.229   0.395  -1.846
    1LIG     O2    3  -1.101   0.470  -1.639
    1LIG     N1    4  -1.351   0.399  -1.624
    1LIG     C1    5  -1.482   0.451  -1.675
    1LIG     C2    6  -1.548   0.353  -1.775
    1LIG     C3    7  -1.688   0.399  -1.819
    1LIG     N2    8  -1.778   0.415  -1.697
    1LIG     C4    9  -1.720   0.517  -1.602
    1LIG     C5   10  -1.579   0.481  -1.558
    1LIG     C6   11  -1.751   0.309  -1.924
    1LIG     C7   12  -1.443   0.587  -1.750
    1LIG     N3   13  -1.299   0.609  -1.727
    1LIG      H   14  -1.866   0.455  -1.732
    1LIG     C8   15  -1.322   0.292  -1.534
    1LIG     C9   16  -1.290   0.164  -1.578
    1LIG    C10   17  -1.245   0.069  -1.486
    1LIG      F   18  -1.214  -0.053  -1.529
    1LIG    C11   19  -1.230   0.100  -1.351
    1LIG    C12   20  -1.259   0.228  -1.307
    1LIG    C13   21  -1.305   0.324  -1.398
    1LIG    C14   22  -1.228   0.713  -1.794
    1LIG    C15   23  -1.091   0.730  -1.782
    1LIG    C16   24  -1.033   0.835  -1.852
    1LIG     N4   25  -1.103   0.922  -1.928
    1LIG    C17   26  -1.237   0.905  -1.933
    1LIG     HN   27  -1.056   0.996  -1.980
    1LIG    C18   28  -1.304   0.804  -1.868
    1LIG    C19   29  -1.823   0.284  -1.631
    1LIG    C20   30  -1.971   0.268  -1.607
    1LIG    C21   31  -2.014   0.203  -1.490
    1LIG    C22   32  -2.150   0.177  -1.468
    1LIG    C23   33  -2.244   0.222  -1.559
    1LIG    C24   34  -2.203   0.286  -1.677
    1LIG    C25   35  -2.067   0.307  -1.702
    1LIG     O3   36  -2.195   0.115  -1.355
    1LIG    C26   37  -2.138  -0.015  -1.332
    1LIG    C27   38  -2.159  -0.057  -1.186
    1LIG    C28   39  -2.208  -0.114  -1.426
    1LIG    HC2   40  -1.485   0.345  -1.863
    1LIG    HC3   41  -1.556   0.255  -1.728
    1LIG     HC   42  -1.677   0.498  -1.863
    1LIG    HC4   43  -1.784   0.524  -1.514
    1LIG    HC5   44  -1.719   0.614  -1.652
    1LIG    HC6   45  -1.538   0.565  -1.501
    1LIG    HC7   46  -1.584   0.394  -1.493
    1LIG    HC1   47  -1.711   0.335  -2.023
    1LIG    HC8   48  -1.727   0.205  -1.902
    1LIG    HC9   49  -1.859   0.323  -1.924
    1LIG   HC10   50  -1.501   0.670  -1.709
    1LIG   HC11   51  -1.462   0.577  -1.857
    1LIG   HC12   52  -1.300   0.138  -1.682
    1LIG   HC13   53  -1.195   0.025  -1.282
    1LIG   HC14   54  -1.245   0.254  -1.203
    1LIG   HC15   55  -1.329   0.423  -1.363
    1LIG   HC16   56  -1.032   0.664  -1.721
    1LIG   HC17   57  -0.926   0.849  -1.844
    1LIG   HC18   58  -1.295   0.976  -1.992
    1LIG   HC19   59  -1.411   0.795  -1.873
    1LIG   HC20   60  -1.791   0.202  -1.695
    1LIG   HC21   61  -1.772   0.275  -1.535
    1LIG   HC22   62  -1.942   0.173  -1.416
    1LIG   HC23   63  -2.350   0.208  -1.540
    1LIG   HC24   64  -2.277   0.319  -1.748
    1LIG   HC25   65  -2.036   0.353  -1.794
    1LIG   HC26   66  -2.032  -0.013  -1.355
    1LIG   HC27   67  -2.108   0.014  -1.121
    1LIG   HC28   68  -2.117  -0.156  -1.171
    1LIG   HC29   69  -2.265  -0.058  -1.163
    1LIG   HC30   70  -2.193  -0.083  -1.529
    1LIG   HC31   71  -2.166  -0.214  -1.411
    1LIG   HC32   72  -2.315  -0.116  -1.403
    1LIG    H36   73  -1.019   0.770  -1.938
   0.00000   0.00000   0.00000
