GROningen Mixture of Alchemy and Childrens' Stories
   51
    1LIG     C1    1  -1.392   0.753  -1.631
    1LIG     C2    2  -1.416   0.615  -1.644
    1LIG     C3    3  -1.335   0.516  -1.582
    1LIG     C4    4  -1.225   0.557  -1.508
    1LIG     O1    5  -1.138   0.472  -1.447
    1LIG     C5    6  -1.165   0.338  -1.447
    1LIG     C6    7  -1.275   0.282  -1.512
    1LIG     C7    8  -1.293   0.142  -1.504
    1LIG     C8    9  -1.201   0.061  -1.437
    1LIG     C9   10  -1.093   0.119  -1.372
    1LIG    C10   11  -1.075   0.257  -1.377
    1LIG    C11   12  -1.372   0.369  -1.590
    1LIG     N1   13  -1.510   0.352  -1.537
    1LIG    HN3   14  -1.545   0.380  -1.446
    1LIG    C12   15  -1.574   0.293  -1.631
    1LIG     O2   16  -1.512   0.260  -1.746
    1LIG    C13   17  -1.383   0.320  -1.736
    1LIG    C14   18  -1.199   0.693  -1.492
    1LIG    C15   19  -1.283   0.789  -1.549
    1LIG    C16   20  -1.480   0.853  -1.696
    1LIG    C17   21  -1.429   0.930  -1.804
    1LIG    C18   22  -1.509   1.025  -1.867
    1LIG     N2   23  -1.637   1.049  -1.833
    1LIG    C19   24  -1.686   0.976  -1.730
    1LIG    HN4   25  -1.693   1.118  -1.882
    1LIG    C20   26  -1.613   0.881  -1.659
    1LIG     CL   27  -1.693   0.810  -1.523
    1LIG     N3   28  -1.704   0.257  -1.627
    1LIG     H1   29  -1.723   0.170  -1.676
    1LIG     H2   30  -1.770   0.331  -1.645
    1LIG     O3   31  -1.210  -0.075  -1.427
    1LIG    C21   32  -1.155  -0.131  -1.308
    1LIG     HC   33  -1.500   0.583  -1.704
    1LIG    HC1   34  -1.379   0.097  -1.551
    1LIG    HC2   35  -1.024   0.058  -1.317
    1LIG    HC3   36  -0.990   0.303  -1.327
    1LIG    HN2   37  -1.484   0.262  -1.498
    1LIG    HC4   38  -1.602   0.389  -1.673
    1LIG    HC5   39  -1.305   0.248  -1.758
    1LIG    HC6   40  -1.376   0.405  -1.805
    1LIG    HC7   41  -1.113   0.725  -1.434
    1LIG    HC8   42  -1.265   0.894  -1.530
    1LIG    HC9   43  -1.328   0.914  -1.838
    1LIG   HC10   44  -1.465   1.083  -1.946
    1LIG   HC11   45  -1.788   0.993  -1.701
    1LIG    HN1   46  -1.720   0.234  -1.529
    1LIG   HC12   47  -1.190  -0.234  -1.297
    1LIG   HC13   48  -1.046  -0.130  -1.315
    1LIG   HC14   49  -1.187  -0.072  -1.222
    1LIG    H22   50  -1.542   0.950  -1.939
    1LIG    LP1   51  -1.770   0.742  -1.394
   0.00000   0.00000   0.00000
