; Created by cgenff_charmm2gmx.py

[ moleculetype ]
; Name			   nrexcl
LIG				 3

[ atoms ]
;	 nr		  type	resnr residue  atom   cgnr	   charge		mass  typeB    chargeB		massB
; residue	 1 LIG rtp LIG q	qsum
     1     CG3C50      1    LIG     C1      1      1.599     12.011   ;
     2      NG3P2      1    LIG     N1      2     -0.701     14.007   ;
     3       HGP2      1    LIG    HN3      3      0.353      1.008   ;
     4     CG3C53      1    LIG     C2      4      0.784     12.011   ;
     5     NG2R53      1    LIG     N2      5     -0.171     14.007   ;
     6      CG331      1    LIG     C3      6     -0.169     12.011   ;
     7     CG2R53      1    LIG     C4      7     -0.361     12.011   ;
     8      OG2D1      1    LIG     O1      8     -0.342     15.999   ;
     9     CG2R61      1    LIG     C5      9     -0.169     12.011   ;
    10     CG2R61      1    LIG     C6     10     -0.133     12.011   ;
    11     CG2R61      1    LIG     C7     11      0.015     12.011   ;
    12      CG331      1    LIG     C8     12     -0.262     12.011   ;
    13     CG2R61      1    LIG     C9     13      0.236     12.011   ;
    14     CG2R61      1    LIG    C10     14     -0.125     12.011   ;
    15     CG2R61      1    LIG    C11     15     -0.128     12.011   ;
    16      OG301      1    LIG     O2     16     -0.390     15.999   ;
    17      CG331      1    LIG    C12     17     -0.094     12.011   ;
    18     CG2R61      1    LIG    C13     18     -0.125     12.011   ;
    19     CG2R61      1    LIG    C14     19     -0.166     12.011   ;
    20     CG2R61      1    LIG    C15     20     -0.075     12.011   ;
    21     CG2R66      1    LIG    C16     21      0.006     12.011   ;
    22       FGR1      1    LIG     F1     22     -0.169     18.998   ;
    23     CG2R61      1    LIG    C17     23      0.037     12.011   ;
    24     CG2R61      1    LIG    C18     24     -0.164     12.011   ;
    25     CG2DC1      1    LIG    C19     25     -0.008     12.011   ;
    26     CG2DC2      1    LIG    C20     26     -0.246     12.011   ;
    27     CG2DC2      1    LIG    C21     27     -0.181     12.011   ;
    28      CG321      1    LIG    C22     28     -0.037     12.011   ;
    29      NG311      1    LIG     N3     29     -0.466     14.007   ;
    30     CG2D1O      1    LIG    C23     30      0.321     12.011   ;
    31     HGPAM1      1    LIG    HN4     31      0.324      1.008   ;
    32       FGA1      1    LIG     F2     32     -0.107     18.998   ;
    33      NG3P3      1    LIG     N4     33     -0.267     14.007   ;
    34       HGP2      1    LIG     H1     34      0.301      1.008   ;
    35       HGP2      1    LIG     H2     35      0.301      1.008   ;
    36       HGP2      1    LIG    HN2     36      0.353      1.008   ;
    37       HGA1      1    LIG     HC     37      0.073      1.008   ;
    38       HGA3      1    LIG    HC1     38      0.090      1.008   ;
    39       HGA3      1    LIG    HC2     39      0.090      1.008   ;
    40       HGA3      1    LIG    HC3     40      0.090      1.008   ;
    41      HGR61      1    LIG    HC4     41      0.116      1.008   ;
    42       HGA3      1    LIG    HC5     42      0.090      1.008   ;
    43       HGA3      1    LIG    HC6     43      0.090      1.008   ;
    44       HGA3      1    LIG    HC7     44      0.090      1.008   ;
    45      HGR61      1    LIG    HC8     45      0.116      1.008   ;
    46      HGR61      1    LIG    HC9     46      0.116      1.008   ;
    47       HGA3      1    LIG   HC10     47      0.090      1.008   ;
    48       HGA3      1    LIG   HC11     48      0.090      1.008   ;
    49       HGA3      1    LIG   HC12     49      0.090      1.008   ;
    50      HGR61      1    LIG   HC13     50      0.116      1.008   ;
    51      HGR62      1    LIG   HC14     51      0.179      1.008   ;
    52      HGR61      1    LIG   HC15     52      0.116      1.008   ;
    53       HGA4      1    LIG   HC16     53      0.153      1.008   ;
    54       HGA4      1    LIG   HC17     54      0.150      1.008   ;
    55       HGA2      1    LIG   HC18     55      0.090      1.008   ;
    56       HGP2      1    LIG    HN1     56      0.301      1.008   ;
    57       HGA2      1    LIG    H26     57      0.090      1.008   ;

[ bonds ]
;	ai	  aj funct			  c0			c1			  c2			c3
    1     2	 1 ;      CG3C50      NG3P2
    1     7	 1 ;      CG3C50     CG2R53
    1    18	 1 ;      CG3C50     CG2R61
    1     9	 1 ;      CG3C50     CG2R61
    2     4	 1 ;       NG3P2     CG3C53
    2     3	 1 ;       NG3P2       HGP2
    2    36	 1 ;       NG3P2       HGP2
    4    33	 1 ;      CG3C53      NG3P3
    4     5	 1 ;      CG3C53     NG2R53
    4    37	 1 ;      CG3C53       HGA1
    5     6	 1 ;      NG2R53      CG331
    5     7	 1 ;      NG2R53     CG2R53
    6    38	 1 ;       CG331       HGA3
    6    39	 1 ;       CG331       HGA3
    6    40	 1 ;       CG331       HGA3
    7     8	 1 ;      CG2R53      OG2D1
    9    15	 1 ;      CG2R61     CG2R61
    9    10	 1 ;      CG2R61     CG2R61
   10    11	 1 ;      CG2R61     CG2R61
   10    41	 1 ;      CG2R61      HGR61
   11    13	 1 ;      CG2R61     CG2R61
   11    12	 1 ;      CG2R61      CG331
   12    42	 1 ;       CG331       HGA3
   12    43	 1 ;       CG331       HGA3
   12    44	 1 ;       CG331       HGA3
   13    14	 1 ;      CG2R61     CG2R61
   13    16	 1 ;      CG2R61      OG301
   14    15	 1 ;      CG2R61     CG2R61
   14    45	 1 ;      CG2R61      HGR61
   15    46	 1 ;      CG2R61      HGR61
   16    17	 1 ;       OG301      CG331
   17    47	 1 ;       CG331       HGA3
   17    48	 1 ;       CG331       HGA3
   17    49	 1 ;       CG331       HGA3
   18    19	 1 ;      CG2R61     CG2R61
   18    24	 1 ;      CG2R61     CG2R61
   19    20	 1 ;      CG2R61     CG2R61
   19    50	 1 ;      CG2R61      HGR61
   20    21	 1 ;      CG2R61     CG2R66
   20    51	 1 ;      CG2R61      HGR62
   21    22	 1 ;      CG2R66       FGR1
   21    23	 1 ;      CG2R66     CG2R61
   23    25	 1 ;      CG2R61     CG2DC1
   23    24	 1 ;      CG2R61     CG2R61
   24    52	 1 ;      CG2R61      HGR61
   25    30	 1 ;      CG2DC1     CG2D1O
   25    26	 1 ;      CG2DC1     CG2DC2
   26    27	 1 ;      CG2DC2     CG2DC2
   26    53	 1 ;      CG2DC2       HGA4
   27    28	 1 ;      CG2DC2      CG321
   27    54	 1 ;      CG2DC2       HGA4
   28    29	 1 ;       CG321      NG311
   28    55	 1 ;       CG321       HGA2
   28    57	 1 ;       CG321       HGA2
   29    31	 1 ;       NG311     HGPAM1
   29    30	 1 ;       NG311     CG2D1O
   30    32	 1 ;      CG2D1O       FGA1
   33    34	 1 ;       NG3P3       HGP2
   33    35	 1 ;       NG3P3       HGP2
   33    56	 1 ;       NG3P3       HGP2

[ pairs ]
;	ai	  aj funct			  c0			c1			  c2			c3
    1    33	 1
    1    37	 1
    1     6	 1
    1    14	 1
    1    46	 1
    1    11	 1
    1    41	 1
    1    20	 1
    1    50	 1
    1    23	 1
    1    52	 1
    2     8	 1
    2    19	 1
    2    24	 1
    2    15	 1
    2    10	 1
    2    34	 1
    2    35	 1
    2    56	 1
    2     6	 1
    3     7	 1
    3    18	 1
    3     9	 1
    3    33	 1
    3     5	 1
    3    37	 1
    4    18	 1
    4     9	 1
    4    38	 1
    4    39	 1
    4    40	 1
    4     8	 1
    5    18	 1
    5     9	 1
    5    36	 1
    5    34	 1
    5    35	 1
    5    56	 1
    6    33	 1
    6    37	 1
    6     8	 1
    7    36	 1
    7    19	 1
    7    24	 1
    7    15	 1
    7    10	 1
    7    33	 1
    7    37	 1
    7    38	 1
    7    39	 1
    7    40	 1
    8    18	 1
    8     9	 1
    9    36	 1
    9    19	 1
    9    24	 1
    9    13	 1
    9    12	 1
    9    45	 1
   10    18	 1
   10    14	 1
   10    46	 1
   10    16	 1
   10    42	 1
   10    43	 1
   10    44	 1
   11    15	 1
   11    45	 1
   11    17	 1
   12    41	 1
   12    14	 1
   12    16	 1
   13    41	 1
   13    42	 1
   13    43	 1
   13    44	 1
   13    46	 1
   13    47	 1
   13    48	 1
   13    49	 1
   14    17	 1
   15    18	 1
   15    41	 1
   15    16	 1
   16    45	 1
   18    36	 1
   18    21	 1
   18    51	 1
   18    25	 1
   19    23	 1
   19    52	 1
   19    22	 1
   20    24	 1
   20    25	 1
   21    50	 1
   21    30	 1
   21    26	 1
   21    52	 1
   22    51	 1
   22    25	 1
   22    24	 1
   23    51	 1
   23    32	 1
   23    29	 1
   23    27	 1
   23    53	 1
   24    50	 1
   24    30	 1
   24    26	 1
   25    52	 1
   25    28	 1
   25    54	 1
   25    31	 1
   26    32	 1
   26    29	 1
   26    55	 1
   26    57	 1
   27    30	 1
   27    31	 1
   28    53	 1
   28    32	 1
   29    54	 1
   30    53	 1
   30    55	 1
   30    57	 1
   31    55	 1
   31    57	 1
   31    32	 1
   33    36	 1
   34    37	 1
   35    37	 1
   36    37	 1
   37    56	 1
   45    46	 1
   50    51	 1
   53    54	 1
   54    55	 1
   54    57	 1

[ angles ]
;	ai	  aj	ak funct			c0			  c1			c2			  c3
    2     1     7	5 ;      NG3P2     CG3C50     CG2R53
    2     1    18	5 ;      NG3P2     CG3C50     CG2R61
    2     1     9	5 ;      NG3P2     CG3C50     CG2R61
    7     1    18	5 ;     CG2R53     CG3C50     CG2R61
    7     1     9	5 ;     CG2R53     CG3C50     CG2R61
   18     1     9	5 ;     CG2R61     CG3C50     CG2R61
    4     2     3	5 ;     CG3C53      NG3P2       HGP2
    4     2     1	5 ;     CG3C53      NG3P2     CG3C50
    4     2    36	5 ;     CG3C53      NG3P2       HGP2
    3     2     1	5 ;       HGP2      NG3P2     CG3C50
    3     2    36	5 ;       HGP2      NG3P2       HGP2
    1     2    36	5 ;     CG3C50      NG3P2       HGP2
   33     4     5	5 ;      NG3P3     CG3C53     NG2R53
   33     4     2	5 ;      NG3P3     CG3C53      NG3P2
   33     4    37	5 ;      NG3P3     CG3C53       HGA1
    5     4     2	5 ;     NG2R53     CG3C53      NG3P2
    5     4    37	5 ;     NG2R53     CG3C53       HGA1
    2     4    37	5 ;      NG3P2     CG3C53       HGA1
    6     5     4	5 ;      CG331     NG2R53     CG3C53
    6     5     7	5 ;      CG331     NG2R53     CG2R53
    4     5     7	5 ;     CG3C53     NG2R53     CG2R53
    5     6    38	5 ;     NG2R53      CG331       HGA3
    5     6    39	5 ;     NG2R53      CG331       HGA3
    5     6    40	5 ;     NG2R53      CG331       HGA3
   38     6    39	5 ;       HGA3      CG331       HGA3
   38     6    40	5 ;       HGA3      CG331       HGA3
   39     6    40	5 ;       HGA3      CG331       HGA3
    5     7     1	5 ;     NG2R53     CG2R53     CG3C50
    5     7     8	5 ;     NG2R53     CG2R53      OG2D1
    1     7     8	5 ;     CG3C50     CG2R53      OG2D1
    1     9    15	5 ;     CG3C50     CG2R61     CG2R61
    1     9    10	5 ;     CG3C50     CG2R61     CG2R61
   15     9    10	5 ;     CG2R61     CG2R61     CG2R61
    9    10    11	5 ;     CG2R61     CG2R61     CG2R61
    9    10    41	5 ;     CG2R61     CG2R61      HGR61
   11    10    41	5 ;     CG2R61     CG2R61      HGR61
   10    11    13	5 ;     CG2R61     CG2R61     CG2R61
   10    11    12	5 ;     CG2R61     CG2R61      CG331
   13    11    12	5 ;     CG2R61     CG2R61      CG331
   11    12    42	5 ;     CG2R61      CG331       HGA3
   11    12    43	5 ;     CG2R61      CG331       HGA3
   11    12    44	5 ;     CG2R61      CG331       HGA3
   42    12    43	5 ;       HGA3      CG331       HGA3
   42    12    44	5 ;       HGA3      CG331       HGA3
   43    12    44	5 ;       HGA3      CG331       HGA3
   14    13    11	5 ;     CG2R61     CG2R61     CG2R61
   14    13    16	5 ;     CG2R61     CG2R61      OG301
   11    13    16	5 ;     CG2R61     CG2R61      OG301
   15    14    13	5 ;     CG2R61     CG2R61     CG2R61
   15    14    45	5 ;     CG2R61     CG2R61      HGR61
   13    14    45	5 ;     CG2R61     CG2R61      HGR61
    9    15    14	5 ;     CG2R61     CG2R61     CG2R61
    9    15    46	5 ;     CG2R61     CG2R61      HGR61
   14    15    46	5 ;     CG2R61     CG2R61      HGR61
   13    16    17	5 ;     CG2R61      OG301      CG331
   16    17    47	5 ;      OG301      CG331       HGA3
   16    17    48	5 ;      OG301      CG331       HGA3
   16    17    49	5 ;      OG301      CG331       HGA3
   47    17    48	5 ;       HGA3      CG331       HGA3
   47    17    49	5 ;       HGA3      CG331       HGA3
   48    17    49	5 ;       HGA3      CG331       HGA3
   19    18    24	5 ;     CG2R61     CG2R61     CG2R61
   19    18     1	5 ;     CG2R61     CG2R61     CG3C50
   24    18     1	5 ;     CG2R61     CG2R61     CG3C50
   20    19    18	5 ;     CG2R61     CG2R61     CG2R61
   20    19    50	5 ;     CG2R61     CG2R61      HGR61
   18    19    50	5 ;     CG2R61     CG2R61      HGR61
   21    20    19	5 ;     CG2R66     CG2R61     CG2R61
   21    20    51	5 ;     CG2R66     CG2R61      HGR62
   19    20    51	5 ;     CG2R61     CG2R61      HGR62
   22    21    20	5 ;       FGR1     CG2R66     CG2R61
   22    21    23	5 ;       FGR1     CG2R66     CG2R61
   20    21    23	5 ;     CG2R61     CG2R66     CG2R61
   21    23    25	5 ;     CG2R66     CG2R61     CG2DC1
   21    23    24	5 ;     CG2R66     CG2R61     CG2R61
   25    23    24	5 ;     CG2DC1     CG2R61     CG2R61
   23    24    18	5 ;     CG2R61     CG2R61     CG2R61
   23    24    52	5 ;     CG2R61     CG2R61      HGR61
   18    24    52	5 ;     CG2R61     CG2R61      HGR61
   30    25    23	5 ;     CG2D1O     CG2DC1     CG2R61
   30    25    26	5 ;     CG2D1O     CG2DC1     CG2DC2
   23    25    26	5 ;     CG2R61     CG2DC1     CG2DC2
   25    26    27	5 ;     CG2DC1     CG2DC2     CG2DC2
   25    26    53	5 ;     CG2DC1     CG2DC2       HGA4
   27    26    53	5 ;     CG2DC2     CG2DC2       HGA4
   28    27    26	5 ;      CG321     CG2DC2     CG2DC2
   28    27    54	5 ;      CG321     CG2DC2       HGA4
   26    27    54	5 ;     CG2DC2     CG2DC2       HGA4
   29    28    27	5 ;      NG311      CG321     CG2DC2
   29    28    55	5 ;      NG311      CG321       HGA2
   29    28    57	5 ;      NG311      CG321       HGA2
   27    28    55	5 ;     CG2DC2      CG321       HGA2
   27    28    57	5 ;     CG2DC2      CG321       HGA2
   55    28    57	5 ;       HGA2      CG321       HGA2
   31    29    30	5 ;     HGPAM1      NG311     CG2D1O
   31    29    28	5 ;     HGPAM1      NG311      CG321
   30    29    28	5 ;     CG2D1O      NG311      CG321
   32    30    29	5 ;       FGA1     CG2D1O      NG311
   32    30    25	5 ;       FGA1     CG2D1O     CG2DC1
   29    30    25	5 ;      NG311     CG2D1O     CG2DC1
   34    33    35	5 ;       HGP2      NG3P3       HGP2
   34    33     4	5 ;       HGP2      NG3P3     CG3C53
   34    33    56	5 ;       HGP2      NG3P3       HGP2
   35    33     4	5 ;       HGP2      NG3P3     CG3C53
   35    33    56	5 ;       HGP2      NG3P3       HGP2
    4    33    56	5 ;     CG3C53      NG3P3       HGP2

[ dihedrals ]
;	ai	  aj	ak	  al funct			  c0			c1			  c2			c3			  c4			c5
    7     1     2     4	 9 ;     CG2R53     CG3C50      NG3P2     CG3C53
    7     1     2     3	 9 ;     CG2R53     CG3C50      NG3P2       HGP2
    7     1     2    36	 9 ;     CG2R53     CG3C50      NG3P2       HGP2
   18     1     2     4	 9 ;     CG2R61     CG3C50      NG3P2     CG3C53
   18     1     2     3	 9 ;     CG2R61     CG3C50      NG3P2       HGP2
   18     1     2    36	 9 ;     CG2R61     CG3C50      NG3P2       HGP2
    9     1     2     4	 9 ;     CG2R61     CG3C50      NG3P2     CG3C53
    9     1     2     3	 9 ;     CG2R61     CG3C50      NG3P2       HGP2
    9     1     2    36	 9 ;     CG2R61     CG3C50      NG3P2       HGP2
    2     1     7     5	 9 ;      NG3P2     CG3C50     CG2R53     NG2R53
    2     1     7     8	 9 ;      NG3P2     CG3C50     CG2R53      OG2D1
   18     1     7     5	 9 ;     CG2R61     CG3C50     CG2R53     NG2R53
   18     1     7     8	 9 ;     CG2R61     CG3C50     CG2R53      OG2D1
    9     1     7     5	 9 ;     CG2R61     CG3C50     CG2R53     NG2R53
    9     1     7     8	 9 ;     CG2R61     CG3C50     CG2R53      OG2D1
    2     1    18    19	 9 ;      NG3P2     CG3C50     CG2R61     CG2R61
    2     1    18    24	 9 ;      NG3P2     CG3C50     CG2R61     CG2R61
    7     1    18    19	 9 ;     CG2R53     CG3C50     CG2R61     CG2R61
    7     1    18    24	 9 ;     CG2R53     CG3C50     CG2R61     CG2R61
    9     1    18    19	 9 ;     CG2R61     CG3C50     CG2R61     CG2R61
    9     1    18    24	 9 ;     CG2R61     CG3C50     CG2R61     CG2R61
    2     1     9    15	 9 ;      NG3P2     CG3C50     CG2R61     CG2R61
    2     1     9    10	 9 ;      NG3P2     CG3C50     CG2R61     CG2R61
    7     1     9    15	 9 ;     CG2R53     CG3C50     CG2R61     CG2R61
    7     1     9    10	 9 ;     CG2R53     CG3C50     CG2R61     CG2R61
   18     1     9    15	 9 ;     CG2R61     CG3C50     CG2R61     CG2R61
   18     1     9    10	 9 ;     CG2R61     CG3C50     CG2R61     CG2R61
    3     2     4    33	 9 ;       HGP2      NG3P2     CG3C53      NG3P3
    3     2     4     5	 9 ;       HGP2      NG3P2     CG3C53     NG2R53
    3     2     4    37	 9 ;       HGP2      NG3P2     CG3C53       HGA1
    1     2     4    33	 9 ;     CG3C50      NG3P2     CG3C53      NG3P3
    1     2     4     5	 9 ;     CG3C50      NG3P2     CG3C53     NG2R53
    1     2     4    37	 9 ;     CG3C50      NG3P2     CG3C53       HGA1
   36     2     4    33	 9 ;       HGP2      NG3P2     CG3C53      NG3P3
   36     2     4     5	 9 ;       HGP2      NG3P2     CG3C53     NG2R53
   36     2     4    37	 9 ;       HGP2      NG3P2     CG3C53       HGA1
    5     4    33    34	 9 ;     NG2R53     CG3C53      NG3P3       HGP2
    5     4    33    35	 9 ;     NG2R53     CG3C53      NG3P3       HGP2
    5     4    33    56	 9 ;     NG2R53     CG3C53      NG3P3       HGP2
    2     4    33    34	 9 ;      NG3P2     CG3C53      NG3P3       HGP2
    2     4    33    35	 9 ;      NG3P2     CG3C53      NG3P3       HGP2
    2     4    33    56	 9 ;      NG3P2     CG3C53      NG3P3       HGP2
   37     4    33    34	 9 ;       HGA1     CG3C53      NG3P3       HGP2
   37     4    33    35	 9 ;       HGA1     CG3C53      NG3P3       HGP2
   37     4    33    56	 9 ;       HGA1     CG3C53      NG3P3       HGP2
   33     4     5     6	 9 ;      NG3P3     CG3C53     NG2R53      CG331
   33     4     5     7	 9 ;      NG3P3     CG3C53     NG2R53     CG2R53
    2     4     5     6	 9 ;      NG3P2     CG3C53     NG2R53      CG331
    2     4     5     7	 9 ;      NG3P2     CG3C53     NG2R53     CG2R53
   37     4     5     6	 9 ;       HGA1     CG3C53     NG2R53      CG331
   37     4     5     7	 9 ;       HGA1     CG3C53     NG2R53     CG2R53
    4     5     6    38	 9 ;     CG3C53     NG2R53      CG331       HGA3
    4     5     6    39	 9 ;     CG3C53     NG2R53      CG331       HGA3
    4     5     6    40	 9 ;     CG3C53     NG2R53      CG331       HGA3
    7     5     6    38	 9 ;     CG2R53     NG2R53      CG331       HGA3
    7     5     6    39	 9 ;     CG2R53     NG2R53      CG331       HGA3
    7     5     6    40	 9 ;     CG2R53     NG2R53      CG331       HGA3
    6     5     7     1	 9 ;      CG331     NG2R53     CG2R53     CG3C50
    6     5     7     8	 9 ;      CG331     NG2R53     CG2R53      OG2D1
    4     5     7     1	 9 ;     CG3C53     NG2R53     CG2R53     CG3C50
    4     5     7     8	 9 ;     CG3C53     NG2R53     CG2R53      OG2D1
    1     9    15    14	 9 ;     CG3C50     CG2R61     CG2R61     CG2R61
    1     9    15    46	 9 ;     CG3C50     CG2R61     CG2R61      HGR61
   10     9    15    14	 9 ;     CG2R61     CG2R61     CG2R61     CG2R61
   10     9    15    46	 9 ;     CG2R61     CG2R61     CG2R61      HGR61
    1     9    10    11	 9 ;     CG3C50     CG2R61     CG2R61     CG2R61
    1     9    10    41	 9 ;     CG3C50     CG2R61     CG2R61      HGR61
   15     9    10    11	 9 ;     CG2R61     CG2R61     CG2R61     CG2R61
   15     9    10    41	 9 ;     CG2R61     CG2R61     CG2R61      HGR61
    9    10    11    13	 9 ;     CG2R61     CG2R61     CG2R61     CG2R61
    9    10    11    12	 9 ;     CG2R61     CG2R61     CG2R61      CG331
   41    10    11    13	 9 ;      HGR61     CG2R61     CG2R61     CG2R61
   41    10    11    12	 9 ;      HGR61     CG2R61     CG2R61      CG331
   10    11    13    14	 9 ;     CG2R61     CG2R61     CG2R61     CG2R61
   10    11    13    16	 9 ;     CG2R61     CG2R61     CG2R61      OG301
   12    11    13    14	 9 ;      CG331     CG2R61     CG2R61     CG2R61
   12    11    13    16	 9 ;      CG331     CG2R61     CG2R61      OG301
   10    11    12    42	 9 ;     CG2R61     CG2R61      CG331       HGA3
   10    11    12    43	 9 ;     CG2R61     CG2R61      CG331       HGA3
   10    11    12    44	 9 ;     CG2R61     CG2R61      CG331       HGA3
   13    11    12    42	 9 ;     CG2R61     CG2R61      CG331       HGA3
   13    11    12    43	 9 ;     CG2R61     CG2R61      CG331       HGA3
   13    11    12    44	 9 ;     CG2R61     CG2R61      CG331       HGA3
   11    13    14    15	 9 ;     CG2R61     CG2R61     CG2R61     CG2R61
   11    13    14    45	 9 ;     CG2R61     CG2R61     CG2R61      HGR61
   16    13    14    15	 9 ;      OG301     CG2R61     CG2R61     CG2R61
   16    13    14    45	 9 ;      OG301     CG2R61     CG2R61      HGR61
   14    13    16    17	 9 ;     CG2R61     CG2R61      OG301      CG331
   11    13    16    17	 9 ;     CG2R61     CG2R61      OG301      CG331
   13    14    15     9	 9 ;     CG2R61     CG2R61     CG2R61     CG2R61
   13    14    15    46	 9 ;     CG2R61     CG2R61     CG2R61      HGR61
   45    14    15     9	 9 ;      HGR61     CG2R61     CG2R61     CG2R61
   45    14    15    46	 9 ;      HGR61     CG2R61     CG2R61      HGR61
   13    16    17    47	 9 ;     CG2R61      OG301      CG331       HGA3
   13    16    17    48	 9 ;     CG2R61      OG301      CG331       HGA3
   13    16    17    49	 9 ;     CG2R61      OG301      CG331       HGA3
   24    18    19    20	 9 ;     CG2R61     CG2R61     CG2R61     CG2R61
   24    18    19    50	 9 ;     CG2R61     CG2R61     CG2R61      HGR61
    1    18    19    20	 9 ;     CG3C50     CG2R61     CG2R61     CG2R61
    1    18    19    50	 9 ;     CG3C50     CG2R61     CG2R61      HGR61
   19    18    24    23	 9 ;     CG2R61     CG2R61     CG2R61     CG2R61
   19    18    24    52	 9 ;     CG2R61     CG2R61     CG2R61      HGR61
    1    18    24    23	 9 ;     CG3C50     CG2R61     CG2R61     CG2R61
    1    18    24    52	 9 ;     CG3C50     CG2R61     CG2R61      HGR61
   18    19    20    21	 9 ;     CG2R61     CG2R61     CG2R61     CG2R66
   18    19    20    51	 9 ;     CG2R61     CG2R61     CG2R61      HGR62
   50    19    20    21	 9 ;      HGR61     CG2R61     CG2R61     CG2R66
   50    19    20    51	 9 ;      HGR61     CG2R61     CG2R61      HGR62
   19    20    21    22	 9 ;     CG2R61     CG2R61     CG2R66       FGR1
   19    20    21    23	 9 ;     CG2R61     CG2R61     CG2R66     CG2R61
   51    20    21    22	 9 ;      HGR62     CG2R61     CG2R66       FGR1
   51    20    21    23	 9 ;      HGR62     CG2R61     CG2R66     CG2R61
   22    21    23    25	 9 ;       FGR1     CG2R66     CG2R61     CG2DC1
   22    21    23    24	 9 ;       FGR1     CG2R66     CG2R61     CG2R61
   20    21    23    25	 9 ;     CG2R61     CG2R66     CG2R61     CG2DC1
   20    21    23    24	 9 ;     CG2R61     CG2R66     CG2R61     CG2R61
   21    23    25    30	 9 ;     CG2R66     CG2R61     CG2DC1     CG2D1O
   21    23    25    26	 9 ;     CG2R66     CG2R61     CG2DC1     CG2DC2
   24    23    25    30	 9 ;     CG2R61     CG2R61     CG2DC1     CG2D1O
   24    23    25    26	 9 ;     CG2R61     CG2R61     CG2DC1     CG2DC2
   21    23    24    18	 9 ;     CG2R66     CG2R61     CG2R61     CG2R61
   21    23    24    52	 9 ;     CG2R66     CG2R61     CG2R61      HGR61
   25    23    24    18	 9 ;     CG2DC1     CG2R61     CG2R61     CG2R61
   25    23    24    52	 9 ;     CG2DC1     CG2R61     CG2R61      HGR61
   23    25    30    32	 9 ;     CG2R61     CG2DC1     CG2D1O       FGA1
   23    25    30    29	 9 ;     CG2R61     CG2DC1     CG2D1O      NG311
   26    25    30    32	 9 ;     CG2DC2     CG2DC1     CG2D1O       FGA1
   26    25    30    29	 9 ;     CG2DC2     CG2DC1     CG2D1O      NG311
   30    25    26    27	 9 ;     CG2D1O     CG2DC1     CG2DC2     CG2DC2
   30    25    26    53	 9 ;     CG2D1O     CG2DC1     CG2DC2       HGA4
   23    25    26    27	 9 ;     CG2R61     CG2DC1     CG2DC2     CG2DC2
   23    25    26    53	 9 ;     CG2R61     CG2DC1     CG2DC2       HGA4
   25    26    27    28	 9 ;     CG2DC1     CG2DC2     CG2DC2      CG321
   25    26    27    54	 9 ;     CG2DC1     CG2DC2     CG2DC2       HGA4
   53    26    27    28	 9 ;       HGA4     CG2DC2     CG2DC2      CG321
   53    26    27    54	 9 ;       HGA4     CG2DC2     CG2DC2       HGA4
   26    27    28    29	 9 ;     CG2DC2     CG2DC2      CG321      NG311
   26    27    28    55	 9 ;     CG2DC2     CG2DC2      CG321       HGA2
   26    27    28    57	 9 ;     CG2DC2     CG2DC2      CG321       HGA2
   54    27    28    29	 9 ;       HGA4     CG2DC2      CG321      NG311
   54    27    28    55	 9 ;       HGA4     CG2DC2      CG321       HGA2
   54    27    28    57	 9 ;       HGA4     CG2DC2      CG321       HGA2
   27    28    29    31	 9 ;     CG2DC2      CG321      NG311     HGPAM1
   27    28    29    30	 9 ;     CG2DC2      CG321      NG311     CG2D1O
   55    28    29    31	 9 ;       HGA2      CG321      NG311     HGPAM1
   55    28    29    30	 9 ;       HGA2      CG321      NG311     CG2D1O
   57    28    29    31	 9 ;       HGA2      CG321      NG311     HGPAM1
   57    28    29    30	 9 ;       HGA2      CG321      NG311     CG2D1O
   31    29    30    32	 9 ;     HGPAM1      NG311     CG2D1O       FGA1
   31    29    30    25	 9 ;     HGPAM1      NG311     CG2D1O     CG2DC1
   28    29    30    32	 9 ;      CG321      NG311     CG2D1O       FGA1
   28    29    30    25	 9 ;      CG321      NG311     CG2D1O     CG2DC1

[ dihedrals ]
;	ai	  aj	ak	  al funct			  c0			c1			  c2			c3
    7     1     5     8	 2
   30    25    29    32	 2

