S  C  A  M  O  R  G
   57
    1LIG     C1    1  -1.502   0.445  -1.709
    1LIG     N1    2  -1.452   0.384  -1.839
    1LIG    HN3    3  -1.442   0.285  -1.860
    1LIG     C2    4  -1.424   0.483  -1.916
    1LIG     N2    5  -1.452   0.606  -1.871
    1LIG     C3    6  -1.412   0.732  -1.929
    1LIG     C4    7  -1.516   0.594  -1.750
    1LIG     O1    8  -1.565   0.686  -1.687
    1LIG     C5    9  -1.633   0.376  -1.667
    1LIG     C6   10  -1.686   0.402  -1.539
    1LIG     C7   11  -1.814   0.359  -1.497
    1LIG     C8   12  -1.860   0.410  -1.363
    1LIG     C9   13  -1.890   0.282  -1.585
    1LIG    C10   14  -1.837   0.252  -1.712
    1LIG    C11   15  -1.711   0.298  -1.753
    1LIG     O2   16  -2.019   0.240  -1.571
    1LIG    C12   17  -2.118   0.285  -1.662
    1LIG    C13   18  -1.393   0.429  -1.600
    1LIG    C14   19  -1.339   0.542  -1.536
    1LIG    C15   20  -1.241   0.527  -1.438
    1LIG    C16   21  -1.192   0.401  -1.406
    1LIG     F1   22  -1.095   0.394  -1.315
    1LIG    C17   23  -1.241   0.284  -1.468
    1LIG    C18   24  -1.343   0.302  -1.564
    1LIG    C19   25  -1.188   0.149  -1.437
    1LIG    C20   26  -1.225   0.079  -1.321
    1LIG    C21   27  -1.171  -0.047  -1.294
    1LIG    C22   28  -1.082  -0.102  -1.384
    1LIG     N3   29  -1.044  -0.040  -1.497
    1LIG    C23   30  -1.096   0.083  -1.520
    1LIG    HN4   31  -0.978  -0.083  -1.562
    1LIG     F2   32  -1.052   0.143  -1.632
    1LIG     N4   33  -1.371   0.463  -2.039
    1LIG     H1   34  -1.312   0.540  -2.069
    1LIG     H2   35  -1.328   0.373  -2.056
    1LIG    HN2   36  -1.546   0.383  -1.875
    1LIG     HC   37  -1.324   0.489  -1.874
    1LIG    HC1   38  -1.451   0.814  -1.868
    1LIG    HC2   39  -1.303   0.738  -1.932
    1LIG    HC3   40  -1.452   0.740  -2.030
    1LIG    HC4   41  -1.625   0.458  -1.469
    1LIG    HC5   42  -1.960   0.370  -1.342
    1LIG    HC6   43  -1.791   0.377  -1.286
    1LIG    HC7   44  -1.864   0.519  -1.365
    1LIG    HC8   45  -1.895   0.191  -1.779
    1LIG    HC9   46  -1.674   0.274  -1.851
    1LIG   HC10   47  -2.215   0.286  -1.613
    1LIG   HC11   48  -2.121   0.217  -1.748
    1LIG   HC12   49  -2.092   0.385  -1.696
    1LIG   HC13   50  -1.375   0.640  -1.562
    1LIG   HC14   51  -1.203   0.614  -1.387
    1LIG   HC15   52  -1.385   0.215  -1.611
    1LIG   HC16   53  -1.296   0.123  -1.253
    1LIG   HC17   54  -1.199  -0.100  -1.204
    1LIG   HC18   55  -1.041  -0.199  -1.362
    1LIG    HN1   56  -1.450   0.466  -2.102
    1LIG    H26   57  -1.165  -0.148  -1.438
   0.00000   0.00000   0.00000
