; Created by cgenff_charmm2gmx.py

[ moleculetype ]
; Name			   nrexcl
LIG				 3

[ atoms ]
;	 nr		  type	resnr residue  atom   cgnr	   charge		mass  typeB    chargeB		massB
; residue	 1 LIG rtp LIG q	qsum
     1      CG311      1    LIG     C1      1      0.102     12.011   ;
     2      CG321      1    LIG     C2      2     -0.240     12.011   ;
     3     CG2R61      1    LIG     C3      3     -0.046     12.011   ;
     4     CG2R61      1    LIG     C4      4     -0.121     12.011   ;
     5     CG2R67      1    LIG     C5      5      0.014     12.011   ;
     6     CG2R61      1    LIG     C6      6     -0.116     12.011   ;
     7     CG2R61      1    LIG     C7      7     -0.127     12.011   ;
     8     CG2R61      1    LIG     C8      8      0.116     12.011   ;
     9      NG311      1    LIG     N1      9     -0.673     14.007   ;
    10     HGPAM1      1    LIG     HN     10      0.372      1.008   ;
    11      CG311      1    LIG     C9     11      0.273     12.011   ;
    12      CG321      1    LIG    C10     12     -0.270     12.011   ;
    13      CG311      1    LIG    C11     13     -0.037     12.011   ;
    14      CG331      1    LIG    C12     14     -0.266     12.011   ;
    15      CG2O1      1    LIG    C13     15      0.500     12.011   ;
    16      OG2D1      1    LIG      O     16     -0.514     15.999   ;
    17      NG2S1      1    LIG     N2     17     -0.476     14.007   ;
    18       HGP1      1    LIG     H1     18      0.315      1.008   ;
    19      CG321      1    LIG    C14     19     -0.032     12.011   ;
    20     CG2R61      1    LIG    C15     20      0.004     12.011   ;
    21     CG2R61      1    LIG    C16     21     -0.123     12.011   ;
    22     CG2R61      1    LIG    C17     22     -0.112     12.011   ;
    23     CG2R61      1    LIG    C18     23     -0.116     12.011   ;
    24     CG2R61      1    LIG    C19     24     -0.112     12.011   ;
    25     CG2R61      1    LIG    C20     25     -0.123     12.011   ;
    26      NG321      1    LIG     N3     26     -1.011     14.007   ;
    27     HGPAM2      1    LIG     H2     27      0.409      1.008   ;
    28     HGPAM2      1    LIG     H3     28      0.409      1.008   ;
    29     CG2R67      1    LIG    C21     29     -0.025     12.011   ;
    30     CG2R61      1    LIG    C22     30     -0.120     12.011   ;
    31     CG2R61      1    LIG    C23     31     -0.119     12.011   ;
    32     CG2R61      1    LIG    C24     32     -0.125     12.011   ;
    33     CG2R61      1    LIG    C25     33     -0.124     12.011   ;
    34     CG2R61      1    LIG    C26     34      0.056     12.011   ;
    35      CG331      1    LIG    C27     35     -0.284     12.011   ;
    36       HGA1      1    LIG     H4     36      0.090      1.008   ;
    37       HGA2      1    LIG     H5     37      0.090      1.008   ;
    38       HGA2      1    LIG     H6     38      0.090      1.008   ;
    39      HGR61      1    LIG     H7     39      0.116      1.008   ;
    40      HGR61      1    LIG     H8     40      0.116      1.008   ;
    41      HGR61      1    LIG     H9     41      0.116      1.008   ;
    42       HGA1      1    LIG    H10     42      0.090      1.008   ;
    43       HGA2      1    LIG    H11     43      0.090      1.008   ;
    44       HGA2      1    LIG    H12     44      0.090      1.008   ;
    45       HGA1      1    LIG    H13     45      0.090      1.008   ;
    46       HGA3      1    LIG    H14     46      0.090      1.008   ;
    47       HGA3      1    LIG    H15     47      0.090      1.008   ;
    48       HGA3      1    LIG    H16     48      0.090      1.008   ;
    49       HGA2      1    LIG    H17     49      0.090      1.008   ;
    50       HGA2      1    LIG    H18     50      0.090      1.008   ;
    51      HGR61      1    LIG    H19     51      0.116      1.008   ;
    52      HGR61      1    LIG    H20     52      0.116      1.008   ;
    53      HGR61      1    LIG    H21     53      0.116      1.008   ;
    54      HGR61      1    LIG    H22     54      0.116      1.008   ;
    55      HGR61      1    LIG    H23     55      0.116      1.008   ;
    56      HGR61      1    LIG    H24     56      0.116      1.008   ;
    57      HGR61      1    LIG    H25     57      0.116      1.008   ;
    58      HGR61      1    LIG    H26     58      0.116      1.008   ;
    59      HGR61      1    LIG    H27     59      0.116      1.008   ;
    60       HGA3      1    LIG    H28     60      0.090      1.008   ;
    61       HGA3      1    LIG    H29     61      0.090      1.008   ;
    62       HGA3      1    LIG    H30     62      0.090      1.008   ;

[ bonds ]
;	ai	  aj funct			  c0			c1			  c2			c3
    1     2	 1 ;       CG311      CG321
    1    11	 1 ;       CG311      CG311
    1    12	 1 ;       CG311      CG321
    1    36	 1 ;       CG311       HGA1
    2     3	 1 ;       CG321     CG2R61
    2    37	 1 ;       CG321       HGA2
    2    38	 1 ;       CG321       HGA2
    3     8	 1 ;      CG2R61     CG2R61
    3     4	 1 ;      CG2R61     CG2R61
    4     5	 1 ;      CG2R61     CG2R67
    4    39	 1 ;      CG2R61      HGR61
    5     6	 1 ;      CG2R67     CG2R61
    5    29	 1 ;      CG2R67     CG2R67
    6     7	 1 ;      CG2R61     CG2R61
    6    40	 1 ;      CG2R61      HGR61
    7     8	 1 ;      CG2R61     CG2R61
    7    41	 1 ;      CG2R61      HGR61
    8     9	 1 ;      CG2R61      NG311
    9    10	 1 ;       NG311     HGPAM1
    9    11	 1 ;       NG311      CG311
   11    26	 1 ;       CG311      NG321
   11    42	 1 ;       CG311       HGA1
   12    13	 1 ;       CG321      CG311
   12    43	 1 ;       CG321       HGA2
   12    44	 1 ;       CG321       HGA2
   13    14	 1 ;       CG311      CG331
   13    15	 1 ;       CG311      CG2O1
   13    45	 1 ;       CG311       HGA1
   14    46	 1 ;       CG331       HGA3
   14    47	 1 ;       CG331       HGA3
   14    48	 1 ;       CG331       HGA3
   15    16	 1 ;       CG2O1      OG2D1
   15    17	 1 ;       CG2O1      NG2S1
   17    19	 1 ;       NG2S1      CG321
   17    18	 1 ;       NG2S1       HGP1
   19    20	 1 ;       CG321     CG2R61
   19    49	 1 ;       CG321       HGA2
   19    50	 1 ;       CG321       HGA2
   20    25	 1 ;      CG2R61     CG2R61
   20    21	 1 ;      CG2R61     CG2R61
   21    22	 1 ;      CG2R61     CG2R61
   21    51	 1 ;      CG2R61      HGR61
   22    23	 1 ;      CG2R61     CG2R61
   22    52	 1 ;      CG2R61      HGR61
   23    24	 1 ;      CG2R61     CG2R61
   23    53	 1 ;      CG2R61      HGR61
   24    25	 1 ;      CG2R61     CG2R61
   24    54	 1 ;      CG2R61      HGR61
   25    55	 1 ;      CG2R61      HGR61
   26    27	 1 ;       NG321     HGPAM2
   26    28	 1 ;       NG321     HGPAM2
   29    30	 1 ;      CG2R67     CG2R61
   29    34	 1 ;      CG2R67     CG2R61
   30    31	 1 ;      CG2R61     CG2R61
   30    56	 1 ;      CG2R61      HGR61
   31    32	 1 ;      CG2R61     CG2R61
   31    57	 1 ;      CG2R61      HGR61
   32    33	 1 ;      CG2R61     CG2R61
   32    58	 1 ;      CG2R61      HGR61
   33    34	 1 ;      CG2R61     CG2R61
   33    59	 1 ;      CG2R61      HGR61
   34    35	 1 ;      CG2R61      CG331
   35    60	 1 ;       CG331       HGA3
   35    61	 1 ;       CG331       HGA3
   35    62	 1 ;       CG331       HGA3

[ pairs ]
;	ai	  aj funct			  c0			c1			  c2			c3
    1     8	 1
    1     4	 1
    1    10	 1
    1    27	 1
    1    28	 1
    1    14	 1
    1    15	 1
    1    45	 1
    2     9	 1
    2    26	 1
    2    42	 1
    2    13	 1
    2    43	 1
    2    44	 1
    2     7	 1
    2     5	 1
    2    39	 1
    3    11	 1
    3    12	 1
    3    36	 1
    3     6	 1
    3    29	 1
    3    41	 1
    3    10	 1
    4    37	 1
    4    38	 1
    4     7	 1
    4     9	 1
    4    40	 1
    4    30	 1
    4    34	 1
    5     8	 1
    5    41	 1
    5    31	 1
    5    56	 1
    5    33	 1
    5    35	 1
    6    39	 1
    6    30	 1
    6    34	 1
    6     9	 1
    7    29	 1
    7    10	 1
    7    11	 1
    8    37	 1
    8    38	 1
    8    39	 1
    8    40	 1
    8    26	 1
    8    42	 1
    9    12	 1
    9    36	 1
    9    41	 1
    9    27	 1
    9    28	 1
   10    26	 1
   10    42	 1
   11    37	 1
   11    38	 1
   11    13	 1
   11    43	 1
   11    44	 1
   12    37	 1
   12    38	 1
   12    26	 1
   12    42	 1
   12    46	 1
   12    47	 1
   12    48	 1
   12    16	 1
   12    17	 1
   13    36	 1
   13    19	 1
   13    18	 1
   14    43	 1
   14    44	 1
   14    16	 1
   14    17	 1
   15    43	 1
   15    44	 1
   15    46	 1
   15    47	 1
   15    48	 1
   15    20	 1
   15    49	 1
   15    50	 1
   16    45	 1
   16    19	 1
   16    18	 1
   17    45	 1
   17    25	 1
   17    21	 1
   18    20	 1
   18    49	 1
   18    50	 1
   19    24	 1
   19    55	 1
   19    22	 1
   19    51	 1
   20    23	 1
   20    52	 1
   20    54	 1
   21    49	 1
   21    50	 1
   21    24	 1
   21    55	 1
   21    53	 1
   22    25	 1
   22    54	 1
   23    51	 1
   23    55	 1
   24    52	 1
   25    49	 1
   25    50	 1
   25    51	 1
   25    53	 1
   26    36	 1
   27    42	 1
   28    42	 1
   29    39	 1
   29    40	 1
   29    32	 1
   29    57	 1
   29    59	 1
   29    60	 1
   29    61	 1
   29    62	 1
   30    33	 1
   30    35	 1
   30    58	 1
   31    34	 1
   31    59	 1
   32    56	 1
   32    35	 1
   33    57	 1
   33    60	 1
   33    61	 1
   33    62	 1
   34    56	 1
   34    58	 1
   35    59	 1
   36    37	 1
   36    38	 1
   36    42	 1
   36    43	 1
   36    44	 1
   40    41	 1
   43    45	 1
   44    45	 1
   45    46	 1
   45    47	 1
   45    48	 1
   51    52	 1
   52    53	 1
   53    54	 1
   54    55	 1
   56    57	 1
   57    58	 1
   58    59	 1

[ angles ]
;	ai	  aj	ak funct			c0			  c1			c2			  c3
    2     1    11	5 ;      CG321      CG311      CG311
    2     1    12	5 ;      CG321      CG311      CG321
    2     1    36	5 ;      CG321      CG311       HGA1
   11     1    12	5 ;      CG311      CG311      CG321
   11     1    36	5 ;      CG311      CG311       HGA1
   12     1    36	5 ;      CG321      CG311       HGA1
    3     2     1	5 ;     CG2R61      CG321      CG311
    3     2    37	5 ;     CG2R61      CG321       HGA2
    3     2    38	5 ;     CG2R61      CG321       HGA2
    1     2    37	5 ;      CG311      CG321       HGA2
    1     2    38	5 ;      CG311      CG321       HGA2
   37     2    38	5 ;       HGA2      CG321       HGA2
    8     3     4	5 ;     CG2R61     CG2R61     CG2R61
    8     3     2	5 ;     CG2R61     CG2R61      CG321
    4     3     2	5 ;     CG2R61     CG2R61      CG321
    5     4     3	5 ;     CG2R67     CG2R61     CG2R61
    5     4    39	5 ;     CG2R67     CG2R61      HGR61
    3     4    39	5 ;     CG2R61     CG2R61      HGR61
    6     5    29	5 ;     CG2R61     CG2R67     CG2R67
    6     5     4	5 ;     CG2R61     CG2R67     CG2R61
   29     5     4	5 ;     CG2R67     CG2R67     CG2R61
    7     6     5	5 ;     CG2R61     CG2R61     CG2R67
    7     6    40	5 ;     CG2R61     CG2R61      HGR61
    5     6    40	5 ;     CG2R67     CG2R61      HGR61
    6     7     8	5 ;     CG2R61     CG2R61     CG2R61
    6     7    41	5 ;     CG2R61     CG2R61      HGR61
    8     7    41	5 ;     CG2R61     CG2R61      HGR61
    7     8     3	5 ;     CG2R61     CG2R61     CG2R61
    7     8     9	5 ;     CG2R61     CG2R61      NG311
    3     8     9	5 ;     CG2R61     CG2R61      NG311
    8     9    10	5 ;     CG2R61      NG311     HGPAM1
    8     9    11	5 ;     CG2R61      NG311      CG311
   10     9    11	5 ;     HGPAM1      NG311      CG311
    9    11     1	5 ;      NG311      CG311      CG311
    9    11    26	5 ;      NG311      CG311      NG321
    9    11    42	5 ;      NG311      CG311       HGA1
    1    11    26	5 ;      CG311      CG311      NG321
    1    11    42	5 ;      CG311      CG311       HGA1
   26    11    42	5 ;      NG321      CG311       HGA1
    1    12    13	5 ;      CG311      CG321      CG311
    1    12    43	5 ;      CG311      CG321       HGA2
    1    12    44	5 ;      CG311      CG321       HGA2
   13    12    43	5 ;      CG311      CG321       HGA2
   13    12    44	5 ;      CG311      CG321       HGA2
   43    12    44	5 ;       HGA2      CG321       HGA2
   12    13    14	5 ;      CG321      CG311      CG331
   12    13    15	5 ;      CG321      CG311      CG2O1
   12    13    45	5 ;      CG321      CG311       HGA1
   14    13    15	5 ;      CG331      CG311      CG2O1
   14    13    45	5 ;      CG331      CG311       HGA1
   15    13    45	5 ;      CG2O1      CG311       HGA1
   13    14    46	5 ;      CG311      CG331       HGA3
   13    14    47	5 ;      CG311      CG331       HGA3
   13    14    48	5 ;      CG311      CG331       HGA3
   46    14    47	5 ;       HGA3      CG331       HGA3
   46    14    48	5 ;       HGA3      CG331       HGA3
   47    14    48	5 ;       HGA3      CG331       HGA3
   13    15    16	5 ;      CG311      CG2O1      OG2D1
   13    15    17	5 ;      CG311      CG2O1      NG2S1
   16    15    17	5 ;      OG2D1      CG2O1      NG2S1
   15    17    19	5 ;      CG2O1      NG2S1      CG321
   15    17    18	5 ;      CG2O1      NG2S1       HGP1
   19    17    18	5 ;      CG321      NG2S1       HGP1
   17    19    20	5 ;      NG2S1      CG321     CG2R61
   17    19    49	5 ;      NG2S1      CG321       HGA2
   17    19    50	5 ;      NG2S1      CG321       HGA2
   20    19    49	5 ;     CG2R61      CG321       HGA2
   20    19    50	5 ;     CG2R61      CG321       HGA2
   49    19    50	5 ;       HGA2      CG321       HGA2
   19    20    25	5 ;      CG321     CG2R61     CG2R61
   19    20    21	5 ;      CG321     CG2R61     CG2R61
   25    20    21	5 ;     CG2R61     CG2R61     CG2R61
   20    21    22	5 ;     CG2R61     CG2R61     CG2R61
   20    21    51	5 ;     CG2R61     CG2R61      HGR61
   22    21    51	5 ;     CG2R61     CG2R61      HGR61
   21    22    23	5 ;     CG2R61     CG2R61     CG2R61
   21    22    52	5 ;     CG2R61     CG2R61      HGR61
   23    22    52	5 ;     CG2R61     CG2R61      HGR61
   24    23    22	5 ;     CG2R61     CG2R61     CG2R61
   24    23    53	5 ;     CG2R61     CG2R61      HGR61
   22    23    53	5 ;     CG2R61     CG2R61      HGR61
   25    24    23	5 ;     CG2R61     CG2R61     CG2R61
   25    24    54	5 ;     CG2R61     CG2R61      HGR61
   23    24    54	5 ;     CG2R61     CG2R61      HGR61
   20    25    24	5 ;     CG2R61     CG2R61     CG2R61
   20    25    55	5 ;     CG2R61     CG2R61      HGR61
   24    25    55	5 ;     CG2R61     CG2R61      HGR61
   11    26    27	5 ;      CG311      NG321     HGPAM2
   11    26    28	5 ;      CG311      NG321     HGPAM2
   27    26    28	5 ;     HGPAM2      NG321     HGPAM2
    5    29    30	5 ;     CG2R67     CG2R67     CG2R61
    5    29    34	5 ;     CG2R67     CG2R67     CG2R61
   30    29    34	5 ;     CG2R61     CG2R67     CG2R61
   29    30    31	5 ;     CG2R67     CG2R61     CG2R61
   29    30    56	5 ;     CG2R67     CG2R61      HGR61
   31    30    56	5 ;     CG2R61     CG2R61      HGR61
   30    31    32	5 ;     CG2R61     CG2R61     CG2R61
   30    31    57	5 ;     CG2R61     CG2R61      HGR61
   32    31    57	5 ;     CG2R61     CG2R61      HGR61
   31    32    33	5 ;     CG2R61     CG2R61     CG2R61
   31    32    58	5 ;     CG2R61     CG2R61      HGR61
   33    32    58	5 ;     CG2R61     CG2R61      HGR61
   32    33    34	5 ;     CG2R61     CG2R61     CG2R61
   32    33    59	5 ;     CG2R61     CG2R61      HGR61
   34    33    59	5 ;     CG2R61     CG2R61      HGR61
   29    34    33	5 ;     CG2R67     CG2R61     CG2R61
   29    34    35	5 ;     CG2R67     CG2R61      CG331
   33    34    35	5 ;     CG2R61     CG2R61      CG331
   34    35    60	5 ;     CG2R61      CG331       HGA3
   34    35    61	5 ;     CG2R61      CG331       HGA3
   34    35    62	5 ;     CG2R61      CG331       HGA3
   60    35    61	5 ;       HGA3      CG331       HGA3
   60    35    62	5 ;       HGA3      CG331       HGA3
   61    35    62	5 ;       HGA3      CG331       HGA3

[ dihedrals ]
;	ai	  aj	ak	  al funct			  c0			c1			  c2			c3			  c4			c5
   11     1     2     3	 9 ;      CG311      CG311      CG321     CG2R61
   11     1     2    37	 9 ;      CG311      CG311      CG321       HGA2
   11     1     2    38	 9 ;      CG311      CG311      CG321       HGA2
   12     1     2     3	 9 ;      CG321      CG311      CG321     CG2R61
   12     1     2    37	 9 ;      CG321      CG311      CG321       HGA2
   12     1     2    38	 9 ;      CG321      CG311      CG321       HGA2
   36     1     2     3	 9 ;       HGA1      CG311      CG321     CG2R61
   36     1     2    37	 9 ;       HGA1      CG311      CG321       HGA2
   36     1     2    38	 9 ;       HGA1      CG311      CG321       HGA2
    2     1    11     9	 9 ;      CG321      CG311      CG311      NG311
    2     1    11    26	 9 ;      CG321      CG311      CG311      NG321
    2     1    11    42	 9 ;      CG321      CG311      CG311       HGA1
   12     1    11     9	 9 ;      CG321      CG311      CG311      NG311
   12     1    11    26	 9 ;      CG321      CG311      CG311      NG321
   12     1    11    42	 9 ;      CG321      CG311      CG311       HGA1
   36     1    11     9	 9 ;       HGA1      CG311      CG311      NG311
   36     1    11    26	 9 ;       HGA1      CG311      CG311      NG321
   36     1    11    42	 9 ;       HGA1      CG311      CG311       HGA1
    2     1    12    13	 9 ;      CG321      CG311      CG321      CG311
    2     1    12    43	 9 ;      CG321      CG311      CG321       HGA2
    2     1    12    44	 9 ;      CG321      CG311      CG321       HGA2
   11     1    12    13	 9 ;      CG311      CG311      CG321      CG311
   11     1    12    43	 9 ;      CG311      CG311      CG321       HGA2
   11     1    12    44	 9 ;      CG311      CG311      CG321       HGA2
   36     1    12    13	 9 ;       HGA1      CG311      CG321      CG311
   36     1    12    43	 9 ;       HGA1      CG311      CG321       HGA2
   36     1    12    44	 9 ;       HGA1      CG311      CG321       HGA2
    1     2     3     8	 9 ;      CG311      CG321     CG2R61     CG2R61
    1     2     3     4	 9 ;      CG311      CG321     CG2R61     CG2R61
   37     2     3     8	 9 ;       HGA2      CG321     CG2R61     CG2R61
   37     2     3     4	 9 ;       HGA2      CG321     CG2R61     CG2R61
   38     2     3     8	 9 ;       HGA2      CG321     CG2R61     CG2R61
   38     2     3     4	 9 ;       HGA2      CG321     CG2R61     CG2R61
    4     3     8     7	 9 ;     CG2R61     CG2R61     CG2R61     CG2R61
    4     3     8     9	 9 ;     CG2R61     CG2R61     CG2R61      NG311
    2     3     8     7	 9 ;      CG321     CG2R61     CG2R61     CG2R61
    2     3     8     9	 9 ;      CG321     CG2R61     CG2R61      NG311
    8     3     4     5	 9 ;     CG2R61     CG2R61     CG2R61     CG2R67
    8     3     4    39	 9 ;     CG2R61     CG2R61     CG2R61      HGR61
    2     3     4     5	 9 ;      CG321     CG2R61     CG2R61     CG2R67
    2     3     4    39	 9 ;      CG321     CG2R61     CG2R61      HGR61
    3     4     5     6	 9 ;     CG2R61     CG2R61     CG2R67     CG2R61
    3     4     5    29	 9 ;     CG2R61     CG2R61     CG2R67     CG2R67
   39     4     5     6	 9 ;      HGR61     CG2R61     CG2R67     CG2R61
   39     4     5    29	 9 ;      HGR61     CG2R61     CG2R67     CG2R67
   29     5     6     7	 9 ;     CG2R67     CG2R67     CG2R61     CG2R61
   29     5     6    40	 9 ;     CG2R67     CG2R67     CG2R61      HGR61
    4     5     6     7	 9 ;     CG2R61     CG2R67     CG2R61     CG2R61
    4     5     6    40	 9 ;     CG2R61     CG2R67     CG2R61      HGR61
    6     5    29    30	 9 ;     CG2R61     CG2R67     CG2R67     CG2R61
    6     5    29    34	 9 ;     CG2R61     CG2R67     CG2R67     CG2R61
    4     5    29    30	 9 ;     CG2R61     CG2R67     CG2R67     CG2R61
    4     5    29    34	 9 ;     CG2R61     CG2R67     CG2R67     CG2R61
    5     6     7     8	 9 ;     CG2R67     CG2R61     CG2R61     CG2R61
    5     6     7    41	 9 ;     CG2R67     CG2R61     CG2R61      HGR61
   40     6     7     8	 9 ;      HGR61     CG2R61     CG2R61     CG2R61
   40     6     7    41	 9 ;      HGR61     CG2R61     CG2R61      HGR61
    6     7     8     3	 9 ;     CG2R61     CG2R61     CG2R61     CG2R61
    6     7     8     9	 9 ;     CG2R61     CG2R61     CG2R61      NG311
   41     7     8     3	 9 ;      HGR61     CG2R61     CG2R61     CG2R61
   41     7     8     9	 9 ;      HGR61     CG2R61     CG2R61      NG311
    7     8     9    10	 9 ;     CG2R61     CG2R61      NG311     HGPAM1
    7     8     9    11	 9 ;     CG2R61     CG2R61      NG311      CG311
    3     8     9    10	 9 ;     CG2R61     CG2R61      NG311     HGPAM1
    3     8     9    11	 9 ;     CG2R61     CG2R61      NG311      CG311
    8     9    11     1	 9 ;     CG2R61      NG311      CG311      CG311
    8     9    11    26	 9 ;     CG2R61      NG311      CG311      NG321
    8     9    11    42	 9 ;     CG2R61      NG311      CG311       HGA1
   10     9    11     1	 9 ;     HGPAM1      NG311      CG311      CG311
   10     9    11    26	 9 ;     HGPAM1      NG311      CG311      NG321
   10     9    11    42	 9 ;     HGPAM1      NG311      CG311       HGA1
    9    11    26    27	 9 ;      NG311      CG311      NG321     HGPAM2
    9    11    26    28	 9 ;      NG311      CG311      NG321     HGPAM2
    1    11    26    27	 9 ;      CG311      CG311      NG321     HGPAM2
    1    11    26    28	 9 ;      CG311      CG311      NG321     HGPAM2
   42    11    26    27	 9 ;       HGA1      CG311      NG321     HGPAM2
   42    11    26    28	 9 ;       HGA1      CG311      NG321     HGPAM2
    1    12    13    14	 9 ;      CG311      CG321      CG311      CG331
    1    12    13    15	 9 ;      CG311      CG321      CG311      CG2O1
    1    12    13    45	 9 ;      CG311      CG321      CG311       HGA1
   43    12    13    14	 9 ;       HGA2      CG321      CG311      CG331
   43    12    13    15	 9 ;       HGA2      CG321      CG311      CG2O1
   43    12    13    45	 9 ;       HGA2      CG321      CG311       HGA1
   44    12    13    14	 9 ;       HGA2      CG321      CG311      CG331
   44    12    13    15	 9 ;       HGA2      CG321      CG311      CG2O1
   44    12    13    45	 9 ;       HGA2      CG321      CG311       HGA1
   12    13    14    46	 9 ;      CG321      CG311      CG331       HGA3
   12    13    14    47	 9 ;      CG321      CG311      CG331       HGA3
   12    13    14    48	 9 ;      CG321      CG311      CG331       HGA3
   15    13    14    46	 9 ;      CG2O1      CG311      CG331       HGA3
   15    13    14    47	 9 ;      CG2O1      CG311      CG331       HGA3
   15    13    14    48	 9 ;      CG2O1      CG311      CG331       HGA3
   45    13    14    46	 9 ;       HGA1      CG311      CG331       HGA3
   45    13    14    47	 9 ;       HGA1      CG311      CG331       HGA3
   45    13    14    48	 9 ;       HGA1      CG311      CG331       HGA3
   12    13    15    16	 9 ;      CG321      CG311      CG2O1      OG2D1
   12    13    15    17	 9 ;      CG321      CG311      CG2O1      NG2S1
   14    13    15    16	 9 ;      CG331      CG311      CG2O1      OG2D1
   14    13    15    17	 9 ;      CG331      CG311      CG2O1      NG2S1
   45    13    15    16	 9 ;       HGA1      CG311      CG2O1      OG2D1
   45    13    15    17	 9 ;       HGA1      CG311      CG2O1      NG2S1
   13    15    17    19	 9 ;      CG311      CG2O1      NG2S1      CG321
   13    15    17    18	 9 ;      CG311      CG2O1      NG2S1       HGP1
   16    15    17    19	 9 ;      OG2D1      CG2O1      NG2S1      CG321
   16    15    17    18	 9 ;      OG2D1      CG2O1      NG2S1       HGP1
   15    17    19    20	 9 ;      CG2O1      NG2S1      CG321     CG2R61
   15    17    19    49	 9 ;      CG2O1      NG2S1      CG321       HGA2
   15    17    19    50	 9 ;      CG2O1      NG2S1      CG321       HGA2
   18    17    19    20	 9 ;       HGP1      NG2S1      CG321     CG2R61
   18    17    19    49	 9 ;       HGP1      NG2S1      CG321       HGA2
   18    17    19    50	 9 ;       HGP1      NG2S1      CG321       HGA2
   17    19    20    25	 9 ;      NG2S1      CG321     CG2R61     CG2R61
   17    19    20    21	 9 ;      NG2S1      CG321     CG2R61     CG2R61
   49    19    20    25	 9 ;       HGA2      CG321     CG2R61     CG2R61
   49    19    20    21	 9 ;       HGA2      CG321     CG2R61     CG2R61
   50    19    20    25	 9 ;       HGA2      CG321     CG2R61     CG2R61
   50    19    20    21	 9 ;       HGA2      CG321     CG2R61     CG2R61
   19    20    25    24	 9 ;      CG321     CG2R61     CG2R61     CG2R61
   19    20    25    55	 9 ;      CG321     CG2R61     CG2R61      HGR61
   21    20    25    24	 9 ;     CG2R61     CG2R61     CG2R61     CG2R61
   21    20    25    55	 9 ;     CG2R61     CG2R61     CG2R61      HGR61
   19    20    21    22	 9 ;      CG321     CG2R61     CG2R61     CG2R61
   19    20    21    51	 9 ;      CG321     CG2R61     CG2R61      HGR61
   25    20    21    22	 9 ;     CG2R61     CG2R61     CG2R61     CG2R61
   25    20    21    51	 9 ;     CG2R61     CG2R61     CG2R61      HGR61
   20    21    22    23	 9 ;     CG2R61     CG2R61     CG2R61     CG2R61
   20    21    22    52	 9 ;     CG2R61     CG2R61     CG2R61      HGR61
   51    21    22    23	 9 ;      HGR61     CG2R61     CG2R61     CG2R61
   51    21    22    52	 9 ;      HGR61     CG2R61     CG2R61      HGR61
   21    22    23    24	 9 ;     CG2R61     CG2R61     CG2R61     CG2R61
   21    22    23    53	 9 ;     CG2R61     CG2R61     CG2R61      HGR61
   52    22    23    24	 9 ;      HGR61     CG2R61     CG2R61     CG2R61
   52    22    23    53	 9 ;      HGR61     CG2R61     CG2R61      HGR61
   22    23    24    25	 9 ;     CG2R61     CG2R61     CG2R61     CG2R61
   22    23    24    54	 9 ;     CG2R61     CG2R61     CG2R61      HGR61
   53    23    24    25	 9 ;      HGR61     CG2R61     CG2R61     CG2R61
   53    23    24    54	 9 ;      HGR61     CG2R61     CG2R61      HGR61
   23    24    25    20	 9 ;     CG2R61     CG2R61     CG2R61     CG2R61
   23    24    25    55	 9 ;     CG2R61     CG2R61     CG2R61      HGR61
   54    24    25    20	 9 ;      HGR61     CG2R61     CG2R61     CG2R61
   54    24    25    55	 9 ;      HGR61     CG2R61     CG2R61      HGR61
    5    29    30    31	 9 ;     CG2R67     CG2R67     CG2R61     CG2R61
    5    29    30    56	 9 ;     CG2R67     CG2R67     CG2R61      HGR61
   34    29    30    31	 9 ;     CG2R61     CG2R67     CG2R61     CG2R61
   34    29    30    56	 9 ;     CG2R61     CG2R67     CG2R61      HGR61
    5    29    34    33	 9 ;     CG2R67     CG2R67     CG2R61     CG2R61
    5    29    34    35	 9 ;     CG2R67     CG2R67     CG2R61      CG331
   30    29    34    33	 9 ;     CG2R61     CG2R67     CG2R61     CG2R61
   30    29    34    35	 9 ;     CG2R61     CG2R67     CG2R61      CG331
   29    30    31    32	 9 ;     CG2R67     CG2R61     CG2R61     CG2R61
   29    30    31    57	 9 ;     CG2R67     CG2R61     CG2R61      HGR61
   56    30    31    32	 9 ;      HGR61     CG2R61     CG2R61     CG2R61
   56    30    31    57	 9 ;      HGR61     CG2R61     CG2R61      HGR61
   30    31    32    33	 9 ;     CG2R61     CG2R61     CG2R61     CG2R61
   30    31    32    58	 9 ;     CG2R61     CG2R61     CG2R61      HGR61
   57    31    32    33	 9 ;      HGR61     CG2R61     CG2R61     CG2R61
   57    31    32    58	 9 ;      HGR61     CG2R61     CG2R61      HGR61
   31    32    33    34	 9 ;     CG2R61     CG2R61     CG2R61     CG2R61
   31    32    33    59	 9 ;     CG2R61     CG2R61     CG2R61      HGR61
   58    32    33    34	 9 ;      HGR61     CG2R61     CG2R61     CG2R61
   58    32    33    59	 9 ;      HGR61     CG2R61     CG2R61      HGR61
   32    33    34    29	 9 ;     CG2R61     CG2R61     CG2R61     CG2R67
   32    33    34    35	 9 ;     CG2R61     CG2R61     CG2R61      CG331
   59    33    34    29	 9 ;      HGR61     CG2R61     CG2R61     CG2R67
   59    33    34    35	 9 ;      HGR61     CG2R61     CG2R61      CG331
   29    34    35    60	 9 ;     CG2R67     CG2R61      CG331       HGA3
   29    34    35    61	 9 ;     CG2R67     CG2R61      CG331       HGA3
   29    34    35    62	 9 ;     CG2R67     CG2R61      CG331       HGA3
   33    34    35    60	 9 ;     CG2R61     CG2R61      CG331       HGA3
   33    34    35    61	 9 ;     CG2R61     CG2R61      CG331       HGA3
   33    34    35    62	 9 ;     CG2R61     CG2R61      CG331       HGA3

[ dihedrals ]
;	ai	  aj	ak	  al funct			  c0			c1			  c2			c3
   15    13    17    16	 2

