GRoups of Organic Molecules in ACtion for Science
   62
    1LIG     C1    1  -1.715   0.372  -1.429
    1LIG     C2    2  -1.687   0.274  -1.523
    1LIG     C3    3  -1.575   0.303  -1.600
    1LIG     C4    4  -1.477   0.204  -1.618
    1LIG     C5    5  -1.349   0.237  -1.664
    1LIG     C6    6  -1.335   0.366  -1.720
    1LIG     C7    7  -1.435   0.464  -1.702
    1LIG     C8    8  -1.550   0.437  -1.631
    1LIG     N1    9  -1.628   0.536  -1.579
    1LIG     HN   10  -1.626   0.631  -1.617
    1LIG     C9   11  -1.708   0.503  -1.476
    1LIG    C10   12  -1.630   0.336  -1.303
    1LIG    C11   13  -1.684   0.320  -1.161
    1LIG    C12   14  -1.830   0.364  -1.157
    1LIG    C13   15  -1.600   0.381  -1.050
    1LIG      O   16  -1.516   0.468  -1.072
    1LIG     N2   17  -1.621   0.345  -0.920
    1LIG     H1   18  -1.559   0.392  -0.855
    1LIG    C14   19  -1.698   0.235  -0.867
    1LIG    C15   20  -1.615   0.124  -0.808
    1LIG    C16   21  -1.493   0.155  -0.747
    1LIG    C17   22  -1.424   0.058  -0.674
    1LIG    C18   23  -1.476  -0.071  -0.664
    1LIG    C19   24  -1.595  -0.103  -0.728
    1LIG    C20   25  -1.665  -0.006  -0.800
    1LIG     N3   26  -1.792   0.601  -1.427
    1LIG     H2   27  -1.881   0.569  -1.390
    1LIG     H3   28  -1.741   0.662  -1.364
    1LIG    C21   29  -1.233   0.145  -1.641
    1LIG    C22   30  -1.250   0.006  -1.661
    1LIG    C23   31  -1.147  -0.086  -1.638
    1LIG    C24   32  -1.021  -0.041  -1.599
    1LIG    C25   33  -1.002   0.094  -1.575
    1LIG    C26   34  -1.107   0.187  -1.589
    1LIG    C27   35  -1.076   0.327  -1.542
    1LIG     H4   36  -1.818   0.371  -1.401
    1LIG     H5   37  -1.670   0.181  -1.473
    1LIG     H6   38  -1.770   0.268  -1.590
    1LIG     H7   39  -1.500   0.105  -1.598
    1LIG     H8   40  -1.251   0.388  -1.775
    1LIG     H9   41  -1.421   0.558  -1.744
    1LIG    H10   42  -1.637   0.486  -1.398
    1LIG    H11   43  -1.556   0.413  -1.296
    1LIG    H12   44  -1.605   0.235  -1.325
    1LIG    H13   45  -1.677   0.216  -1.139
    1LIG    H14   46  -1.837   0.468  -1.179
    1LIG    H15   47  -1.870   0.345  -1.059
    1LIG    H16   48  -1.886   0.308  -1.230
    1LIG    H17   49  -1.757   0.194  -0.946
    1LIG    H18   50  -1.758   0.274  -0.787
    1LIG    H19   51  -1.454   0.250  -0.755
    1LIG    H20   52  -1.335   0.082  -0.628
    1LIG    H21   53  -1.426  -0.142  -0.609
    1LIG    H22   54  -1.633  -0.199  -0.721
    1LIG    H23   55  -1.753  -0.031  -0.848
    1LIG    H24   56  -1.341  -0.029  -1.693
    1LIG    H25   57  -1.164  -0.187  -1.650
    1LIG    H26   58  -0.943  -0.108  -1.587
    1LIG    H27   59  -0.909   0.128  -1.547
    1LIG    H28   60  -1.161   0.390  -1.557
    1LIG    H29   61  -0.993   0.366  -1.598
    1LIG    H30   62  -1.051   0.325  -1.439
   0.00000   0.00000   0.00000
