God Rules Over Mankind, Animals, Cosmos and Such
   73
    1LIG     N1    1  -1.782   0.568  -1.584
    1LIG     H1    2  -1.765   0.533  -1.679
    1LIG     H2    3  -1.879   0.601  -1.585
    1LIG     C1    4  -1.771   0.453  -1.485
    1LIG     C2    5  -1.794   0.516  -1.344
    1LIG     C3    6  -1.935   0.572  -1.322
    1LIG     C4    7  -2.043   0.470  -1.352
    1LIG     C5    8  -2.026   0.407  -1.491
    1LIG     C6    9  -1.886   0.352  -1.511
    1LIG     C7   10  -1.635   0.385  -1.489
    1LIG     C8   11  -1.521   0.415  -1.416
    1LIG     C9   12  -1.403   0.348  -1.464
    1LIG    C10   13  -1.436   0.261  -1.566
    1LIG      S   14  -1.603   0.257  -1.599
    1LIG    C11   15  -1.263   0.378  -1.417
    1LIG    C12   16  -1.222   0.319  -1.280
    1LIG    C13   17  -1.092   0.238  -1.290
    1LIG    C14   18  -1.199   0.437  -1.183
    1LIG    C15   19  -1.333   0.230  -1.222
    1LIG    C16   20  -1.700   0.693  -1.564
    1LIG    C17   21  -1.593   0.694  -1.676
    1LIG     O1   22  -1.665   0.708  -1.801
    1LIG     H3   23  -1.624   0.648  -1.867
    1LIG    C18   24  -1.474   0.795  -1.662
    1LIG     N2   25  -1.516   0.929  -1.619
    1LIG    C19   26  -1.571   1.024  -1.701
    1LIG     O2   27  -1.595   1.003  -1.820
    1LIG    C20   28  -1.597   1.156  -1.634
    1LIG     H4   29  -1.503   0.954  -1.521
    1LIG    C21   30  -1.361   0.730  -1.579
    1LIG    C22   31  -1.247   0.655  -1.643
    1LIG    C23   32  -1.117   0.678  -1.592
    1LIG    C24   33  -1.009   0.601  -1.634
    1LIG     F1   34  -0.888   0.624  -1.580
    1LIG    C25   35  -1.025   0.500  -1.726
    1LIG    C26   36  -1.152   0.477  -1.778
    1LIG     F2   37  -1.170   0.378  -1.866
    1LIG    C27   38  -1.263   0.554  -1.738
    1LIG    HC2   39  -1.723   0.597  -1.331
    1LIG    HC3   40  -1.775   0.440  -1.269
    1LIG    HC4   41  -1.944   0.604  -1.218
    1LIG    HC5   42  -1.949   0.659  -1.387
    1LIG    HC6   43  -2.140   0.519  -1.347
    1LIG    HC7   44  -2.039   0.391  -1.277
    1LIG    HC8   45  -2.098   0.326  -1.502
    1LIG    HC9   46  -2.046   0.483  -1.566
    1LIG   HC10   47  -1.878   0.316  -1.614
    1LIG   HC11   48  -1.872   0.267  -1.444
    1LIG     HC   49  -1.520   0.481  -1.331
    1LIG    HC1   50  -1.363   0.202  -1.620
    1LIG   HC12   51  -1.194   0.339  -1.492
    1LIG   HC13   52  -1.251   0.486  -1.412
    1LIG   HC14   53  -1.652   0.692  -1.466
    1LIG   HC15   54  -1.764   0.781  -1.573
    1LIG   HC16   55  -1.549   0.595  -1.677
    1LIG   HC17   56  -1.434   0.808  -1.763
    1LIG   HC18   57  -1.410   0.660  -1.512
    1LIG   HC19   58  -1.318   0.809  -1.517
    1LIG   HC20   59  -1.102   0.757  -1.520
    1LIG   HC21   60  -0.941   0.439  -1.757
    1LIG   HC22   61  -1.360   0.534  -1.780
    1LIG   HC23   62  -1.106   0.155  -1.359
    1LIG   HC24   63  -1.012   0.303  -1.328
    1LIG   HC25   64  -1.064   0.200  -1.192
    1LIG   HC26   65  -1.299   0.186  -1.128
    1LIG   HC27   66  -1.356   0.150  -1.292
    1LIG   HC28   67  -1.423   0.289  -1.205
    1LIG   HC29   68  -1.170   0.398  -1.085
    1LIG   HC30   69  -1.291   0.494  -1.173
    1LIG   HC31   70  -1.120   0.501  -1.221
    1LIG   HC32   71  -1.640   1.226  -1.705
    1LIG   HC33   72  -1.503   1.197  -1.596
    1LIG   HC34   73  -1.666   1.142  -1.550
   0.00000   0.00000   0.00000
