; Created by cgenff_charmm2gmx.py

[ moleculetype ]
; Name			   nrexcl
LIG				 3

[ atoms ]
;	 nr		  type	resnr residue  atom   cgnr	   charge		mass  typeB    chargeB		massB
; residue	 1 LIG rtp LIG q	qsum
     1      NG3P2      1    LIG     N1      1     -0.446     14.007   ;
     2       HGP2      1    LIG     H1      2      0.341      1.008   ;
     3       HGP2      1    LIG     H2      3      0.341      1.008   ;
     4      CG301      1    LIG     C1      4      0.386     12.011   ;
     5      CG321      1    LIG     C2      5     -0.147     12.011   ;
     6      CG321      1    LIG     C3      6     -0.194     12.011   ;
     7      CG321      1    LIG     C4      7     -0.176     12.011   ;
     8      CG321      1    LIG     C5      8     -0.194     12.011   ;
     9      CG321      1    LIG     C6      9     -0.147     12.011   ;
    10     CG2R51      1    LIG     C7     10      0.161     12.011   ;
    11     CG2R51      1    LIG     C8     11     -0.260     12.011   ;
    12     CG2R51      1    LIG     C9     12      0.091     12.011   ;
    13     CG2R51      1    LIG    C10     13     -0.160     12.011   ;
    14     SG2R50      1    LIG      S     14     -0.283     32.060   ;
    15      CG321      1    LIG    C11     15     -0.138     12.011   ;
    16      CG301      1    LIG    C12     16     -0.091     12.011   ;
    17      CG331      1    LIG    C13     17     -0.239     12.011   ;
    18      CG331      1    LIG    C14     18     -0.239     12.011   ;
    19      CG331      1    LIG    C15     19     -0.239     12.011   ;
    20      CG324      1    LIG    C16     20      0.208     12.011   ;
    21      CG311      1    LIG    C17     21      0.089     12.011   ;
    22      OG311      1    LIG     O1     22     -0.625     15.999   ;
    23       HGP1      1    LIG     H3     23      0.415      1.008   ;
    24      CG311      1    LIG    C18     24     -0.007     12.011   ;
    25      NG2S1      1    LIG     N2     25     -0.339     14.007   ;
    26      CG2O1      1    LIG    C19     26      0.488     12.011   ;
    27      OG2D1      1    LIG     O2     27     -0.509     15.999   ;
    28      CG331      1    LIG    C20     28     -0.270     12.011   ;
    29       HGP1      1    LIG     H4     29      0.261      1.008   ;
    30      CG321      1    LIG    C21     30     -0.153     12.011   ;
    31     CG2R61      1    LIG    C22     31      0.057     12.011   ;
    32     CG2R61      1    LIG    C23     32     -0.218     12.011   ;
    33     CG2R66      1    LIG    C24     33      0.261     12.011   ;
    34       FGR1      1    LIG     F1     34     -0.210     18.998   ;
    35     CG2R61      1    LIG    C25     35     -0.240     12.011   ;
    36     CG2R66      1    LIG    C26     36      0.261     12.011   ;
    37       FGR1      1    LIG     F2     37     -0.210     18.998   ;
    38     CG2R61      1    LIG    C27     38     -0.218     12.011   ;
    39       HGA2      1    LIG    HC2     39      0.090      1.008   ;
    40       HGA2      1    LIG    HC3     40      0.090      1.008   ;
    41       HGA2      1    LIG    HC4     41      0.090      1.008   ;
    42       HGA2      1    LIG    HC5     42      0.090      1.008   ;
    43       HGA2      1    LIG    HC6     43      0.090      1.008   ;
    44       HGA2      1    LIG    HC7     44      0.090      1.008   ;
    45       HGA2      1    LIG    HC8     45      0.090      1.008   ;
    46       HGA2      1    LIG    HC9     46      0.090      1.008   ;
    47       HGA2      1    LIG   HC10     47      0.090      1.008   ;
    48       HGA2      1    LIG   HC11     48      0.090      1.008   ;
    49      HGR51      1    LIG     HC     49      0.163      1.008   ;
    50      HGR52      1    LIG    HC1     50      0.195      1.008   ;
    51       HGA2      1    LIG   HC12     51      0.090      1.008   ;
    52       HGA2      1    LIG   HC13     52      0.090      1.008   ;
    53       HGA2      1    LIG   HC14     53      0.090      1.008   ;
    54       HGA2      1    LIG   HC15     54      0.090      1.008   ;
    55       HGA1      1    LIG   HC16     55      0.090      1.008   ;
    56       HGA1      1    LIG   HC17     56      0.090      1.008   ;
    57       HGA2      1    LIG   HC18     57      0.090      1.008   ;
    58       HGA2      1    LIG   HC19     58      0.090      1.008   ;
    59      HGR62      1    LIG   HC20     59      0.174      1.008   ;
    60      HGR62      1    LIG   HC21     60      0.186      1.008   ;
    61      HGR62      1    LIG   HC22     61      0.174      1.008   ;
    62       HGA3      1    LIG   HC23     62      0.090      1.008   ;
    63       HGA3      1    LIG   HC24     63      0.090      1.008   ;
    64       HGA3      1    LIG   HC25     64      0.090      1.008   ;
    65       HGA3      1    LIG   HC26     65      0.090      1.008   ;
    66       HGA3      1    LIG   HC27     66      0.090      1.008   ;
    67       HGA3      1    LIG   HC28     67      0.090      1.008   ;
    68       HGA3      1    LIG   HC29     68      0.090      1.008   ;
    69       HGA3      1    LIG   HC30     69      0.090      1.008   ;
    70       HGA3      1    LIG   HC31     70      0.090      1.008   ;
    71       HGA3      1    LIG   HC32     71      0.090      1.008   ;
    72       HGA3      1    LIG   HC33     72      0.090      1.008   ;
    73       HGA3      1    LIG   HC34     73      0.090      1.008   ;

[ bonds ]
;	ai	  aj funct			  c0			c1			  c2			c3
    1     2	 1 ;       NG3P2       HGP2
    1    20	 1 ;       NG3P2      CG324
    1     4	 1 ;       NG3P2      CG301
    1     3	 1 ;       NG3P2       HGP2
    4    10	 1 ;       CG301     CG2R51
    4     9	 1 ;       CG301      CG321
    4     5	 1 ;       CG301      CG321
    5     6	 1 ;       CG321      CG321
    5    39	 1 ;       CG321       HGA2
    5    40	 1 ;       CG321       HGA2
    6     7	 1 ;       CG321      CG321
    6    41	 1 ;       CG321       HGA2
    6    42	 1 ;       CG321       HGA2
    7     8	 1 ;       CG321      CG321
    7    43	 1 ;       CG321       HGA2
    7    44	 1 ;       CG321       HGA2
    8     9	 1 ;       CG321      CG321
    8    45	 1 ;       CG321       HGA2
    8    46	 1 ;       CG321       HGA2
    9    47	 1 ;       CG321       HGA2
    9    48	 1 ;       CG321       HGA2
   10    14	 1 ;      CG2R51     SG2R50
   10    11	 1 ;      CG2R51     CG2R51
   11    12	 1 ;      CG2R51     CG2R51
   11    49	 1 ;      CG2R51      HGR51
   12    15	 1 ;      CG2R51      CG321
   12    13	 1 ;      CG2R51     CG2R51
   13    14	 1 ;      CG2R51     SG2R50
   13    50	 1 ;      CG2R51      HGR52
   15    16	 1 ;       CG321      CG301
   15    51	 1 ;       CG321       HGA2
   15    52	 1 ;       CG321       HGA2
   16    17	 1 ;       CG301      CG331
   16    18	 1 ;       CG301      CG331
   16    19	 1 ;       CG301      CG331
   17    62	 1 ;       CG331       HGA3
   17    63	 1 ;       CG331       HGA3
   17    64	 1 ;       CG331       HGA3
   18    68	 1 ;       CG331       HGA3
   18    69	 1 ;       CG331       HGA3
   18    70	 1 ;       CG331       HGA3
   19    65	 1 ;       CG331       HGA3
   19    66	 1 ;       CG331       HGA3
   19    67	 1 ;       CG331       HGA3
   20    21	 1 ;       CG324      CG311
   20    53	 1 ;       CG324       HGA2
   20    54	 1 ;       CG324       HGA2
   21    24	 1 ;       CG311      CG311
   21    22	 1 ;       CG311      OG311
   21    55	 1 ;       CG311       HGA1
   22    23	 1 ;       OG311       HGP1
   24    30	 1 ;       CG311      CG321
   24    25	 1 ;       CG311      NG2S1
   24    56	 1 ;       CG311       HGA1
   25    26	 1 ;       NG2S1      CG2O1
   25    29	 1 ;       NG2S1       HGP1
   26    27	 1 ;       CG2O1      OG2D1
   26    28	 1 ;       CG2O1      CG331
   28    71	 1 ;       CG331       HGA3
   28    72	 1 ;       CG331       HGA3
   28    73	 1 ;       CG331       HGA3
   30    31	 1 ;       CG321     CG2R61
   30    57	 1 ;       CG321       HGA2
   30    58	 1 ;       CG321       HGA2
   31    38	 1 ;      CG2R61     CG2R61
   31    32	 1 ;      CG2R61     CG2R61
   32    33	 1 ;      CG2R61     CG2R66
   32    59	 1 ;      CG2R61      HGR62
   33    35	 1 ;      CG2R66     CG2R61
   33    34	 1 ;      CG2R66       FGR1
   35    36	 1 ;      CG2R61     CG2R66
   35    60	 1 ;      CG2R61      HGR62
   36    37	 1 ;      CG2R66       FGR1
   36    38	 1 ;      CG2R66     CG2R61
   38    61	 1 ;      CG2R61      HGR62

[ pairs ]
;	ai	  aj funct			  c0			c1			  c2			c3
    1    14	 1
    1    11	 1
    1     8	 1
    1    47	 1
    1    48	 1
    1     6	 1
    1    39	 1
    1    40	 1
    1    24	 1
    1    22	 1
    1    55	 1
    2    21	 1
    2    53	 1
    2    54	 1
    2    10	 1
    2     9	 1
    2     5	 1
    3    21	 1
    3    53	 1
    3    54	 1
    3    10	 1
    3     9	 1
    3     5	 1
    4    21	 1
    4    53	 1
    4    54	 1
    4     7	 1
    4    41	 1
    4    42	 1
    4    45	 1
    4    46	 1
    4    13	 1
    4    12	 1
    4    49	 1
    5    20	 1
    5    14	 1
    5    11	 1
    5     8	 1
    5    47	 1
    5    48	 1
    5    43	 1
    5    44	 1
    6    10	 1
    6     9	 1
    6    45	 1
    6    46	 1
    7    39	 1
    7    40	 1
    7    47	 1
    7    48	 1
    8    10	 1
    8    41	 1
    8    42	 1
    9    20	 1
    9    14	 1
    9    11	 1
    9    39	 1
    9    40	 1
    9    43	 1
    9    44	 1
   10    20	 1
   10    47	 1
   10    48	 1
   10    39	 1
   10    40	 1
   10    15	 1
   10    50	 1
   11    16	 1
   11    51	 1
   11    52	 1
   11    50	 1
   12    17	 1
   12    18	 1
   12    19	 1
   13    49	 1
   13    16	 1
   13    51	 1
   13    52	 1
   14    49	 1
   14    15	 1
   15    49	 1
   15    50	 1
   15    62	 1
   15    63	 1
   15    64	 1
   15    68	 1
   15    69	 1
   15    70	 1
   15    65	 1
   15    66	 1
   15    67	 1
   17    51	 1
   17    52	 1
   17    68	 1
   17    69	 1
   17    70	 1
   17    65	 1
   17    66	 1
   17    67	 1
   18    51	 1
   18    52	 1
   18    62	 1
   18    63	 1
   18    64	 1
   18    65	 1
   18    66	 1
   18    67	 1
   19    51	 1
   19    52	 1
   19    62	 1
   19    63	 1
   19    64	 1
   19    68	 1
   19    69	 1
   19    70	 1
   20    30	 1
   20    25	 1
   20    56	 1
   20    23	 1
   21    31	 1
   21    57	 1
   21    58	 1
   21    26	 1
   21    29	 1
   22    53	 1
   22    54	 1
   22    30	 1
   22    25	 1
   22    56	 1
   23    24	 1
   23    55	 1
   24    53	 1
   24    54	 1
   24    27	 1
   24    28	 1
   24    38	 1
   24    32	 1
   25    55	 1
   25    31	 1
   25    57	 1
   25    58	 1
   25    71	 1
   25    72	 1
   25    73	 1
   26    30	 1
   26    56	 1
   27    29	 1
   27    71	 1
   27    72	 1
   27    73	 1
   28    29	 1
   29    30	 1
   29    56	 1
   30    55	 1
   30    36	 1
   30    61	 1
   30    33	 1
   30    59	 1
   31    56	 1
   31    35	 1
   31    34	 1
   31    37	 1
   32    57	 1
   32    58	 1
   32    36	 1
   32    61	 1
   32    60	 1
   33    38	 1
   33    37	 1
   34    59	 1
   34    36	 1
   34    60	 1
   35    59	 1
   35    61	 1
   37    60	 1
   37    61	 1
   38    57	 1
   38    58	 1
   38    59	 1
   38    60	 1
   39    41	 1
   39    42	 1
   40    41	 1
   40    42	 1
   41    43	 1
   41    44	 1
   42    43	 1
   42    44	 1
   43    45	 1
   43    46	 1
   44    45	 1
   44    46	 1
   45    47	 1
   45    48	 1
   46    47	 1
   46    48	 1
   53    55	 1
   54    55	 1
   55    56	 1
   56    57	 1
   56    58	 1

[ angles ]
;	ai	  aj	ak funct			c0			  c1			c2			  c3
    2     1    20	5 ;       HGP2      NG3P2      CG324
    2     1     4	5 ;       HGP2      NG3P2      CG301
    2     1     3	5 ;       HGP2      NG3P2       HGP2
   20     1     4	5 ;      CG324      NG3P2      CG301
   20     1     3	5 ;      CG324      NG3P2       HGP2
    4     1     3	5 ;      CG301      NG3P2       HGP2
   10     4     1	5 ;     CG2R51      CG301      NG3P2
   10     4     9	5 ;     CG2R51      CG301      CG321
   10     4     5	5 ;     CG2R51      CG301      CG321
    1     4     9	5 ;      NG3P2      CG301      CG321
    1     4     5	5 ;      NG3P2      CG301      CG321
    9     4     5	5 ;      CG321      CG301      CG321
    4     5     6	5 ;      CG301      CG321      CG321
    4     5    39	5 ;      CG301      CG321       HGA2
    4     5    40	5 ;      CG301      CG321       HGA2
    6     5    39	5 ;      CG321      CG321       HGA2
    6     5    40	5 ;      CG321      CG321       HGA2
   39     5    40	5 ;       HGA2      CG321       HGA2
    5     6     7	5 ;      CG321      CG321      CG321
    5     6    41	5 ;      CG321      CG321       HGA2
    5     6    42	5 ;      CG321      CG321       HGA2
    7     6    41	5 ;      CG321      CG321       HGA2
    7     6    42	5 ;      CG321      CG321       HGA2
   41     6    42	5 ;       HGA2      CG321       HGA2
    8     7     6	5 ;      CG321      CG321      CG321
    8     7    43	5 ;      CG321      CG321       HGA2
    8     7    44	5 ;      CG321      CG321       HGA2
    6     7    43	5 ;      CG321      CG321       HGA2
    6     7    44	5 ;      CG321      CG321       HGA2
   43     7    44	5 ;       HGA2      CG321       HGA2
    9     8     7	5 ;      CG321      CG321      CG321
    9     8    45	5 ;      CG321      CG321       HGA2
    9     8    46	5 ;      CG321      CG321       HGA2
    7     8    45	5 ;      CG321      CG321       HGA2
    7     8    46	5 ;      CG321      CG321       HGA2
   45     8    46	5 ;       HGA2      CG321       HGA2
    4     9     8	5 ;      CG301      CG321      CG321
    4     9    47	5 ;      CG301      CG321       HGA2
    4     9    48	5 ;      CG301      CG321       HGA2
    8     9    47	5 ;      CG321      CG321       HGA2
    8     9    48	5 ;      CG321      CG321       HGA2
   47     9    48	5 ;       HGA2      CG321       HGA2
   14    10    11	5 ;     SG2R50     CG2R51     CG2R51
   14    10     4	5 ;     SG2R50     CG2R51      CG301
   11    10     4	5 ;     CG2R51     CG2R51      CG301
   12    11    10	5 ;     CG2R51     CG2R51     CG2R51
   12    11    49	5 ;     CG2R51     CG2R51      HGR51
   10    11    49	5 ;     CG2R51     CG2R51      HGR51
   15    12    13	5 ;      CG321     CG2R51     CG2R51
   15    12    11	5 ;      CG321     CG2R51     CG2R51
   13    12    11	5 ;     CG2R51     CG2R51     CG2R51
   12    13    14	5 ;     CG2R51     CG2R51     SG2R50
   12    13    50	5 ;     CG2R51     CG2R51      HGR52
   14    13    50	5 ;     SG2R50     CG2R51      HGR52
   13    14    10	5 ;     CG2R51     SG2R50     CG2R51
   16    15    12	5 ;      CG301      CG321     CG2R51
   16    15    51	5 ;      CG301      CG321       HGA2
   16    15    52	5 ;      CG301      CG321       HGA2
   12    15    51	5 ;     CG2R51      CG321       HGA2
   12    15    52	5 ;     CG2R51      CG321       HGA2
   51    15    52	5 ;       HGA2      CG321       HGA2
   17    16    15	5 ;      CG331      CG301      CG321
   17    16    18	5 ;      CG331      CG301      CG331
   17    16    19	5 ;      CG331      CG301      CG331
   15    16    18	5 ;      CG321      CG301      CG331
   15    16    19	5 ;      CG321      CG301      CG331
   18    16    19	5 ;      CG331      CG301      CG331
   16    17    62	5 ;      CG301      CG331       HGA3
   16    17    63	5 ;      CG301      CG331       HGA3
   16    17    64	5 ;      CG301      CG331       HGA3
   62    17    63	5 ;       HGA3      CG331       HGA3
   62    17    64	5 ;       HGA3      CG331       HGA3
   63    17    64	5 ;       HGA3      CG331       HGA3
   16    18    68	5 ;      CG301      CG331       HGA3
   16    18    69	5 ;      CG301      CG331       HGA3
   16    18    70	5 ;      CG301      CG331       HGA3
   68    18    69	5 ;       HGA3      CG331       HGA3
   68    18    70	5 ;       HGA3      CG331       HGA3
   69    18    70	5 ;       HGA3      CG331       HGA3
   16    19    65	5 ;      CG301      CG331       HGA3
   16    19    66	5 ;      CG301      CG331       HGA3
   16    19    67	5 ;      CG301      CG331       HGA3
   65    19    66	5 ;       HGA3      CG331       HGA3
   65    19    67	5 ;       HGA3      CG331       HGA3
   66    19    67	5 ;       HGA3      CG331       HGA3
   21    20     1	5 ;      CG311      CG324      NG3P2
   21    20    53	5 ;      CG311      CG324       HGA2
   21    20    54	5 ;      CG311      CG324       HGA2
    1    20    53	5 ;      NG3P2      CG324       HGA2
    1    20    54	5 ;      NG3P2      CG324       HGA2
   53    20    54	5 ;       HGA2      CG324       HGA2
   24    21    22	5 ;      CG311      CG311      OG311
   24    21    20	5 ;      CG311      CG311      CG324
   24    21    55	5 ;      CG311      CG311       HGA1
   22    21    20	5 ;      OG311      CG311      CG324
   22    21    55	5 ;      OG311      CG311       HGA1
   20    21    55	5 ;      CG324      CG311       HGA1
   23    22    21	5 ;       HGP1      OG311      CG311
   30    24    21	5 ;      CG321      CG311      CG311
   30    24    25	5 ;      CG321      CG311      NG2S1
   30    24    56	5 ;      CG321      CG311       HGA1
   21    24    25	5 ;      CG311      CG311      NG2S1
   21    24    56	5 ;      CG311      CG311       HGA1
   25    24    56	5 ;      NG2S1      CG311       HGA1
   24    25    26	5 ;      CG311      NG2S1      CG2O1
   24    25    29	5 ;      CG311      NG2S1       HGP1
   26    25    29	5 ;      CG2O1      NG2S1       HGP1
   27    26    25	5 ;      OG2D1      CG2O1      NG2S1
   27    26    28	5 ;      OG2D1      CG2O1      CG331
   25    26    28	5 ;      NG2S1      CG2O1      CG331
   26    28    71	5 ;      CG2O1      CG331       HGA3
   26    28    72	5 ;      CG2O1      CG331       HGA3
   26    28    73	5 ;      CG2O1      CG331       HGA3
   71    28    72	5 ;       HGA3      CG331       HGA3
   71    28    73	5 ;       HGA3      CG331       HGA3
   72    28    73	5 ;       HGA3      CG331       HGA3
   31    30    24	5 ;     CG2R61      CG321      CG311
   31    30    57	5 ;     CG2R61      CG321       HGA2
   31    30    58	5 ;     CG2R61      CG321       HGA2
   24    30    57	5 ;      CG311      CG321       HGA2
   24    30    58	5 ;      CG311      CG321       HGA2
   57    30    58	5 ;       HGA2      CG321       HGA2
   38    31    32	5 ;     CG2R61     CG2R61     CG2R61
   38    31    30	5 ;     CG2R61     CG2R61      CG321
   32    31    30	5 ;     CG2R61     CG2R61      CG321
   33    32    31	5 ;     CG2R66     CG2R61     CG2R61
   33    32    59	5 ;     CG2R66     CG2R61      HGR62
   31    32    59	5 ;     CG2R61     CG2R61      HGR62
   35    33    34	5 ;     CG2R61     CG2R66       FGR1
   35    33    32	5 ;     CG2R61     CG2R66     CG2R61
   34    33    32	5 ;       FGR1     CG2R66     CG2R61
   36    35    33	5 ;     CG2R66     CG2R61     CG2R66
   36    35    60	5 ;     CG2R66     CG2R61      HGR62
   33    35    60	5 ;     CG2R66     CG2R61      HGR62
   35    36    37	5 ;     CG2R61     CG2R66       FGR1
   35    36    38	5 ;     CG2R61     CG2R66     CG2R61
   37    36    38	5 ;       FGR1     CG2R66     CG2R61
   36    38    31	5 ;     CG2R66     CG2R61     CG2R61
   36    38    61	5 ;     CG2R66     CG2R61      HGR62
   31    38    61	5 ;     CG2R61     CG2R61      HGR62

[ dihedrals ]
;	ai	  aj	ak	  al funct			  c0			c1			  c2			c3			  c4			c5
    2     1    20    21	 9 ;       HGP2      NG3P2      CG324      CG311
    2     1    20    53	 9 ;       HGP2      NG3P2      CG324       HGA2
    2     1    20    54	 9 ;       HGP2      NG3P2      CG324       HGA2
    4     1    20    21	 9 ;      CG301      NG3P2      CG324      CG311
    4     1    20    53	 9 ;      CG301      NG3P2      CG324       HGA2
    4     1    20    54	 9 ;      CG301      NG3P2      CG324       HGA2
    3     1    20    21	 9 ;       HGP2      NG3P2      CG324      CG311
    3     1    20    53	 9 ;       HGP2      NG3P2      CG324       HGA2
    3     1    20    54	 9 ;       HGP2      NG3P2      CG324       HGA2
    2     1     4    10	 9 ;       HGP2      NG3P2      CG301     CG2R51
    2     1     4     9	 9 ;       HGP2      NG3P2      CG301      CG321
    2     1     4     5	 9 ;       HGP2      NG3P2      CG301      CG321
   20     1     4    10	 9 ;      CG324      NG3P2      CG301     CG2R51
   20     1     4     9	 9 ;      CG324      NG3P2      CG301      CG321
   20     1     4     5	 9 ;      CG324      NG3P2      CG301      CG321
    3     1     4    10	 9 ;       HGP2      NG3P2      CG301     CG2R51
    3     1     4     9	 9 ;       HGP2      NG3P2      CG301      CG321
    3     1     4     5	 9 ;       HGP2      NG3P2      CG301      CG321
    1     4    10    14	 9 ;      NG3P2      CG301     CG2R51     SG2R50
    1     4    10    11	 9 ;      NG3P2      CG301     CG2R51     CG2R51
    9     4    10    14	 9 ;      CG321      CG301     CG2R51     SG2R50
    9     4    10    11	 9 ;      CG321      CG301     CG2R51     CG2R51
    5     4    10    14	 9 ;      CG321      CG301     CG2R51     SG2R50
    5     4    10    11	 9 ;      CG321      CG301     CG2R51     CG2R51
   10     4     9     8	 9 ;     CG2R51      CG301      CG321      CG321
   10     4     9    47	 9 ;     CG2R51      CG301      CG321       HGA2
   10     4     9    48	 9 ;     CG2R51      CG301      CG321       HGA2
    1     4     9     8	 9 ;      NG3P2      CG301      CG321      CG321
    1     4     9    47	 9 ;      NG3P2      CG301      CG321       HGA2
    1     4     9    48	 9 ;      NG3P2      CG301      CG321       HGA2
    5     4     9     8	 9 ;      CG321      CG301      CG321      CG321
    5     4     9    47	 9 ;      CG321      CG301      CG321       HGA2
    5     4     9    48	 9 ;      CG321      CG301      CG321       HGA2
   10     4     5     6	 9 ;     CG2R51      CG301      CG321      CG321
   10     4     5    39	 9 ;     CG2R51      CG301      CG321       HGA2
   10     4     5    40	 9 ;     CG2R51      CG301      CG321       HGA2
    1     4     5     6	 9 ;      NG3P2      CG301      CG321      CG321
    1     4     5    39	 9 ;      NG3P2      CG301      CG321       HGA2
    1     4     5    40	 9 ;      NG3P2      CG301      CG321       HGA2
    9     4     5     6	 9 ;      CG321      CG301      CG321      CG321
    9     4     5    39	 9 ;      CG321      CG301      CG321       HGA2
    9     4     5    40	 9 ;      CG321      CG301      CG321       HGA2
    4     5     6     7	 9 ;      CG301      CG321      CG321      CG321
    4     5     6    41	 9 ;      CG301      CG321      CG321       HGA2
    4     5     6    42	 9 ;      CG301      CG321      CG321       HGA2
   39     5     6     7	 9 ;       HGA2      CG321      CG321      CG321
   39     5     6    41	 9 ;       HGA2      CG321      CG321       HGA2
   39     5     6    42	 9 ;       HGA2      CG321      CG321       HGA2
   40     5     6     7	 9 ;       HGA2      CG321      CG321      CG321
   40     5     6    41	 9 ;       HGA2      CG321      CG321       HGA2
   40     5     6    42	 9 ;       HGA2      CG321      CG321       HGA2
    5     6     7     8	 9 ;      CG321      CG321      CG321      CG321
    5     6     7    43	 9 ;      CG321      CG321      CG321       HGA2
    5     6     7    44	 9 ;      CG321      CG321      CG321       HGA2
   41     6     7     8	 9 ;       HGA2      CG321      CG321      CG321
   41     6     7    43	 9 ;       HGA2      CG321      CG321       HGA2
   41     6     7    44	 9 ;       HGA2      CG321      CG321       HGA2
   42     6     7     8	 9 ;       HGA2      CG321      CG321      CG321
   42     6     7    43	 9 ;       HGA2      CG321      CG321       HGA2
   42     6     7    44	 9 ;       HGA2      CG321      CG321       HGA2
    6     7     8     9	 9 ;      CG321      CG321      CG321      CG321
    6     7     8    45	 9 ;      CG321      CG321      CG321       HGA2
    6     7     8    46	 9 ;      CG321      CG321      CG321       HGA2
   43     7     8     9	 9 ;       HGA2      CG321      CG321      CG321
   43     7     8    45	 9 ;       HGA2      CG321      CG321       HGA2
   43     7     8    46	 9 ;       HGA2      CG321      CG321       HGA2
   44     7     8     9	 9 ;       HGA2      CG321      CG321      CG321
   44     7     8    45	 9 ;       HGA2      CG321      CG321       HGA2
   44     7     8    46	 9 ;       HGA2      CG321      CG321       HGA2
    7     8     9     4	 9 ;      CG321      CG321      CG321      CG301
    7     8     9    47	 9 ;      CG321      CG321      CG321       HGA2
    7     8     9    48	 9 ;      CG321      CG321      CG321       HGA2
   45     8     9     4	 9 ;       HGA2      CG321      CG321      CG301
   45     8     9    47	 9 ;       HGA2      CG321      CG321       HGA2
   45     8     9    48	 9 ;       HGA2      CG321      CG321       HGA2
   46     8     9     4	 9 ;       HGA2      CG321      CG321      CG301
   46     8     9    47	 9 ;       HGA2      CG321      CG321       HGA2
   46     8     9    48	 9 ;       HGA2      CG321      CG321       HGA2
   11    10    14    13	 9 ;     CG2R51     CG2R51     SG2R50     CG2R51
    4    10    14    13	 9 ;      CG301     CG2R51     SG2R50     CG2R51
   14    10    11    12	 9 ;     SG2R50     CG2R51     CG2R51     CG2R51
   14    10    11    49	 9 ;     SG2R50     CG2R51     CG2R51      HGR51
    4    10    11    12	 9 ;      CG301     CG2R51     CG2R51     CG2R51
    4    10    11    49	 9 ;      CG301     CG2R51     CG2R51      HGR51
   10    11    12    15	 9 ;     CG2R51     CG2R51     CG2R51      CG321
   10    11    12    13	 9 ;     CG2R51     CG2R51     CG2R51     CG2R51
   49    11    12    15	 9 ;      HGR51     CG2R51     CG2R51      CG321
   49    11    12    13	 9 ;      HGR51     CG2R51     CG2R51     CG2R51
   13    12    15    16	 9 ;     CG2R51     CG2R51      CG321      CG301
   13    12    15    51	 9 ;     CG2R51     CG2R51      CG321       HGA2
   13    12    15    52	 9 ;     CG2R51     CG2R51      CG321       HGA2
   11    12    15    16	 9 ;     CG2R51     CG2R51      CG321      CG301
   11    12    15    51	 9 ;     CG2R51     CG2R51      CG321       HGA2
   11    12    15    52	 9 ;     CG2R51     CG2R51      CG321       HGA2
   15    12    13    14	 9 ;      CG321     CG2R51     CG2R51     SG2R50
   15    12    13    50	 9 ;      CG321     CG2R51     CG2R51      HGR52
   11    12    13    14	 9 ;     CG2R51     CG2R51     CG2R51     SG2R50
   11    12    13    50	 9 ;     CG2R51     CG2R51     CG2R51      HGR52
   12    13    14    10	 9 ;     CG2R51     CG2R51     SG2R50     CG2R51
   50    13    14    10	 9 ;      HGR52     CG2R51     SG2R50     CG2R51
   12    15    16    17	 9 ;     CG2R51      CG321      CG301      CG331
   12    15    16    18	 9 ;     CG2R51      CG321      CG301      CG331
   12    15    16    19	 9 ;     CG2R51      CG321      CG301      CG331
   51    15    16    17	 9 ;       HGA2      CG321      CG301      CG331
   51    15    16    18	 9 ;       HGA2      CG321      CG301      CG331
   51    15    16    19	 9 ;       HGA2      CG321      CG301      CG331
   52    15    16    17	 9 ;       HGA2      CG321      CG301      CG331
   52    15    16    18	 9 ;       HGA2      CG321      CG301      CG331
   52    15    16    19	 9 ;       HGA2      CG321      CG301      CG331
   15    16    17    62	 9 ;      CG321      CG301      CG331       HGA3
   15    16    17    63	 9 ;      CG321      CG301      CG331       HGA3
   15    16    17    64	 9 ;      CG321      CG301      CG331       HGA3
   18    16    17    62	 9 ;      CG331      CG301      CG331       HGA3
   18    16    17    63	 9 ;      CG331      CG301      CG331       HGA3
   18    16    17    64	 9 ;      CG331      CG301      CG331       HGA3
   19    16    17    62	 9 ;      CG331      CG301      CG331       HGA3
   19    16    17    63	 9 ;      CG331      CG301      CG331       HGA3
   19    16    17    64	 9 ;      CG331      CG301      CG331       HGA3
   17    16    18    68	 9 ;      CG331      CG301      CG331       HGA3
   17    16    18    69	 9 ;      CG331      CG301      CG331       HGA3
   17    16    18    70	 9 ;      CG331      CG301      CG331       HGA3
   15    16    18    68	 9 ;      CG321      CG301      CG331       HGA3
   15    16    18    69	 9 ;      CG321      CG301      CG331       HGA3
   15    16    18    70	 9 ;      CG321      CG301      CG331       HGA3
   19    16    18    68	 9 ;      CG331      CG301      CG331       HGA3
   19    16    18    69	 9 ;      CG331      CG301      CG331       HGA3
   19    16    18    70	 9 ;      CG331      CG301      CG331       HGA3
   17    16    19    65	 9 ;      CG331      CG301      CG331       HGA3
   17    16    19    66	 9 ;      CG331      CG301      CG331       HGA3
   17    16    19    67	 9 ;      CG331      CG301      CG331       HGA3
   15    16    19    65	 9 ;      CG321      CG301      CG331       HGA3
   15    16    19    66	 9 ;      CG321      CG301      CG331       HGA3
   15    16    19    67	 9 ;      CG321      CG301      CG331       HGA3
   18    16    19    65	 9 ;      CG331      CG301      CG331       HGA3
   18    16    19    66	 9 ;      CG331      CG301      CG331       HGA3
   18    16    19    67	 9 ;      CG331      CG301      CG331       HGA3
    1    20    21    24	 9 ;      NG3P2      CG324      CG311      CG311
    1    20    21    22	 9 ;      NG3P2      CG324      CG311      OG311
    1    20    21    55	 9 ;      NG3P2      CG324      CG311       HGA1
   53    20    21    24	 9 ;       HGA2      CG324      CG311      CG311
   53    20    21    22	 9 ;       HGA2      CG324      CG311      OG311
   53    20    21    55	 9 ;       HGA2      CG324      CG311       HGA1
   54    20    21    24	 9 ;       HGA2      CG324      CG311      CG311
   54    20    21    22	 9 ;       HGA2      CG324      CG311      OG311
   54    20    21    55	 9 ;       HGA2      CG324      CG311       HGA1
   22    21    24    30	 9 ;      OG311      CG311      CG311      CG321
   22    21    24    25	 9 ;      OG311      CG311      CG311      NG2S1
   22    21    24    56	 9 ;      OG311      CG311      CG311       HGA1
   20    21    24    30	 9 ;      CG324      CG311      CG311      CG321
   20    21    24    25	 9 ;      CG324      CG311      CG311      NG2S1
   20    21    24    56	 9 ;      CG324      CG311      CG311       HGA1
   55    21    24    30	 9 ;       HGA1      CG311      CG311      CG321
   55    21    24    25	 9 ;       HGA1      CG311      CG311      NG2S1
   55    21    24    56	 9 ;       HGA1      CG311      CG311       HGA1
   24    21    22    23	 9 ;      CG311      CG311      OG311       HGP1
   20    21    22    23	 9 ;      CG324      CG311      OG311       HGP1
   55    21    22    23	 9 ;       HGA1      CG311      OG311       HGP1
   21    24    30    31	 9 ;      CG311      CG311      CG321     CG2R61
   21    24    30    57	 9 ;      CG311      CG311      CG321       HGA2
   21    24    30    58	 9 ;      CG311      CG311      CG321       HGA2
   25    24    30    31	 9 ;      NG2S1      CG311      CG321     CG2R61
   25    24    30    57	 9 ;      NG2S1      CG311      CG321       HGA2
   25    24    30    58	 9 ;      NG2S1      CG311      CG321       HGA2
   56    24    30    31	 9 ;       HGA1      CG311      CG321     CG2R61
   56    24    30    57	 9 ;       HGA1      CG311      CG321       HGA2
   56    24    30    58	 9 ;       HGA1      CG311      CG321       HGA2
   30    24    25    26	 9 ;      CG321      CG311      NG2S1      CG2O1
   30    24    25    29	 9 ;      CG321      CG311      NG2S1       HGP1
   21    24    25    26	 9 ;      CG311      CG311      NG2S1      CG2O1
   21    24    25    29	 9 ;      CG311      CG311      NG2S1       HGP1
   56    24    25    26	 9 ;       HGA1      CG311      NG2S1      CG2O1
   56    24    25    29	 9 ;       HGA1      CG311      NG2S1       HGP1
   24    25    26    27	 9 ;      CG311      NG2S1      CG2O1      OG2D1
   24    25    26    28	 9 ;      CG311      NG2S1      CG2O1      CG331
   29    25    26    27	 9 ;       HGP1      NG2S1      CG2O1      OG2D1
   29    25    26    28	 9 ;       HGP1      NG2S1      CG2O1      CG331
   27    26    28    71	 9 ;      OG2D1      CG2O1      CG331       HGA3
   27    26    28    72	 9 ;      OG2D1      CG2O1      CG331       HGA3
   27    26    28    73	 9 ;      OG2D1      CG2O1      CG331       HGA3
   25    26    28    71	 9 ;      NG2S1      CG2O1      CG331       HGA3
   25    26    28    72	 9 ;      NG2S1      CG2O1      CG331       HGA3
   25    26    28    73	 9 ;      NG2S1      CG2O1      CG331       HGA3
   24    30    31    38	 9 ;      CG311      CG321     CG2R61     CG2R61
   24    30    31    32	 9 ;      CG311      CG321     CG2R61     CG2R61
   57    30    31    38	 9 ;       HGA2      CG321     CG2R61     CG2R61
   57    30    31    32	 9 ;       HGA2      CG321     CG2R61     CG2R61
   58    30    31    38	 9 ;       HGA2      CG321     CG2R61     CG2R61
   58    30    31    32	 9 ;       HGA2      CG321     CG2R61     CG2R61
   32    31    38    36	 9 ;     CG2R61     CG2R61     CG2R61     CG2R66
   32    31    38    61	 9 ;     CG2R61     CG2R61     CG2R61      HGR62
   30    31    38    36	 9 ;      CG321     CG2R61     CG2R61     CG2R66
   30    31    38    61	 9 ;      CG321     CG2R61     CG2R61      HGR62
   38    31    32    33	 9 ;     CG2R61     CG2R61     CG2R61     CG2R66
   38    31    32    59	 9 ;     CG2R61     CG2R61     CG2R61      HGR62
   30    31    32    33	 9 ;      CG321     CG2R61     CG2R61     CG2R66
   30    31    32    59	 9 ;      CG321     CG2R61     CG2R61      HGR62
   31    32    33    35	 9 ;     CG2R61     CG2R61     CG2R66     CG2R61
   31    32    33    34	 9 ;     CG2R61     CG2R61     CG2R66       FGR1
   59    32    33    35	 9 ;      HGR62     CG2R61     CG2R66     CG2R61
   59    32    33    34	 9 ;      HGR62     CG2R61     CG2R66       FGR1
   34    33    35    36	 9 ;       FGR1     CG2R66     CG2R61     CG2R66
   34    33    35    60	 9 ;       FGR1     CG2R66     CG2R61      HGR62
   32    33    35    36	 9 ;     CG2R61     CG2R66     CG2R61     CG2R66
   32    33    35    60	 9 ;     CG2R61     CG2R66     CG2R61      HGR62
   33    35    36    37	 9 ;     CG2R66     CG2R61     CG2R66       FGR1
   33    35    36    38	 9 ;     CG2R66     CG2R61     CG2R66     CG2R61
   60    35    36    37	 9 ;      HGR62     CG2R61     CG2R66       FGR1
   60    35    36    38	 9 ;      HGR62     CG2R61     CG2R66     CG2R61
   35    36    38    31	 9 ;     CG2R61     CG2R66     CG2R61     CG2R61
   35    36    38    61	 9 ;     CG2R61     CG2R66     CG2R61      HGR62
   37    36    38    31	 9 ;       FGR1     CG2R66     CG2R61     CG2R61
   37    36    38    61	 9 ;       FGR1     CG2R66     CG2R61      HGR62

[ dihedrals ]
;	ai	  aj	ak	  al funct			  c0			c1			  c2			c3
   26    28    25    27	 2

