S  C  A  M  O  R  G
   71
    1LIG      S    1  -1.881   0.729  -1.789
    1LIG     O1    2  -1.886   0.692  -1.928
    1LIG     O2    3  -1.994   0.783  -1.717
    1LIG     N1    4  -1.817   0.597  -1.705
    1LIG     C1    5  -1.667   0.596  -1.702
    1LIG     C2    6  -1.604   0.524  -1.823
    1LIG     C3    7  -1.569   0.376  -1.809
    1LIG     N2    8  -1.501   0.348  -1.676
    1LIG     C4    9  -1.584   0.396  -1.559
    1LIG     C5   10  -1.611   0.546  -1.567
    1LIG     C6   11  -1.682   0.277  -1.831
    1LIG     C7   12  -1.630   0.751  -1.713
    1LIG     N3   13  -1.746   0.825  -1.765
    1LIG      H   14  -1.499   0.245  -1.667
    1LIG     C8   15  -1.907   0.500  -1.656
    1LIG     C9   16  -1.936   0.495  -1.520
    1LIG    C10   17  -2.014   0.392  -1.469
    1LIG      F   18  -2.039   0.386  -1.338
    1LIG    C11   19  -2.064   0.292  -1.553
    1LIG    C12   20  -2.044   0.302  -1.690
    1LIG    C13   21  -1.969   0.409  -1.742
    1LIG    C14   22  -1.764   0.968  -1.727
    1LIG    C15   23  -1.720   0.995  -1.583
    1LIG    C16   24  -1.687   1.057  -1.825
    1LIG    C17   25  -1.353   0.386  -1.668
    1LIG    C18   26  -1.291   0.358  -1.533
    1LIG    C19   27  -1.276   0.225  -1.486
    1LIG    C20   28  -1.236   0.200  -1.355
    1LIG    C21   29  -1.204   0.309  -1.273
    1LIG    C22   30  -1.210   0.440  -1.320
    1LIG    C23   31  -1.256   0.465  -1.449
    1LIG     O3   32  -1.234   0.081  -1.289
    1LIG    C24   33  -1.150  -0.030  -1.319
    1LIG    C25   34  -1.199  -0.119  -1.433
    1LIG    C26   35  -1.002   0.006  -1.327
    1LIG    HC2   36  -1.674   0.532  -1.906
    1LIG    HC3   37  -1.513   0.577  -1.850
    1LIG     HC   38  -1.494   0.355  -1.885
    1LIG    HC4   39  -1.529   0.376  -1.467
    1LIG    HC5   40  -1.679   0.343  -1.557
    1LIG    HC6   41  -1.683   0.571  -1.490
    1LIG    HC7   42  -1.518   0.599  -1.547
    1LIG    HC1   43  -1.642   0.184  -1.872
    1LIG    HC8   44  -1.731   0.256  -1.736
    1LIG    HC9   45  -1.754   0.319  -1.901
    1LIG   HC10   46  -1.546   0.763  -1.781
    1LIG   HC11   47  -1.604   0.789  -1.615
    1LIG   HC12   48  -1.897   0.572  -1.454
    1LIG   HC13   49  -2.118   0.208  -1.511
    1LIG   HC14   50  -2.085   0.228  -1.756
    1LIG   HC15   51  -1.960   0.421  -1.849
    1LIG   HC16   52  -1.870   0.992  -1.735
    1LIG   HC17   53  -1.763   1.090  -1.550
    1LIG   HC18   54  -1.612   1.000  -1.579
    1LIG   HC19   55  -1.756   0.915  -1.519
    1LIG   HC20   56  -1.720   1.036  -1.926
    1LIG   HC21   57  -1.581   1.038  -1.816
    1LIG   HC22   58  -1.707   1.162  -1.801
    1LIG   HC23   59  -1.299   0.329  -1.743
    1LIG   HC24   60  -1.343   0.492  -1.689
    1LIG   HC25   61  -1.294   0.142  -1.552
    1LIG   HC26   62  -1.173   0.291  -1.171
    1LIG   HC27   63  -1.180   0.522  -1.256
    1LIG   HC28   64  -1.264   0.566  -1.485
    1LIG   HC29   65  -1.156  -0.093  -1.231
    1LIG   HC30   66  -1.306  -0.139  -1.419
    1LIG   HC31   67  -1.184  -0.067  -1.528
    1LIG   HC32   68  -1.144  -0.212  -1.433
    1LIG   HC33   69  -0.975   0.069  -1.243
    1LIG   HC34   70  -0.942  -0.085  -1.325
    1LIG   HC35   71  -0.983   0.060  -1.420
   0.00000   0.00000   0.00000
