; Created by cgenff_charmm2gmx.py

[ moleculetype ]
; Name			   nrexcl
LIG				 3

[ atoms ]
;	 nr		  type	resnr residue  atom   cgnr	   charge		mass  typeB    chargeB		massB
; residue	 1 LIG rtp LIG q	qsum
     1      SG3O2      1    LIG      S      1     -0.242     32.060   ;
     2      OG2P1      1    LIG     O1      2     -0.216     15.999   ;
     3      OG2P1      1    LIG     O2      3     -0.216     15.999   ;
     4     NG3C51      1    LIG     N1      4     -0.409     14.007   ;
     5     CG3C50      1    LIG     C1      5      0.239     12.011   ;
     6      CG321      1    LIG     C2      6     -0.124     12.011   ;
     7      CG314      1    LIG     C3      7      0.198     12.011   ;
     8      NG3P1      1    LIG     N2      8     -0.462     14.007   ;
     9      CG324      1    LIG     C4      9      0.103     12.011   ;
    10      CG321      1    LIG     C5     10     -0.123     12.011   ;
    11      CG331      1    LIG     C6     11     -0.213     12.011   ;
    12     CG3C52      1    LIG     C7     12     -0.016     12.011   ;
    13     NG3C51      1    LIG     N3     13      0.185     14.007   ;
    14       HGP2      1    LIG      H     14      0.319      1.008   ;
    15     CG2R61      1    LIG     C8     15      0.378     12.011   ;
    16     CG2R61      1    LIG     C9     16     -0.169     12.011   ;
    17     CG2R66      1    LIG    C10     17      0.105     12.011   ;
    18       FGR1      1    LIG      F     18     -0.211     18.998   ;
    19     CG2R61      1    LIG    C11     19     -0.107     12.011   ;
    20     CG2R61      1    LIG    C12     20     -0.149     12.011   ;
    21     CG2R61      1    LIG    C13     21     -0.107     12.011   ;
    22      CG311      1    LIG    C14     22      0.154     12.011   ;
    23      CG331      1    LIG    C15     23     -0.290     12.011   ;
    24      CG331      1    LIG    C16     24     -0.290     12.011   ;
    25      CG324      1    LIG    C17     25      0.119     12.011   ;
    26     CG2R61      1    LIG    C18     26      0.069     12.011   ;
    27     CG2R61      1    LIG    C19     27     -0.123     12.011   ;
    28     CG2R61      1    LIG    C20     28      0.159     12.011   ;
    29     CG2R61      1    LIG    C21     29     -0.119     12.011   ;
    30     CG2R61      1    LIG    C22     30     -0.108     12.011   ;
    31     CG2R61      1    LIG    C23     31     -0.120     12.011   ;
    32      OG301      1    LIG     O3     32     -0.341     15.999   ;
    33      CG311      1    LIG    C24     33      0.059     12.011   ;
    34      CG331      1    LIG    C25     34     -0.251     12.011   ;
    35      CG331      1    LIG    C26     35     -0.251     12.011   ;
    36       HGA2      1    LIG    HC2     36      0.090      1.008   ;
    37       HGA2      1    LIG    HC3     37      0.090      1.008   ;
    38       HGA1      1    LIG     HC     38      0.090      1.008   ;
    39       HGA2      1    LIG    HC4     39      0.090      1.008   ;
    40       HGA2      1    LIG    HC5     40      0.090      1.008   ;
    41       HGA2      1    LIG    HC6     41      0.090      1.008   ;
    42       HGA2      1    LIG    HC7     42      0.090      1.008   ;
    43       HGA3      1    LIG    HC1     43      0.090      1.008   ;
    44       HGA3      1    LIG    HC8     44      0.090      1.008   ;
    45       HGA3      1    LIG    HC9     45      0.090      1.008   ;
    46       HGA2      1    LIG   HC10     46      0.090      1.008   ;
    47       HGA2      1    LIG   HC11     47      0.090      1.008   ;
    48      HGR62      1    LIG   HC12     48      0.175      1.008   ;
    49      HGR62      1    LIG   HC13     49      0.179      1.008   ;
    50      HGR61      1    LIG   HC14     50      0.116      1.008   ;
    51      HGR61      1    LIG   HC15     51      0.116      1.008   ;
    52       HGA1      1    LIG   HC16     52      0.090      1.008   ;
    53       HGA3      1    LIG   HC17     53      0.090      1.008   ;
    54       HGA3      1    LIG   HC18     54      0.090      1.008   ;
    55       HGA3      1    LIG   HC19     55      0.090      1.008   ;
    56       HGA3      1    LIG   HC20     56      0.090      1.008   ;
    57       HGA3      1    LIG   HC21     57      0.090      1.008   ;
    58       HGA3      1    LIG   HC22     58      0.090      1.008   ;
    59       HGA2      1    LIG   HC23     59      0.090      1.008   ;
    60       HGA2      1    LIG   HC24     60      0.090      1.008   ;
    61      HGR61      1    LIG   HC25     61      0.116      1.008   ;
    62      HGR61      1    LIG   HC26     62      0.116      1.008   ;
    63      HGR61      1    LIG   HC27     63      0.116      1.008   ;
    64      HGR61      1    LIG   HC28     64      0.116      1.008   ;
    65       HGA1      1    LIG   HC29     65      0.090      1.008   ;
    66       HGA3      1    LIG   HC30     66      0.090      1.008   ;
    67       HGA3      1    LIG   HC31     67      0.090      1.008   ;
    68       HGA3      1    LIG   HC32     68      0.090      1.008   ;
    69       HGA3      1    LIG   HC33     69      0.090      1.008   ;
    70       HGA3      1    LIG   HC34     70      0.090      1.008   ;
    71       HGA3      1    LIG   HC35     71      0.090      1.008   ;

[ bonds ]
;	ai	  aj funct			  c0			c1			  c2			c3
    1    13	 1 ;       SG3O2     NG3C51
    1     2	 1 ;       SG3O2      OG2P1
    1     4	 1 ;       SG3O2     NG3C51
    1     3	 1 ;       SG3O2      OG2P1
    4     5	 1 ;      NG3C51     CG3C50
    4    15	 1 ;      NG3C51     CG2R61
    5     6	 1 ;      CG3C50      CG321
    5    12	 1 ;      CG3C50     CG3C52
    5    10	 1 ;      CG3C50      CG321
    6     7	 1 ;       CG321      CG314
    6    36	 1 ;       CG321       HGA2
    6    37	 1 ;       CG321       HGA2
    7     8	 1 ;       CG314      NG3P1
    7    11	 1 ;       CG314      CG331
    7    38	 1 ;       CG314       HGA1
    8    25	 1 ;       NG3P1      CG324
    8    14	 1 ;       NG3P1       HGP2
    8     9	 1 ;       NG3P1      CG324
    9    10	 1 ;       CG324      CG321
    9    39	 1 ;       CG324       HGA2
    9    40	 1 ;       CG324       HGA2
   10    41	 1 ;       CG321       HGA2
   10    42	 1 ;       CG321       HGA2
   11    43	 1 ;       CG331       HGA3
   11    44	 1 ;       CG331       HGA3
   11    45	 1 ;       CG331       HGA3
   12    13	 1 ;      CG3C52     NG3C51
   12    46	 1 ;      CG3C52       HGA2
   12    47	 1 ;      CG3C52       HGA2
   13    22	 1 ;      NG3C51      CG311
   15    21	 1 ;      CG2R61     CG2R61
   15    16	 1 ;      CG2R61     CG2R61
   16    17	 1 ;      CG2R61     CG2R66
   16    48	 1 ;      CG2R61      HGR62
   17    19	 1 ;      CG2R66     CG2R61
   17    18	 1 ;      CG2R66       FGR1
   19    20	 1 ;      CG2R61     CG2R61
   19    49	 1 ;      CG2R61      HGR62
   20    21	 1 ;      CG2R61     CG2R61
   20    50	 1 ;      CG2R61      HGR61
   21    51	 1 ;      CG2R61      HGR61
   22    24	 1 ;       CG311      CG331
   22    23	 1 ;       CG311      CG331
   22    52	 1 ;       CG311       HGA1
   23    53	 1 ;       CG331       HGA3
   23    54	 1 ;       CG331       HGA3
   23    55	 1 ;       CG331       HGA3
   24    56	 1 ;       CG331       HGA3
   24    57	 1 ;       CG331       HGA3
   24    58	 1 ;       CG331       HGA3
   25    26	 1 ;       CG324     CG2R61
   25    59	 1 ;       CG324       HGA2
   25    60	 1 ;       CG324       HGA2
   26    31	 1 ;      CG2R61     CG2R61
   26    27	 1 ;      CG2R61     CG2R61
   27    28	 1 ;      CG2R61     CG2R61
   27    61	 1 ;      CG2R61      HGR61
   28    29	 1 ;      CG2R61     CG2R61
   28    32	 1 ;      CG2R61      OG301
   29    30	 1 ;      CG2R61     CG2R61
   29    62	 1 ;      CG2R61      HGR61
   30    31	 1 ;      CG2R61     CG2R61
   30    63	 1 ;      CG2R61      HGR61
   31    64	 1 ;      CG2R61      HGR61
   32    33	 1 ;       OG301      CG311
   33    35	 1 ;       CG311      CG331
   33    34	 1 ;       CG311      CG331
   33    65	 1 ;       CG311       HGA1
   34    66	 1 ;       CG331       HGA3
   34    67	 1 ;       CG331       HGA3
   34    68	 1 ;       CG331       HGA3
   35    69	 1 ;       CG331       HGA3
   35    70	 1 ;       CG331       HGA3
   35    71	 1 ;       CG331       HGA3

[ pairs ]
;	ai	  aj funct			  c0			c1			  c2			c3
    1     6	 1
    1    10	 1
    1    21	 1
    1    16	 1
    1    46	 1
    1    47	 1
    1    24	 1
    1    23	 1
    1    52	 1
    2    12	 1
    2    22	 1
    2     5	 1
    2    15	 1
    3    12	 1
    3    22	 1
    3     5	 1
    3    15	 1
    4    22	 1
    4     7	 1
    4    36	 1
    4    37	 1
    4    46	 1
    4    47	 1
    4     9	 1
    4    41	 1
    4    42	 1
    4    20	 1
    4    51	 1
    4    17	 1
    4    48	 1
    5    21	 1
    5    16	 1
    5     8	 1
    5    11	 1
    5    38	 1
    5    39	 1
    5    40	 1
    5    22	 1
    6    15	 1
    6    13	 1
    6    46	 1
    6    47	 1
    6     9	 1
    6    41	 1
    6    42	 1
    6    25	 1
    6    14	 1
    6    43	 1
    6    44	 1
    6    45	 1
    7    12	 1
    7    10	 1
    7    26	 1
    7    59	 1
    7    60	 1
    7    39	 1
    7    40	 1
    8    36	 1
    8    37	 1
    8    43	 1
    8    44	 1
    8    45	 1
    8    41	 1
    8    42	 1
    8    31	 1
    8    27	 1
    9    12	 1
    9    11	 1
    9    38	 1
    9    26	 1
    9    59	 1
    9    60	 1
   10    15	 1
   10    36	 1
   10    37	 1
   10    13	 1
   10    46	 1
   10    47	 1
   10    25	 1
   10    14	 1
   11    36	 1
   11    37	 1
   11    25	 1
   11    14	 1
   12    15	 1
   12    36	 1
   12    37	 1
   12    41	 1
   12    42	 1
   12    24	 1
   12    23	 1
   12    52	 1
   13    15	 1
   13    56	 1
   13    57	 1
   13    58	 1
   13    53	 1
   13    54	 1
   13    55	 1
   14    38	 1
   14    26	 1
   14    59	 1
   14    60	 1
   14    39	 1
   14    40	 1
   15    19	 1
   15    18	 1
   15    50	 1
   16    20	 1
   16    51	 1
   16    49	 1
   17    21	 1
   17    50	 1
   18    48	 1
   18    20	 1
   18    49	 1
   19    48	 1
   19    51	 1
   21    48	 1
   21    49	 1
   22    46	 1
   22    47	 1
   23    56	 1
   23    57	 1
   23    58	 1
   24    53	 1
   24    54	 1
   24    55	 1
   25    38	 1
   25    39	 1
   25    40	 1
   25    30	 1
   25    64	 1
   25    28	 1
   25    61	 1
   26    29	 1
   26    32	 1
   26    63	 1
   27    59	 1
   27    60	 1
   27    30	 1
   27    64	 1
   27    62	 1
   27    33	 1
   28    31	 1
   28    63	 1
   28    35	 1
   28    34	 1
   28    65	 1
   29    61	 1
   29    33	 1
   29    64	 1
   30    32	 1
   31    59	 1
   31    60	 1
   31    61	 1
   31    62	 1
   32    61	 1
   32    62	 1
   32    69	 1
   32    70	 1
   32    71	 1
   32    66	 1
   32    67	 1
   32    68	 1
   34    69	 1
   34    70	 1
   34    71	 1
   35    66	 1
   35    67	 1
   35    68	 1
   36    38	 1
   37    38	 1
   38    43	 1
   38    44	 1
   38    45	 1
   39    41	 1
   39    42	 1
   40    41	 1
   40    42	 1
   49    50	 1
   50    51	 1
   52    56	 1
   52    57	 1
   52    58	 1
   52    53	 1
   52    54	 1
   52    55	 1
   62    63	 1
   63    64	 1
   65    69	 1
   65    70	 1
   65    71	 1
   65    66	 1
   65    67	 1
   65    68	 1

[ angles ]
;	ai	  aj	ak funct			c0			  c1			c2			  c3
   13     1     2	5 ;     NG3C51      SG3O2      OG2P1
   13     1     4	5 ;     NG3C51      SG3O2     NG3C51
   13     1     3	5 ;     NG3C51      SG3O2      OG2P1
    2     1     4	5 ;      OG2P1      SG3O2     NG3C51
    2     1     3	5 ;      OG2P1      SG3O2      OG2P1
    4     1     3	5 ;     NG3C51      SG3O2      OG2P1
    5     4     1	5 ;     CG3C50     NG3C51      SG3O2
    5     4    15	5 ;     CG3C50     NG3C51     CG2R61
    1     4    15	5 ;      SG3O2     NG3C51     CG2R61
    6     5    12	5 ;      CG321     CG3C50     CG3C52
    6     5    10	5 ;      CG321     CG3C50      CG321
    6     5     4	5 ;      CG321     CG3C50     NG3C51
   12     5    10	5 ;     CG3C52     CG3C50      CG321
   12     5     4	5 ;     CG3C52     CG3C50     NG3C51
   10     5     4	5 ;      CG321     CG3C50     NG3C51
    7     6     5	5 ;      CG314      CG321     CG3C50
    7     6    36	5 ;      CG314      CG321       HGA2
    7     6    37	5 ;      CG314      CG321       HGA2
    5     6    36	5 ;     CG3C50      CG321       HGA2
    5     6    37	5 ;     CG3C50      CG321       HGA2
   36     6    37	5 ;       HGA2      CG321       HGA2
    6     7     8	5 ;      CG321      CG314      NG3P1
    6     7    11	5 ;      CG321      CG314      CG331
    6     7    38	5 ;      CG321      CG314       HGA1
    8     7    11	5 ;      NG3P1      CG314      CG331
    8     7    38	5 ;      NG3P1      CG314       HGA1
   11     7    38	5 ;      CG331      CG314       HGA1
   25     8     7	5 ;      CG324      NG3P1      CG314
   25     8    14	5 ;      CG324      NG3P1       HGP2
   25     8     9	5 ;      CG324      NG3P1      CG324
    7     8    14	5 ;      CG314      NG3P1       HGP2
    7     8     9	5 ;      CG314      NG3P1      CG324
   14     8     9	5 ;       HGP2      NG3P1      CG324
    8     9    10	5 ;      NG3P1      CG324      CG321
    8     9    39	5 ;      NG3P1      CG324       HGA2
    8     9    40	5 ;      NG3P1      CG324       HGA2
   10     9    39	5 ;      CG321      CG324       HGA2
   10     9    40	5 ;      CG321      CG324       HGA2
   39     9    40	5 ;       HGA2      CG324       HGA2
    5    10     9	5 ;     CG3C50      CG321      CG324
    5    10    41	5 ;     CG3C50      CG321       HGA2
    5    10    42	5 ;     CG3C50      CG321       HGA2
    9    10    41	5 ;      CG324      CG321       HGA2
    9    10    42	5 ;      CG324      CG321       HGA2
   41    10    42	5 ;       HGA2      CG321       HGA2
    7    11    43	5 ;      CG314      CG331       HGA3
    7    11    44	5 ;      CG314      CG331       HGA3
    7    11    45	5 ;      CG314      CG331       HGA3
   43    11    44	5 ;       HGA3      CG331       HGA3
   43    11    45	5 ;       HGA3      CG331       HGA3
   44    11    45	5 ;       HGA3      CG331       HGA3
   13    12     5	5 ;     NG3C51     CG3C52     CG3C50
   13    12    46	5 ;     NG3C51     CG3C52       HGA2
   13    12    47	5 ;     NG3C51     CG3C52       HGA2
    5    12    46	5 ;     CG3C50     CG3C52       HGA2
    5    12    47	5 ;     CG3C50     CG3C52       HGA2
   46    12    47	5 ;       HGA2     CG3C52       HGA2
   12    13    22	5 ;     CG3C52     NG3C51      CG311
   12    13     1	5 ;     CG3C52     NG3C51      SG3O2
   22    13     1	5 ;      CG311     NG3C51      SG3O2
    4    15    21	5 ;     NG3C51     CG2R61     CG2R61
    4    15    16	5 ;     NG3C51     CG2R61     CG2R61
   21    15    16	5 ;     CG2R61     CG2R61     CG2R61
   15    16    17	5 ;     CG2R61     CG2R61     CG2R66
   15    16    48	5 ;     CG2R61     CG2R61      HGR62
   17    16    48	5 ;     CG2R66     CG2R61      HGR62
   16    17    19	5 ;     CG2R61     CG2R66     CG2R61
   16    17    18	5 ;     CG2R61     CG2R66       FGR1
   19    17    18	5 ;     CG2R61     CG2R66       FGR1
   20    19    17	5 ;     CG2R61     CG2R61     CG2R66
   20    19    49	5 ;     CG2R61     CG2R61      HGR62
   17    19    49	5 ;     CG2R66     CG2R61      HGR62
   21    20    19	5 ;     CG2R61     CG2R61     CG2R61
   21    20    50	5 ;     CG2R61     CG2R61      HGR61
   19    20    50	5 ;     CG2R61     CG2R61      HGR61
   15    21    20	5 ;     CG2R61     CG2R61     CG2R61
   15    21    51	5 ;     CG2R61     CG2R61      HGR61
   20    21    51	5 ;     CG2R61     CG2R61      HGR61
   24    22    13	5 ;      CG331      CG311     NG3C51
   24    22    23	5 ;      CG331      CG311      CG331
   24    22    52	5 ;      CG331      CG311       HGA1
   13    22    23	5 ;     NG3C51      CG311      CG331
   13    22    52	5 ;     NG3C51      CG311       HGA1
   23    22    52	5 ;      CG331      CG311       HGA1
   22    23    53	5 ;      CG311      CG331       HGA3
   22    23    54	5 ;      CG311      CG331       HGA3
   22    23    55	5 ;      CG311      CG331       HGA3
   53    23    54	5 ;       HGA3      CG331       HGA3
   53    23    55	5 ;       HGA3      CG331       HGA3
   54    23    55	5 ;       HGA3      CG331       HGA3
   22    24    56	5 ;      CG311      CG331       HGA3
   22    24    57	5 ;      CG311      CG331       HGA3
   22    24    58	5 ;      CG311      CG331       HGA3
   56    24    57	5 ;       HGA3      CG331       HGA3
   56    24    58	5 ;       HGA3      CG331       HGA3
   57    24    58	5 ;       HGA3      CG331       HGA3
   26    25     8	5 ;     CG2R61      CG324      NG3P1
   26    25    59	5 ;     CG2R61      CG324       HGA2
   26    25    60	5 ;     CG2R61      CG324       HGA2
    8    25    59	5 ;      NG3P1      CG324       HGA2
    8    25    60	5 ;      NG3P1      CG324       HGA2
   59    25    60	5 ;       HGA2      CG324       HGA2
   25    26    31	5 ;      CG324     CG2R61     CG2R61
   25    26    27	5 ;      CG324     CG2R61     CG2R61
   31    26    27	5 ;     CG2R61     CG2R61     CG2R61
   26    27    28	5 ;     CG2R61     CG2R61     CG2R61
   26    27    61	5 ;     CG2R61     CG2R61      HGR61
   28    27    61	5 ;     CG2R61     CG2R61      HGR61
   27    28    29	5 ;     CG2R61     CG2R61     CG2R61
   27    28    32	5 ;     CG2R61     CG2R61      OG301
   29    28    32	5 ;     CG2R61     CG2R61      OG301
   30    29    28	5 ;     CG2R61     CG2R61     CG2R61
   30    29    62	5 ;     CG2R61     CG2R61      HGR61
   28    29    62	5 ;     CG2R61     CG2R61      HGR61
   31    30    29	5 ;     CG2R61     CG2R61     CG2R61
   31    30    63	5 ;     CG2R61     CG2R61      HGR61
   29    30    63	5 ;     CG2R61     CG2R61      HGR61
   26    31    30	5 ;     CG2R61     CG2R61     CG2R61
   26    31    64	5 ;     CG2R61     CG2R61      HGR61
   30    31    64	5 ;     CG2R61     CG2R61      HGR61
   33    32    28	5 ;      CG311      OG301     CG2R61
   35    33    34	5 ;      CG331      CG311      CG331
   35    33    32	5 ;      CG331      CG311      OG301
   35    33    65	5 ;      CG331      CG311       HGA1
   34    33    32	5 ;      CG331      CG311      OG301
   34    33    65	5 ;      CG331      CG311       HGA1
   32    33    65	5 ;      OG301      CG311       HGA1
   33    34    66	5 ;      CG311      CG331       HGA3
   33    34    67	5 ;      CG311      CG331       HGA3
   33    34    68	5 ;      CG311      CG331       HGA3
   66    34    67	5 ;       HGA3      CG331       HGA3
   66    34    68	5 ;       HGA3      CG331       HGA3
   67    34    68	5 ;       HGA3      CG331       HGA3
   33    35    69	5 ;      CG311      CG331       HGA3
   33    35    70	5 ;      CG311      CG331       HGA3
   33    35    71	5 ;      CG311      CG331       HGA3
   69    35    70	5 ;       HGA3      CG331       HGA3
   69    35    71	5 ;       HGA3      CG331       HGA3
   70    35    71	5 ;       HGA3      CG331       HGA3

[ dihedrals ]
;	ai	  aj	ak	  al funct			  c0			c1			  c2			c3			  c4			c5
    2     1    13    12	 9 ;      OG2P1      SG3O2     NG3C51     CG3C52
    2     1    13    22	 9 ;      OG2P1      SG3O2     NG3C51      CG311
    4     1    13    12	 9 ;     NG3C51      SG3O2     NG3C51     CG3C52
    4     1    13    22	 9 ;     NG3C51      SG3O2     NG3C51      CG311
    3     1    13    12	 9 ;      OG2P1      SG3O2     NG3C51     CG3C52
    3     1    13    22	 9 ;      OG2P1      SG3O2     NG3C51      CG311
   13     1     4     5	 9 ;     NG3C51      SG3O2     NG3C51     CG3C50
   13     1     4    15	 9 ;     NG3C51      SG3O2     NG3C51     CG2R61
    2     1     4     5	 9 ;      OG2P1      SG3O2     NG3C51     CG3C50
    2     1     4    15	 9 ;      OG2P1      SG3O2     NG3C51     CG2R61
    3     1     4     5	 9 ;      OG2P1      SG3O2     NG3C51     CG3C50
    3     1     4    15	 9 ;      OG2P1      SG3O2     NG3C51     CG2R61
    1     4     5     6	 9 ;      SG3O2     NG3C51     CG3C50      CG321
    1     4     5    12	 9 ;      SG3O2     NG3C51     CG3C50     CG3C52
    1     4     5    10	 9 ;      SG3O2     NG3C51     CG3C50      CG321
   15     4     5     6	 9 ;     CG2R61     NG3C51     CG3C50      CG321
   15     4     5    12	 9 ;     CG2R61     NG3C51     CG3C50     CG3C52
   15     4     5    10	 9 ;     CG2R61     NG3C51     CG3C50      CG321
    5     4    15    21	 9 ;     CG3C50     NG3C51     CG2R61     CG2R61
    5     4    15    16	 9 ;     CG3C50     NG3C51     CG2R61     CG2R61
    1     4    15    21	 9 ;      SG3O2     NG3C51     CG2R61     CG2R61
    1     4    15    16	 9 ;      SG3O2     NG3C51     CG2R61     CG2R61
   12     5     6     7	 9 ;     CG3C52     CG3C50      CG321      CG314
   12     5     6    36	 9 ;     CG3C52     CG3C50      CG321       HGA2
   12     5     6    37	 9 ;     CG3C52     CG3C50      CG321       HGA2
   10     5     6     7	 9 ;      CG321     CG3C50      CG321      CG314
   10     5     6    36	 9 ;      CG321     CG3C50      CG321       HGA2
   10     5     6    37	 9 ;      CG321     CG3C50      CG321       HGA2
    4     5     6     7	 9 ;     NG3C51     CG3C50      CG321      CG314
    4     5     6    36	 9 ;     NG3C51     CG3C50      CG321       HGA2
    4     5     6    37	 9 ;     NG3C51     CG3C50      CG321       HGA2
    6     5    12    13	 9 ;      CG321     CG3C50     CG3C52     NG3C51
    6     5    12    46	 9 ;      CG321     CG3C50     CG3C52       HGA2
    6     5    12    47	 9 ;      CG321     CG3C50     CG3C52       HGA2
   10     5    12    13	 9 ;      CG321     CG3C50     CG3C52     NG3C51
   10     5    12    46	 9 ;      CG321     CG3C50     CG3C52       HGA2
   10     5    12    47	 9 ;      CG321     CG3C50     CG3C52       HGA2
    4     5    12    13	 9 ;     NG3C51     CG3C50     CG3C52     NG3C51
    4     5    12    46	 9 ;     NG3C51     CG3C50     CG3C52       HGA2
    4     5    12    47	 9 ;     NG3C51     CG3C50     CG3C52       HGA2
    6     5    10     9	 9 ;      CG321     CG3C50      CG321      CG324
    6     5    10    41	 9 ;      CG321     CG3C50      CG321       HGA2
    6     5    10    42	 9 ;      CG321     CG3C50      CG321       HGA2
   12     5    10     9	 9 ;     CG3C52     CG3C50      CG321      CG324
   12     5    10    41	 9 ;     CG3C52     CG3C50      CG321       HGA2
   12     5    10    42	 9 ;     CG3C52     CG3C50      CG321       HGA2
    4     5    10     9	 9 ;     NG3C51     CG3C50      CG321      CG324
    4     5    10    41	 9 ;     NG3C51     CG3C50      CG321       HGA2
    4     5    10    42	 9 ;     NG3C51     CG3C50      CG321       HGA2
    5     6     7     8	 9 ;     CG3C50      CG321      CG314      NG3P1
    5     6     7    11	 9 ;     CG3C50      CG321      CG314      CG331
    5     6     7    38	 9 ;     CG3C50      CG321      CG314       HGA1
   36     6     7     8	 9 ;       HGA2      CG321      CG314      NG3P1
   36     6     7    11	 9 ;       HGA2      CG321      CG314      CG331
   36     6     7    38	 9 ;       HGA2      CG321      CG314       HGA1
   37     6     7     8	 9 ;       HGA2      CG321      CG314      NG3P1
   37     6     7    11	 9 ;       HGA2      CG321      CG314      CG331
   37     6     7    38	 9 ;       HGA2      CG321      CG314       HGA1
    6     7     8    25	 9 ;      CG321      CG314      NG3P1      CG324
    6     7     8    14	 9 ;      CG321      CG314      NG3P1       HGP2
    6     7     8     9	 9 ;      CG321      CG314      NG3P1      CG324
   11     7     8    25	 9 ;      CG331      CG314      NG3P1      CG324
   11     7     8    14	 9 ;      CG331      CG314      NG3P1       HGP2
   11     7     8     9	 9 ;      CG331      CG314      NG3P1      CG324
   38     7     8    25	 9 ;       HGA1      CG314      NG3P1      CG324
   38     7     8    14	 9 ;       HGA1      CG314      NG3P1       HGP2
   38     7     8     9	 9 ;       HGA1      CG314      NG3P1      CG324
    6     7    11    43	 9 ;      CG321      CG314      CG331       HGA3
    6     7    11    44	 9 ;      CG321      CG314      CG331       HGA3
    6     7    11    45	 9 ;      CG321      CG314      CG331       HGA3
    8     7    11    43	 9 ;      NG3P1      CG314      CG331       HGA3
    8     7    11    44	 9 ;      NG3P1      CG314      CG331       HGA3
    8     7    11    45	 9 ;      NG3P1      CG314      CG331       HGA3
   38     7    11    43	 9 ;       HGA1      CG314      CG331       HGA3
   38     7    11    44	 9 ;       HGA1      CG314      CG331       HGA3
   38     7    11    45	 9 ;       HGA1      CG314      CG331       HGA3
    7     8    25    26	 9 ;      CG314      NG3P1      CG324     CG2R61
    7     8    25    59	 9 ;      CG314      NG3P1      CG324       HGA2
    7     8    25    60	 9 ;      CG314      NG3P1      CG324       HGA2
   14     8    25    26	 9 ;       HGP2      NG3P1      CG324     CG2R61
   14     8    25    59	 9 ;       HGP2      NG3P1      CG324       HGA2
   14     8    25    60	 9 ;       HGP2      NG3P1      CG324       HGA2
    9     8    25    26	 9 ;      CG324      NG3P1      CG324     CG2R61
    9     8    25    59	 9 ;      CG324      NG3P1      CG324       HGA2
    9     8    25    60	 9 ;      CG324      NG3P1      CG324       HGA2
   25     8     9    10	 9 ;      CG324      NG3P1      CG324      CG321
   25     8     9    39	 9 ;      CG324      NG3P1      CG324       HGA2
   25     8     9    40	 9 ;      CG324      NG3P1      CG324       HGA2
    7     8     9    10	 9 ;      CG314      NG3P1      CG324      CG321
    7     8     9    39	 9 ;      CG314      NG3P1      CG324       HGA2
    7     8     9    40	 9 ;      CG314      NG3P1      CG324       HGA2
   14     8     9    10	 9 ;       HGP2      NG3P1      CG324      CG321
   14     8     9    39	 9 ;       HGP2      NG3P1      CG324       HGA2
   14     8     9    40	 9 ;       HGP2      NG3P1      CG324       HGA2
    8     9    10     5	 9 ;      NG3P1      CG324      CG321     CG3C50
    8     9    10    41	 9 ;      NG3P1      CG324      CG321       HGA2
    8     9    10    42	 9 ;      NG3P1      CG324      CG321       HGA2
   39     9    10     5	 9 ;       HGA2      CG324      CG321     CG3C50
   39     9    10    41	 9 ;       HGA2      CG324      CG321       HGA2
   39     9    10    42	 9 ;       HGA2      CG324      CG321       HGA2
   40     9    10     5	 9 ;       HGA2      CG324      CG321     CG3C50
   40     9    10    41	 9 ;       HGA2      CG324      CG321       HGA2
   40     9    10    42	 9 ;       HGA2      CG324      CG321       HGA2
    5    12    13    22	 9 ;     CG3C50     CG3C52     NG3C51      CG311
    5    12    13     1	 9 ;     CG3C50     CG3C52     NG3C51      SG3O2
   46    12    13    22	 9 ;       HGA2     CG3C52     NG3C51      CG311
   46    12    13     1	 9 ;       HGA2     CG3C52     NG3C51      SG3O2
   47    12    13    22	 9 ;       HGA2     CG3C52     NG3C51      CG311
   47    12    13     1	 9 ;       HGA2     CG3C52     NG3C51      SG3O2
   12    13    22    24	 9 ;     CG3C52     NG3C51      CG311      CG331
   12    13    22    23	 9 ;     CG3C52     NG3C51      CG311      CG331
   12    13    22    52	 9 ;     CG3C52     NG3C51      CG311       HGA1
    1    13    22    24	 9 ;      SG3O2     NG3C51      CG311      CG331
    1    13    22    23	 9 ;      SG3O2     NG3C51      CG311      CG331
    1    13    22    52	 9 ;      SG3O2     NG3C51      CG311       HGA1
    4    15    21    20	 9 ;     NG3C51     CG2R61     CG2R61     CG2R61
    4    15    21    51	 9 ;     NG3C51     CG2R61     CG2R61      HGR61
   16    15    21    20	 9 ;     CG2R61     CG2R61     CG2R61     CG2R61
   16    15    21    51	 9 ;     CG2R61     CG2R61     CG2R61      HGR61
    4    15    16    17	 9 ;     NG3C51     CG2R61     CG2R61     CG2R66
    4    15    16    48	 9 ;     NG3C51     CG2R61     CG2R61      HGR62
   21    15    16    17	 9 ;     CG2R61     CG2R61     CG2R61     CG2R66
   21    15    16    48	 9 ;     CG2R61     CG2R61     CG2R61      HGR62
   15    16    17    19	 9 ;     CG2R61     CG2R61     CG2R66     CG2R61
   15    16    17    18	 9 ;     CG2R61     CG2R61     CG2R66       FGR1
   48    16    17    19	 9 ;      HGR62     CG2R61     CG2R66     CG2R61
   48    16    17    18	 9 ;      HGR62     CG2R61     CG2R66       FGR1
   16    17    19    20	 9 ;     CG2R61     CG2R66     CG2R61     CG2R61
   16    17    19    49	 9 ;     CG2R61     CG2R66     CG2R61      HGR62
   18    17    19    20	 9 ;       FGR1     CG2R66     CG2R61     CG2R61
   18    17    19    49	 9 ;       FGR1     CG2R66     CG2R61      HGR62
   17    19    20    21	 9 ;     CG2R66     CG2R61     CG2R61     CG2R61
   17    19    20    50	 9 ;     CG2R66     CG2R61     CG2R61      HGR61
   49    19    20    21	 9 ;      HGR62     CG2R61     CG2R61     CG2R61
   49    19    20    50	 9 ;      HGR62     CG2R61     CG2R61      HGR61
   19    20    21    15	 9 ;     CG2R61     CG2R61     CG2R61     CG2R61
   19    20    21    51	 9 ;     CG2R61     CG2R61     CG2R61      HGR61
   50    20    21    15	 9 ;      HGR61     CG2R61     CG2R61     CG2R61
   50    20    21    51	 9 ;      HGR61     CG2R61     CG2R61      HGR61
   13    22    24    56	 9 ;     NG3C51      CG311      CG331       HGA3
   13    22    24    57	 9 ;     NG3C51      CG311      CG331       HGA3
   13    22    24    58	 9 ;     NG3C51      CG311      CG331       HGA3
   23    22    24    56	 9 ;      CG331      CG311      CG331       HGA3
   23    22    24    57	 9 ;      CG331      CG311      CG331       HGA3
   23    22    24    58	 9 ;      CG331      CG311      CG331       HGA3
   52    22    24    56	 9 ;       HGA1      CG311      CG331       HGA3
   52    22    24    57	 9 ;       HGA1      CG311      CG331       HGA3
   52    22    24    58	 9 ;       HGA1      CG311      CG331       HGA3
   24    22    23    53	 9 ;      CG331      CG311      CG331       HGA3
   24    22    23    54	 9 ;      CG331      CG311      CG331       HGA3
   24    22    23    55	 9 ;      CG331      CG311      CG331       HGA3
   13    22    23    53	 9 ;     NG3C51      CG311      CG331       HGA3
   13    22    23    54	 9 ;     NG3C51      CG311      CG331       HGA3
   13    22    23    55	 9 ;     NG3C51      CG311      CG331       HGA3
   52    22    23    53	 9 ;       HGA1      CG311      CG331       HGA3
   52    22    23    54	 9 ;       HGA1      CG311      CG331       HGA3
   52    22    23    55	 9 ;       HGA1      CG311      CG331       HGA3
    8    25    26    31	 9 ;      NG3P1      CG324     CG2R61     CG2R61
    8    25    26    27	 9 ;      NG3P1      CG324     CG2R61     CG2R61
   59    25    26    31	 9 ;       HGA2      CG324     CG2R61     CG2R61
   59    25    26    27	 9 ;       HGA2      CG324     CG2R61     CG2R61
   60    25    26    31	 9 ;       HGA2      CG324     CG2R61     CG2R61
   60    25    26    27	 9 ;       HGA2      CG324     CG2R61     CG2R61
   25    26    31    30	 9 ;      CG324     CG2R61     CG2R61     CG2R61
   25    26    31    64	 9 ;      CG324     CG2R61     CG2R61      HGR61
   27    26    31    30	 9 ;     CG2R61     CG2R61     CG2R61     CG2R61
   27    26    31    64	 9 ;     CG2R61     CG2R61     CG2R61      HGR61
   25    26    27    28	 9 ;      CG324     CG2R61     CG2R61     CG2R61
   25    26    27    61	 9 ;      CG324     CG2R61     CG2R61      HGR61
   31    26    27    28	 9 ;     CG2R61     CG2R61     CG2R61     CG2R61
   31    26    27    61	 9 ;     CG2R61     CG2R61     CG2R61      HGR61
   26    27    28    29	 9 ;     CG2R61     CG2R61     CG2R61     CG2R61
   26    27    28    32	 9 ;     CG2R61     CG2R61     CG2R61      OG301
   61    27    28    29	 9 ;      HGR61     CG2R61     CG2R61     CG2R61
   61    27    28    32	 9 ;      HGR61     CG2R61     CG2R61      OG301
   27    28    29    30	 9 ;     CG2R61     CG2R61     CG2R61     CG2R61
   27    28    29    62	 9 ;     CG2R61     CG2R61     CG2R61      HGR61
   32    28    29    30	 9 ;      OG301     CG2R61     CG2R61     CG2R61
   32    28    29    62	 9 ;      OG301     CG2R61     CG2R61      HGR61
   27    28    32    33	 9 ;     CG2R61     CG2R61      OG301      CG311
   29    28    32    33	 9 ;     CG2R61     CG2R61      OG301      CG311
   28    29    30    31	 9 ;     CG2R61     CG2R61     CG2R61     CG2R61
   28    29    30    63	 9 ;     CG2R61     CG2R61     CG2R61      HGR61
   62    29    30    31	 9 ;      HGR61     CG2R61     CG2R61     CG2R61
   62    29    30    63	 9 ;      HGR61     CG2R61     CG2R61      HGR61
   29    30    31    26	 9 ;     CG2R61     CG2R61     CG2R61     CG2R61
   29    30    31    64	 9 ;     CG2R61     CG2R61     CG2R61      HGR61
   63    30    31    26	 9 ;      HGR61     CG2R61     CG2R61     CG2R61
   63    30    31    64	 9 ;      HGR61     CG2R61     CG2R61      HGR61
   28    32    33    35	 9 ;     CG2R61      OG301      CG311      CG331
   28    32    33    34	 9 ;     CG2R61      OG301      CG311      CG331
   28    32    33    65	 9 ;     CG2R61      OG301      CG311       HGA1
   34    33    35    69	 9 ;      CG331      CG311      CG331       HGA3
   34    33    35    70	 9 ;      CG331      CG311      CG331       HGA3
   34    33    35    71	 9 ;      CG331      CG311      CG331       HGA3
   32    33    35    69	 9 ;      OG301      CG311      CG331       HGA3
   32    33    35    70	 9 ;      OG301      CG311      CG331       HGA3
   32    33    35    71	 9 ;      OG301      CG311      CG331       HGA3
   65    33    35    69	 9 ;       HGA1      CG311      CG331       HGA3
   65    33    35    70	 9 ;       HGA1      CG311      CG331       HGA3
   65    33    35    71	 9 ;       HGA1      CG311      CG331       HGA3
   35    33    34    66	 9 ;      CG331      CG311      CG331       HGA3
   35    33    34    67	 9 ;      CG331      CG311      CG331       HGA3
   35    33    34    68	 9 ;      CG331      CG311      CG331       HGA3
   32    33    34    66	 9 ;      OG301      CG311      CG331       HGA3
   32    33    34    67	 9 ;      OG301      CG311      CG331       HGA3
   32    33    34    68	 9 ;      OG301      CG311      CG331       HGA3
   65    33    34    66	 9 ;       HGA1      CG311      CG331       HGA3
   65    33    34    67	 9 ;       HGA1      CG311      CG331       HGA3
   65    33    34    68	 9 ;       HGA1      CG311      CG331       HGA3

