Gallium Rubidium Oxygen Manganese Argon Carbon Silicon
   60
    1LIG      S    1  -1.685   0.585  -1.514
    1LIG     O1    2  -1.774   0.579  -1.628
    1LIG     O2    3  -1.684   0.698  -1.425
    1LIG     C1    4  -1.705   0.437  -1.417
    1LIG     C2    5  -1.672   0.308  -1.494
    1LIG     C3    6  -1.533   0.317  -1.564
    1LIG     C4    7  -1.511   0.439  -1.657
    1LIG     C5    8  -1.520   0.568  -1.579
    1LIG      N    9  -1.372   0.422  -1.722
    1LIG     H1   10  -1.349   0.323  -1.737
    1LIG     H2   11  -1.383   0.460  -1.817
    1LIG     C6   12  -1.256   0.491  -1.657
    1LIG     C7   13  -1.204   0.417  -1.536
    1LIG     C8   14  -1.172   0.280  -1.543
    1LIG     C9   15  -1.115   0.208  -1.435
    1LIG    C10   16  -1.100   0.278  -1.314
    1LIG    C11   17  -1.133   0.413  -1.304
    1LIG    C12   18  -1.183   0.483  -1.414
    1LIG    C13   19  -1.057   0.065  -1.452
    1LIG    C14   20  -1.047  -0.010  -1.317
    1LIG    C15   21  -1.153  -0.014  -1.544
    1LIG    C16   22  -0.917   0.060  -1.515
    1LIG     O3   23  -1.503   0.201  -1.642
    1LIG     H3   24  -1.540   0.121  -1.597
    1LIG    C17   25  -1.787   0.261  -1.587
    1LIG    C18   26  -1.915   0.226  -1.513
    1LIG    C19   27  -2.040   0.268  -1.561
    1LIG    C20   28  -2.157   0.233  -1.494
    1LIG    C21   29  -2.152   0.157  -1.377
    1LIG    C22   30  -2.029   0.116  -1.327
    1LIG    C23   31  -1.911   0.149  -1.395
    1LIG    HC2   32  -1.808   0.431  -1.383
    1LIG    HC3   33  -1.639   0.443  -1.330
    1LIG     HC   34  -1.662   0.230  -1.418
    1LIG    HC1   35  -1.458   0.323  -1.485
    1LIG    HC4   36  -1.587   0.439  -1.735
    1LIG    HC5   37  -1.499   0.652  -1.645
    1LIG    HC6   38  -1.449   0.567  -1.497
    1LIG    HC7   39  -1.175   0.499  -1.730
    1LIG    HC8   40  -1.286   0.591  -1.627
    1LIG    HC9   41  -1.192   0.227  -1.636
    1LIG   HC10   42  -1.061   0.226  -1.228
    1LIG   HC11   43  -1.121   0.464  -1.209
    1LIG   HC12   44  -1.206   0.589  -1.406
    1LIG   HC13   45  -1.144  -0.009  -1.267
    1LIG   HC14   46  -1.017  -0.113  -1.335
    1LIG   HC15   47  -0.974   0.039  -1.253
    1LIG   HC16   48  -1.253  -0.013  -1.502
    1LIG   HC17   49  -1.154   0.031  -1.643
    1LIG   HC18   50  -1.118  -0.118  -1.551
    1LIG   HC19   51  -0.919   0.111  -1.611
    1LIG   HC20   52  -0.845   0.108  -1.449
    1LIG   HC21   53  -0.888  -0.044  -1.531
    1LIG   HC22   54  -1.754   0.173  -1.642
    1LIG   HC23   55  -1.809   0.341  -1.658
    1LIG   HC24   56  -2.046   0.326  -1.652
    1LIG   HC25   57  -2.253   0.265  -1.532
    1LIG   HC26   58  -2.243   0.131  -1.325
    1LIG   HC27   59  -2.024   0.058  -1.237
    1LIG   HC28   60  -1.816   0.115  -1.357
   0.00000   0.00000   0.00000
