; Created by cgenff_charmm2gmx.py

[ moleculetype ]
; Name			   nrexcl
LIG				 3

[ atoms ]
;	 nr		  type	resnr residue  atom   cgnr	   charge		mass  typeB    chargeB		massB
; residue	 1 LIG rtp LIG q	qsum
     1      SG3O2      1    LIG      S      1      0.113     32.060   ;
     2      OG2P1      1    LIG     O1      2     -0.300     15.999   ;
     3      OG2P1      1    LIG     O2      3     -0.300     15.999   ;
     4      CG321      1    LIG     C1      4      0.180     12.011   ;
     5      CG311      1    LIG     C2      5     -0.145     12.011   ;
     6      CG311      1    LIG     C3      6      0.100     12.011   ;
     7      CG314      1    LIG     C4      7     -0.043     12.011   ;
     8      CG321      1    LIG     C5      8      0.224     12.011   ;
     9      NG3P2      1    LIG      N      9     -0.444     14.007   ;
    10       HGP2      1    LIG     H1     10      0.346      1.008   ;
    11       HGP2      1    LIG     H2     11      0.346      1.008   ;
    12      CG324      1    LIG     C6     12      0.178     12.011   ;
    13     CG2R61      1    LIG     C7     13      0.036     12.011   ;
    14     CG2R61      1    LIG     C8     14     -0.124     12.011   ;
    15     CG2R61      1    LIG     C9     15      0.084     12.011   ;
    16     CG2R61      1    LIG    C10     16     -0.121     12.011   ;
    17     CG2R61      1    LIG    C11     17     -0.108     12.011   ;
    18     CG2R61      1    LIG    C12     18     -0.119     12.011   ;
    19      CG301      1    LIG    C13     19     -0.018     12.011   ;
    20      CG331      1    LIG    C14     20     -0.289     12.011   ;
    21      CG331      1    LIG    C15     21     -0.289     12.011   ;
    22      CG331      1    LIG    C16     22     -0.289     12.011   ;
    23      OG311      1    LIG     O3     23     -0.595     15.999   ;
    24       HGP1      1    LIG     H3     24      0.422      1.008   ;
    25      CG321      1    LIG    C17     25     -0.087     12.011   ;
    26     CG2R61      1    LIG    C18     26     -0.035     12.011   ;
    27     CG2R61      1    LIG    C19     27     -0.123     12.011   ;
    28     CG2R61      1    LIG    C20     28     -0.112     12.011   ;
    29     CG2R61      1    LIG    C21     29     -0.116     12.011   ;
    30     CG2R61      1    LIG    C22     30     -0.112     12.011   ;
    31     CG2R61      1    LIG    C23     31     -0.123     12.011   ;
    32       HGA2      1    LIG    HC2     32      0.090      1.008   ;
    33       HGA2      1    LIG    HC3     33      0.090      1.008   ;
    34       HGA1      1    LIG     HC     34      0.090      1.008   ;
    35       HGA1      1    LIG    HC1     35      0.090      1.008   ;
    36       HGA1      1    LIG    HC4     36      0.109      1.008   ;
    37       HGA2      1    LIG    HC5     37      0.090      1.008   ;
    38       HGA2      1    LIG    HC6     38      0.090      1.008   ;
    39       HGA2      1    LIG    HC7     39      0.090      1.008   ;
    40       HGA2      1    LIG    HC8     40      0.090      1.008   ;
    41      HGR61      1    LIG    HC9     41      0.116      1.008   ;
    42      HGR61      1    LIG   HC10     42      0.116      1.008   ;
    43      HGR61      1    LIG   HC11     43      0.116      1.008   ;
    44      HGR61      1    LIG   HC12     44      0.116      1.008   ;
    45       HGA3      1    LIG   HC13     45      0.090      1.008   ;
    46       HGA3      1    LIG   HC14     46      0.090      1.008   ;
    47       HGA3      1    LIG   HC15     47      0.090      1.008   ;
    48       HGA3      1    LIG   HC16     48      0.090      1.008   ;
    49       HGA3      1    LIG   HC17     49      0.090      1.008   ;
    50       HGA3      1    LIG   HC18     50      0.090      1.008   ;
    51       HGA3      1    LIG   HC19     51      0.090      1.008   ;
    52       HGA3      1    LIG   HC20     52      0.090      1.008   ;
    53       HGA3      1    LIG   HC21     53      0.090      1.008   ;
    54       HGA2      1    LIG   HC22     54      0.090      1.008   ;
    55       HGA2      1    LIG   HC23     55      0.090      1.008   ;
    56      HGR61      1    LIG   HC24     56      0.116      1.008   ;
    57      HGR61      1    LIG   HC25     57      0.116      1.008   ;
    58      HGR61      1    LIG   HC26     58      0.116      1.008   ;
    59      HGR61      1    LIG   HC27     59      0.116      1.008   ;
    60      HGR61      1    LIG   HC28     60      0.116      1.008   ;

[ bonds ]
;	ai	  aj funct			  c0			c1			  c2			c3
    1     8	 1 ;       SG3O2      CG321
    1     2	 1 ;       SG3O2      OG2P1
    1     3	 1 ;       SG3O2      OG2P1
    1     4	 1 ;       SG3O2      CG321
    4     5	 1 ;       CG321      CG311
    4    32	 1 ;       CG321       HGA2
    4    33	 1 ;       CG321       HGA2
    5     6	 1 ;       CG311      CG311
    5    25	 1 ;       CG311      CG321
    5    34	 1 ;       CG311       HGA1
    6     7	 1 ;       CG311      CG314
    6    23	 1 ;       CG311      OG311
    6    35	 1 ;       CG311       HGA1
    7     9	 1 ;       CG314      NG3P2
    7     8	 1 ;       CG314      CG321
    7    36	 1 ;       CG314       HGA1
    8    37	 1 ;       CG321       HGA2
    8    38	 1 ;       CG321       HGA2
    9    11	 1 ;       NG3P2       HGP2
    9    12	 1 ;       NG3P2      CG324
    9    10	 1 ;       NG3P2       HGP2
   12    13	 1 ;       CG324     CG2R61
   12    39	 1 ;       CG324       HGA2
   12    40	 1 ;       CG324       HGA2
   13    14	 1 ;      CG2R61     CG2R61
   13    18	 1 ;      CG2R61     CG2R61
   14    15	 1 ;      CG2R61     CG2R61
   14    41	 1 ;      CG2R61      HGR61
   15    19	 1 ;      CG2R61      CG301
   15    16	 1 ;      CG2R61     CG2R61
   16    17	 1 ;      CG2R61     CG2R61
   16    42	 1 ;      CG2R61      HGR61
   17    18	 1 ;      CG2R61     CG2R61
   17    43	 1 ;      CG2R61      HGR61
   18    44	 1 ;      CG2R61      HGR61
   19    22	 1 ;       CG301      CG331
   19    21	 1 ;       CG301      CG331
   19    20	 1 ;       CG301      CG331
   20    45	 1 ;       CG331       HGA3
   20    46	 1 ;       CG331       HGA3
   20    47	 1 ;       CG331       HGA3
   21    48	 1 ;       CG331       HGA3
   21    49	 1 ;       CG331       HGA3
   21    50	 1 ;       CG331       HGA3
   22    51	 1 ;       CG331       HGA3
   22    52	 1 ;       CG331       HGA3
   22    53	 1 ;       CG331       HGA3
   23    24	 1 ;       OG311       HGP1
   25    26	 1 ;       CG321     CG2R61
   25    54	 1 ;       CG321       HGA2
   25    55	 1 ;       CG321       HGA2
   26    27	 1 ;      CG2R61     CG2R61
   26    31	 1 ;      CG2R61     CG2R61
   27    28	 1 ;      CG2R61     CG2R61
   27    56	 1 ;      CG2R61      HGR61
   28    29	 1 ;      CG2R61     CG2R61
   28    57	 1 ;      CG2R61      HGR61
   29    30	 1 ;      CG2R61     CG2R61
   29    58	 1 ;      CG2R61      HGR61
   30    31	 1 ;      CG2R61     CG2R61
   30    59	 1 ;      CG2R61      HGR61
   31    60	 1 ;      CG2R61      HGR61

[ pairs ]
;	ai	  aj funct			  c0			c1			  c2			c3
    1     6	 1
    1    25	 1
    1    34	 1
    1     9	 1
    1    36	 1
    2     7	 1
    2    37	 1
    2    38	 1
    2     5	 1
    2    32	 1
    2    33	 1
    3     7	 1
    3    37	 1
    3    38	 1
    3     5	 1
    3    32	 1
    3    33	 1
    4     7	 1
    4    37	 1
    4    38	 1
    4    23	 1
    4    35	 1
    4    26	 1
    4    54	 1
    4    55	 1
    5     8	 1
    5     9	 1
    5    36	 1
    5    24	 1
    5    27	 1
    5    31	 1
    6    32	 1
    6    33	 1
    6    26	 1
    6    54	 1
    6    55	 1
    6    11	 1
    6    12	 1
    6    10	 1
    6    37	 1
    6    38	 1
    7    25	 1
    7    34	 1
    7    24	 1
    7    13	 1
    7    39	 1
    7    40	 1
    8    32	 1
    8    33	 1
    8    23	 1
    8    35	 1
    8    11	 1
    8    12	 1
    8    10	 1
    9    23	 1
    9    35	 1
    9    37	 1
    9    38	 1
    9    14	 1
    9    18	 1
   10    36	 1
   10    13	 1
   10    39	 1
   10    40	 1
   11    36	 1
   11    13	 1
   11    39	 1
   11    40	 1
   12    36	 1
   12    15	 1
   12    41	 1
   12    17	 1
   12    44	 1
   13    19	 1
   13    16	 1
   13    43	 1
   14    39	 1
   14    40	 1
   14    17	 1
   14    44	 1
   14    22	 1
   14    21	 1
   14    20	 1
   14    42	 1
   15    18	 1
   15    43	 1
   15    51	 1
   15    52	 1
   15    53	 1
   15    48	 1
   15    49	 1
   15    50	 1
   15    45	 1
   15    46	 1
   15    47	 1
   16    41	 1
   16    22	 1
   16    21	 1
   16    20	 1
   16    44	 1
   17    19	 1
   18    39	 1
   18    40	 1
   18    41	 1
   18    42	 1
   19    41	 1
   19    42	 1
   20    51	 1
   20    52	 1
   20    53	 1
   20    48	 1
   20    49	 1
   20    50	 1
   21    51	 1
   21    52	 1
   21    53	 1
   21    45	 1
   21    46	 1
   21    47	 1
   22    48	 1
   22    49	 1
   22    50	 1
   22    45	 1
   22    46	 1
   22    47	 1
   23    25	 1
   23    34	 1
   23    36	 1
   24    35	 1
   25    32	 1
   25    33	 1
   25    35	 1
   25    28	 1
   25    56	 1
   25    30	 1
   25    60	 1
   26    34	 1
   26    29	 1
   26    57	 1
   26    59	 1
   27    54	 1
   27    55	 1
   27    30	 1
   27    60	 1
   27    58	 1
   28    31	 1
   28    59	 1
   29    56	 1
   29    60	 1
   30    57	 1
   31    54	 1
   31    55	 1
   31    56	 1
   31    58	 1
   32    34	 1
   33    34	 1
   34    35	 1
   34    54	 1
   34    55	 1
   35    36	 1
   36    37	 1
   36    38	 1
   42    43	 1
   43    44	 1
   56    57	 1
   57    58	 1
   58    59	 1
   59    60	 1

[ angles ]
;	ai	  aj	ak funct			c0			  c1			c2			  c3
    8     1     2	5 ;      CG321      SG3O2      OG2P1
    8     1     3	5 ;      CG321      SG3O2      OG2P1
    8     1     4	5 ;      CG321      SG3O2      CG321
    2     1     3	5 ;      OG2P1      SG3O2      OG2P1
    2     1     4	5 ;      OG2P1      SG3O2      CG321
    3     1     4	5 ;      OG2P1      SG3O2      CG321
    1     4     5	5 ;      SG3O2      CG321      CG311
    1     4    32	5 ;      SG3O2      CG321       HGA2
    1     4    33	5 ;      SG3O2      CG321       HGA2
    5     4    32	5 ;      CG311      CG321       HGA2
    5     4    33	5 ;      CG311      CG321       HGA2
   32     4    33	5 ;       HGA2      CG321       HGA2
    6     5    25	5 ;      CG311      CG311      CG321
    6     5     4	5 ;      CG311      CG311      CG321
    6     5    34	5 ;      CG311      CG311       HGA1
   25     5     4	5 ;      CG321      CG311      CG321
   25     5    34	5 ;      CG321      CG311       HGA1
    4     5    34	5 ;      CG321      CG311       HGA1
    7     6    23	5 ;      CG314      CG311      OG311
    7     6     5	5 ;      CG314      CG311      CG311
    7     6    35	5 ;      CG314      CG311       HGA1
   23     6     5	5 ;      OG311      CG311      CG311
   23     6    35	5 ;      OG311      CG311       HGA1
    5     6    35	5 ;      CG311      CG311       HGA1
    9     7     8	5 ;      NG3P2      CG314      CG321
    9     7     6	5 ;      NG3P2      CG314      CG311
    9     7    36	5 ;      NG3P2      CG314       HGA1
    8     7     6	5 ;      CG321      CG314      CG311
    8     7    36	5 ;      CG321      CG314       HGA1
    6     7    36	5 ;      CG311      CG314       HGA1
    7     8     1	5 ;      CG314      CG321      SG3O2
    7     8    37	5 ;      CG314      CG321       HGA2
    7     8    38	5 ;      CG314      CG321       HGA2
    1     8    37	5 ;      SG3O2      CG321       HGA2
    1     8    38	5 ;      SG3O2      CG321       HGA2
   37     8    38	5 ;       HGA2      CG321       HGA2
   11     9    12	5 ;       HGP2      NG3P2      CG324
   11     9    10	5 ;       HGP2      NG3P2       HGP2
   11     9     7	5 ;       HGP2      NG3P2      CG314
   12     9    10	5 ;      CG324      NG3P2       HGP2
   12     9     7	5 ;      CG324      NG3P2      CG314
   10     9     7	5 ;       HGP2      NG3P2      CG314
    9    12    13	5 ;      NG3P2      CG324     CG2R61
    9    12    39	5 ;      NG3P2      CG324       HGA2
    9    12    40	5 ;      NG3P2      CG324       HGA2
   13    12    39	5 ;     CG2R61      CG324       HGA2
   13    12    40	5 ;     CG2R61      CG324       HGA2
   39    12    40	5 ;       HGA2      CG324       HGA2
   12    13    14	5 ;      CG324     CG2R61     CG2R61
   12    13    18	5 ;      CG324     CG2R61     CG2R61
   14    13    18	5 ;     CG2R61     CG2R61     CG2R61
   13    14    15	5 ;     CG2R61     CG2R61     CG2R61
   13    14    41	5 ;     CG2R61     CG2R61      HGR61
   15    14    41	5 ;     CG2R61     CG2R61      HGR61
   14    15    19	5 ;     CG2R61     CG2R61      CG301
   14    15    16	5 ;     CG2R61     CG2R61     CG2R61
   19    15    16	5 ;      CG301     CG2R61     CG2R61
   15    16    17	5 ;     CG2R61     CG2R61     CG2R61
   15    16    42	5 ;     CG2R61     CG2R61      HGR61
   17    16    42	5 ;     CG2R61     CG2R61      HGR61
   18    17    16	5 ;     CG2R61     CG2R61     CG2R61
   18    17    43	5 ;     CG2R61     CG2R61      HGR61
   16    17    43	5 ;     CG2R61     CG2R61      HGR61
   13    18    17	5 ;     CG2R61     CG2R61     CG2R61
   13    18    44	5 ;     CG2R61     CG2R61      HGR61
   17    18    44	5 ;     CG2R61     CG2R61      HGR61
   22    19    15	5 ;      CG331      CG301     CG2R61
   22    19    21	5 ;      CG331      CG301      CG331
   22    19    20	5 ;      CG331      CG301      CG331
   15    19    21	5 ;     CG2R61      CG301      CG331
   15    19    20	5 ;     CG2R61      CG301      CG331
   21    19    20	5 ;      CG331      CG301      CG331
   19    20    45	5 ;      CG301      CG331       HGA3
   19    20    46	5 ;      CG301      CG331       HGA3
   19    20    47	5 ;      CG301      CG331       HGA3
   45    20    46	5 ;       HGA3      CG331       HGA3
   45    20    47	5 ;       HGA3      CG331       HGA3
   46    20    47	5 ;       HGA3      CG331       HGA3
   19    21    48	5 ;      CG301      CG331       HGA3
   19    21    49	5 ;      CG301      CG331       HGA3
   19    21    50	5 ;      CG301      CG331       HGA3
   48    21    49	5 ;       HGA3      CG331       HGA3
   48    21    50	5 ;       HGA3      CG331       HGA3
   49    21    50	5 ;       HGA3      CG331       HGA3
   19    22    51	5 ;      CG301      CG331       HGA3
   19    22    52	5 ;      CG301      CG331       HGA3
   19    22    53	5 ;      CG301      CG331       HGA3
   51    22    52	5 ;       HGA3      CG331       HGA3
   51    22    53	5 ;       HGA3      CG331       HGA3
   52    22    53	5 ;       HGA3      CG331       HGA3
    6    23    24	5 ;      CG311      OG311       HGP1
    5    25    26	5 ;      CG311      CG321     CG2R61
    5    25    54	5 ;      CG311      CG321       HGA2
    5    25    55	5 ;      CG311      CG321       HGA2
   26    25    54	5 ;     CG2R61      CG321       HGA2
   26    25    55	5 ;     CG2R61      CG321       HGA2
   54    25    55	5 ;       HGA2      CG321       HGA2
   25    26    27	5 ;      CG321     CG2R61     CG2R61
   25    26    31	5 ;      CG321     CG2R61     CG2R61
   27    26    31	5 ;     CG2R61     CG2R61     CG2R61
   26    27    28	5 ;     CG2R61     CG2R61     CG2R61
   26    27    56	5 ;     CG2R61     CG2R61      HGR61
   28    27    56	5 ;     CG2R61     CG2R61      HGR61
   27    28    29	5 ;     CG2R61     CG2R61     CG2R61
   27    28    57	5 ;     CG2R61     CG2R61      HGR61
   29    28    57	5 ;     CG2R61     CG2R61      HGR61
   28    29    30	5 ;     CG2R61     CG2R61     CG2R61
   28    29    58	5 ;     CG2R61     CG2R61      HGR61
   30    29    58	5 ;     CG2R61     CG2R61      HGR61
   31    30    29	5 ;     CG2R61     CG2R61     CG2R61
   31    30    59	5 ;     CG2R61     CG2R61      HGR61
   29    30    59	5 ;     CG2R61     CG2R61      HGR61
   26    31    30	5 ;     CG2R61     CG2R61     CG2R61
   26    31    60	5 ;     CG2R61     CG2R61      HGR61
   30    31    60	5 ;     CG2R61     CG2R61      HGR61

[ dihedrals ]
;	ai	  aj	ak	  al funct			  c0			c1			  c2			c3			  c4			c5
    2     1     8     7	 9 ;      OG2P1      SG3O2      CG321      CG314
    2     1     8    37	 9 ;      OG2P1      SG3O2      CG321       HGA2
    2     1     8    38	 9 ;      OG2P1      SG3O2      CG321       HGA2
    3     1     8     7	 9 ;      OG2P1      SG3O2      CG321      CG314
    3     1     8    37	 9 ;      OG2P1      SG3O2      CG321       HGA2
    3     1     8    38	 9 ;      OG2P1      SG3O2      CG321       HGA2
    4     1     8     7	 9 ;      CG321      SG3O2      CG321      CG314
    4     1     8    37	 9 ;      CG321      SG3O2      CG321       HGA2
    4     1     8    38	 9 ;      CG321      SG3O2      CG321       HGA2
    8     1     4     5	 9 ;      CG321      SG3O2      CG321      CG311
    8     1     4    32	 9 ;      CG321      SG3O2      CG321       HGA2
    8     1     4    33	 9 ;      CG321      SG3O2      CG321       HGA2
    2     1     4     5	 9 ;      OG2P1      SG3O2      CG321      CG311
    2     1     4    32	 9 ;      OG2P1      SG3O2      CG321       HGA2
    2     1     4    33	 9 ;      OG2P1      SG3O2      CG321       HGA2
    3     1     4     5	 9 ;      OG2P1      SG3O2      CG321      CG311
    3     1     4    32	 9 ;      OG2P1      SG3O2      CG321       HGA2
    3     1     4    33	 9 ;      OG2P1      SG3O2      CG321       HGA2
    1     4     5     6	 9 ;      SG3O2      CG321      CG311      CG311
    1     4     5    25	 9 ;      SG3O2      CG321      CG311      CG321
    1     4     5    34	 9 ;      SG3O2      CG321      CG311       HGA1
   32     4     5     6	 9 ;       HGA2      CG321      CG311      CG311
   32     4     5    25	 9 ;       HGA2      CG321      CG311      CG321
   32     4     5    34	 9 ;       HGA2      CG321      CG311       HGA1
   33     4     5     6	 9 ;       HGA2      CG321      CG311      CG311
   33     4     5    25	 9 ;       HGA2      CG321      CG311      CG321
   33     4     5    34	 9 ;       HGA2      CG321      CG311       HGA1
   25     5     6     7	 9 ;      CG321      CG311      CG311      CG314
   25     5     6    23	 9 ;      CG321      CG311      CG311      OG311
   25     5     6    35	 9 ;      CG321      CG311      CG311       HGA1
    4     5     6     7	 9 ;      CG321      CG311      CG311      CG314
    4     5     6    23	 9 ;      CG321      CG311      CG311      OG311
    4     5     6    35	 9 ;      CG321      CG311      CG311       HGA1
   34     5     6     7	 9 ;       HGA1      CG311      CG311      CG314
   34     5     6    23	 9 ;       HGA1      CG311      CG311      OG311
   34     5     6    35	 9 ;       HGA1      CG311      CG311       HGA1
    6     5    25    26	 9 ;      CG311      CG311      CG321     CG2R61
    6     5    25    54	 9 ;      CG311      CG311      CG321       HGA2
    6     5    25    55	 9 ;      CG311      CG311      CG321       HGA2
    4     5    25    26	 9 ;      CG321      CG311      CG321     CG2R61
    4     5    25    54	 9 ;      CG321      CG311      CG321       HGA2
    4     5    25    55	 9 ;      CG321      CG311      CG321       HGA2
   34     5    25    26	 9 ;       HGA1      CG311      CG321     CG2R61
   34     5    25    54	 9 ;       HGA1      CG311      CG321       HGA2
   34     5    25    55	 9 ;       HGA1      CG311      CG321       HGA2
   23     6     7     9	 9 ;      OG311      CG311      CG314      NG3P2
   23     6     7     8	 9 ;      OG311      CG311      CG314      CG321
   23     6     7    36	 9 ;      OG311      CG311      CG314       HGA1
    5     6     7     9	 9 ;      CG311      CG311      CG314      NG3P2
    5     6     7     8	 9 ;      CG311      CG311      CG314      CG321
    5     6     7    36	 9 ;      CG311      CG311      CG314       HGA1
   35     6     7     9	 9 ;       HGA1      CG311      CG314      NG3P2
   35     6     7     8	 9 ;       HGA1      CG311      CG314      CG321
   35     6     7    36	 9 ;       HGA1      CG311      CG314       HGA1
    7     6    23    24	 9 ;      CG314      CG311      OG311       HGP1
    5     6    23    24	 9 ;      CG311      CG311      OG311       HGP1
   35     6    23    24	 9 ;       HGA1      CG311      OG311       HGP1
    8     7     9    11	 9 ;      CG321      CG314      NG3P2       HGP2
    8     7     9    12	 9 ;      CG321      CG314      NG3P2      CG324
    8     7     9    10	 9 ;      CG321      CG314      NG3P2       HGP2
    6     7     9    11	 9 ;      CG311      CG314      NG3P2       HGP2
    6     7     9    12	 9 ;      CG311      CG314      NG3P2      CG324
    6     7     9    10	 9 ;      CG311      CG314      NG3P2       HGP2
   36     7     9    11	 9 ;       HGA1      CG314      NG3P2       HGP2
   36     7     9    12	 9 ;       HGA1      CG314      NG3P2      CG324
   36     7     9    10	 9 ;       HGA1      CG314      NG3P2       HGP2
    9     7     8     1	 9 ;      NG3P2      CG314      CG321      SG3O2
    9     7     8    37	 9 ;      NG3P2      CG314      CG321       HGA2
    9     7     8    38	 9 ;      NG3P2      CG314      CG321       HGA2
    6     7     8     1	 9 ;      CG311      CG314      CG321      SG3O2
    6     7     8    37	 9 ;      CG311      CG314      CG321       HGA2
    6     7     8    38	 9 ;      CG311      CG314      CG321       HGA2
   36     7     8     1	 9 ;       HGA1      CG314      CG321      SG3O2
   36     7     8    37	 9 ;       HGA1      CG314      CG321       HGA2
   36     7     8    38	 9 ;       HGA1      CG314      CG321       HGA2
   11     9    12    13	 9 ;       HGP2      NG3P2      CG324     CG2R61
   11     9    12    39	 9 ;       HGP2      NG3P2      CG324       HGA2
   11     9    12    40	 9 ;       HGP2      NG3P2      CG324       HGA2
   10     9    12    13	 9 ;       HGP2      NG3P2      CG324     CG2R61
   10     9    12    39	 9 ;       HGP2      NG3P2      CG324       HGA2
   10     9    12    40	 9 ;       HGP2      NG3P2      CG324       HGA2
    7     9    12    13	 9 ;      CG314      NG3P2      CG324     CG2R61
    7     9    12    39	 9 ;      CG314      NG3P2      CG324       HGA2
    7     9    12    40	 9 ;      CG314      NG3P2      CG324       HGA2
    9    12    13    14	 9 ;      NG3P2      CG324     CG2R61     CG2R61
    9    12    13    18	 9 ;      NG3P2      CG324     CG2R61     CG2R61
   39    12    13    14	 9 ;       HGA2      CG324     CG2R61     CG2R61
   39    12    13    18	 9 ;       HGA2      CG324     CG2R61     CG2R61
   40    12    13    14	 9 ;       HGA2      CG324     CG2R61     CG2R61
   40    12    13    18	 9 ;       HGA2      CG324     CG2R61     CG2R61
   12    13    14    15	 9 ;      CG324     CG2R61     CG2R61     CG2R61
   12    13    14    41	 9 ;      CG324     CG2R61     CG2R61      HGR61
   18    13    14    15	 9 ;     CG2R61     CG2R61     CG2R61     CG2R61
   18    13    14    41	 9 ;     CG2R61     CG2R61     CG2R61      HGR61
   12    13    18    17	 9 ;      CG324     CG2R61     CG2R61     CG2R61
   12    13    18    44	 9 ;      CG324     CG2R61     CG2R61      HGR61
   14    13    18    17	 9 ;     CG2R61     CG2R61     CG2R61     CG2R61
   14    13    18    44	 9 ;     CG2R61     CG2R61     CG2R61      HGR61
   13    14    15    19	 9 ;     CG2R61     CG2R61     CG2R61      CG301
   13    14    15    16	 9 ;     CG2R61     CG2R61     CG2R61     CG2R61
   41    14    15    19	 9 ;      HGR61     CG2R61     CG2R61      CG301
   41    14    15    16	 9 ;      HGR61     CG2R61     CG2R61     CG2R61
   14    15    19    22	 9 ;     CG2R61     CG2R61      CG301      CG331
   14    15    19    21	 9 ;     CG2R61     CG2R61      CG301      CG331
   14    15    19    20	 9 ;     CG2R61     CG2R61      CG301      CG331
   16    15    19    22	 9 ;     CG2R61     CG2R61      CG301      CG331
   16    15    19    21	 9 ;     CG2R61     CG2R61      CG301      CG331
   16    15    19    20	 9 ;     CG2R61     CG2R61      CG301      CG331
   14    15    16    17	 9 ;     CG2R61     CG2R61     CG2R61     CG2R61
   14    15    16    42	 9 ;     CG2R61     CG2R61     CG2R61      HGR61
   19    15    16    17	 9 ;      CG301     CG2R61     CG2R61     CG2R61
   19    15    16    42	 9 ;      CG301     CG2R61     CG2R61      HGR61
   15    16    17    18	 9 ;     CG2R61     CG2R61     CG2R61     CG2R61
   15    16    17    43	 9 ;     CG2R61     CG2R61     CG2R61      HGR61
   42    16    17    18	 9 ;      HGR61     CG2R61     CG2R61     CG2R61
   42    16    17    43	 9 ;      HGR61     CG2R61     CG2R61      HGR61
   16    17    18    13	 9 ;     CG2R61     CG2R61     CG2R61     CG2R61
   16    17    18    44	 9 ;     CG2R61     CG2R61     CG2R61      HGR61
   43    17    18    13	 9 ;      HGR61     CG2R61     CG2R61     CG2R61
   43    17    18    44	 9 ;      HGR61     CG2R61     CG2R61      HGR61
   15    19    22    51	 9 ;     CG2R61      CG301      CG331       HGA3
   15    19    22    52	 9 ;     CG2R61      CG301      CG331       HGA3
   15    19    22    53	 9 ;     CG2R61      CG301      CG331       HGA3
   21    19    22    51	 9 ;      CG331      CG301      CG331       HGA3
   21    19    22    52	 9 ;      CG331      CG301      CG331       HGA3
   21    19    22    53	 9 ;      CG331      CG301      CG331       HGA3
   20    19    22    51	 9 ;      CG331      CG301      CG331       HGA3
   20    19    22    52	 9 ;      CG331      CG301      CG331       HGA3
   20    19    22    53	 9 ;      CG331      CG301      CG331       HGA3
   22    19    21    48	 9 ;      CG331      CG301      CG331       HGA3
   22    19    21    49	 9 ;      CG331      CG301      CG331       HGA3
   22    19    21    50	 9 ;      CG331      CG301      CG331       HGA3
   15    19    21    48	 9 ;     CG2R61      CG301      CG331       HGA3
   15    19    21    49	 9 ;     CG2R61      CG301      CG331       HGA3
   15    19    21    50	 9 ;     CG2R61      CG301      CG331       HGA3
   20    19    21    48	 9 ;      CG331      CG301      CG331       HGA3
   20    19    21    49	 9 ;      CG331      CG301      CG331       HGA3
   20    19    21    50	 9 ;      CG331      CG301      CG331       HGA3
   22    19    20    45	 9 ;      CG331      CG301      CG331       HGA3
   22    19    20    46	 9 ;      CG331      CG301      CG331       HGA3
   22    19    20    47	 9 ;      CG331      CG301      CG331       HGA3
   15    19    20    45	 9 ;     CG2R61      CG301      CG331       HGA3
   15    19    20    46	 9 ;     CG2R61      CG301      CG331       HGA3
   15    19    20    47	 9 ;     CG2R61      CG301      CG331       HGA3
   21    19    20    45	 9 ;      CG331      CG301      CG331       HGA3
   21    19    20    46	 9 ;      CG331      CG301      CG331       HGA3
   21    19    20    47	 9 ;      CG331      CG301      CG331       HGA3
    5    25    26    27	 9 ;      CG311      CG321     CG2R61     CG2R61
    5    25    26    31	 9 ;      CG311      CG321     CG2R61     CG2R61
   54    25    26    27	 9 ;       HGA2      CG321     CG2R61     CG2R61
   54    25    26    31	 9 ;       HGA2      CG321     CG2R61     CG2R61
   55    25    26    27	 9 ;       HGA2      CG321     CG2R61     CG2R61
   55    25    26    31	 9 ;       HGA2      CG321     CG2R61     CG2R61
   25    26    27    28	 9 ;      CG321     CG2R61     CG2R61     CG2R61
   25    26    27    56	 9 ;      CG321     CG2R61     CG2R61      HGR61
   31    26    27    28	 9 ;     CG2R61     CG2R61     CG2R61     CG2R61
   31    26    27    56	 9 ;     CG2R61     CG2R61     CG2R61      HGR61
   25    26    31    30	 9 ;      CG321     CG2R61     CG2R61     CG2R61
   25    26    31    60	 9 ;      CG321     CG2R61     CG2R61      HGR61
   27    26    31    30	 9 ;     CG2R61     CG2R61     CG2R61     CG2R61
   27    26    31    60	 9 ;     CG2R61     CG2R61     CG2R61      HGR61
   26    27    28    29	 9 ;     CG2R61     CG2R61     CG2R61     CG2R61
   26    27    28    57	 9 ;     CG2R61     CG2R61     CG2R61      HGR61
   56    27    28    29	 9 ;      HGR61     CG2R61     CG2R61     CG2R61
   56    27    28    57	 9 ;      HGR61     CG2R61     CG2R61      HGR61
   27    28    29    30	 9 ;     CG2R61     CG2R61     CG2R61     CG2R61
   27    28    29    58	 9 ;     CG2R61     CG2R61     CG2R61      HGR61
   57    28    29    30	 9 ;      HGR61     CG2R61     CG2R61     CG2R61
   57    28    29    58	 9 ;      HGR61     CG2R61     CG2R61      HGR61
   28    29    30    31	 9 ;     CG2R61     CG2R61     CG2R61     CG2R61
   28    29    30    59	 9 ;     CG2R61     CG2R61     CG2R61      HGR61
   58    29    30    31	 9 ;      HGR61     CG2R61     CG2R61     CG2R61
   58    29    30    59	 9 ;      HGR61     CG2R61     CG2R61      HGR61
   29    30    31    26	 9 ;     CG2R61     CG2R61     CG2R61     CG2R61
   29    30    31    60	 9 ;     CG2R61     CG2R61     CG2R61      HGR61
   59    30    31    26	 9 ;      HGR61     CG2R61     CG2R61     CG2R61
   59    30    31    60	 9 ;      HGR61     CG2R61     CG2R61      HGR61

