GROningen MAchine for Chemical Simulation
   26
    1LIG     O2    1   8.190   0.016   8.857
    1LIG     C1    2   8.428   0.007   8.877
    1LIG     C2    3   8.300   0.006   8.805
    1LIG     O3    4   8.682   0.022   8.983
    1LIG     C3    5   8.604   0.110   9.189
    1LIG     C4    6   8.493   0.150   9.266
    1LIG     C5    7   8.732   0.108   9.246
    1LIG     C6    8   8.512   0.186   9.400
    1LIG     C7    9   8.750   0.145   9.379
    1LIG     C8   10   8.640   0.184   9.455
    1LIG     C9   11   8.451   0.081   8.988
    1LIG    C10   12   8.359   0.177   9.057
    1LIG    C11   13   8.587   0.067   9.047
    1LIG    C12   14   8.355   0.150   9.207
    1LIG     O1   15   8.663   0.219   9.585
    1LIG     H1   16   8.577   0.234   9.629
    1LIG     O4   17   8.319  -0.010   8.672
    1LIG    H10   18   8.237  -0.025   8.621
    1LIG     H2   19   8.505  -0.052   8.842
    1LIG     H3   20   8.813   0.079   9.189
    1LIG     H4   21   8.432   0.214   9.458
    1LIG     H5   22   8.844   0.144   9.421
    1LIG     H6   23   8.260   0.167   9.016
    1LIG     H7   24   8.395   0.276   9.041
    1LIG     H8   25   8.310   0.054   9.224
    1LIG     H9   26   8.297   0.227   9.254
   0.00000   0.00000   0.00000
