Giant Rising Ordinary Mutants for A Clerical Setup
   73
    1LIG     N1    1  -1.716   0.521  -1.516
    1LIG     H1    2  -1.659   0.599  -1.485
    1LIG     H2    3  -1.800   0.525  -1.456
    1LIG     C1    4  -1.769   0.557  -1.656
    1LIG     C2    5  -1.716   0.695  -1.716
    1LIG     C3    6  -1.603   0.777  -1.642
    1LIG     C4    7  -1.478   0.803  -1.729
    1LIG     C5    8  -1.345   0.758  -1.673
    1LIG     C6    9  -1.236   0.744  -1.759
    1LIG     C7   10  -1.110   0.709  -1.709
    1LIG     F1   11  -1.010   0.692  -1.797
    1LIG     C8   12  -1.088   0.693  -1.574
    1LIG     C9   13  -1.195   0.713  -1.488
    1LIG    C10   14  -1.323   0.745  -1.535
    1LIG     F2   15  -1.176   0.703  -1.355
    1LIG     N2   16  -1.656   0.901  -1.579
    1LIG    C11   17  -1.728   0.892  -1.460
    1LIG     O1   18  -1.732   0.792  -1.389
    1LIG    C12   19  -1.803   1.018  -1.425
    1LIG     H3   20  -1.697   0.967  -1.644
    1LIG     O2   21  -1.664   0.665  -1.847
    1LIG     H4   22  -1.658   0.748  -1.899
    1LIG    C13   23  -1.647   0.382  -1.483
    1LIG    C14   24  -1.722   0.272  -1.565
    1LIG    C15   25  -1.865   0.242  -1.522
    1LIG     N3   26  -1.874   0.220  -1.375
    1LIG    C16   27  -1.812   0.324  -1.291
    1LIG     H5   28  -1.836   0.126  -1.352
    1LIG     H6   29  -1.974   0.210  -1.349
    1LIG    C17   30  -1.668   0.346  -1.333
    1LIG    C18   31  -1.496   0.379  -1.525
    1LIG    C19   32  -1.390   0.365  -1.431
    1LIG    C20   33  -1.254   0.351  -1.469
    1LIG    C21   34  -1.224   0.359  -1.606
    1LIG    C22   35  -1.324   0.384  -1.699
    1LIG    C23   36  -1.457   0.395  -1.660
    1LIG    C24   37  -1.139   0.315  -1.371
    1LIG    C25   38  -0.998   0.334  -1.430
    1LIG    C26   39  -1.153   0.411  -1.250
    1LIG    C27   40  -1.146   0.170  -1.316
    1LIG    HC2   41  -1.877   0.562  -1.652
    1LIG    HC3   42  -1.740   0.477  -1.725
    1LIG     HC   43  -1.802   0.760  -1.728
    1LIG    HC1   44  -1.569   0.714  -1.560
    1LIG    HC4   45  -1.472   0.911  -1.747
    1LIG    HC5   46  -1.493   0.754  -1.826
    1LIG    HC6   47  -1.249   0.761  -1.865
    1LIG    HC7   48  -0.991   0.665  -1.536
    1LIG    HC8   49  -1.404   0.761  -1.466
    1LIG    HC9   50  -1.857   1.003  -1.332
    1LIG   HC10   51  -1.732   1.100  -1.414
    1LIG   HC11   52  -1.874   1.041  -1.505
    1LIG   HC12   53  -1.725   0.304  -1.669
    1LIG   HC13   54  -1.665   0.179  -1.560
    1LIG   HC14   55  -1.901   0.153  -1.574
    1LIG   HC15   56  -1.929   0.326  -1.548
    1LIG   HC16   57  -1.815   0.293  -1.186
    1LIG   HC17   58  -1.867   0.418  -1.303
    1LIG   HC18   59  -1.627   0.427  -1.273
    1LIG   HC19   60  -1.612   0.255  -1.311
    1LIG   HC20   61  -1.415   0.363  -1.326
    1LIG   HC21   62  -1.123   0.344  -1.640
    1LIG   HC22   63  -1.298   0.397  -1.804
    1LIG   HC23   64  -1.533   0.415  -1.734
    1LIG   HC24   65  -0.988   0.435  -1.470
    1LIG   HC25   66  -0.924   0.318  -1.352
    1LIG   HC26   67  -0.983   0.262  -1.510
    1LIG   HC27   68  -1.149   0.514  -1.284
    1LIG   HC28   69  -1.072   0.393  -1.180
    1LIG   HC29   70  -1.249   0.393  -1.200
    1LIG   HC30   71  -1.244   0.152  -1.273
    1LIG   HC31   72  -1.069   0.156  -1.240
    1LIG   HC32   73  -1.129   0.100  -1.398
   0.00000   0.00000   0.00000
