; Created by cgenff_charmm2gmx.py

[ moleculetype ]
; Name			   nrexcl
LIG				 3

[ atoms ]
;	 nr		  type	resnr residue  atom   cgnr	   charge		mass  typeB    chargeB		massB
; residue	 1 LIG rtp LIG q	qsum
     1      NG311      1    LIG     N1      1     -0.806     14.007   ;
     2     HGPAM1      1    LIG      H      2      0.362      1.008   ;
     3      CG311      1    LIG     C1      3      0.346     12.011   ;
     4      NG311      1    LIG     N2      4     -0.864     14.007   ;
     5      CG301      1    LIG     C2      5      0.375     12.011   ;
     6     HGPAM1      1    LIG     HN      6      0.350      1.008   ;
     7      CG321      1    LIG     C3      7     -0.230     12.011   ;
     8      CG331      1    LIG     C4      8     -0.295     12.011   ;
     9      CG331      1    LIG     C5      9     -0.295     12.011   ;
    10     CG2R61      1    LIG     C6     10      0.075     12.011   ;
    11     CG2R61      1    LIG     C7     11     -0.121     12.011   ;
    12     CG2R61      1    LIG     C8     12     -0.052     12.011   ;
    13     CG2R61      1    LIG     C9     13      0.048     12.011   ;
    14      CLGR1      1    LIG     CL     14     -0.200     35.453   ;
    15     CG2R61      1    LIG    C10     15     -0.099     12.011   ;
    16     CG2R61      1    LIG    C11     16     -0.108     12.011   ;
    17      CG311      1    LIG     CA     17     -0.001     12.011   ;
    18      CG2O3      1    LIG    C12     18      0.898     12.011   ;
    19      OG2D2      1    LIG      O     19     -0.832     15.999   ;
    20      OG2D2      1    LIG    OXT     20     -0.832     15.999   ;
    21      CG321      1    LIG    C13     21     -0.207     12.011   ;
    22     CG2R51      1    LIG    C14     22      0.010     12.011   ;
    23     CG2R51      1    LIG    C15     23     -0.173     12.011   ;
    24     SG2R50      1    LIG      S     24     -0.168     32.060   ;
    25     CG2R51      1    LIG    C16     25     -0.172     12.011   ;
    26     CG2R51      1    LIG    C17     26      0.049     12.011   ;
    27      CG321      1    LIG    C18     27     -0.213     12.011   ;
    28      CG321      1    LIG    C19     28     -0.148     12.011   ;
    29     CG3C31      1    LIG    C20     29     -0.036     12.011   ;
    30     CG3C31      1    LIG    C21     30     -0.201     12.011   ;
    31     CG3C31      1    LIG    C22     31     -0.201     12.011   ;
    32       HGA2      1    LIG    HC2     32      0.090      1.008   ;
    33       HGA2      1    LIG    HC3     33      0.090      1.008   ;
    34       HGA3      1    LIG    HC1     34      0.090      1.008   ;
    35       HGA3      1    LIG    HC4     35      0.090      1.008   ;
    36       HGA3      1    LIG    HC5     36      0.090      1.008   ;
    37       HGA3      1    LIG    HC6     37      0.090      1.008   ;
    38       HGA3      1    LIG    HC7     38      0.090      1.008   ;
    39       HGA3      1    LIG    HC8     39      0.090      1.008   ;
    40      HGR62      1    LIG     HC     40      0.145      1.008   ;
    41      HGR62      1    LIG    HC9     41      0.150      1.008   ;
    42      HGR61      1    LIG   HC10     42      0.116      1.008   ;
    43       HGA1      1    LIG   HC11     43      0.090      1.008   ;
    44       HGA2      1    LIG   HC12     44      0.090      1.008   ;
    45       HGA2      1    LIG   HC13     45      0.090      1.008   ;
    46      HGR52      1    LIG   HC14     46      0.195      1.008   ;
    47      HGR52      1    LIG   HC15     47      0.195      1.008   ;
    48       HGA2      1    LIG   HC16     48      0.090      1.008   ;
    49       HGA2      1    LIG   HC17     49      0.090      1.008   ;
    50       HGA2      1    LIG   HC18     50      0.090      1.008   ;
    51       HGA2      1    LIG   HC19     51      0.090      1.008   ;
    52       HGA1      1    LIG   HC20     52      0.090      1.008   ;
    53       HGA2      1    LIG   HC21     53      0.090      1.008   ;
    54       HGA2      1    LIG   HC22     54      0.090      1.008   ;
    55       HGA2      1    LIG   HC23     55      0.090      1.008   ;
    56       HGA2      1    LIG   HC24     56      0.090      1.008   ;
    57       HGA1      1    LIG    H28     57      0.090      1.008   ;
    58        LPH      1    LIG    LP1     58      0.050      0.000   ;

[ bonds ]
;	ai	  aj funct			  c0			c1			  c2			c3
    1    17	 1 ;       NG311      CG311
    1     2	 1 ;       NG311     HGPAM1
    1     3	 1 ;       NG311      CG311
    3     4	 1 ;       CG311      NG311
    3    12	 1 ;       CG311     CG2R61
    3    57	 1 ;       CG311       HGA1
    4     6	 1 ;       NG311     HGPAM1
    4     5	 1 ;       NG311      CG301
    5     8	 1 ;       CG301      CG331
    5     7	 1 ;       CG301      CG321
    5     9	 1 ;       CG301      CG331
    7    10	 1 ;       CG321     CG2R61
    7    32	 1 ;       CG321       HGA2
    7    33	 1 ;       CG321       HGA2
    8    34	 1 ;       CG331       HGA3
    8    35	 1 ;       CG331       HGA3
    8    36	 1 ;       CG331       HGA3
    9    37	 1 ;       CG331       HGA3
    9    38	 1 ;       CG331       HGA3
    9    39	 1 ;       CG331       HGA3
   10    12	 1 ;      CG2R61     CG2R61
   10    11	 1 ;      CG2R61     CG2R61
   11    13	 1 ;      CG2R61     CG2R61
   11    40	 1 ;      CG2R61      HGR62
   12    16	 1 ;      CG2R61     CG2R61
   13    15	 1 ;      CG2R61     CG2R61
   13    14	 1 ;      CG2R61      CLGR1
   15    16	 1 ;      CG2R61     CG2R61
   15    41	 1 ;      CG2R61      HGR62
   16    42	 1 ;      CG2R61      HGR61
   17    18	 1 ;       CG311      CG2O3
   17    21	 1 ;       CG311      CG321
   17    43	 1 ;       CG311       HGA1
   18    19	 1 ;       CG2O3      OG2D2
   18    20	 1 ;       CG2O3      OG2D2
   21    22	 1 ;       CG321     CG2R51
   21    44	 1 ;       CG321       HGA2
   21    45	 1 ;       CG321       HGA2
   22    23	 1 ;      CG2R51     CG2R51
   22    26	 1 ;      CG2R51     CG2R51
   23    24	 1 ;      CG2R51     SG2R50
   23    46	 1 ;      CG2R51      HGR52
   24    25	 1 ;      SG2R50     CG2R51
   25    26	 1 ;      CG2R51     CG2R51
   25    47	 1 ;      CG2R51      HGR52
   26    27	 1 ;      CG2R51      CG321
   27    28	 1 ;       CG321      CG321
   27    48	 1 ;       CG321       HGA2
   27    49	 1 ;       CG321       HGA2
   28    29	 1 ;       CG321     CG3C31
   28    50	 1 ;       CG321       HGA2
   28    51	 1 ;       CG321       HGA2
   29    30	 1 ;      CG3C31     CG3C31
   29    31	 1 ;      CG3C31     CG3C31
   29    52	 1 ;      CG3C31       HGA1
   30    31	 1 ;      CG3C31     CG3C31
   30    53	 1 ;      CG3C31       HGA2
   30    54	 1 ;      CG3C31       HGA2
   31    55	 1 ;      CG3C31       HGA2
   31    56	 1 ;      CG3C31       HGA2

[ pairs ]
;	ai	  aj funct			  c0			c1			  c2			c3
    1     6	 1
    1     5	 1
    1    16	 1
    1    10	 1
    1    19	 1
    1    20	 1
    1    22	 1
    1    44	 1
    1    45	 1
    2    18	 1
    2    21	 1
    2    43	 1
    2     4	 1
    2    12	 1
    2    57	 1
    3    18	 1
    3    21	 1
    3    43	 1
    3     8	 1
    3     7	 1
    3     9	 1
    3    11	 1
    3    15	 1
    3    42	 1
    4    17	 1
    4    16	 1
    4    10	 1
    4    34	 1
    4    35	 1
    4    36	 1
    4    32	 1
    4    33	 1
    4    37	 1
    4    38	 1
    4    39	 1
    5    12	 1
    5    57	 1
    5    11	 1
    6    12	 1
    6    57	 1
    6     8	 1
    6     7	 1
    6     9	 1
    7    34	 1
    7    35	 1
    7    36	 1
    7    37	 1
    7    38	 1
    7    39	 1
    7    16	 1
    7    13	 1
    7    40	 1
    8    10	 1
    8    32	 1
    8    33	 1
    8    37	 1
    8    38	 1
    8    39	 1
    9    34	 1
    9    35	 1
    9    36	 1
    9    10	 1
    9    32	 1
    9    33	 1
   10    57	 1
   10    15	 1
   10    14	 1
   58    10	 1
   10    42	 1
   11    32	 1
   11    33	 1
   11    16	 1
   11    41	 1
   12    17	 1
   12    32	 1
   12    33	 1
   12    13	 1
   12    40	 1
   12    41	 1
   13    42	 1
   14    40	 1
   58    40	 1
   14    16	 1
   58    16	 1
   14    41	 1
   58    41	 1
   15    40	 1
   16    57	 1
   17    57	 1
   17    23	 1
   17    26	 1
   18    22	 1
   18    44	 1
   18    45	 1
   19    21	 1
   19    43	 1
   20    21	 1
   20    43	 1
   21    24	 1
   21    46	 1
   21    25	 1
   21    27	 1
   22    43	 1
   22    47	 1
   22    28	 1
   22    48	 1
   22    49	 1
   23    44	 1
   23    45	 1
   23    27	 1
   23    47	 1
   24    27	 1
   25    46	 1
   25    28	 1
   25    48	 1
   25    49	 1
   26    44	 1
   26    45	 1
   26    46	 1
   26    29	 1
   26    50	 1
   26    51	 1
   27    47	 1
   27    30	 1
   27    31	 1
   27    52	 1
   28    53	 1
   28    54	 1
   28    55	 1
   28    56	 1
   29    48	 1
   29    49	 1
   30    50	 1
   30    51	 1
   31    50	 1
   31    51	 1
   41    42	 1
   43    44	 1
   43    45	 1
   48    50	 1
   48    51	 1
   49    50	 1
   49    51	 1
   50    52	 1
   51    52	 1
   52    53	 1
   52    54	 1
   52    55	 1
   52    56	 1
   53    55	 1
   53    56	 1
   54    55	 1
   54    56	 1

[ angles ]
;	ai	  aj	ak funct			c0			  c1			c2			  c3
   17     1     2	5 ;      CG311      NG311     HGPAM1
   17     1     3	5 ;      CG311      NG311      CG311
    2     1     3	5 ;     HGPAM1      NG311      CG311
    1     3     4	5 ;      NG311      CG311      NG311
    1     3    12	5 ;      NG311      CG311     CG2R61
    1     3    57	5 ;      NG311      CG311       HGA1
    4     3    12	5 ;      NG311      CG311     CG2R61
    4     3    57	5 ;      NG311      CG311       HGA1
   12     3    57	5 ;     CG2R61      CG311       HGA1
    6     4     3	5 ;     HGPAM1      NG311      CG311
    6     4     5	5 ;     HGPAM1      NG311      CG301
    3     4     5	5 ;      CG311      NG311      CG301
    4     5     8	5 ;      NG311      CG301      CG331
    4     5     7	5 ;      NG311      CG301      CG321
    4     5     9	5 ;      NG311      CG301      CG331
    8     5     7	5 ;      CG331      CG301      CG321
    8     5     9	5 ;      CG331      CG301      CG331
    7     5     9	5 ;      CG321      CG301      CG331
    5     7    10	5 ;      CG301      CG321     CG2R61
    5     7    32	5 ;      CG301      CG321       HGA2
    5     7    33	5 ;      CG301      CG321       HGA2
   10     7    32	5 ;     CG2R61      CG321       HGA2
   10     7    33	5 ;     CG2R61      CG321       HGA2
   32     7    33	5 ;       HGA2      CG321       HGA2
    5     8    34	5 ;      CG301      CG331       HGA3
    5     8    35	5 ;      CG301      CG331       HGA3
    5     8    36	5 ;      CG301      CG331       HGA3
   34     8    35	5 ;       HGA3      CG331       HGA3
   34     8    36	5 ;       HGA3      CG331       HGA3
   35     8    36	5 ;       HGA3      CG331       HGA3
    5     9    37	5 ;      CG301      CG331       HGA3
    5     9    38	5 ;      CG301      CG331       HGA3
    5     9    39	5 ;      CG301      CG331       HGA3
   37     9    38	5 ;       HGA3      CG331       HGA3
   37     9    39	5 ;       HGA3      CG331       HGA3
   38     9    39	5 ;       HGA3      CG331       HGA3
   12    10     7	5 ;     CG2R61     CG2R61      CG321
   12    10    11	5 ;     CG2R61     CG2R61     CG2R61
    7    10    11	5 ;      CG321     CG2R61     CG2R61
   10    11    13	5 ;     CG2R61     CG2R61     CG2R61
   10    11    40	5 ;     CG2R61     CG2R61      HGR62
   13    11    40	5 ;     CG2R61     CG2R61      HGR62
    3    12    16	5 ;      CG311     CG2R61     CG2R61
    3    12    10	5 ;      CG311     CG2R61     CG2R61
   16    12    10	5 ;     CG2R61     CG2R61     CG2R61
   15    13    11	5 ;     CG2R61     CG2R61     CG2R61
   15    13    14	5 ;     CG2R61     CG2R61      CLGR1
   11    13    14	5 ;     CG2R61     CG2R61      CLGR1
   16    15    13	5 ;     CG2R61     CG2R61     CG2R61
   16    15    41	5 ;     CG2R61     CG2R61      HGR62
   13    15    41	5 ;     CG2R61     CG2R61      HGR62
   12    16    15	5 ;     CG2R61     CG2R61     CG2R61
   12    16    42	5 ;     CG2R61     CG2R61      HGR61
   15    16    42	5 ;     CG2R61     CG2R61      HGR61
   18    17    21	5 ;      CG2O3      CG311      CG321
   18    17     1	5 ;      CG2O3      CG311      NG311
   18    17    43	5 ;      CG2O3      CG311       HGA1
   21    17     1	5 ;      CG321      CG311      NG311
   21    17    43	5 ;      CG321      CG311       HGA1
    1    17    43	5 ;      NG311      CG311       HGA1
   19    18    20	5 ;      OG2D2      CG2O3      OG2D2
   19    18    17	5 ;      OG2D2      CG2O3      CG311
   20    18    17	5 ;      OG2D2      CG2O3      CG311
   22    21    17	5 ;     CG2R51      CG321      CG311
   22    21    44	5 ;     CG2R51      CG321       HGA2
   22    21    45	5 ;     CG2R51      CG321       HGA2
   17    21    44	5 ;      CG311      CG321       HGA2
   17    21    45	5 ;      CG311      CG321       HGA2
   44    21    45	5 ;       HGA2      CG321       HGA2
   23    22    21	5 ;     CG2R51     CG2R51      CG321
   23    22    26	5 ;     CG2R51     CG2R51     CG2R51
   21    22    26	5 ;      CG321     CG2R51     CG2R51
   24    23    22	5 ;     SG2R50     CG2R51     CG2R51
   24    23    46	5 ;     SG2R50     CG2R51      HGR52
   22    23    46	5 ;     CG2R51     CG2R51      HGR52
   23    24    25	5 ;     CG2R51     SG2R50     CG2R51
   24    25    26	5 ;     SG2R50     CG2R51     CG2R51
   24    25    47	5 ;     SG2R50     CG2R51      HGR52
   26    25    47	5 ;     CG2R51     CG2R51      HGR52
   22    26    25	5 ;     CG2R51     CG2R51     CG2R51
   22    26    27	5 ;     CG2R51     CG2R51      CG321
   25    26    27	5 ;     CG2R51     CG2R51      CG321
   26    27    28	5 ;     CG2R51      CG321      CG321
   26    27    48	5 ;     CG2R51      CG321       HGA2
   26    27    49	5 ;     CG2R51      CG321       HGA2
   28    27    48	5 ;      CG321      CG321       HGA2
   28    27    49	5 ;      CG321      CG321       HGA2
   48    27    49	5 ;       HGA2      CG321       HGA2
   27    28    29	5 ;      CG321      CG321     CG3C31
   27    28    50	5 ;      CG321      CG321       HGA2
   27    28    51	5 ;      CG321      CG321       HGA2
   29    28    50	5 ;     CG3C31      CG321       HGA2
   29    28    51	5 ;     CG3C31      CG321       HGA2
   50    28    51	5 ;       HGA2      CG321       HGA2
   30    29    28	5 ;     CG3C31     CG3C31      CG321
   30    29    31	5 ;     CG3C31     CG3C31     CG3C31
   30    29    52	5 ;     CG3C31     CG3C31       HGA1
   28    29    31	5 ;      CG321     CG3C31     CG3C31
   28    29    52	5 ;      CG321     CG3C31       HGA1
   31    29    52	5 ;     CG3C31     CG3C31       HGA1
   29    30    31	5 ;     CG3C31     CG3C31     CG3C31
   29    30    53	5 ;     CG3C31     CG3C31       HGA2
   29    30    54	5 ;     CG3C31     CG3C31       HGA2
   31    30    53	5 ;     CG3C31     CG3C31       HGA2
   31    30    54	5 ;     CG3C31     CG3C31       HGA2
   53    30    54	5 ;       HGA2     CG3C31       HGA2
   30    31    29	5 ;     CG3C31     CG3C31     CG3C31
   30    31    55	5 ;     CG3C31     CG3C31       HGA2
   30    31    56	5 ;     CG3C31     CG3C31       HGA2
   29    31    55	5 ;     CG3C31     CG3C31       HGA2
   29    31    56	5 ;     CG3C31     CG3C31       HGA2
   55    31    56	5 ;       HGA2     CG3C31       HGA2

[ dihedrals ]
;	ai	  aj	ak	  al funct			  c0			c1			  c2			c3			  c4			c5
    2     1    17    18	 9 ;     HGPAM1      NG311      CG311      CG2O3
    2     1    17    21	 9 ;     HGPAM1      NG311      CG311      CG321
    2     1    17    43	 9 ;     HGPAM1      NG311      CG311       HGA1
    3     1    17    18	 9 ;      CG311      NG311      CG311      CG2O3
    3     1    17    21	 9 ;      CG311      NG311      CG311      CG321
    3     1    17    43	 9 ;      CG311      NG311      CG311       HGA1
   17     1     3     4	 9 ;      CG311      NG311      CG311      NG311
   17     1     3    12	 9 ;      CG311      NG311      CG311     CG2R61
   17     1     3    57	 9 ;      CG311      NG311      CG311       HGA1
    2     1     3     4	 9 ;     HGPAM1      NG311      CG311      NG311
    2     1     3    12	 9 ;     HGPAM1      NG311      CG311     CG2R61
    2     1     3    57	 9 ;     HGPAM1      NG311      CG311       HGA1
    1     3     4     6	 9 ;      NG311      CG311      NG311     HGPAM1
    1     3     4     5	 9 ;      NG311      CG311      NG311      CG301
   12     3     4     6	 9 ;     CG2R61      CG311      NG311     HGPAM1
   12     3     4     5	 9 ;     CG2R61      CG311      NG311      CG301
   57     3     4     6	 9 ;       HGA1      CG311      NG311     HGPAM1
   57     3     4     5	 9 ;       HGA1      CG311      NG311      CG301
    1     3    12    16	 9 ;      NG311      CG311     CG2R61     CG2R61
    1     3    12    10	 9 ;      NG311      CG311     CG2R61     CG2R61
    4     3    12    16	 9 ;      NG311      CG311     CG2R61     CG2R61
    4     3    12    10	 9 ;      NG311      CG311     CG2R61     CG2R61
   57     3    12    16	 9 ;       HGA1      CG311     CG2R61     CG2R61
   57     3    12    10	 9 ;       HGA1      CG311     CG2R61     CG2R61
    6     4     5     8	 9 ;     HGPAM1      NG311      CG301      CG331
    6     4     5     7	 9 ;     HGPAM1      NG311      CG301      CG321
    6     4     5     9	 9 ;     HGPAM1      NG311      CG301      CG331
    3     4     5     8	 9 ;      CG311      NG311      CG301      CG331
    3     4     5     7	 9 ;      CG311      NG311      CG301      CG321
    3     4     5     9	 9 ;      CG311      NG311      CG301      CG331
    4     5     8    34	 9 ;      NG311      CG301      CG331       HGA3
    4     5     8    35	 9 ;      NG311      CG301      CG331       HGA3
    4     5     8    36	 9 ;      NG311      CG301      CG331       HGA3
    7     5     8    34	 9 ;      CG321      CG301      CG331       HGA3
    7     5     8    35	 9 ;      CG321      CG301      CG331       HGA3
    7     5     8    36	 9 ;      CG321      CG301      CG331       HGA3
    9     5     8    34	 9 ;      CG331      CG301      CG331       HGA3
    9     5     8    35	 9 ;      CG331      CG301      CG331       HGA3
    9     5     8    36	 9 ;      CG331      CG301      CG331       HGA3
    4     5     7    10	 9 ;      NG311      CG301      CG321     CG2R61
    4     5     7    32	 9 ;      NG311      CG301      CG321       HGA2
    4     5     7    33	 9 ;      NG311      CG301      CG321       HGA2
    8     5     7    10	 9 ;      CG331      CG301      CG321     CG2R61
    8     5     7    32	 9 ;      CG331      CG301      CG321       HGA2
    8     5     7    33	 9 ;      CG331      CG301      CG321       HGA2
    9     5     7    10	 9 ;      CG331      CG301      CG321     CG2R61
    9     5     7    32	 9 ;      CG331      CG301      CG321       HGA2
    9     5     7    33	 9 ;      CG331      CG301      CG321       HGA2
    4     5     9    37	 9 ;      NG311      CG301      CG331       HGA3
    4     5     9    38	 9 ;      NG311      CG301      CG331       HGA3
    4     5     9    39	 9 ;      NG311      CG301      CG331       HGA3
    8     5     9    37	 9 ;      CG331      CG301      CG331       HGA3
    8     5     9    38	 9 ;      CG331      CG301      CG331       HGA3
    8     5     9    39	 9 ;      CG331      CG301      CG331       HGA3
    7     5     9    37	 9 ;      CG321      CG301      CG331       HGA3
    7     5     9    38	 9 ;      CG321      CG301      CG331       HGA3
    7     5     9    39	 9 ;      CG321      CG301      CG331       HGA3
    5     7    10    12	 9 ;      CG301      CG321     CG2R61     CG2R61
    5     7    10    11	 9 ;      CG301      CG321     CG2R61     CG2R61
   32     7    10    12	 9 ;       HGA2      CG321     CG2R61     CG2R61
   32     7    10    11	 9 ;       HGA2      CG321     CG2R61     CG2R61
   33     7    10    12	 9 ;       HGA2      CG321     CG2R61     CG2R61
   33     7    10    11	 9 ;       HGA2      CG321     CG2R61     CG2R61
    7    10    12     3	 9 ;      CG321     CG2R61     CG2R61      CG311
    7    10    12    16	 9 ;      CG321     CG2R61     CG2R61     CG2R61
   11    10    12     3	 9 ;     CG2R61     CG2R61     CG2R61      CG311
   11    10    12    16	 9 ;     CG2R61     CG2R61     CG2R61     CG2R61
   12    10    11    13	 9 ;     CG2R61     CG2R61     CG2R61     CG2R61
   12    10    11    40	 9 ;     CG2R61     CG2R61     CG2R61      HGR62
    7    10    11    13	 9 ;      CG321     CG2R61     CG2R61     CG2R61
    7    10    11    40	 9 ;      CG321     CG2R61     CG2R61      HGR62
   10    11    13    15	 9 ;     CG2R61     CG2R61     CG2R61     CG2R61
   10    11    13    14	 9 ;     CG2R61     CG2R61     CG2R61      CLGR1
   40    11    13    15	 9 ;      HGR62     CG2R61     CG2R61     CG2R61
   40    11    13    14	 9 ;      HGR62     CG2R61     CG2R61      CLGR1
    3    12    16    15	 9 ;      CG311     CG2R61     CG2R61     CG2R61
    3    12    16    42	 9 ;      CG311     CG2R61     CG2R61      HGR61
   10    12    16    15	 9 ;     CG2R61     CG2R61     CG2R61     CG2R61
   10    12    16    42	 9 ;     CG2R61     CG2R61     CG2R61      HGR61
   11    13    15    16	 9 ;     CG2R61     CG2R61     CG2R61     CG2R61
   11    13    15    41	 9 ;     CG2R61     CG2R61     CG2R61      HGR62
   14    13    15    16	 9 ;      CLGR1     CG2R61     CG2R61     CG2R61
   14    13    15    41	 9 ;      CLGR1     CG2R61     CG2R61      HGR62
   13    15    16    12	 9 ;     CG2R61     CG2R61     CG2R61     CG2R61
   13    15    16    42	 9 ;     CG2R61     CG2R61     CG2R61      HGR61
   41    15    16    12	 9 ;      HGR62     CG2R61     CG2R61     CG2R61
   41    15    16    42	 9 ;      HGR62     CG2R61     CG2R61      HGR61
   21    17    18    19	 9 ;      CG321      CG311      CG2O3      OG2D2
   21    17    18    20	 9 ;      CG321      CG311      CG2O3      OG2D2
    1    17    18    19	 9 ;      NG311      CG311      CG2O3      OG2D2
    1    17    18    20	 9 ;      NG311      CG311      CG2O3      OG2D2
   43    17    18    19	 9 ;       HGA1      CG311      CG2O3      OG2D2
   43    17    18    20	 9 ;       HGA1      CG311      CG2O3      OG2D2
   18    17    21    22	 9 ;      CG2O3      CG311      CG321     CG2R51
   18    17    21    44	 9 ;      CG2O3      CG311      CG321       HGA2
   18    17    21    45	 9 ;      CG2O3      CG311      CG321       HGA2
    1    17    21    22	 9 ;      NG311      CG311      CG321     CG2R51
    1    17    21    44	 9 ;      NG311      CG311      CG321       HGA2
    1    17    21    45	 9 ;      NG311      CG311      CG321       HGA2
   43    17    21    22	 9 ;       HGA1      CG311      CG321     CG2R51
   43    17    21    44	 9 ;       HGA1      CG311      CG321       HGA2
   43    17    21    45	 9 ;       HGA1      CG311      CG321       HGA2
   17    21    22    23	 9 ;      CG311      CG321     CG2R51     CG2R51
   17    21    22    26	 9 ;      CG311      CG321     CG2R51     CG2R51
   44    21    22    23	 9 ;       HGA2      CG321     CG2R51     CG2R51
   44    21    22    26	 9 ;       HGA2      CG321     CG2R51     CG2R51
   45    21    22    23	 9 ;       HGA2      CG321     CG2R51     CG2R51
   45    21    22    26	 9 ;       HGA2      CG321     CG2R51     CG2R51
   21    22    23    24	 9 ;      CG321     CG2R51     CG2R51     SG2R50
   21    22    23    46	 9 ;      CG321     CG2R51     CG2R51      HGR52
   26    22    23    24	 9 ;     CG2R51     CG2R51     CG2R51     SG2R50
   26    22    23    46	 9 ;     CG2R51     CG2R51     CG2R51      HGR52
   23    22    26    25	 9 ;     CG2R51     CG2R51     CG2R51     CG2R51
   23    22    26    27	 9 ;     CG2R51     CG2R51     CG2R51      CG321
   21    22    26    25	 9 ;      CG321     CG2R51     CG2R51     CG2R51
   21    22    26    27	 9 ;      CG321     CG2R51     CG2R51      CG321
   22    23    24    25	 9 ;     CG2R51     CG2R51     SG2R50     CG2R51
   46    23    24    25	 9 ;      HGR52     CG2R51     SG2R50     CG2R51
   23    24    25    26	 9 ;     CG2R51     SG2R50     CG2R51     CG2R51
   23    24    25    47	 9 ;     CG2R51     SG2R50     CG2R51      HGR52
   24    25    26    22	 9 ;     SG2R50     CG2R51     CG2R51     CG2R51
   24    25    26    27	 9 ;     SG2R50     CG2R51     CG2R51      CG321
   47    25    26    22	 9 ;      HGR52     CG2R51     CG2R51     CG2R51
   47    25    26    27	 9 ;      HGR52     CG2R51     CG2R51      CG321
   22    26    27    28	 9 ;     CG2R51     CG2R51      CG321      CG321
   22    26    27    48	 9 ;     CG2R51     CG2R51      CG321       HGA2
   22    26    27    49	 9 ;     CG2R51     CG2R51      CG321       HGA2
   25    26    27    28	 9 ;     CG2R51     CG2R51      CG321      CG321
   25    26    27    48	 9 ;     CG2R51     CG2R51      CG321       HGA2
   25    26    27    49	 9 ;     CG2R51     CG2R51      CG321       HGA2
   26    27    28    29	 9 ;     CG2R51      CG321      CG321     CG3C31
   26    27    28    50	 9 ;     CG2R51      CG321      CG321       HGA2
   26    27    28    51	 9 ;     CG2R51      CG321      CG321       HGA2
   48    27    28    29	 9 ;       HGA2      CG321      CG321     CG3C31
   48    27    28    50	 9 ;       HGA2      CG321      CG321       HGA2
   48    27    28    51	 9 ;       HGA2      CG321      CG321       HGA2
   49    27    28    29	 9 ;       HGA2      CG321      CG321     CG3C31
   49    27    28    50	 9 ;       HGA2      CG321      CG321       HGA2
   49    27    28    51	 9 ;       HGA2      CG321      CG321       HGA2
   27    28    29    30	 9 ;      CG321      CG321     CG3C31     CG3C31
   27    28    29    31	 9 ;      CG321      CG321     CG3C31     CG3C31
   27    28    29    52	 9 ;      CG321      CG321     CG3C31       HGA1
   50    28    29    30	 9 ;       HGA2      CG321     CG3C31     CG3C31
   50    28    29    31	 9 ;       HGA2      CG321     CG3C31     CG3C31
   50    28    29    52	 9 ;       HGA2      CG321     CG3C31       HGA1
   51    28    29    30	 9 ;       HGA2      CG321     CG3C31     CG3C31
   51    28    29    31	 9 ;       HGA2      CG321     CG3C31     CG3C31
   51    28    29    52	 9 ;       HGA2      CG321     CG3C31       HGA1
   28    29    30    31	 9 ;      CG321     CG3C31     CG3C31     CG3C31
   28    29    30    53	 9 ;      CG321     CG3C31     CG3C31       HGA2
   28    29    30    54	 9 ;      CG321     CG3C31     CG3C31       HGA2
   31    29    30    53	 9 ;     CG3C31     CG3C31     CG3C31       HGA2
   31    29    30    54	 9 ;     CG3C31     CG3C31     CG3C31       HGA2
   52    29    30    31	 9 ;       HGA1     CG3C31     CG3C31     CG3C31
   52    29    30    53	 9 ;       HGA1     CG3C31     CG3C31       HGA2
   52    29    30    54	 9 ;       HGA1     CG3C31     CG3C31       HGA2
   30    29    31    55	 9 ;     CG3C31     CG3C31     CG3C31       HGA2
   30    29    31    56	 9 ;     CG3C31     CG3C31     CG3C31       HGA2
   28    29    31    30	 9 ;      CG321     CG3C31     CG3C31     CG3C31
   28    29    31    55	 9 ;      CG321     CG3C31     CG3C31       HGA2
   28    29    31    56	 9 ;      CG321     CG3C31     CG3C31       HGA2
   52    29    31    30	 9 ;       HGA1     CG3C31     CG3C31     CG3C31
   52    29    31    55	 9 ;       HGA1     CG3C31     CG3C31       HGA2
   52    29    31    56	 9 ;       HGA1     CG3C31     CG3C31       HGA2
   29    30    31    55	 9 ;     CG3C31     CG3C31     CG3C31       HGA2
   29    30    31    56	 9 ;     CG3C31     CG3C31     CG3C31       HGA2
   53    30    31    29	 9 ;       HGA2     CG3C31     CG3C31     CG3C31
   53    30    31    55	 9 ;       HGA2     CG3C31     CG3C31       HGA2
   53    30    31    56	 9 ;       HGA2     CG3C31     CG3C31       HGA2
   54    30    31    29	 9 ;       HGA2     CG3C31     CG3C31     CG3C31
   54    30    31    55	 9 ;       HGA2     CG3C31     CG3C31       HGA2
   54    30    31    56	 9 ;       HGA2     CG3C31     CG3C31       HGA2

[ dihedrals ]
;	ai	  aj	ak	  al funct			  c0			c1			  c2			c3
   18    19    20    17	 2

[ virtual_sites2 ]
; Site   from				funct a
   58    14    13     2   -0.164

[ exclusions ]
;	ai	  aj
   14    58
   58    13
   58    15
   58    11
   58    10
   58    40
   58    16
   58    41

