Gyas ROwers Mature At Cryogenic Speed
   58
    1LIG     N1    1  -1.077   0.246  -1.782
    1LIG      H    2  -1.056   0.174  -1.849
    1LIG     C1    3  -1.135   0.205  -1.663
    1LIG     N2    4  -1.072   0.126  -1.582
    1LIG     C2    5  -1.127   0.089  -1.450
    1LIG     HN    6  -0.981   0.089  -1.610
    1LIG     C3    7  -1.211   0.203  -1.390
    1LIG     C4    8  -1.005   0.063  -1.360
    1LIG     C5    9  -1.209  -0.041  -1.459
    1LIG     C6   10  -1.309   0.256  -1.490
    1LIG     C7   11  -1.435   0.304  -1.451
    1LIG     C8   12  -1.270   0.262  -1.625
    1LIG     C9   13  -1.521   0.359  -1.546
    1LIG     CL   14  -1.677   0.413  -1.499
    1LIG    C10   15  -1.482   0.368  -1.679
    1LIG    C11   16  -1.357   0.320  -1.719
    1LIG     CA   17  -0.975   0.353  -1.794
    1LIG    C12   18  -0.884   0.326  -1.920
    1LIG      O   19  -0.771   0.273  -1.897
    1LIG    OXT   20  -0.934   0.353  -2.033
    1LIG    C13   21  -1.042   0.490  -1.814
    1LIG    C14   22  -0.987   0.609  -1.737
    1LIG    C15   23  -0.898   0.701  -1.790
    1LIG      S   24  -0.865   0.831  -1.685
    1LIG    C16   25  -0.965   0.765  -1.564
    1LIG    C17   26  -1.024   0.645  -1.601
    1LIG    C18   27  -1.115   0.567  -1.507
    1LIG    C19   28  -1.246   0.641  -1.478
    1LIG    C20   29  -1.330   0.683  -1.596
    1LIG    C21   30  -1.362   0.828  -1.619
    1LIG    C22   31  -1.473   0.731  -1.588
    1LIG    HC2   32  -1.265   0.165  -1.303
    1LIG    HC3   33  -1.145   0.283  -1.358
    1LIG    HC1   34  -0.946   0.154  -1.352
    1LIG    HC4   35  -1.040   0.034  -1.261
    1LIG    HC5   36  -0.945  -0.017  -1.403
    1LIG    HC6   37  -1.296  -0.024  -1.522
    1LIG    HC7   38  -1.242  -0.069  -1.359
    1LIG    HC8   39  -1.148  -0.120  -1.501
    1LIG     HC   40  -1.464   0.300  -1.347
    1LIG    HC9   41  -1.548   0.412  -1.752
    1LIG   HC10   42  -1.327   0.327  -1.823
    1LIG   HC11   43  -0.913   0.355  -1.704
    1LIG   HC12   44  -1.147   0.479  -1.787
    1LIG   HC13   45  -1.038   0.514  -1.921
    1LIG   HC14   46  -0.855   0.692  -1.889
    1LIG   HC15   47  -0.981   0.812  -1.469
    1LIG   HC16   48  -1.062   0.550  -1.413
    1LIG   HC17   49  -1.138   0.470  -1.552
    1LIG   HC18   50  -1.307   0.576  -1.416
    1LIG   HC19   51  -1.222   0.730  -1.420
    1LIG   HC20   52  -1.308   0.628  -1.687
    1LIG   HC21   53  -1.353   0.871  -1.719
    1LIG   HC22   54  -1.335   0.896  -1.538
    1LIG   HC23   55  -1.544   0.703  -1.666
    1LIG   HC24   56  -1.514   0.738  -1.488
    1LIG    H28   57  -1.182   0.120  -1.712
    1LIG    LP1   58  -1.826   0.465  -1.453
   0.00000   0.00000   0.00000
