; Created by cgenff_charmm2gmx.py

[ moleculetype ]
; Name			   nrexcl
LIG				 3

[ atoms ]
;	 nr		  type	resnr residue  atom   cgnr	   charge		mass  typeB    chargeB		massB
; residue	 1 LIG rtp LIG q	qsum
     1     CG2R61      1    LIG     C1      1      0.138     12.011   ;
     2     CG2R61      1    LIG     C2      2     -0.064     12.011   ;
     3     CG2R61      1    LIG     C3      3     -0.101     12.011   ;
     4     CG2R61      1    LIG     C4      4     -0.081     12.011   ;
     5     CG2R61      1    LIG     C5      5     -0.057     12.011   ;
     6     CG2R61      1    LIG     C6      6     -0.141     12.011   ;
     7     NG3C51      1    LIG     N1      7      0.065     14.007   ;
     8     NG3C51      1    LIG     N2      8     -0.399     14.007   ;
     9     NG3C51      1    LIG     N3      9     -0.332     14.007   ;
    10     CG2R51      1    LIG     C7     10     -0.410     12.011   ;
    11       HGP1      1    LIG     HN     11      0.308      1.008   ;
    12     CG2R51      1    LIG     C8     12     -0.123     12.011   ;
    13      CG301      1    LIG     C9     13      0.859     12.011   ;
    14      CG331      1    LIG    C10     14     -0.197     12.011   ;
    15      NG3P3      1    LIG     N4     15     -0.554     14.007   ;
    16       HGP2      1    LIG     H1     16      0.348      1.008   ;
    17       HGP2      1    LIG     H2     17      0.348      1.008   ;
    18       HGP2      1    LIG     H3     18      0.348      1.008   ;
    19      CG321      1    LIG    C11     19     -0.195     12.011   ;
    20     CG2R61      1    LIG    C12     20     -0.002     12.011   ;
    21     CG2R61      1    LIG    C13     21     -0.123     12.011   ;
    22     CG2R61      1    LIG    C14     22     -0.112     12.011   ;
    23     CG2R61      1    LIG    C15     23     -0.116     12.011   ;
    24     CG2R61      1    LIG    C16     24     -0.112     12.011   ;
    25     CG2R61      1    LIG    C17     25     -0.123     12.011   ;
    26      CG2O1      1    LIG    C18     26      0.320     12.011   ;
    27      OG2D1      1    LIG     O1     27     -0.463     15.999   ;
    28      NG2S1      1    LIG     N5     28     -0.366     14.007   ;
    29       HGP1      1    LIG     H4     29      0.314      1.008   ;
    30      CG311      1    LIG    C19     30      0.138     12.011   ;
    31      CG331      1    LIG    C20     31     -0.265     12.011   ;
    32     CG2R61      1    LIG    C21     32     -0.081     12.011   ;
    33     CG2R61      1    LIG    C22     33     -0.121     12.011   ;
    34     CG2R61      1    LIG    C23     34     -0.105     12.011   ;
    35     CG2R66      1    LIG    C24     35      0.107     12.011   ;
    36       FGR1      1    LIG      F     36     -0.211     18.998   ;
    37     CG2R61      1    LIG    C25     37     -0.105     12.011   ;
    38     CG2R61      1    LIG    C26     38     -0.121     12.011   ;
    39      NG301      1    LIG     N6     39     -0.228     14.007   ;
    40      CG331      1    LIG    C27     40     -0.103     12.011   ;
    41      SG3O2      1    LIG      S     41      0.397     32.060   ;
    42      OG2P1      1    LIG     O2     42     -0.388     15.999   ;
    43      OG2P1      1    LIG     O3     43     -0.388     15.999   ;
    44      CG331      1    LIG    C28     44      0.036     12.011   ;
    45      HGR61      1    LIG     H5     45      0.116      1.008   ;
    46      HGR61      1    LIG     H6     46      0.116      1.008   ;
    47      HGR61      1    LIG     H7     47      0.116      1.008   ;
    48       HGP1      1    LIG     H8     48      0.352      1.008   ;
    49      HGR52      1    LIG     H9     49      0.241      1.008   ;
    50       HGA3      1    LIG    H10     50      0.090      1.008   ;
    51       HGA3      1    LIG    H11     51      0.090      1.008   ;
    52       HGA3      1    LIG    H12     52      0.090      1.008   ;
    53       HGA2      1    LIG    H13     53      0.090      1.008   ;
    54       HGA2      1    LIG    H14     54      0.090      1.008   ;
    55      HGR61      1    LIG    H15     55      0.116      1.008   ;
    56      HGR61      1    LIG    H16     56      0.116      1.008   ;
    57      HGR61      1    LIG    H17     57      0.116      1.008   ;
    58      HGR61      1    LIG    H18     58      0.116      1.008   ;
    59      HGR61      1    LIG    H19     59      0.116      1.008   ;
    60       HGA1      1    LIG    H20     60      0.090      1.008   ;
    61       HGA3      1    LIG    H21     61      0.090      1.008   ;
    62       HGA3      1    LIG    H22     62      0.090      1.008   ;
    63       HGA3      1    LIG    H23     63      0.090      1.008   ;
    64      HGR61      1    LIG    H24     64      0.116      1.008   ;
    65      HGR62      1    LIG    H25     65      0.179      1.008   ;
    66      HGR62      1    LIG    H26     66      0.179      1.008   ;
    67      HGR61      1    LIG    H27     67      0.116      1.008   ;
    68       HGA3      1    LIG    H28     68      0.090      1.008   ;
    69       HGA3      1    LIG    H29     69      0.090      1.008   ;
    70       HGA3      1    LIG    H30     70      0.090      1.008   ;
    71       HGA3      1    LIG    H31     71      0.090      1.008   ;
    72       HGA3      1    LIG    H32     72      0.090      1.008   ;
    73       HGA3      1    LIG    H33     73      0.090      1.008   ;

[ bonds ]
;	ai	  aj funct			  c0			c1			  c2			c3
    1     2	 1 ;      CG2R61     CG2R61
    1    39	 1 ;      CG2R61      NG301
    1     6	 1 ;      CG2R61     CG2R61
    2     3	 1 ;      CG2R61     CG2R61
    2    45	 1 ;      CG2R61      HGR61
    3    26	 1 ;      CG2R61      CG2O1
    3     4	 1 ;      CG2R61     CG2R61
    4     5	 1 ;      CG2R61     CG2R61
    4    46	 1 ;      CG2R61      HGR61
    5     6	 1 ;      CG2R61     CG2R61
    5     7	 1 ;      CG2R61     NG3C51
    6    47	 1 ;      CG2R61      HGR61
    7    12	 1 ;      NG3C51     CG2R51
    7     8	 1 ;      NG3C51     NG3C51
    8     9	 1 ;      NG3C51     NG3C51
    8    48	 1 ;      NG3C51       HGP1
    9    10	 1 ;      NG3C51     CG2R51
    9    11	 1 ;      NG3C51       HGP1
   10    12	 1 ;      CG2R51     CG2R51
   10    13	 1 ;      CG2R51      CG301
   12    49	 1 ;      CG2R51      HGR52
   13    15	 1 ;       CG301      NG3P3
   13    19	 1 ;       CG301      CG321
   13    14	 1 ;       CG301      CG331
   14    50	 1 ;       CG331       HGA3
   14    51	 1 ;       CG331       HGA3
   14    52	 1 ;       CG331       HGA3
   15    18	 1 ;       NG3P3       HGP2
   15    16	 1 ;       NG3P3       HGP2
   15    17	 1 ;       NG3P3       HGP2
   19    20	 1 ;       CG321     CG2R61
   19    53	 1 ;       CG321       HGA2
   19    54	 1 ;       CG321       HGA2
   20    25	 1 ;      CG2R61     CG2R61
   20    21	 1 ;      CG2R61     CG2R61
   21    22	 1 ;      CG2R61     CG2R61
   21    55	 1 ;      CG2R61      HGR61
   22    23	 1 ;      CG2R61     CG2R61
   22    56	 1 ;      CG2R61      HGR61
   23    24	 1 ;      CG2R61     CG2R61
   23    57	 1 ;      CG2R61      HGR61
   24    25	 1 ;      CG2R61     CG2R61
   24    58	 1 ;      CG2R61      HGR61
   25    59	 1 ;      CG2R61      HGR61
   26    27	 1 ;       CG2O1      OG2D1
   26    28	 1 ;       CG2O1      NG2S1
   28    30	 1 ;       NG2S1      CG311
   28    29	 1 ;       NG2S1       HGP1
   30    32	 1 ;       CG311     CG2R61
   30    31	 1 ;       CG311      CG331
   30    60	 1 ;       CG311       HGA1
   31    61	 1 ;       CG331       HGA3
   31    62	 1 ;       CG331       HGA3
   31    63	 1 ;       CG331       HGA3
   32    38	 1 ;      CG2R61     CG2R61
   32    33	 1 ;      CG2R61     CG2R61
   33    34	 1 ;      CG2R61     CG2R61
   33    64	 1 ;      CG2R61      HGR61
   34    35	 1 ;      CG2R61     CG2R66
   34    65	 1 ;      CG2R61      HGR62
   35    37	 1 ;      CG2R66     CG2R61
   35    36	 1 ;      CG2R66       FGR1
   37    38	 1 ;      CG2R61     CG2R61
   37    66	 1 ;      CG2R61      HGR62
   38    67	 1 ;      CG2R61      HGR61
   39    41	 1 ;       NG301      SG3O2
   39    40	 1 ;       NG301      CG331
   40    68	 1 ;       CG331       HGA3
   40    69	 1 ;       CG331       HGA3
   40    70	 1 ;       CG331       HGA3
   41    44	 1 ;       SG3O2      CG331
   41    43	 1 ;       SG3O2      OG2P1
   41    42	 1 ;       SG3O2      OG2P1
   44    71	 1 ;       CG331       HGA3
   44    72	 1 ;       CG331       HGA3
   44    73	 1 ;       CG331       HGA3

[ pairs ]
;	ai	  aj funct			  c0			c1			  c2			c3
    1    26	 1
    1     4	 1
    1     7	 1
    1    44	 1
    1    43	 1
    1    42	 1
    1    68	 1
    1    69	 1
    1    70	 1
    2    41	 1
    2    40	 1
    2     5	 1
    2    47	 1
    2    27	 1
    2    28	 1
    2    46	 1
    3    39	 1
    3     6	 1
    3     7	 1
    3    30	 1
    3    29	 1
    4    45	 1
    4    27	 1
    4    28	 1
    4    47	 1
    4    12	 1
    4     8	 1
    5    39	 1
    5    26	 1
    5    10	 1
    5    49	 1
    5     9	 1
    5    48	 1
    6    45	 1
    6    41	 1
    6    40	 1
    6    46	 1
    6    12	 1
    6     8	 1
    7    46	 1
    7    47	 1
    7    11	 1
    7    13	 1
    8    49	 1
    8    13	 1
    9    49	 1
    9    15	 1
    9    19	 1
    9    14	 1
   10    48	 1
   10    18	 1
   10    16	 1
   10    17	 1
   10    20	 1
   10    53	 1
   10    54	 1
   10    50	 1
   10    51	 1
   10    52	 1
   11    48	 1
   11    12	 1
   11    13	 1
   12    48	 1
   12    15	 1
   12    19	 1
   12    14	 1
   13    49	 1
   13    25	 1
   13    21	 1
   14    18	 1
   14    16	 1
   14    17	 1
   14    20	 1
   14    53	 1
   14    54	 1
   15    20	 1
   15    53	 1
   15    54	 1
   15    50	 1
   15    51	 1
   15    52	 1
   16    19	 1
   17    19	 1
   18    19	 1
   19    50	 1
   19    51	 1
   19    52	 1
   19    24	 1
   19    59	 1
   19    22	 1
   19    55	 1
   20    23	 1
   20    56	 1
   20    58	 1
   21    53	 1
   21    54	 1
   21    24	 1
   21    59	 1
   21    57	 1
   22    25	 1
   22    58	 1
   23    55	 1
   23    59	 1
   24    56	 1
   25    53	 1
   25    54	 1
   25    55	 1
   25    57	 1
   26    45	 1
   26    46	 1
   26    32	 1
   26    31	 1
   26    60	 1
   27    30	 1
   27    29	 1
   28    38	 1
   28    33	 1
   28    61	 1
   28    62	 1
   28    63	 1
   29    32	 1
   29    31	 1
   29    60	 1
   30    37	 1
   30    67	 1
   30    34	 1
   30    64	 1
   31    38	 1
   31    33	 1
   32    61	 1
   32    62	 1
   32    63	 1
   32    35	 1
   32    65	 1
   32    66	 1
   33    60	 1
   33    37	 1
   33    67	 1
   33    36	 1
   34    38	 1
   34    66	 1
   35    64	 1
   35    67	 1
   36    65	 1
   36    38	 1
   36    66	 1
   37    65	 1
   38    60	 1
   38    64	 1
   39    45	 1
   39    47	 1
   39    71	 1
   39    72	 1
   39    73	 1
   40    44	 1
   40    43	 1
   40    42	 1
   41    68	 1
   41    69	 1
   41    70	 1
   42    71	 1
   42    72	 1
   42    73	 1
   43    71	 1
   43    72	 1
   43    73	 1
   55    56	 1
   56    57	 1
   57    58	 1
   58    59	 1
   60    61	 1
   60    62	 1
   60    63	 1
   64    65	 1
   66    67	 1

[ angles ]
;	ai	  aj	ak funct			c0			  c1			c2			  c3
    2     1    39	5 ;     CG2R61     CG2R61      NG301
    2     1     6	5 ;     CG2R61     CG2R61     CG2R61
   39     1     6	5 ;      NG301     CG2R61     CG2R61
    3     2     1	5 ;     CG2R61     CG2R61     CG2R61
    3     2    45	5 ;     CG2R61     CG2R61      HGR61
    1     2    45	5 ;     CG2R61     CG2R61      HGR61
   26     3     2	5 ;      CG2O1     CG2R61     CG2R61
   26     3     4	5 ;      CG2O1     CG2R61     CG2R61
    2     3     4	5 ;     CG2R61     CG2R61     CG2R61
    3     4     5	5 ;     CG2R61     CG2R61     CG2R61
    3     4    46	5 ;     CG2R61     CG2R61      HGR61
    5     4    46	5 ;     CG2R61     CG2R61      HGR61
    4     5     6	5 ;     CG2R61     CG2R61     CG2R61
    4     5     7	5 ;     CG2R61     CG2R61     NG3C51
    6     5     7	5 ;     CG2R61     CG2R61     NG3C51
    1     6     5	5 ;     CG2R61     CG2R61     CG2R61
    1     6    47	5 ;     CG2R61     CG2R61      HGR61
    5     6    47	5 ;     CG2R61     CG2R61      HGR61
    5     7    12	5 ;     CG2R61     NG3C51     CG2R51
    5     7     8	5 ;     CG2R61     NG3C51     NG3C51
   12     7     8	5 ;     CG2R51     NG3C51     NG3C51
    7     8     9	5 ;     NG3C51     NG3C51     NG3C51
    7     8    48	5 ;     NG3C51     NG3C51       HGP1
    9     8    48	5 ;     NG3C51     NG3C51       HGP1
    8     9    10	5 ;     NG3C51     NG3C51     CG2R51
    8     9    11	5 ;     NG3C51     NG3C51       HGP1
   10     9    11	5 ;     CG2R51     NG3C51       HGP1
   12    10     9	5 ;     CG2R51     CG2R51     NG3C51
   12    10    13	5 ;     CG2R51     CG2R51      CG301
    9    10    13	5 ;     NG3C51     CG2R51      CG301
    7    12    10	5 ;     NG3C51     CG2R51     CG2R51
    7    12    49	5 ;     NG3C51     CG2R51      HGR52
   10    12    49	5 ;     CG2R51     CG2R51      HGR52
   10    13    15	5 ;     CG2R51      CG301      NG3P3
   10    13    19	5 ;     CG2R51      CG301      CG321
   10    13    14	5 ;     CG2R51      CG301      CG331
   15    13    19	5 ;      NG3P3      CG301      CG321
   15    13    14	5 ;      NG3P3      CG301      CG331
   19    13    14	5 ;      CG321      CG301      CG331
   13    14    50	5 ;      CG301      CG331       HGA3
   13    14    51	5 ;      CG301      CG331       HGA3
   13    14    52	5 ;      CG301      CG331       HGA3
   50    14    51	5 ;       HGA3      CG331       HGA3
   50    14    52	5 ;       HGA3      CG331       HGA3
   51    14    52	5 ;       HGA3      CG331       HGA3
   18    15    16	5 ;       HGP2      NG3P3       HGP2
   18    15    13	5 ;       HGP2      NG3P3      CG301
   18    15    17	5 ;       HGP2      NG3P3       HGP2
   16    15    13	5 ;       HGP2      NG3P3      CG301
   16    15    17	5 ;       HGP2      NG3P3       HGP2
   13    15    17	5 ;      CG301      NG3P3       HGP2
   13    19    20	5 ;      CG301      CG321     CG2R61
   13    19    53	5 ;      CG301      CG321       HGA2
   13    19    54	5 ;      CG301      CG321       HGA2
   20    19    53	5 ;     CG2R61      CG321       HGA2
   20    19    54	5 ;     CG2R61      CG321       HGA2
   53    19    54	5 ;       HGA2      CG321       HGA2
   19    20    25	5 ;      CG321     CG2R61     CG2R61
   19    20    21	5 ;      CG321     CG2R61     CG2R61
   25    20    21	5 ;     CG2R61     CG2R61     CG2R61
   20    21    22	5 ;     CG2R61     CG2R61     CG2R61
   20    21    55	5 ;     CG2R61     CG2R61      HGR61
   22    21    55	5 ;     CG2R61     CG2R61      HGR61
   21    22    23	5 ;     CG2R61     CG2R61     CG2R61
   21    22    56	5 ;     CG2R61     CG2R61      HGR61
   23    22    56	5 ;     CG2R61     CG2R61      HGR61
   24    23    22	5 ;     CG2R61     CG2R61     CG2R61
   24    23    57	5 ;     CG2R61     CG2R61      HGR61
   22    23    57	5 ;     CG2R61     CG2R61      HGR61
   25    24    23	5 ;     CG2R61     CG2R61     CG2R61
   25    24    58	5 ;     CG2R61     CG2R61      HGR61
   23    24    58	5 ;     CG2R61     CG2R61      HGR61
   20    25    24	5 ;     CG2R61     CG2R61     CG2R61
   20    25    59	5 ;     CG2R61     CG2R61      HGR61
   24    25    59	5 ;     CG2R61     CG2R61      HGR61
   27    26    28	5 ;      OG2D1      CG2O1      NG2S1
   27    26     3	5 ;      OG2D1      CG2O1     CG2R61
   28    26     3	5 ;      NG2S1      CG2O1     CG2R61
   30    28    26	5 ;      CG311      NG2S1      CG2O1
   30    28    29	5 ;      CG311      NG2S1       HGP1
   26    28    29	5 ;      CG2O1      NG2S1       HGP1
   32    30    31	5 ;     CG2R61      CG311      CG331
   32    30    28	5 ;     CG2R61      CG311      NG2S1
   32    30    60	5 ;     CG2R61      CG311       HGA1
   31    30    28	5 ;      CG331      CG311      NG2S1
   31    30    60	5 ;      CG331      CG311       HGA1
   28    30    60	5 ;      NG2S1      CG311       HGA1
   30    31    61	5 ;      CG311      CG331       HGA3
   30    31    62	5 ;      CG311      CG331       HGA3
   30    31    63	5 ;      CG311      CG331       HGA3
   61    31    62	5 ;       HGA3      CG331       HGA3
   61    31    63	5 ;       HGA3      CG331       HGA3
   62    31    63	5 ;       HGA3      CG331       HGA3
   38    32    30	5 ;     CG2R61     CG2R61      CG311
   38    32    33	5 ;     CG2R61     CG2R61     CG2R61
   30    32    33	5 ;      CG311     CG2R61     CG2R61
   32    33    34	5 ;     CG2R61     CG2R61     CG2R61
   32    33    64	5 ;     CG2R61     CG2R61      HGR61
   34    33    64	5 ;     CG2R61     CG2R61      HGR61
   35    34    33	5 ;     CG2R66     CG2R61     CG2R61
   35    34    65	5 ;     CG2R66     CG2R61      HGR62
   33    34    65	5 ;     CG2R61     CG2R61      HGR62
   37    35    36	5 ;     CG2R61     CG2R66       FGR1
   37    35    34	5 ;     CG2R61     CG2R66     CG2R61
   36    35    34	5 ;       FGR1     CG2R66     CG2R61
   38    37    35	5 ;     CG2R61     CG2R61     CG2R66
   38    37    66	5 ;     CG2R61     CG2R61      HGR62
   35    37    66	5 ;     CG2R66     CG2R61      HGR62
   37    38    32	5 ;     CG2R61     CG2R61     CG2R61
   37    38    67	5 ;     CG2R61     CG2R61      HGR61
   32    38    67	5 ;     CG2R61     CG2R61      HGR61
    1    39    41	5 ;     CG2R61      NG301      SG3O2
    1    39    40	5 ;     CG2R61      NG301      CG331
   41    39    40	5 ;      SG3O2      NG301      CG331
   39    40    68	5 ;      NG301      CG331       HGA3
   39    40    69	5 ;      NG301      CG331       HGA3
   39    40    70	5 ;      NG301      CG331       HGA3
   68    40    69	5 ;       HGA3      CG331       HGA3
   68    40    70	5 ;       HGA3      CG331       HGA3
   69    40    70	5 ;       HGA3      CG331       HGA3
   44    41    39	5 ;      CG331      SG3O2      NG301
   44    41    43	5 ;      CG331      SG3O2      OG2P1
   44    41    42	5 ;      CG331      SG3O2      OG2P1
   39    41    43	5 ;      NG301      SG3O2      OG2P1
   39    41    42	5 ;      NG301      SG3O2      OG2P1
   43    41    42	5 ;      OG2P1      SG3O2      OG2P1
   41    44    71	5 ;      SG3O2      CG331       HGA3
   41    44    72	5 ;      SG3O2      CG331       HGA3
   41    44    73	5 ;      SG3O2      CG331       HGA3
   71    44    72	5 ;       HGA3      CG331       HGA3
   71    44    73	5 ;       HGA3      CG331       HGA3
   72    44    73	5 ;       HGA3      CG331       HGA3

[ dihedrals ]
;	ai	  aj	ak	  al funct			  c0			c1			  c2			c3			  c4			c5
   39     1     2     3	 9 ;      NG301     CG2R61     CG2R61     CG2R61
   39     1     2    45	 9 ;      NG301     CG2R61     CG2R61      HGR61
    6     1     2     3	 9 ;     CG2R61     CG2R61     CG2R61     CG2R61
    6     1     2    45	 9 ;     CG2R61     CG2R61     CG2R61      HGR61
    2     1    39    41	 9 ;     CG2R61     CG2R61      NG301      SG3O2
    2     1    39    40	 9 ;     CG2R61     CG2R61      NG301      CG331
    6     1    39    41	 9 ;     CG2R61     CG2R61      NG301      SG3O2
    6     1    39    40	 9 ;     CG2R61     CG2R61      NG301      CG331
    2     1     6     5	 9 ;     CG2R61     CG2R61     CG2R61     CG2R61
    2     1     6    47	 9 ;     CG2R61     CG2R61     CG2R61      HGR61
   39     1     6     5	 9 ;      NG301     CG2R61     CG2R61     CG2R61
   39     1     6    47	 9 ;      NG301     CG2R61     CG2R61      HGR61
    1     2     3    26	 9 ;     CG2R61     CG2R61     CG2R61      CG2O1
    1     2     3     4	 9 ;     CG2R61     CG2R61     CG2R61     CG2R61
   45     2     3    26	 9 ;      HGR61     CG2R61     CG2R61      CG2O1
   45     2     3     4	 9 ;      HGR61     CG2R61     CG2R61     CG2R61
    2     3    26    27	 9 ;     CG2R61     CG2R61      CG2O1      OG2D1
    2     3    26    28	 9 ;     CG2R61     CG2R61      CG2O1      NG2S1
    4     3    26    27	 9 ;     CG2R61     CG2R61      CG2O1      OG2D1
    4     3    26    28	 9 ;     CG2R61     CG2R61      CG2O1      NG2S1
   26     3     4     5	 9 ;      CG2O1     CG2R61     CG2R61     CG2R61
   26     3     4    46	 9 ;      CG2O1     CG2R61     CG2R61      HGR61
    2     3     4     5	 9 ;     CG2R61     CG2R61     CG2R61     CG2R61
    2     3     4    46	 9 ;     CG2R61     CG2R61     CG2R61      HGR61
    3     4     5     6	 9 ;     CG2R61     CG2R61     CG2R61     CG2R61
    3     4     5     7	 9 ;     CG2R61     CG2R61     CG2R61     NG3C51
   46     4     5     6	 9 ;      HGR61     CG2R61     CG2R61     CG2R61
   46     4     5     7	 9 ;      HGR61     CG2R61     CG2R61     NG3C51
    4     5     6     1	 9 ;     CG2R61     CG2R61     CG2R61     CG2R61
    4     5     6    47	 9 ;     CG2R61     CG2R61     CG2R61      HGR61
    7     5     6     1	 9 ;     NG3C51     CG2R61     CG2R61     CG2R61
    7     5     6    47	 9 ;     NG3C51     CG2R61     CG2R61      HGR61
    4     5     7    12	 9 ;     CG2R61     CG2R61     NG3C51     CG2R51
    4     5     7     8	 9 ;     CG2R61     CG2R61     NG3C51     NG3C51
    6     5     7    12	 9 ;     CG2R61     CG2R61     NG3C51     CG2R51
    6     5     7     8	 9 ;     CG2R61     CG2R61     NG3C51     NG3C51
    5     7    12    10	 9 ;     CG2R61     NG3C51     CG2R51     CG2R51
    5     7    12    49	 9 ;     CG2R61     NG3C51     CG2R51      HGR52
    8     7    12    10	 9 ;     NG3C51     NG3C51     CG2R51     CG2R51
    8     7    12    49	 9 ;     NG3C51     NG3C51     CG2R51      HGR52
    5     7     8     9	 9 ;     CG2R61     NG3C51     NG3C51     NG3C51
    5     7     8    48	 9 ;     CG2R61     NG3C51     NG3C51       HGP1
   12     7     8     9	 9 ;     CG2R51     NG3C51     NG3C51     NG3C51
   12     7     8    48	 9 ;     CG2R51     NG3C51     NG3C51       HGP1
    7     8     9    10	 9 ;     NG3C51     NG3C51     NG3C51     CG2R51
    7     8     9    11	 9 ;     NG3C51     NG3C51     NG3C51       HGP1
   48     8     9    10	 9 ;       HGP1     NG3C51     NG3C51     CG2R51
   48     8     9    11	 9 ;       HGP1     NG3C51     NG3C51       HGP1
    8     9    10    12	 9 ;     NG3C51     NG3C51     CG2R51     CG2R51
    8     9    10    13	 9 ;     NG3C51     NG3C51     CG2R51      CG301
   11     9    10    12	 9 ;       HGP1     NG3C51     CG2R51     CG2R51
   11     9    10    13	 9 ;       HGP1     NG3C51     CG2R51      CG301
    9    10    12     7	 9 ;     NG3C51     CG2R51     CG2R51     NG3C51
    9    10    12    49	 9 ;     NG3C51     CG2R51     CG2R51      HGR52
   13    10    12     7	 9 ;      CG301     CG2R51     CG2R51     NG3C51
   13    10    12    49	 9 ;      CG301     CG2R51     CG2R51      HGR52
   12    10    13    15	 9 ;     CG2R51     CG2R51      CG301      NG3P3
   12    10    13    19	 9 ;     CG2R51     CG2R51      CG301      CG321
   12    10    13    14	 9 ;     CG2R51     CG2R51      CG301      CG331
    9    10    13    15	 9 ;     NG3C51     CG2R51      CG301      NG3P3
    9    10    13    19	 9 ;     NG3C51     CG2R51      CG301      CG321
    9    10    13    14	 9 ;     NG3C51     CG2R51      CG301      CG331
   10    13    15    18	 9 ;     CG2R51      CG301      NG3P3       HGP2
   10    13    15    16	 9 ;     CG2R51      CG301      NG3P3       HGP2
   10    13    15    17	 9 ;     CG2R51      CG301      NG3P3       HGP2
   19    13    15    18	 9 ;      CG321      CG301      NG3P3       HGP2
   19    13    15    16	 9 ;      CG321      CG301      NG3P3       HGP2
   19    13    15    17	 9 ;      CG321      CG301      NG3P3       HGP2
   14    13    15    18	 9 ;      CG331      CG301      NG3P3       HGP2
   14    13    15    16	 9 ;      CG331      CG301      NG3P3       HGP2
   14    13    15    17	 9 ;      CG331      CG301      NG3P3       HGP2
   10    13    19    20	 9 ;     CG2R51      CG301      CG321     CG2R61
   10    13    19    53	 9 ;     CG2R51      CG301      CG321       HGA2
   10    13    19    54	 9 ;     CG2R51      CG301      CG321       HGA2
   15    13    19    20	 9 ;      NG3P3      CG301      CG321     CG2R61
   15    13    19    53	 9 ;      NG3P3      CG301      CG321       HGA2
   15    13    19    54	 9 ;      NG3P3      CG301      CG321       HGA2
   14    13    19    20	 9 ;      CG331      CG301      CG321     CG2R61
   14    13    19    53	 9 ;      CG331      CG301      CG321       HGA2
   14    13    19    54	 9 ;      CG331      CG301      CG321       HGA2
   10    13    14    50	 9 ;     CG2R51      CG301      CG331       HGA3
   10    13    14    51	 9 ;     CG2R51      CG301      CG331       HGA3
   10    13    14    52	 9 ;     CG2R51      CG301      CG331       HGA3
   15    13    14    50	 9 ;      NG3P3      CG301      CG331       HGA3
   15    13    14    51	 9 ;      NG3P3      CG301      CG331       HGA3
   15    13    14    52	 9 ;      NG3P3      CG301      CG331       HGA3
   19    13    14    50	 9 ;      CG321      CG301      CG331       HGA3
   19    13    14    51	 9 ;      CG321      CG301      CG331       HGA3
   19    13    14    52	 9 ;      CG321      CG301      CG331       HGA3
   13    19    20    25	 9 ;      CG301      CG321     CG2R61     CG2R61
   13    19    20    21	 9 ;      CG301      CG321     CG2R61     CG2R61
   53    19    20    25	 9 ;       HGA2      CG321     CG2R61     CG2R61
   53    19    20    21	 9 ;       HGA2      CG321     CG2R61     CG2R61
   54    19    20    25	 9 ;       HGA2      CG321     CG2R61     CG2R61
   54    19    20    21	 9 ;       HGA2      CG321     CG2R61     CG2R61
   19    20    25    24	 9 ;      CG321     CG2R61     CG2R61     CG2R61
   19    20    25    59	 9 ;      CG321     CG2R61     CG2R61      HGR61
   21    20    25    24	 9 ;     CG2R61     CG2R61     CG2R61     CG2R61
   21    20    25    59	 9 ;     CG2R61     CG2R61     CG2R61      HGR61
   19    20    21    22	 9 ;      CG321     CG2R61     CG2R61     CG2R61
   19    20    21    55	 9 ;      CG321     CG2R61     CG2R61      HGR61
   25    20    21    22	 9 ;     CG2R61     CG2R61     CG2R61     CG2R61
   25    20    21    55	 9 ;     CG2R61     CG2R61     CG2R61      HGR61
   20    21    22    23	 9 ;     CG2R61     CG2R61     CG2R61     CG2R61
   20    21    22    56	 9 ;     CG2R61     CG2R61     CG2R61      HGR61
   55    21    22    23	 9 ;      HGR61     CG2R61     CG2R61     CG2R61
   55    21    22    56	 9 ;      HGR61     CG2R61     CG2R61      HGR61
   21    22    23    24	 9 ;     CG2R61     CG2R61     CG2R61     CG2R61
   21    22    23    57	 9 ;     CG2R61     CG2R61     CG2R61      HGR61
   56    22    23    24	 9 ;      HGR61     CG2R61     CG2R61     CG2R61
   56    22    23    57	 9 ;      HGR61     CG2R61     CG2R61      HGR61
   22    23    24    25	 9 ;     CG2R61     CG2R61     CG2R61     CG2R61
   22    23    24    58	 9 ;     CG2R61     CG2R61     CG2R61      HGR61
   57    23    24    25	 9 ;      HGR61     CG2R61     CG2R61     CG2R61
   57    23    24    58	 9 ;      HGR61     CG2R61     CG2R61      HGR61
   23    24    25    20	 9 ;     CG2R61     CG2R61     CG2R61     CG2R61
   23    24    25    59	 9 ;     CG2R61     CG2R61     CG2R61      HGR61
   58    24    25    20	 9 ;      HGR61     CG2R61     CG2R61     CG2R61
   58    24    25    59	 9 ;      HGR61     CG2R61     CG2R61      HGR61
   27    26    28    30	 9 ;      OG2D1      CG2O1      NG2S1      CG311
   27    26    28    29	 9 ;      OG2D1      CG2O1      NG2S1       HGP1
    3    26    28    30	 9 ;     CG2R61      CG2O1      NG2S1      CG311
    3    26    28    29	 9 ;     CG2R61      CG2O1      NG2S1       HGP1
   26    28    30    32	 9 ;      CG2O1      NG2S1      CG311     CG2R61
   26    28    30    31	 9 ;      CG2O1      NG2S1      CG311      CG331
   26    28    30    60	 9 ;      CG2O1      NG2S1      CG311       HGA1
   29    28    30    32	 9 ;       HGP1      NG2S1      CG311     CG2R61
   29    28    30    31	 9 ;       HGP1      NG2S1      CG311      CG331
   29    28    30    60	 9 ;       HGP1      NG2S1      CG311       HGA1
   31    30    32    38	 9 ;      CG331      CG311     CG2R61     CG2R61
   31    30    32    33	 9 ;      CG331      CG311     CG2R61     CG2R61
   28    30    32    38	 9 ;      NG2S1      CG311     CG2R61     CG2R61
   28    30    32    33	 9 ;      NG2S1      CG311     CG2R61     CG2R61
   60    30    32    38	 9 ;       HGA1      CG311     CG2R61     CG2R61
   60    30    32    33	 9 ;       HGA1      CG311     CG2R61     CG2R61
   32    30    31    61	 9 ;     CG2R61      CG311      CG331       HGA3
   32    30    31    62	 9 ;     CG2R61      CG311      CG331       HGA3
   32    30    31    63	 9 ;     CG2R61      CG311      CG331       HGA3
   28    30    31    61	 9 ;      NG2S1      CG311      CG331       HGA3
   28    30    31    62	 9 ;      NG2S1      CG311      CG331       HGA3
   28    30    31    63	 9 ;      NG2S1      CG311      CG331       HGA3
   60    30    31    61	 9 ;       HGA1      CG311      CG331       HGA3
   60    30    31    62	 9 ;       HGA1      CG311      CG331       HGA3
   60    30    31    63	 9 ;       HGA1      CG311      CG331       HGA3
   30    32    38    37	 9 ;      CG311     CG2R61     CG2R61     CG2R61
   30    32    38    67	 9 ;      CG311     CG2R61     CG2R61      HGR61
   33    32    38    37	 9 ;     CG2R61     CG2R61     CG2R61     CG2R61
   33    32    38    67	 9 ;     CG2R61     CG2R61     CG2R61      HGR61
   38    32    33    34	 9 ;     CG2R61     CG2R61     CG2R61     CG2R61
   38    32    33    64	 9 ;     CG2R61     CG2R61     CG2R61      HGR61
   30    32    33    34	 9 ;      CG311     CG2R61     CG2R61     CG2R61
   30    32    33    64	 9 ;      CG311     CG2R61     CG2R61      HGR61
   32    33    34    35	 9 ;     CG2R61     CG2R61     CG2R61     CG2R66
   32    33    34    65	 9 ;     CG2R61     CG2R61     CG2R61      HGR62
   64    33    34    35	 9 ;      HGR61     CG2R61     CG2R61     CG2R66
   64    33    34    65	 9 ;      HGR61     CG2R61     CG2R61      HGR62
   33    34    35    37	 9 ;     CG2R61     CG2R61     CG2R66     CG2R61
   33    34    35    36	 9 ;     CG2R61     CG2R61     CG2R66       FGR1
   65    34    35    37	 9 ;      HGR62     CG2R61     CG2R66     CG2R61
   65    34    35    36	 9 ;      HGR62     CG2R61     CG2R66       FGR1
   36    35    37    38	 9 ;       FGR1     CG2R66     CG2R61     CG2R61
   36    35    37    66	 9 ;       FGR1     CG2R66     CG2R61      HGR62
   34    35    37    38	 9 ;     CG2R61     CG2R66     CG2R61     CG2R61
   34    35    37    66	 9 ;     CG2R61     CG2R66     CG2R61      HGR62
   35    37    38    32	 9 ;     CG2R66     CG2R61     CG2R61     CG2R61
   35    37    38    67	 9 ;     CG2R66     CG2R61     CG2R61      HGR61
   66    37    38    32	 9 ;      HGR62     CG2R61     CG2R61     CG2R61
   66    37    38    67	 9 ;      HGR62     CG2R61     CG2R61      HGR61
    1    39    41    44	 9 ;     CG2R61      NG301      SG3O2      CG331
    1    39    41    43	 9 ;     CG2R61      NG301      SG3O2      OG2P1
    1    39    41    42	 9 ;     CG2R61      NG301      SG3O2      OG2P1
   40    39    41    44	 9 ;      CG331      NG301      SG3O2      CG331
   40    39    41    43	 9 ;      CG331      NG301      SG3O2      OG2P1
   40    39    41    42	 9 ;      CG331      NG301      SG3O2      OG2P1
    1    39    40    68	 9 ;     CG2R61      NG301      CG331       HGA3
    1    39    40    69	 9 ;     CG2R61      NG301      CG331       HGA3
    1    39    40    70	 9 ;     CG2R61      NG301      CG331       HGA3
   41    39    40    68	 9 ;      SG3O2      NG301      CG331       HGA3
   41    39    40    69	 9 ;      SG3O2      NG301      CG331       HGA3
   41    39    40    70	 9 ;      SG3O2      NG301      CG331       HGA3
   39    41    44    71	 9 ;      NG301      SG3O2      CG331       HGA3
   39    41    44    72	 9 ;      NG301      SG3O2      CG331       HGA3
   39    41    44    73	 9 ;      NG301      SG3O2      CG331       HGA3
   43    41    44    71	 9 ;      OG2P1      SG3O2      CG331       HGA3
   43    41    44    72	 9 ;      OG2P1      SG3O2      CG331       HGA3
   43    41    44    73	 9 ;      OG2P1      SG3O2      CG331       HGA3
   42    41    44    71	 9 ;      OG2P1      SG3O2      CG331       HGA3
   42    41    44    72	 9 ;      OG2P1      SG3O2      CG331       HGA3
   42    41    44    73	 9 ;      OG2P1      SG3O2      CG331       HGA3

[ dihedrals ]
;	ai	  aj	ak	  al funct			  c0			c1			  c2			c3
   26     3    28    27	 2

