GROtesk MACabre and Sinister
   73
    1LIG     C1    1  -1.695   0.632  -1.490
    1LIG     C2    2  -1.604   0.591  -1.587
    1LIG     C3    3  -1.505   0.497  -1.556
    1LIG     C4    4  -1.506   0.437  -1.428
    1LIG     C5    5  -1.605   0.470  -1.335
    1LIG     C6    6  -1.700   0.568  -1.367
    1LIG     N1    7  -1.607   0.413  -1.205
    1LIG     N2    8  -1.517   0.441  -1.108
    1LIG     N3    9  -1.560   0.391  -0.993
    1LIG     C7   10  -1.678   0.326  -1.017
    1LIG     HN   11  -1.514   0.400  -0.903
    1LIG     C8   12  -1.703   0.329  -1.153
    1LIG     C9   13  -1.756   0.263  -0.906
    1LIG    C10   14  -1.733   0.333  -0.771
    1LIG     N4   15  -1.903   0.280  -0.938
    1LIG     H1   16  -1.949   0.188  -0.937
    1LIG     H2   17  -1.951   0.342  -0.872
    1LIG     H3   18  -1.915   0.317  -1.033
    1LIG    C11   19  -1.729   0.110  -0.895
    1LIG    C12   20  -1.620   0.067  -0.800
    1LIG    C13   21  -1.620  -0.060  -0.741
    1LIG    C14   22  -1.515  -0.101  -0.658
    1LIG    C15   23  -1.408  -0.014  -0.633
    1LIG    C16   24  -1.407   0.113  -0.690
    1LIG    C17   25  -1.512   0.154  -0.772
    1LIG    C18   26  -1.392   0.463  -1.648
    1LIG     O1   27  -1.413   0.463  -1.769
    1LIG     N5   28  -1.269   0.430  -1.593
    1LIG     H4   29  -1.255   0.426  -1.494
    1LIG    C19   30  -1.157   0.384  -1.675
    1LIG    C20   31  -1.030   0.463  -1.642
    1LIG    C21   32  -1.140   0.233  -1.659
    1LIG    C22   33  -1.030   0.185  -1.586
    1LIG    C23   34  -1.012   0.048  -1.564
    1LIG    C24   35  -1.104  -0.042  -1.617
    1LIG      F   36  -1.088  -0.173  -1.595
    1LIG    C25   37  -1.211   0.002  -1.693
    1LIG    C26   38  -1.229   0.140  -1.715
    1LIG     N6   39  -1.782   0.746  -1.509
    1LIG    C27   40  -1.922   0.723  -1.467
    1LIG      S   41  -1.712   0.897  -1.476
    1LIG     O2   42  -1.605   0.876  -1.381
    1LIG     O3   43  -1.820   0.990  -1.449
    1LIG    C28   44  -1.637   0.939  -1.633
    1LIG     H5   45  -1.609   0.630  -1.683
    1LIG     H6   46  -1.434   0.368  -1.403
    1LIG     H7   47  -1.773   0.594  -1.298
    1LIG     H8   48  -1.505   0.542  -1.100
    1LIG     H9   49  -1.777   0.279  -1.204
    1LIG    H10   50  -1.752   0.438  -0.782
    1LIG    H11   51  -1.632   0.319  -0.740
    1LIG    H12   52  -1.800   0.293  -0.698
    1LIG    H13   53  -1.704   0.074  -0.992
    1LIG    H14   54  -1.819   0.068  -0.855
    1LIG    H15   55  -1.699  -0.124  -0.758
    1LIG    H16   56  -1.516  -0.195  -0.616
    1LIG    H17   57  -1.330  -0.045  -0.573
    1LIG    H18   58  -1.329   0.177  -0.670
    1LIG    H19   59  -1.511   0.248  -0.813
    1LIG    H20   60  -1.178   0.402  -1.778
    1LIG    H21   61  -1.005   0.447  -1.539
    1LIG    H22   62  -1.047   0.567  -1.659
    1LIG    H23   63  -0.950   0.429  -1.704
    1LIG    H24   64  -0.961   0.251  -1.547
    1LIG    H25   65  -0.932   0.013  -1.510
    1LIG    H26   66  -1.278  -0.065  -1.733
    1LIG    H27   67  -1.308   0.172  -1.772
    1LIG    H28   68  -1.952   0.624  -1.494
    1LIG    H29   69  -1.986   0.794  -1.516
    1LIG    H30   70  -1.930   0.735  -1.361
    1LIG    H31   71  -1.714   0.955  -1.706
    1LIG    H32   72  -1.574   0.859  -1.665
    1LIG    H33   73  -1.579   1.028  -1.622
   0.00000   0.00000   0.00000
