; Created by cgenff_charmm2gmx.py

[ moleculetype ]
; Name			   nrexcl
LIG				 3

[ atoms ]
;	 nr		  type	resnr residue  atom   cgnr	   charge		mass  typeB    chargeB		massB
; residue	 1 LIG rtp LIG q	qsum
     1      OG301      1    LIG     O1      1     -0.398     15.999   ;
     2      CG321      1    LIG     C1      2     -0.008     12.011   ;
     3      CG321      1    LIG     C2      3     -0.176     12.011   ;
     4      CG321      1    LIG     C3      4     -0.176     12.011   ;
     5      CG321      1    LIG     C4      5     -0.008     12.011   ;
     6      OG301      1    LIG     O2      6     -0.398     15.999   ;
     7     CG2R61      1    LIG     C5      7      0.226     12.011   ;
     8     CG2R61      1    LIG     C6      8     -0.126     12.011   ;
     9     CG2R61      1    LIG     C7      9     -0.016     12.011   ;
    10      CG321      1    LIG     C8     10     -0.111     12.011   ;
    11      CG311      1    LIG     C9     11      0.010     12.011   ;
    12      NG2S1      1    LIG     N1     12     -0.226     14.007   ;
    13      CG2O1      1    LIG    C10     13      0.302     12.011   ;
    14      OG2D1      1    LIG     O3     14     -0.463     15.999   ;
    15     CG2R61      1    LIG    C11     15     -0.101     12.011   ;
    16     CG2R61      1    LIG    C12     16     -0.063     12.011   ;
    17     CG2R61      1    LIG    C13     17      0.182     12.011   ;
    18     CG2R61      1    LIG    C14     18     -0.122     12.011   ;
    19     CG2R61      1    LIG    C15     19      0.227     12.011   ;
    20     CG2R61      1    LIG    C16     20     -0.063     12.011   ;
    21     CG2R61      1    LIG    C17     21     -0.123     12.011   ;
    22     CG2R61      1    LIG    C18     22     -0.109     12.011   ;
    23     CG2R61      1    LIG    C19     23     -0.119     12.011   ;
    24       HGP1      1    LIG     H1     24      0.262      1.008   ;
    25      CG311      1    LIG    C20     25      0.093     12.011   ;
    26      CG324      1    LIG    C21     26      0.186     12.011   ;
    27      NG3P2      1    LIG     N2     27     -0.483     14.007   ;
    28       HGP2      1    LIG     H2     28      0.343      1.008   ;
    29       HGP2      1    LIG     H3     29      0.343      1.008   ;
    30     CG3C31      1    LIG    C22     30      0.393     12.011   ;
    31     CG3C31      1    LIG    C23     31     -0.149     12.011   ;
    32     CG3C31      1    LIG    C24     32     -0.149     12.011   ;
    33     CG2R61      1    LIG    C25     33     -0.101     12.011   ;
    34     CG2R61      1    LIG    C26     34     -0.075     12.011   ;
    35     CG2R61      1    LIG    C27     35     -0.022     12.011   ;
    36     CG2R61      1    LIG    C28     36     -0.114     12.011   ;
    37     CG2R61      1    LIG    C29     37     -0.114     12.011   ;
    38     CG2R61      1    LIG    C30     38     -0.077     12.011   ;
    39      CG311      1    LIG    C31     39     -0.088     12.011   ;
    40      CG331      1    LIG    C32     40     -0.264     12.011   ;
    41      CG331      1    LIG    C33     41     -0.264     12.011   ;
    42      OG311      1    LIG     O4     42     -0.625     15.999   ;
    43       HGP1      1    LIG     H4     43      0.415      1.008   ;
    44     NG2R53      1    LIG     N3     44     -0.258     14.007   ;
    45     CG3C52      1    LIG    C34     45     -0.028     12.011   ;
    46     CG3C52      1    LIG    C35     46     -0.175     12.011   ;
    47     CG3C52      1    LIG    C36     47     -0.030     12.011   ;
    48     CG2R53      1    LIG    C37     48      0.258     12.011   ;
    49      OG2D1      1    LIG     O5     49     -0.484     15.999   ;
    50       HGA2      1    LIG     H5     50      0.090      1.008   ;
    51       HGA2      1    LIG     H6     51      0.090      1.008   ;
    52       HGA2      1    LIG     H7     52      0.090      1.008   ;
    53       HGA2      1    LIG     H8     53      0.090      1.008   ;
    54       HGA2      1    LIG     H9     54      0.090      1.008   ;
    55       HGA2      1    LIG    H10     55      0.090      1.008   ;
    56       HGA2      1    LIG    H11     56      0.090      1.008   ;
    57       HGA2      1    LIG    H12     57      0.090      1.008   ;
    58      HGR61      1    LIG    H13     58      0.116      1.008   ;
    59       HGA2      1    LIG    H14     59      0.090      1.008   ;
    60       HGA2      1    LIG    H15     60      0.090      1.008   ;
    61       HGA1      1    LIG    H16     61      0.090      1.008   ;
    62      HGR61      1    LIG    H17     62      0.116      1.008   ;
    63      HGR61      1    LIG    H18     63      0.116      1.008   ;
    64      HGR61      1    LIG    H19     64      0.116      1.008   ;
    65      HGR61      1    LIG    H20     65      0.116      1.008   ;
    66      HGR61      1    LIG    H21     66      0.116      1.008   ;
    67      HGR61      1    LIG    H22     67      0.116      1.008   ;
    68       HGA1      1    LIG    H23     68      0.090      1.008   ;
    69       HGA2      1    LIG    H24     69      0.090      1.008   ;
    70       HGA2      1    LIG    H25     70      0.090      1.008   ;
    71       HGA2      1    LIG    H26     71      0.090      1.008   ;
    72       HGA2      1    LIG    H27     72      0.090      1.008   ;
    73       HGA2      1    LIG    H28     73      0.090      1.008   ;
    74       HGA2      1    LIG    H29     74      0.090      1.008   ;
    75      HGR61      1    LIG    H30     75      0.116      1.008   ;
    76      HGR61      1    LIG    H31     76      0.116      1.008   ;
    77      HGR61      1    LIG    H32     77      0.116      1.008   ;
    78      HGR61      1    LIG    H33     78      0.116      1.008   ;
    79       HGA1      1    LIG    H34     79      0.090      1.008   ;
    80       HGA3      1    LIG    H35     80      0.090      1.008   ;
    81       HGA3      1    LIG    H36     81      0.090      1.008   ;
    82       HGA3      1    LIG    H37     82      0.090      1.008   ;
    83       HGA3      1    LIG    H38     83      0.090      1.008   ;
    84       HGA3      1    LIG    H39     84      0.090      1.008   ;
    85       HGA3      1    LIG    H40     85      0.090      1.008   ;
    86       HGA2      1    LIG    H41     86      0.090      1.008   ;
    87       HGA2      1    LIG    H42     87      0.090      1.008   ;
    88       HGA2      1    LIG    H43     88      0.090      1.008   ;
    89       HGA2      1    LIG    H44     89      0.090      1.008   ;
    90       HGA2      1    LIG    H45     90      0.090      1.008   ;
    91       HGA2      1    LIG    H46     91      0.090      1.008   ;

[ bonds ]
;	ai	  aj funct			  c0			c1			  c2			c3
    1    19	 1 ;       OG301     CG2R61
    1     2	 1 ;       OG301      CG321
    2     3	 1 ;       CG321      CG321
    2    50	 1 ;       CG321       HGA2
    2    51	 1 ;       CG321       HGA2
    3     4	 1 ;       CG321      CG321
    3    52	 1 ;       CG321       HGA2
    3    53	 1 ;       CG321       HGA2
    4     5	 1 ;       CG321      CG321
    4    54	 1 ;       CG321       HGA2
    4    55	 1 ;       CG321       HGA2
    5     6	 1 ;       CG321      OG301
    5    56	 1 ;       CG321       HGA2
    5    57	 1 ;       CG321       HGA2
    6     7	 1 ;       OG301     CG2R61
    7    23	 1 ;      CG2R61     CG2R61
    7     8	 1 ;      CG2R61     CG2R61
    8     9	 1 ;      CG2R61     CG2R61
    8    58	 1 ;      CG2R61      HGR61
    9    21	 1 ;      CG2R61     CG2R61
    9    10	 1 ;      CG2R61      CG321
   10    11	 1 ;       CG321      CG311
   10    59	 1 ;       CG321       HGA2
   10    60	 1 ;       CG321       HGA2
   11    12	 1 ;       CG311      NG2S1
   11    25	 1 ;       CG311      CG311
   11    61	 1 ;       CG311       HGA1
   12    24	 1 ;       NG2S1       HGP1
   12    13	 1 ;       NG2S1      CG2O1
   13    15	 1 ;       CG2O1     CG2R61
   13    14	 1 ;       CG2O1      OG2D1
   15    20	 1 ;      CG2R61     CG2R61
   15    16	 1 ;      CG2R61     CG2R61
   16    17	 1 ;      CG2R61     CG2R61
   16    62	 1 ;      CG2R61      HGR61
   17    18	 1 ;      CG2R61     CG2R61
   17    44	 1 ;      CG2R61     NG2R53
   18    19	 1 ;      CG2R61     CG2R61
   18    63	 1 ;      CG2R61      HGR61
   19    20	 1 ;      CG2R61     CG2R61
   20    64	 1 ;      CG2R61      HGR61
   21    22	 1 ;      CG2R61     CG2R61
   21    65	 1 ;      CG2R61      HGR61
   22    23	 1 ;      CG2R61     CG2R61
   22    66	 1 ;      CG2R61      HGR61
   23    67	 1 ;      CG2R61      HGR61
   25    26	 1 ;       CG311      CG324
   25    42	 1 ;       CG311      OG311
   25    68	 1 ;       CG311       HGA1
   26    27	 1 ;       CG324      NG3P2
   26    69	 1 ;       CG324       HGA2
   26    70	 1 ;       CG324       HGA2
   27    28	 1 ;       NG3P2       HGP2
   27    29	 1 ;       NG3P2       HGP2
   27    30	 1 ;       NG3P2     CG3C31
   30    32	 1 ;      CG3C31     CG3C31
   30    33	 1 ;      CG3C31     CG2R61
   30    31	 1 ;      CG3C31     CG3C31
   31    32	 1 ;      CG3C31     CG3C31
   31    71	 1 ;      CG3C31       HGA2
   31    72	 1 ;      CG3C31       HGA2
   32    73	 1 ;      CG3C31       HGA2
   32    74	 1 ;      CG3C31       HGA2
   33    38	 1 ;      CG2R61     CG2R61
   33    34	 1 ;      CG2R61     CG2R61
   34    35	 1 ;      CG2R61     CG2R61
   34    75	 1 ;      CG2R61      HGR61
   35    36	 1 ;      CG2R61     CG2R61
   35    39	 1 ;      CG2R61      CG311
   36    37	 1 ;      CG2R61     CG2R61
   36    76	 1 ;      CG2R61      HGR61
   37    38	 1 ;      CG2R61     CG2R61
   37    77	 1 ;      CG2R61      HGR61
   38    78	 1 ;      CG2R61      HGR61
   39    41	 1 ;       CG311      CG331
   39    40	 1 ;       CG311      CG331
   39    79	 1 ;       CG311       HGA1
   40    80	 1 ;       CG331       HGA3
   40    81	 1 ;       CG331       HGA3
   40    82	 1 ;       CG331       HGA3
   41    83	 1 ;       CG331       HGA3
   41    84	 1 ;       CG331       HGA3
   41    85	 1 ;       CG331       HGA3
   42    43	 1 ;       OG311       HGP1
   44    45	 1 ;      NG2R53     CG3C52
   44    48	 1 ;      NG2R53     CG2R53
   45    46	 1 ;      CG3C52     CG3C52
   45    86	 1 ;      CG3C52       HGA2
   45    87	 1 ;      CG3C52       HGA2
   46    47	 1 ;      CG3C52     CG3C52
   46    88	 1 ;      CG3C52       HGA2
   46    89	 1 ;      CG3C52       HGA2
   47    48	 1 ;      CG3C52     CG2R53
   47    90	 1 ;      CG3C52       HGA2
   47    91	 1 ;      CG3C52       HGA2
   48    49	 1 ;      CG2R53      OG2D1

[ pairs ]
;	ai	  aj funct			  c0			c1			  c2			c3
    1     4	 1
    1    52	 1
    1    53	 1
    1    17	 1
    1    63	 1
    1    15	 1
    1    64	 1
    2    18	 1
    2    20	 1
    2     5	 1
    2    54	 1
    2    55	 1
    3    19	 1
    3     6	 1
    3    56	 1
    3    57	 1
    4    50	 1
    4    51	 1
    4     7	 1
    5    52	 1
    5    53	 1
    5    23	 1
    5     8	 1
    6    54	 1
    6    55	 1
    6    22	 1
    6    67	 1
    6     9	 1
    6    58	 1
    7    56	 1
    7    57	 1
    7    21	 1
    7    10	 1
    7    66	 1
    8    22	 1
    8    67	 1
    8    65	 1
    8    11	 1
    8    59	 1
    8    60	 1
    9    23	 1
    9    12	 1
    9    25	 1
    9    61	 1
    9    66	 1
   10    58	 1
   10    22	 1
   10    65	 1
   10    24	 1
   10    13	 1
   10    26	 1
   10    42	 1
   10    68	 1
   11    21	 1
   11    15	 1
   11    14	 1
   11    27	 1
   11    69	 1
   11    70	 1
   11    43	 1
   12    59	 1
   12    60	 1
   12    26	 1
   12    42	 1
   12    68	 1
   12    20	 1
   12    16	 1
   13    25	 1
   13    61	 1
   13    19	 1
   13    64	 1
   13    17	 1
   13    62	 1
   14    24	 1
   14    20	 1
   14    16	 1
   15    24	 1
   15    18	 1
   15    44	 1
   16    19	 1
   16    64	 1
   16    63	 1
   16    45	 1
   16    48	 1
   17    20	 1
   17    46	 1
   17    86	 1
   17    87	 1
   17    47	 1
   17    49	 1
   18    62	 1
   18    45	 1
   18    48	 1
   18    64	 1
   19    50	 1
   19    51	 1
   19    44	 1
   20    62	 1
   20    63	 1
   21    58	 1
   21    59	 1
   21    60	 1
   21    67	 1
   23    58	 1
   23    65	 1
   24    25	 1
   24    61	 1
   25    59	 1
   25    60	 1
   25    28	 1
   25    29	 1
   25    30	 1
   26    61	 1
   26    43	 1
   26    32	 1
   26    33	 1
   26    31	 1
   27    42	 1
   27    68	 1
   27    73	 1
   27    74	 1
   27    38	 1
   27    34	 1
   27    71	 1
   27    72	 1
   28    69	 1
   28    70	 1
   28    32	 1
   28    33	 1
   28    31	 1
   29    69	 1
   29    70	 1
   29    32	 1
   29    33	 1
   29    31	 1
   30    69	 1
   30    70	 1
   30    37	 1
   30    78	 1
   30    35	 1
   30    75	 1
   31    38	 1
   31    34	 1
   32    38	 1
   32    34	 1
   33    73	 1
   33    74	 1
   33    71	 1
   33    72	 1
   33    36	 1
   33    39	 1
   33    77	 1
   34    37	 1
   34    78	 1
   34    76	 1
   34    41	 1
   34    40	 1
   34    79	 1
   35    38	 1
   35    77	 1
   35    83	 1
   35    84	 1
   35    85	 1
   35    80	 1
   35    81	 1
   35    82	 1
   36    75	 1
   36    41	 1
   36    40	 1
   36    79	 1
   36    78	 1
   37    39	 1
   38    75	 1
   38    76	 1
   39    75	 1
   39    76	 1
   40    83	 1
   40    84	 1
   40    85	 1
   41    80	 1
   41    81	 1
   41    82	 1
   42    61	 1
   42    69	 1
   42    70	 1
   43    68	 1
   44    62	 1
   44    63	 1
   44    88	 1
   44    89	 1
   44    90	 1
   44    91	 1
   45    49	 1
   45    90	 1
   45    91	 1
   46    49	 1
   47    86	 1
   47    87	 1
   48    86	 1
   48    87	 1
   48    88	 1
   48    89	 1
   49    90	 1
   49    91	 1
   50    52	 1
   50    53	 1
   51    52	 1
   51    53	 1
   52    54	 1
   52    55	 1
   53    54	 1
   53    55	 1
   54    56	 1
   54    57	 1
   55    56	 1
   55    57	 1
   59    61	 1
   60    61	 1
   61    68	 1
   65    66	 1
   66    67	 1
   68    69	 1
   68    70	 1
   71    73	 1
   71    74	 1
   72    73	 1
   72    74	 1
   76    77	 1
   77    78	 1
   79    83	 1
   79    84	 1
   79    85	 1
   79    80	 1
   79    81	 1
   79    82	 1
   86    88	 1
   86    89	 1
   87    88	 1
   87    89	 1
   88    90	 1
   88    91	 1
   89    90	 1
   89    91	 1

[ angles ]
;	ai	  aj	ak funct			c0			  c1			c2			  c3
   19     1     2	5 ;     CG2R61      OG301      CG321
    1     2     3	5 ;      OG301      CG321      CG321
    1     2    50	5 ;      OG301      CG321       HGA2
    1     2    51	5 ;      OG301      CG321       HGA2
    3     2    50	5 ;      CG321      CG321       HGA2
    3     2    51	5 ;      CG321      CG321       HGA2
   50     2    51	5 ;       HGA2      CG321       HGA2
    4     3     2	5 ;      CG321      CG321      CG321
    4     3    52	5 ;      CG321      CG321       HGA2
    4     3    53	5 ;      CG321      CG321       HGA2
    2     3    52	5 ;      CG321      CG321       HGA2
    2     3    53	5 ;      CG321      CG321       HGA2
   52     3    53	5 ;       HGA2      CG321       HGA2
    5     4     3	5 ;      CG321      CG321      CG321
    5     4    54	5 ;      CG321      CG321       HGA2
    5     4    55	5 ;      CG321      CG321       HGA2
    3     4    54	5 ;      CG321      CG321       HGA2
    3     4    55	5 ;      CG321      CG321       HGA2
   54     4    55	5 ;       HGA2      CG321       HGA2
    4     5     6	5 ;      CG321      CG321      OG301
    4     5    56	5 ;      CG321      CG321       HGA2
    4     5    57	5 ;      CG321      CG321       HGA2
    6     5    56	5 ;      OG301      CG321       HGA2
    6     5    57	5 ;      OG301      CG321       HGA2
   56     5    57	5 ;       HGA2      CG321       HGA2
    5     6     7	5 ;      CG321      OG301     CG2R61
    6     7    23	5 ;      OG301     CG2R61     CG2R61
    6     7     8	5 ;      OG301     CG2R61     CG2R61
   23     7     8	5 ;     CG2R61     CG2R61     CG2R61
    7     8     9	5 ;     CG2R61     CG2R61     CG2R61
    7     8    58	5 ;     CG2R61     CG2R61      HGR61
    9     8    58	5 ;     CG2R61     CG2R61      HGR61
    8     9    21	5 ;     CG2R61     CG2R61     CG2R61
    8     9    10	5 ;     CG2R61     CG2R61      CG321
   21     9    10	5 ;     CG2R61     CG2R61      CG321
    9    10    11	5 ;     CG2R61      CG321      CG311
    9    10    59	5 ;     CG2R61      CG321       HGA2
    9    10    60	5 ;     CG2R61      CG321       HGA2
   11    10    59	5 ;      CG311      CG321       HGA2
   11    10    60	5 ;      CG311      CG321       HGA2
   59    10    60	5 ;       HGA2      CG321       HGA2
   12    11    10	5 ;      NG2S1      CG311      CG321
   12    11    25	5 ;      NG2S1      CG311      CG311
   12    11    61	5 ;      NG2S1      CG311       HGA1
   10    11    25	5 ;      CG321      CG311      CG311
   10    11    61	5 ;      CG321      CG311       HGA1
   25    11    61	5 ;      CG311      CG311       HGA1
   24    12    13	5 ;       HGP1      NG2S1      CG2O1
   24    12    11	5 ;       HGP1      NG2S1      CG311
   13    12    11	5 ;      CG2O1      NG2S1      CG311
   15    13    12	5 ;     CG2R61      CG2O1      NG2S1
   15    13    14	5 ;     CG2R61      CG2O1      OG2D1
   12    13    14	5 ;      NG2S1      CG2O1      OG2D1
   20    15    16	5 ;     CG2R61     CG2R61     CG2R61
   20    15    13	5 ;     CG2R61     CG2R61      CG2O1
   16    15    13	5 ;     CG2R61     CG2R61      CG2O1
   17    16    15	5 ;     CG2R61     CG2R61     CG2R61
   17    16    62	5 ;     CG2R61     CG2R61      HGR61
   15    16    62	5 ;     CG2R61     CG2R61      HGR61
   18    17    44	5 ;     CG2R61     CG2R61     NG2R53
   18    17    16	5 ;     CG2R61     CG2R61     CG2R61
   44    17    16	5 ;     NG2R53     CG2R61     CG2R61
   19    18    17	5 ;     CG2R61     CG2R61     CG2R61
   19    18    63	5 ;     CG2R61     CG2R61      HGR61
   17    18    63	5 ;     CG2R61     CG2R61      HGR61
    1    19    18	5 ;      OG301     CG2R61     CG2R61
    1    19    20	5 ;      OG301     CG2R61     CG2R61
   18    19    20	5 ;     CG2R61     CG2R61     CG2R61
   19    20    15	5 ;     CG2R61     CG2R61     CG2R61
   19    20    64	5 ;     CG2R61     CG2R61      HGR61
   15    20    64	5 ;     CG2R61     CG2R61      HGR61
   22    21     9	5 ;     CG2R61     CG2R61     CG2R61
   22    21    65	5 ;     CG2R61     CG2R61      HGR61
    9    21    65	5 ;     CG2R61     CG2R61      HGR61
   23    22    21	5 ;     CG2R61     CG2R61     CG2R61
   23    22    66	5 ;     CG2R61     CG2R61      HGR61
   21    22    66	5 ;     CG2R61     CG2R61      HGR61
    7    23    22	5 ;     CG2R61     CG2R61     CG2R61
    7    23    67	5 ;     CG2R61     CG2R61      HGR61
   22    23    67	5 ;     CG2R61     CG2R61      HGR61
   11    25    26	5 ;      CG311      CG311      CG324
   11    25    42	5 ;      CG311      CG311      OG311
   11    25    68	5 ;      CG311      CG311       HGA1
   26    25    42	5 ;      CG324      CG311      OG311
   26    25    68	5 ;      CG324      CG311       HGA1
   42    25    68	5 ;      OG311      CG311       HGA1
   25    26    27	5 ;      CG311      CG324      NG3P2
   25    26    69	5 ;      CG311      CG324       HGA2
   25    26    70	5 ;      CG311      CG324       HGA2
   27    26    69	5 ;      NG3P2      CG324       HGA2
   27    26    70	5 ;      NG3P2      CG324       HGA2
   69    26    70	5 ;       HGA2      CG324       HGA2
   26    27    28	5 ;      CG324      NG3P2       HGP2
   26    27    29	5 ;      CG324      NG3P2       HGP2
   26    27    30	5 ;      CG324      NG3P2     CG3C31
   28    27    29	5 ;       HGP2      NG3P2       HGP2
   28    27    30	5 ;       HGP2      NG3P2     CG3C31
   29    27    30	5 ;       HGP2      NG3P2     CG3C31
   27    30    32	5 ;      NG3P2     CG3C31     CG3C31
   27    30    33	5 ;      NG3P2     CG3C31     CG2R61
   27    30    31	5 ;      NG3P2     CG3C31     CG3C31
   32    30    33	5 ;     CG3C31     CG3C31     CG2R61
   32    30    31	5 ;     CG3C31     CG3C31     CG3C31
   33    30    31	5 ;     CG2R61     CG3C31     CG3C31
   32    31    30	5 ;     CG3C31     CG3C31     CG3C31
   32    31    71	5 ;     CG3C31     CG3C31       HGA2
   32    31    72	5 ;     CG3C31     CG3C31       HGA2
   30    31    71	5 ;     CG3C31     CG3C31       HGA2
   30    31    72	5 ;     CG3C31     CG3C31       HGA2
   71    31    72	5 ;       HGA2     CG3C31       HGA2
   30    32    31	5 ;     CG3C31     CG3C31     CG3C31
   30    32    73	5 ;     CG3C31     CG3C31       HGA2
   30    32    74	5 ;     CG3C31     CG3C31       HGA2
   31    32    73	5 ;     CG3C31     CG3C31       HGA2
   31    32    74	5 ;     CG3C31     CG3C31       HGA2
   73    32    74	5 ;       HGA2     CG3C31       HGA2
   30    33    38	5 ;     CG3C31     CG2R61     CG2R61
   30    33    34	5 ;     CG3C31     CG2R61     CG2R61
   38    33    34	5 ;     CG2R61     CG2R61     CG2R61
   33    34    35	5 ;     CG2R61     CG2R61     CG2R61
   33    34    75	5 ;     CG2R61     CG2R61      HGR61
   35    34    75	5 ;     CG2R61     CG2R61      HGR61
   34    35    36	5 ;     CG2R61     CG2R61     CG2R61
   34    35    39	5 ;     CG2R61     CG2R61      CG311
   36    35    39	5 ;     CG2R61     CG2R61      CG311
   37    36    35	5 ;     CG2R61     CG2R61     CG2R61
   37    36    76	5 ;     CG2R61     CG2R61      HGR61
   35    36    76	5 ;     CG2R61     CG2R61      HGR61
   38    37    36	5 ;     CG2R61     CG2R61     CG2R61
   38    37    77	5 ;     CG2R61     CG2R61      HGR61
   36    37    77	5 ;     CG2R61     CG2R61      HGR61
   33    38    37	5 ;     CG2R61     CG2R61     CG2R61
   33    38    78	5 ;     CG2R61     CG2R61      HGR61
   37    38    78	5 ;     CG2R61     CG2R61      HGR61
   35    39    41	5 ;     CG2R61      CG311      CG331
   35    39    40	5 ;     CG2R61      CG311      CG331
   35    39    79	5 ;     CG2R61      CG311       HGA1
   41    39    40	5 ;      CG331      CG311      CG331
   41    39    79	5 ;      CG331      CG311       HGA1
   40    39    79	5 ;      CG331      CG311       HGA1
   39    40    80	5 ;      CG311      CG331       HGA3
   39    40    81	5 ;      CG311      CG331       HGA3
   39    40    82	5 ;      CG311      CG331       HGA3
   80    40    81	5 ;       HGA3      CG331       HGA3
   80    40    82	5 ;       HGA3      CG331       HGA3
   81    40    82	5 ;       HGA3      CG331       HGA3
   39    41    83	5 ;      CG311      CG331       HGA3
   39    41    84	5 ;      CG311      CG331       HGA3
   39    41    85	5 ;      CG311      CG331       HGA3
   83    41    84	5 ;       HGA3      CG331       HGA3
   83    41    85	5 ;       HGA3      CG331       HGA3
   84    41    85	5 ;       HGA3      CG331       HGA3
   25    42    43	5 ;      CG311      OG311       HGP1
   45    44    17	5 ;     CG3C52     NG2R53     CG2R61
   45    44    48	5 ;     CG3C52     NG2R53     CG2R53
   17    44    48	5 ;     CG2R61     NG2R53     CG2R53
   46    45    44	5 ;     CG3C52     CG3C52     NG2R53
   46    45    86	5 ;     CG3C52     CG3C52       HGA2
   46    45    87	5 ;     CG3C52     CG3C52       HGA2
   44    45    86	5 ;     NG2R53     CG3C52       HGA2
   44    45    87	5 ;     NG2R53     CG3C52       HGA2
   86    45    87	5 ;       HGA2     CG3C52       HGA2
   45    46    47	5 ;     CG3C52     CG3C52     CG3C52
   45    46    88	5 ;     CG3C52     CG3C52       HGA2
   45    46    89	5 ;     CG3C52     CG3C52       HGA2
   47    46    88	5 ;     CG3C52     CG3C52       HGA2
   47    46    89	5 ;     CG3C52     CG3C52       HGA2
   88    46    89	5 ;       HGA2     CG3C52       HGA2
   46    47    48	5 ;     CG3C52     CG3C52     CG2R53
   46    47    90	5 ;     CG3C52     CG3C52       HGA2
   46    47    91	5 ;     CG3C52     CG3C52       HGA2
   48    47    90	5 ;     CG2R53     CG3C52       HGA2
   48    47    91	5 ;     CG2R53     CG3C52       HGA2
   90    47    91	5 ;       HGA2     CG3C52       HGA2
   44    48    47	5 ;     NG2R53     CG2R53     CG3C52
   44    48    49	5 ;     NG2R53     CG2R53      OG2D1
   47    48    49	5 ;     CG3C52     CG2R53      OG2D1

[ dihedrals ]
;	ai	  aj	ak	  al funct			  c0			c1			  c2			c3			  c4			c5
    2     1    19    18	 9 ;      CG321      OG301     CG2R61     CG2R61
    2     1    19    20	 9 ;      CG321      OG301     CG2R61     CG2R61
   19     1     2     3	 9 ;     CG2R61      OG301      CG321      CG321
   19     1     2    50	 9 ;     CG2R61      OG301      CG321       HGA2
   19     1     2    51	 9 ;     CG2R61      OG301      CG321       HGA2
    1     2     3     4	 9 ;      OG301      CG321      CG321      CG321
    1     2     3    52	 9 ;      OG301      CG321      CG321       HGA2
    1     2     3    53	 9 ;      OG301      CG321      CG321       HGA2
   50     2     3     4	 9 ;       HGA2      CG321      CG321      CG321
   50     2     3    52	 9 ;       HGA2      CG321      CG321       HGA2
   50     2     3    53	 9 ;       HGA2      CG321      CG321       HGA2
   51     2     3     4	 9 ;       HGA2      CG321      CG321      CG321
   51     2     3    52	 9 ;       HGA2      CG321      CG321       HGA2
   51     2     3    53	 9 ;       HGA2      CG321      CG321       HGA2
    2     3     4     5	 9 ;      CG321      CG321      CG321      CG321
    2     3     4    54	 9 ;      CG321      CG321      CG321       HGA2
    2     3     4    55	 9 ;      CG321      CG321      CG321       HGA2
   52     3     4     5	 9 ;       HGA2      CG321      CG321      CG321
   52     3     4    54	 9 ;       HGA2      CG321      CG321       HGA2
   52     3     4    55	 9 ;       HGA2      CG321      CG321       HGA2
   53     3     4     5	 9 ;       HGA2      CG321      CG321      CG321
   53     3     4    54	 9 ;       HGA2      CG321      CG321       HGA2
   53     3     4    55	 9 ;       HGA2      CG321      CG321       HGA2
    3     4     5     6	 9 ;      CG321      CG321      CG321      OG301
    3     4     5    56	 9 ;      CG321      CG321      CG321       HGA2
    3     4     5    57	 9 ;      CG321      CG321      CG321       HGA2
   54     4     5     6	 9 ;       HGA2      CG321      CG321      OG301
   54     4     5    56	 9 ;       HGA2      CG321      CG321       HGA2
   54     4     5    57	 9 ;       HGA2      CG321      CG321       HGA2
   55     4     5     6	 9 ;       HGA2      CG321      CG321      OG301
   55     4     5    56	 9 ;       HGA2      CG321      CG321       HGA2
   55     4     5    57	 9 ;       HGA2      CG321      CG321       HGA2
    4     5     6     7	 9 ;      CG321      CG321      OG301     CG2R61
   56     5     6     7	 9 ;       HGA2      CG321      OG301     CG2R61
   57     5     6     7	 9 ;       HGA2      CG321      OG301     CG2R61
    5     6     7    23	 9 ;      CG321      OG301     CG2R61     CG2R61
    5     6     7     8	 9 ;      CG321      OG301     CG2R61     CG2R61
    6     7    23    22	 9 ;      OG301     CG2R61     CG2R61     CG2R61
    6     7    23    67	 9 ;      OG301     CG2R61     CG2R61      HGR61
    8     7    23    22	 9 ;     CG2R61     CG2R61     CG2R61     CG2R61
    8     7    23    67	 9 ;     CG2R61     CG2R61     CG2R61      HGR61
    6     7     8     9	 9 ;      OG301     CG2R61     CG2R61     CG2R61
    6     7     8    58	 9 ;      OG301     CG2R61     CG2R61      HGR61
   23     7     8     9	 9 ;     CG2R61     CG2R61     CG2R61     CG2R61
   23     7     8    58	 9 ;     CG2R61     CG2R61     CG2R61      HGR61
    7     8     9    21	 9 ;     CG2R61     CG2R61     CG2R61     CG2R61
    7     8     9    10	 9 ;     CG2R61     CG2R61     CG2R61      CG321
   58     8     9    21	 9 ;      HGR61     CG2R61     CG2R61     CG2R61
   58     8     9    10	 9 ;      HGR61     CG2R61     CG2R61      CG321
    8     9    21    22	 9 ;     CG2R61     CG2R61     CG2R61     CG2R61
    8     9    21    65	 9 ;     CG2R61     CG2R61     CG2R61      HGR61
   10     9    21    22	 9 ;      CG321     CG2R61     CG2R61     CG2R61
   10     9    21    65	 9 ;      CG321     CG2R61     CG2R61      HGR61
    8     9    10    11	 9 ;     CG2R61     CG2R61      CG321      CG311
    8     9    10    59	 9 ;     CG2R61     CG2R61      CG321       HGA2
    8     9    10    60	 9 ;     CG2R61     CG2R61      CG321       HGA2
   21     9    10    11	 9 ;     CG2R61     CG2R61      CG321      CG311
   21     9    10    59	 9 ;     CG2R61     CG2R61      CG321       HGA2
   21     9    10    60	 9 ;     CG2R61     CG2R61      CG321       HGA2
    9    10    11    12	 9 ;     CG2R61      CG321      CG311      NG2S1
    9    10    11    25	 9 ;     CG2R61      CG321      CG311      CG311
    9    10    11    61	 9 ;     CG2R61      CG321      CG311       HGA1
   59    10    11    12	 9 ;       HGA2      CG321      CG311      NG2S1
   59    10    11    25	 9 ;       HGA2      CG321      CG311      CG311
   59    10    11    61	 9 ;       HGA2      CG321      CG311       HGA1
   60    10    11    12	 9 ;       HGA2      CG321      CG311      NG2S1
   60    10    11    25	 9 ;       HGA2      CG321      CG311      CG311
   60    10    11    61	 9 ;       HGA2      CG321      CG311       HGA1
   10    11    12    24	 9 ;      CG321      CG311      NG2S1       HGP1
   10    11    12    13	 9 ;      CG321      CG311      NG2S1      CG2O1
   25    11    12    24	 9 ;      CG311      CG311      NG2S1       HGP1
   25    11    12    13	 9 ;      CG311      CG311      NG2S1      CG2O1
   61    11    12    24	 9 ;       HGA1      CG311      NG2S1       HGP1
   61    11    12    13	 9 ;       HGA1      CG311      NG2S1      CG2O1
   12    11    25    26	 9 ;      NG2S1      CG311      CG311      CG324
   12    11    25    42	 9 ;      NG2S1      CG311      CG311      OG311
   12    11    25    68	 9 ;      NG2S1      CG311      CG311       HGA1
   10    11    25    26	 9 ;      CG321      CG311      CG311      CG324
   10    11    25    42	 9 ;      CG321      CG311      CG311      OG311
   10    11    25    68	 9 ;      CG321      CG311      CG311       HGA1
   61    11    25    26	 9 ;       HGA1      CG311      CG311      CG324
   61    11    25    42	 9 ;       HGA1      CG311      CG311      OG311
   61    11    25    68	 9 ;       HGA1      CG311      CG311       HGA1
   24    12    13    15	 9 ;       HGP1      NG2S1      CG2O1     CG2R61
   24    12    13    14	 9 ;       HGP1      NG2S1      CG2O1      OG2D1
   11    12    13    15	 9 ;      CG311      NG2S1      CG2O1     CG2R61
   11    12    13    14	 9 ;      CG311      NG2S1      CG2O1      OG2D1
   12    13    15    20	 9 ;      NG2S1      CG2O1     CG2R61     CG2R61
   12    13    15    16	 9 ;      NG2S1      CG2O1     CG2R61     CG2R61
   14    13    15    20	 9 ;      OG2D1      CG2O1     CG2R61     CG2R61
   14    13    15    16	 9 ;      OG2D1      CG2O1     CG2R61     CG2R61
   16    15    20    19	 9 ;     CG2R61     CG2R61     CG2R61     CG2R61
   16    15    20    64	 9 ;     CG2R61     CG2R61     CG2R61      HGR61
   13    15    20    19	 9 ;      CG2O1     CG2R61     CG2R61     CG2R61
   13    15    20    64	 9 ;      CG2O1     CG2R61     CG2R61      HGR61
   20    15    16    17	 9 ;     CG2R61     CG2R61     CG2R61     CG2R61
   20    15    16    62	 9 ;     CG2R61     CG2R61     CG2R61      HGR61
   13    15    16    17	 9 ;      CG2O1     CG2R61     CG2R61     CG2R61
   13    15    16    62	 9 ;      CG2O1     CG2R61     CG2R61      HGR61
   15    16    17    18	 9 ;     CG2R61     CG2R61     CG2R61     CG2R61
   15    16    17    44	 9 ;     CG2R61     CG2R61     CG2R61     NG2R53
   62    16    17    18	 9 ;      HGR61     CG2R61     CG2R61     CG2R61
   62    16    17    44	 9 ;      HGR61     CG2R61     CG2R61     NG2R53
   44    17    18    19	 9 ;     NG2R53     CG2R61     CG2R61     CG2R61
   44    17    18    63	 9 ;     NG2R53     CG2R61     CG2R61      HGR61
   16    17    18    19	 9 ;     CG2R61     CG2R61     CG2R61     CG2R61
   16    17    18    63	 9 ;     CG2R61     CG2R61     CG2R61      HGR61
   18    17    44    45	 9 ;     CG2R61     CG2R61     NG2R53     CG3C52
   18    17    44    48	 9 ;     CG2R61     CG2R61     NG2R53     CG2R53
   16    17    44    45	 9 ;     CG2R61     CG2R61     NG2R53     CG3C52
   16    17    44    48	 9 ;     CG2R61     CG2R61     NG2R53     CG2R53
   17    18    19     1	 9 ;     CG2R61     CG2R61     CG2R61      OG301
   17    18    19    20	 9 ;     CG2R61     CG2R61     CG2R61     CG2R61
   63    18    19     1	 9 ;      HGR61     CG2R61     CG2R61      OG301
   63    18    19    20	 9 ;      HGR61     CG2R61     CG2R61     CG2R61
    1    19    20    15	 9 ;      OG301     CG2R61     CG2R61     CG2R61
    1    19    20    64	 9 ;      OG301     CG2R61     CG2R61      HGR61
   18    19    20    15	 9 ;     CG2R61     CG2R61     CG2R61     CG2R61
   18    19    20    64	 9 ;     CG2R61     CG2R61     CG2R61      HGR61
    9    21    22    23	 9 ;     CG2R61     CG2R61     CG2R61     CG2R61
    9    21    22    66	 9 ;     CG2R61     CG2R61     CG2R61      HGR61
   65    21    22    23	 9 ;      HGR61     CG2R61     CG2R61     CG2R61
   65    21    22    66	 9 ;      HGR61     CG2R61     CG2R61      HGR61
   21    22    23     7	 9 ;     CG2R61     CG2R61     CG2R61     CG2R61
   21    22    23    67	 9 ;     CG2R61     CG2R61     CG2R61      HGR61
   66    22    23     7	 9 ;      HGR61     CG2R61     CG2R61     CG2R61
   66    22    23    67	 9 ;      HGR61     CG2R61     CG2R61      HGR61
   11    25    26    27	 9 ;      CG311      CG311      CG324      NG3P2
   11    25    26    69	 9 ;      CG311      CG311      CG324       HGA2
   11    25    26    70	 9 ;      CG311      CG311      CG324       HGA2
   42    25    26    27	 9 ;      OG311      CG311      CG324      NG3P2
   42    25    26    69	 9 ;      OG311      CG311      CG324       HGA2
   42    25    26    70	 9 ;      OG311      CG311      CG324       HGA2
   68    25    26    27	 9 ;       HGA1      CG311      CG324      NG3P2
   68    25    26    69	 9 ;       HGA1      CG311      CG324       HGA2
   68    25    26    70	 9 ;       HGA1      CG311      CG324       HGA2
   11    25    42    43	 9 ;      CG311      CG311      OG311       HGP1
   26    25    42    43	 9 ;      CG324      CG311      OG311       HGP1
   68    25    42    43	 9 ;       HGA1      CG311      OG311       HGP1
   25    26    27    28	 9 ;      CG311      CG324      NG3P2       HGP2
   25    26    27    29	 9 ;      CG311      CG324      NG3P2       HGP2
   25    26    27    30	 9 ;      CG311      CG324      NG3P2     CG3C31
   69    26    27    28	 9 ;       HGA2      CG324      NG3P2       HGP2
   69    26    27    29	 9 ;       HGA2      CG324      NG3P2       HGP2
   69    26    27    30	 9 ;       HGA2      CG324      NG3P2     CG3C31
   70    26    27    28	 9 ;       HGA2      CG324      NG3P2       HGP2
   70    26    27    29	 9 ;       HGA2      CG324      NG3P2       HGP2
   70    26    27    30	 9 ;       HGA2      CG324      NG3P2     CG3C31
   26    27    30    32	 9 ;      CG324      NG3P2     CG3C31     CG3C31
   26    27    30    33	 9 ;      CG324      NG3P2     CG3C31     CG2R61
   26    27    30    31	 9 ;      CG324      NG3P2     CG3C31     CG3C31
   28    27    30    32	 9 ;       HGP2      NG3P2     CG3C31     CG3C31
   28    27    30    33	 9 ;       HGP2      NG3P2     CG3C31     CG2R61
   28    27    30    31	 9 ;       HGP2      NG3P2     CG3C31     CG3C31
   29    27    30    32	 9 ;       HGP2      NG3P2     CG3C31     CG3C31
   29    27    30    33	 9 ;       HGP2      NG3P2     CG3C31     CG2R61
   29    27    30    31	 9 ;       HGP2      NG3P2     CG3C31     CG3C31
   27    30    32    31	 9 ;      NG3P2     CG3C31     CG3C31     CG3C31
   27    30    32    73	 9 ;      NG3P2     CG3C31     CG3C31       HGA2
   27    30    32    74	 9 ;      NG3P2     CG3C31     CG3C31       HGA2
   33    30    32    31	 9 ;     CG2R61     CG3C31     CG3C31     CG3C31
   33    30    32    73	 9 ;     CG2R61     CG3C31     CG3C31       HGA2
   33    30    32    74	 9 ;     CG2R61     CG3C31     CG3C31       HGA2
   31    30    32    73	 9 ;     CG3C31     CG3C31     CG3C31       HGA2
   31    30    32    74	 9 ;     CG3C31     CG3C31     CG3C31       HGA2
   27    30    33    38	 9 ;      NG3P2     CG3C31     CG2R61     CG2R61
   27    30    33    34	 9 ;      NG3P2     CG3C31     CG2R61     CG2R61
   32    30    33    38	 9 ;     CG3C31     CG3C31     CG2R61     CG2R61
   32    30    33    34	 9 ;     CG3C31     CG3C31     CG2R61     CG2R61
   31    30    33    38	 9 ;     CG3C31     CG3C31     CG2R61     CG2R61
   31    30    33    34	 9 ;     CG3C31     CG3C31     CG2R61     CG2R61
   27    30    31    32	 9 ;      NG3P2     CG3C31     CG3C31     CG3C31
   27    30    31    71	 9 ;      NG3P2     CG3C31     CG3C31       HGA2
   27    30    31    72	 9 ;      NG3P2     CG3C31     CG3C31       HGA2
   32    30    31    71	 9 ;     CG3C31     CG3C31     CG3C31       HGA2
   32    30    31    72	 9 ;     CG3C31     CG3C31     CG3C31       HGA2
   33    30    31    32	 9 ;     CG2R61     CG3C31     CG3C31     CG3C31
   33    30    31    71	 9 ;     CG2R61     CG3C31     CG3C31       HGA2
   33    30    31    72	 9 ;     CG2R61     CG3C31     CG3C31       HGA2
   30    31    32    73	 9 ;     CG3C31     CG3C31     CG3C31       HGA2
   30    31    32    74	 9 ;     CG3C31     CG3C31     CG3C31       HGA2
   71    31    32    30	 9 ;       HGA2     CG3C31     CG3C31     CG3C31
   71    31    32    73	 9 ;       HGA2     CG3C31     CG3C31       HGA2
   71    31    32    74	 9 ;       HGA2     CG3C31     CG3C31       HGA2
   72    31    32    30	 9 ;       HGA2     CG3C31     CG3C31     CG3C31
   72    31    32    73	 9 ;       HGA2     CG3C31     CG3C31       HGA2
   72    31    32    74	 9 ;       HGA2     CG3C31     CG3C31       HGA2
   30    33    38    37	 9 ;     CG3C31     CG2R61     CG2R61     CG2R61
   30    33    38    78	 9 ;     CG3C31     CG2R61     CG2R61      HGR61
   34    33    38    37	 9 ;     CG2R61     CG2R61     CG2R61     CG2R61
   34    33    38    78	 9 ;     CG2R61     CG2R61     CG2R61      HGR61
   30    33    34    35	 9 ;     CG3C31     CG2R61     CG2R61     CG2R61
   30    33    34    75	 9 ;     CG3C31     CG2R61     CG2R61      HGR61
   38    33    34    35	 9 ;     CG2R61     CG2R61     CG2R61     CG2R61
   38    33    34    75	 9 ;     CG2R61     CG2R61     CG2R61      HGR61
   33    34    35    36	 9 ;     CG2R61     CG2R61     CG2R61     CG2R61
   33    34    35    39	 9 ;     CG2R61     CG2R61     CG2R61      CG311
   75    34    35    36	 9 ;      HGR61     CG2R61     CG2R61     CG2R61
   75    34    35    39	 9 ;      HGR61     CG2R61     CG2R61      CG311
   34    35    36    37	 9 ;     CG2R61     CG2R61     CG2R61     CG2R61
   34    35    36    76	 9 ;     CG2R61     CG2R61     CG2R61      HGR61
   39    35    36    37	 9 ;      CG311     CG2R61     CG2R61     CG2R61
   39    35    36    76	 9 ;      CG311     CG2R61     CG2R61      HGR61
   34    35    39    41	 9 ;     CG2R61     CG2R61      CG311      CG331
   34    35    39    40	 9 ;     CG2R61     CG2R61      CG311      CG331
   34    35    39    79	 9 ;     CG2R61     CG2R61      CG311       HGA1
   36    35    39    41	 9 ;     CG2R61     CG2R61      CG311      CG331
   36    35    39    40	 9 ;     CG2R61     CG2R61      CG311      CG331
   36    35    39    79	 9 ;     CG2R61     CG2R61      CG311       HGA1
   35    36    37    38	 9 ;     CG2R61     CG2R61     CG2R61     CG2R61
   35    36    37    77	 9 ;     CG2R61     CG2R61     CG2R61      HGR61
   76    36    37    38	 9 ;      HGR61     CG2R61     CG2R61     CG2R61
   76    36    37    77	 9 ;      HGR61     CG2R61     CG2R61      HGR61
   36    37    38    33	 9 ;     CG2R61     CG2R61     CG2R61     CG2R61
   36    37    38    78	 9 ;     CG2R61     CG2R61     CG2R61      HGR61
   77    37    38    33	 9 ;      HGR61     CG2R61     CG2R61     CG2R61
   77    37    38    78	 9 ;      HGR61     CG2R61     CG2R61      HGR61
   35    39    41    83	 9 ;     CG2R61      CG311      CG331       HGA3
   35    39    41    84	 9 ;     CG2R61      CG311      CG331       HGA3
   35    39    41    85	 9 ;     CG2R61      CG311      CG331       HGA3
   40    39    41    83	 9 ;      CG331      CG311      CG331       HGA3
   40    39    41    84	 9 ;      CG331      CG311      CG331       HGA3
   40    39    41    85	 9 ;      CG331      CG311      CG331       HGA3
   79    39    41    83	 9 ;       HGA1      CG311      CG331       HGA3
   79    39    41    84	 9 ;       HGA1      CG311      CG331       HGA3
   79    39    41    85	 9 ;       HGA1      CG311      CG331       HGA3
   35    39    40    80	 9 ;     CG2R61      CG311      CG331       HGA3
   35    39    40    81	 9 ;     CG2R61      CG311      CG331       HGA3
   35    39    40    82	 9 ;     CG2R61      CG311      CG331       HGA3
   41    39    40    80	 9 ;      CG331      CG311      CG331       HGA3
   41    39    40    81	 9 ;      CG331      CG311      CG331       HGA3
   41    39    40    82	 9 ;      CG331      CG311      CG331       HGA3
   79    39    40    80	 9 ;       HGA1      CG311      CG331       HGA3
   79    39    40    81	 9 ;       HGA1      CG311      CG331       HGA3
   79    39    40    82	 9 ;       HGA1      CG311      CG331       HGA3
   17    44    45    46	 9 ;     CG2R61     NG2R53     CG3C52     CG3C52
   17    44    45    86	 9 ;     CG2R61     NG2R53     CG3C52       HGA2
   17    44    45    87	 9 ;     CG2R61     NG2R53     CG3C52       HGA2
   48    44    45    46	 9 ;     CG2R53     NG2R53     CG3C52     CG3C52
   48    44    45    86	 9 ;     CG2R53     NG2R53     CG3C52       HGA2
   48    44    45    87	 9 ;     CG2R53     NG2R53     CG3C52       HGA2
   45    44    48    47	 9 ;     CG3C52     NG2R53     CG2R53     CG3C52
   45    44    48    49	 9 ;     CG3C52     NG2R53     CG2R53      OG2D1
   17    44    48    47	 9 ;     CG2R61     NG2R53     CG2R53     CG3C52
   17    44    48    49	 9 ;     CG2R61     NG2R53     CG2R53      OG2D1
   44    45    46    47	 9 ;     NG2R53     CG3C52     CG3C52     CG3C52
   44    45    46    88	 9 ;     NG2R53     CG3C52     CG3C52       HGA2
   44    45    46    89	 9 ;     NG2R53     CG3C52     CG3C52       HGA2
   86    45    46    47	 9 ;       HGA2     CG3C52     CG3C52     CG3C52
   86    45    46    88	 9 ;       HGA2     CG3C52     CG3C52       HGA2
   86    45    46    89	 9 ;       HGA2     CG3C52     CG3C52       HGA2
   87    45    46    47	 9 ;       HGA2     CG3C52     CG3C52     CG3C52
   87    45    46    88	 9 ;       HGA2     CG3C52     CG3C52       HGA2
   87    45    46    89	 9 ;       HGA2     CG3C52     CG3C52       HGA2
   45    46    47    48	 9 ;     CG3C52     CG3C52     CG3C52     CG2R53
   45    46    47    90	 9 ;     CG3C52     CG3C52     CG3C52       HGA2
   45    46    47    91	 9 ;     CG3C52     CG3C52     CG3C52       HGA2
   88    46    47    48	 9 ;       HGA2     CG3C52     CG3C52     CG2R53
   88    46    47    90	 9 ;       HGA2     CG3C52     CG3C52       HGA2
   88    46    47    91	 9 ;       HGA2     CG3C52     CG3C52       HGA2
   89    46    47    48	 9 ;       HGA2     CG3C52     CG3C52     CG2R53
   89    46    47    90	 9 ;       HGA2     CG3C52     CG3C52       HGA2
   89    46    47    91	 9 ;       HGA2     CG3C52     CG3C52       HGA2
   46    47    48    44	 9 ;     CG3C52     CG3C52     CG2R53     NG2R53
   46    47    48    49	 9 ;     CG3C52     CG3C52     CG2R53      OG2D1
   90    47    48    44	 9 ;       HGA2     CG3C52     CG2R53     NG2R53
   90    47    48    49	 9 ;       HGA2     CG3C52     CG2R53      OG2D1
   91    47    48    44	 9 ;       HGA2     CG3C52     CG2R53     NG2R53
   91    47    48    49	 9 ;       HGA2     CG3C52     CG2R53      OG2D1

[ dihedrals ]
;	ai	  aj	ak	  al funct			  c0			c1			  c2			c3
   13    15    12    14	 2
   48    47    44    49	 2

