GROwing Monsters And Cloning Shrimps
   91
    1LIG     O1    1  -1.372   0.483  -1.880
    1LIG     C1    2  -1.347   0.596  -1.791
    1LIG     C2    3  -1.367   0.731  -1.858
    1LIG     C3    4  -1.470   0.734  -1.972
    1LIG     C4    5  -1.610   0.676  -1.944
    1LIG     O2    6  -1.708   0.775  -1.911
    1LIG     C5    7  -1.712   0.826  -1.785
    1LIG     C6    8  -1.643   0.772  -1.677
    1LIG     C7    9  -1.639   0.834  -1.552
    1LIG     C8   10  -1.555   0.772  -1.442
    1LIG     C9   11  -1.590   0.627  -1.395
    1LIG     N1   12  -1.548   0.522  -1.488
    1LIG    C10   13  -1.463   0.416  -1.458
    1LIG     O3   14  -1.414   0.401  -1.347
    1LIG    C11   15  -1.423   0.330  -1.577
    1LIG    C12   16  -1.311   0.244  -1.571
    1LIG    C13   17  -1.242   0.208  -1.689
    1LIG    C14   18  -1.270   0.282  -1.804
    1LIG    C15   19  -1.377   0.369  -1.802
    1LIG    C16   20  -1.471   0.365  -1.701
    1LIG    C17   21  -1.711   0.953  -1.536
    1LIG    C18   22  -1.789   1.003  -1.641
    1LIG    C19   23  -1.789   0.939  -1.765
    1LIG     H1   24  -1.611   0.511  -1.566
    1LIG    C20   25  -1.739   0.603  -1.364
    1LIG    C21   26  -1.760   0.469  -1.296
    1LIG     N2   27  -1.796   0.496  -1.156
    1LIG     H2   28  -1.818   0.597  -1.145
    1LIG     H3   29  -1.887   0.452  -1.137
    1LIG    C22   30  -1.703   0.457  -1.049
    1LIG    C23   31  -1.639   0.567  -0.968
    1LIG    C24   32  -1.556   0.485  -1.063
    1LIG    C25   33  -1.753   0.334  -0.979
    1LIG    C26   34  -1.661   0.238  -0.930
    1LIG    C27   35  -1.700   0.135  -0.846
    1LIG    C28   36  -1.834   0.128  -0.806
    1LIG    C29   37  -1.928   0.219  -0.855
    1LIG    C30   38  -1.889   0.320  -0.942
    1LIG    C31   39  -1.596   0.033  -0.802
    1LIG    C32   40  -1.495   0.092  -0.705
    1LIG    C33   41  -1.665  -0.092  -0.746
    1LIG     O4   42  -1.803   0.706  -1.286
    1LIG     H4   43  -1.740   0.747  -1.223
    1LIG     N3   44  -1.139   0.111  -1.691
    1LIG    C34   45  -1.001   0.142  -1.721
    1LIG    C35   46  -0.935   0.009  -1.750
    1LIG    C36   47  -1.018  -0.090  -1.672
    1LIG    C37   48  -1.155  -0.026  -1.665
    1LIG     O5   49  -1.257  -0.087  -1.639
    1LIG     H5   50  -1.246   0.590  -1.757
    1LIG     H6   51  -1.418   0.589  -1.711
    1LIG     H7   52  -1.399   0.800  -1.783
    1LIG     H8   53  -1.273   0.756  -1.903
    1LIG     H9   54  -1.482   0.836  -2.001
    1LIG    H10   55  -1.429   0.669  -2.047
    1LIG    H11   56  -1.602   0.608  -1.862
    1LIG    H12   57  -1.642   0.629  -2.034
    1LIG    H13   58  -1.593   0.683  -1.689
    1LIG    H14   59  -1.562   0.836  -1.356
    1LIG    H15   60  -1.457   0.764  -1.485
    1LIG    H16   61  -1.533   0.620  -1.304
    1LIG    H17   62  -1.280   0.207  -1.480
    1LIG    H18   63  -1.213   0.271  -1.889
    1LIG    H19   64  -1.571   0.387  -1.717
    1LIG    H20   65  -1.707   1.004  -1.446
    1LIG    H21   66  -1.847   1.088  -1.626
    1LIG    H22   67  -1.848   0.976  -1.842
    1LIG    H23   68  -1.786   0.605  -1.460
    1LIG    H24   69  -1.670   0.412  -1.300
    1LIG    H25   70  -1.837   0.414  -1.345
    1LIG    H26   71  -1.661   0.670  -0.991
    1LIG    H27   72  -1.633   0.592  -0.864
    1LIG    H28   73  -1.519   0.529  -1.153
    1LIG    H29   74  -1.467   0.427  -1.054
    1LIG    H30   75  -1.562   0.246  -0.958
    1LIG    H31   76  -1.864   0.054  -0.740
    1LIG    H32   77  -2.026   0.211  -0.826
    1LIG    H33   78  -1.959   0.386  -0.979
    1LIG    H34   79  -1.541   0.004  -0.889
    1LIG    H35   80  -1.545   0.123  -0.615
    1LIG    H36   81  -1.447   0.176  -0.750
    1LIG    H37   82  -1.422   0.018  -0.680
    1LIG    H38   83  -1.722  -0.065  -0.659
    1LIG    H39   84  -1.591  -0.164  -0.719
    1LIG    H40   85  -1.730  -0.133  -0.820
    1LIG    H41   86  -0.995   0.206  -1.807
    1LIG    H42   87  -0.953   0.194  -1.641
    1LIG    H43   88  -0.834   0.009  -1.715
    1LIG    H44   89  -0.931  -0.013  -1.854
    1LIG    H45   90  -0.978  -0.105  -1.574
    1LIG    H46   91  -1.021  -0.187  -1.718
   0.00000   0.00000   0.00000
