Gnomes, ROck Monsters And Chili Sauce
   72
    1LIG     C1    1  -1.929   0.532  -1.463
    1LIG     C2    2  -1.834   0.415  -1.483
    1LIG     C3    3  -1.690   0.437  -1.505
    1LIG     C4    4  -1.690   0.551  -1.571
    1LIG     C5    5  -1.745   0.668  -1.526
    1LIG     C6    6  -1.871   0.660  -1.467
    1LIG     C7    7  -1.667   0.784  -1.574
    1LIG     O1    8  -1.670   0.884  -1.510
    1LIG     N1    9  -1.577   0.769  -1.682
    1LIG     C8   10  -1.531   0.647  -1.750
    1LIG     C9   11  -1.485   0.640  -1.894
    1LIG    C10   12  -1.344   0.681  -1.893
    1LIG    C11   13  -1.243   0.594  -1.911
    1LIG    C12   14  -1.105   0.631  -1.870
    1LIG     O2   15  -1.058   0.561  -1.754
    1LIG    C13   16  -1.139   0.464  -1.679
    1LIG    C14   17  -1.250   0.529  -1.578
    1LIG     N2   18  -1.411   0.458  -1.557
    1LIG    C15   19  -1.534   0.372  -1.549
    1LIG     O3   20  -1.529   0.262  -1.601
    1LIG     H1   21  -1.504   0.839  -1.668
    1LIG     H2   22  -1.391   0.405  -1.643
    1LIG    C16   23  -1.174   0.608  -1.461
    1LIG    C17   24  -1.138   0.533  -1.331
    1LIG     N3   25  -1.177   0.384  -1.340
    1LIG     H3   26  -1.215   0.366  -1.434
    1LIG     H4   27  -1.095   0.322  -1.337
    1LIG    C18   28  -1.279   0.336  -1.240
    1LIG    C19   29  -1.294   0.187  -1.245
    1LIG    C20   30  -1.269   0.107  -1.132
    1LIG    C21   31  -1.265  -0.032  -1.143
    1LIG    C22   32  -1.292  -0.093  -1.266
    1LIG    C23   33  -1.327  -0.015  -1.376
    1LIG    C24   34  -1.326   0.124  -1.366
    1LIG     O4   35  -1.059   0.676  -1.511
    1LIG     H5   36  -0.980   0.662  -1.456
    1LIG     N4   37  -2.081   0.529  -1.462
    1LIG    C25   38  -2.168   0.519  -1.582
    1LIG      S   39  -2.171   0.551  -1.314
    1LIG     O5   40  -2.313   0.540  -1.346
    1LIG     O6   41  -2.122   0.666  -1.241
    1LIG    C26   42  -2.128   0.406  -1.217
    1LIG     HC   43  -1.873   0.314  -1.480
    1LIG    HC1   44  -1.643   0.552  -1.669
    1LIG    HC2   45  -1.921   0.747  -1.426
    1LIG    HC3   46  -1.447   0.611  -1.691
    1LIG    HC4   47  -1.611   0.573  -1.738
    1LIG    HC5   48  -1.495   0.538  -1.932
    1LIG    HC6   49  -1.544   0.708  -1.955
    1LIG    HC7   50  -1.320   0.786  -1.879
    1LIG    HC8   51  -1.262   0.497  -1.954
    1LIG    HC9   52  -1.104   0.738  -1.849
    1LIG   HC10   53  -1.038   0.611  -1.953
    1LIG   HC11   54  -1.191   0.401  -1.751
    1LIG   HC12   55  -1.072   0.401  -1.620
    1LIG   HC13   56  -1.279   0.614  -1.639
    1LIG   HC14   57  -1.243   0.687  -1.430
    1LIG   HC15   58  -1.192   0.579  -1.248
    1LIG   HC16   59  -1.031   0.541  -1.314
    1LIG   HC17   60  -1.375   0.383  -1.263
    1LIG   HC18   61  -1.247   0.366  -1.140
    1LIG   HC19   62  -1.253   0.154  -1.036
    1LIG   HC20   63  -1.240  -0.092  -1.058
    1LIG   HC21   64  -1.287  -0.200  -1.275
    1LIG   HC22   65  -1.354  -0.062  -1.469
    1LIG   HC23   66  -1.351   0.184  -1.452
    1LIG   HC24   67  -2.106   0.511  -1.671
    1LIG   HC25   68  -2.231   0.431  -1.574
    1LIG   HC26   69  -2.230   0.609  -1.589
    1LIG   HC27   70  -2.181   0.410  -1.121
    1LIG   HC28   71  -2.021   0.405  -1.200
    1LIG   HC29   72  -2.158   0.316  -1.271
   0.00000   0.00000   0.00000
