; Created by cgenff_charmm2gmx.py

[ moleculetype ]
; Name			   nrexcl
LIG				 3

[ atoms ]
;	 nr		  type	resnr residue  atom   cgnr	   charge		mass  typeB    chargeB		massB
; residue	 1 LIG rtp LIG q	qsum
     1     CG2R61      1    LIG     C1      1      0.138     12.011   ;
     2     CG2R61      1    LIG     C2      2     -0.064     12.011   ;
     3     CG2R61      1    LIG     C3      3     -0.101     12.011   ;
     4     CG2R61      1    LIG     C4      4     -0.004     12.011   ;
     5     CG2R61      1    LIG     C5      5     -0.102     12.011   ;
     6     CG2R61      1    LIG     C6      6     -0.064     12.011   ;
     7      CG2O1      1    LIG     C7      7      0.347     12.011   ;
     8      OG2D1      1    LIG     O1      8     -0.467     15.999   ;
     9      NG2S1      1    LIG     N1      9     -0.356     14.007   ;
    10      CG321      1    LIG     C8     10     -0.005     12.011   ;
    11      CG321      1    LIG     C9     11     -0.145     12.011   ;
    12      CG2D1      1    LIG    C10     12     -0.095     12.011   ;
    13      CG2D1      1    LIG    C11     13     -0.400     12.011   ;
    14      CG321      1    LIG    C12     14      0.102     12.011   ;
    15      OG301      1    LIG     O2     15     -0.299     15.999   ;
    16      CG321      1    LIG    C13     16      0.020     12.011   ;
    17      CG311      1    LIG    C14     17     -0.022     12.011   ;
    18      NG2S1      1    LIG     N2     18     -0.224     14.007   ;
    19      CG2O1      1    LIG    C15     19      0.302     12.011   ;
    20      OG2D1      1    LIG     O3     20     -0.463     15.999   ;
    21       HGP1      1    LIG     H1     21      0.298      1.008   ;
    22       HGP1      1    LIG     H2     22      0.262      1.008   ;
    23      CG311      1    LIG    C16     23      0.117     12.011   ;
    24      CG324      1    LIG    C17     24      0.178     12.011   ;
    25      NG3P2      1    LIG     N3     25     -0.444     14.007   ;
    26       HGP2      1    LIG     H3     26      0.348      1.008   ;
    27       HGP2      1    LIG     H4     27      0.348      1.008   ;
    28      CG324      1    LIG    C18     28      0.171     12.011   ;
    29     CG2R61      1    LIG    C19     29      0.033     12.011   ;
    30     CG2R61      1    LIG    C20     30     -0.119     12.011   ;
    31     CG2R61      1    LIG    C21     31     -0.111     12.011   ;
    32     CG2R61      1    LIG    C22     32     -0.116     12.011   ;
    33     CG2R61      1    LIG    C23     33     -0.111     12.011   ;
    34     CG2R61      1    LIG    C24     34     -0.119     12.011   ;
    35      OG311      1    LIG     O4     35     -0.625     15.999   ;
    36       HGP1      1    LIG     H5     36      0.415      1.008   ;
    37      NG301      1    LIG     N4     37     -0.228     14.007   ;
    38      CG331      1    LIG    C25     38     -0.103     12.011   ;
    39      SG3O2      1    LIG      S     39      0.397     32.060   ;
    40      OG2P1      1    LIG     O5     40     -0.388     15.999   ;
    41      OG2P1      1    LIG     O6     41     -0.388     15.999   ;
    42      CG331      1    LIG    C26     42      0.036     12.011   ;
    43      HGR61      1    LIG     HC     43      0.116      1.008   ;
    44      HGR61      1    LIG    HC1     44      0.116      1.008   ;
    45      HGR61      1    LIG    HC2     45      0.116      1.008   ;
    46       HGA2      1    LIG    HC3     46      0.090      1.008   ;
    47       HGA2      1    LIG    HC4     47      0.090      1.008   ;
    48       HGA2      1    LIG    HC5     48      0.090      1.008   ;
    49       HGA2      1    LIG    HC6     49      0.090      1.008   ;
    50       HGA4      1    LIG    HC7     50      0.150      1.008   ;
    51       HGA4      1    LIG    HC8     51      0.173      1.008   ;
    52       HGA2      1    LIG    HC9     52      0.090      1.008   ;
    53       HGA2      1    LIG   HC10     53      0.090      1.008   ;
    54       HGA2      1    LIG   HC11     54      0.090      1.008   ;
    55       HGA2      1    LIG   HC12     55      0.090      1.008   ;
    56       HGA1      1    LIG   HC13     56      0.090      1.008   ;
    57       HGA1      1    LIG   HC14     57      0.090      1.008   ;
    58       HGA2      1    LIG   HC15     58      0.090      1.008   ;
    59       HGA2      1    LIG   HC16     59      0.090      1.008   ;
    60       HGA2      1    LIG   HC17     60      0.090      1.008   ;
    61       HGA2      1    LIG   HC18     61      0.090      1.008   ;
    62      HGR61      1    LIG   HC19     62      0.116      1.008   ;
    63      HGR61      1    LIG   HC20     63      0.116      1.008   ;
    64      HGR61      1    LIG   HC21     64      0.116      1.008   ;
    65      HGR61      1    LIG   HC22     65      0.116      1.008   ;
    66      HGR61      1    LIG   HC23     66      0.116      1.008   ;
    67       HGA3      1    LIG   HC24     67      0.090      1.008   ;
    68       HGA3      1    LIG   HC25     68      0.090      1.008   ;
    69       HGA3      1    LIG   HC26     69      0.090      1.008   ;
    70       HGA3      1    LIG   HC27     70      0.090      1.008   ;
    71       HGA3      1    LIG   HC28     71      0.090      1.008   ;
    72       HGA3      1    LIG   HC29     72      0.090      1.008   ;

[ bonds ]
;	ai	  aj funct			  c0			c1			  c2			c3
    1     2	 1 ;      CG2R61     CG2R61
    1     6	 1 ;      CG2R61     CG2R61
    1    37	 1 ;      CG2R61      NG301
    2     3	 1 ;      CG2R61     CG2R61
    2    43	 1 ;      CG2R61      HGR61
    3    19	 1 ;      CG2R61      CG2O1
    3     4	 1 ;      CG2R61     CG2R61
    4     5	 1 ;      CG2R61     CG2R61
    4    44	 1 ;      CG2R61      HGR61
    5     7	 1 ;      CG2R61      CG2O1
    5     6	 1 ;      CG2R61     CG2R61
    6    45	 1 ;      CG2R61      HGR61
    7     9	 1 ;       CG2O1      NG2S1
    7     8	 1 ;       CG2O1      OG2D1
    9    10	 1 ;       NG2S1      CG321
    9    21	 1 ;       NG2S1       HGP1
   10    11	 1 ;       CG321      CG321
   10    46	 1 ;       CG321       HGA2
   10    47	 1 ;       CG321       HGA2
   11    12	 1 ;       CG321      CG2D1
   11    48	 1 ;       CG321       HGA2
   11    49	 1 ;       CG321       HGA2
   12    13	 1 ;       CG2D1      CG2D1
   12    50	 1 ;       CG2D1       HGA4
   13    14	 1 ;       CG2D1      CG321
   13    51	 1 ;       CG2D1       HGA4
   14    15	 1 ;       CG321      OG301
   14    52	 1 ;       CG321       HGA2
   14    53	 1 ;       CG321       HGA2
   15    16	 1 ;       OG301      CG321
   16    17	 1 ;       CG321      CG311
   16    54	 1 ;       CG321       HGA2
   16    55	 1 ;       CG321       HGA2
   17    23	 1 ;       CG311      CG311
   17    18	 1 ;       CG311      NG2S1
   17    56	 1 ;       CG311       HGA1
   18    22	 1 ;       NG2S1       HGP1
   18    19	 1 ;       NG2S1      CG2O1
   19    20	 1 ;       CG2O1      OG2D1
   23    35	 1 ;       CG311      OG311
   23    24	 1 ;       CG311      CG324
   23    57	 1 ;       CG311       HGA1
   24    25	 1 ;       CG324      NG3P2
   24    58	 1 ;       CG324       HGA2
   24    59	 1 ;       CG324       HGA2
   25    27	 1 ;       NG3P2       HGP2
   25    26	 1 ;       NG3P2       HGP2
   25    28	 1 ;       NG3P2      CG324
   28    29	 1 ;       CG324     CG2R61
   28    60	 1 ;       CG324       HGA2
   28    61	 1 ;       CG324       HGA2
   29    34	 1 ;      CG2R61     CG2R61
   29    30	 1 ;      CG2R61     CG2R61
   30    31	 1 ;      CG2R61     CG2R61
   30    62	 1 ;      CG2R61      HGR61
   31    32	 1 ;      CG2R61     CG2R61
   31    63	 1 ;      CG2R61      HGR61
   32    33	 1 ;      CG2R61     CG2R61
   32    64	 1 ;      CG2R61      HGR61
   33    34	 1 ;      CG2R61     CG2R61
   33    65	 1 ;      CG2R61      HGR61
   34    66	 1 ;      CG2R61      HGR61
   35    36	 1 ;       OG311       HGP1
   37    38	 1 ;       NG301      CG331
   37    39	 1 ;       NG301      SG3O2
   38    67	 1 ;       CG331       HGA3
   38    68	 1 ;       CG331       HGA3
   38    69	 1 ;       CG331       HGA3
   39    42	 1 ;       SG3O2      CG331
   39    41	 1 ;       SG3O2      OG2P1
   39    40	 1 ;       SG3O2      OG2P1
   42    70	 1 ;       CG331       HGA3
   42    71	 1 ;       CG331       HGA3
   42    72	 1 ;       CG331       HGA3

[ pairs ]
;	ai	  aj funct			  c0			c1			  c2			c3
    1    19	 1
    1     4	 1
    1     7	 1
    1    67	 1
    1    68	 1
    1    69	 1
    1    42	 1
    1    41	 1
    1    40	 1
    2     5	 1
    2    45	 1
    2    38	 1
    2    39	 1
    2    18	 1
    2    20	 1
    2    44	 1
    3     6	 1
    3    37	 1
    3     7	 1
    3    17	 1
    3    22	 1
    4    43	 1
    4    18	 1
    4    20	 1
    4     9	 1
    4     8	 1
    4    45	 1
    5    37	 1
    5    19	 1
    5    10	 1
    5    21	 1
    6    43	 1
    6    38	 1
    6    39	 1
    6    44	 1
    6     9	 1
    6     8	 1
    7    44	 1
    7    45	 1
    7    11	 1
    7    46	 1
    7    47	 1
    8    10	 1
    8    21	 1
    9    12	 1
    9    48	 1
    9    49	 1
   10    13	 1
   10    50	 1
   11    21	 1
   11    14	 1
   11    51	 1
   12    46	 1
   12    47	 1
   12    15	 1
   12    52	 1
   12    53	 1
   13    48	 1
   13    49	 1
   13    16	 1
   14    50	 1
   14    17	 1
   14    54	 1
   14    55	 1
   15    51	 1
   15    23	 1
   15    18	 1
   15    56	 1
   16    52	 1
   16    53	 1
   16    35	 1
   16    24	 1
   16    57	 1
   16    22	 1
   16    19	 1
   17    20	 1
   17    36	 1
   17    25	 1
   17    58	 1
   17    59	 1
   18    54	 1
   18    55	 1
   18    35	 1
   18    24	 1
   18    57	 1
   19    43	 1
   19    44	 1
   19    23	 1
   19    56	 1
   20    22	 1
   21    46	 1
   21    47	 1
   22    23	 1
   22    56	 1
   23    54	 1
   23    55	 1
   23    27	 1
   23    26	 1
   23    28	 1
   24    56	 1
   24    36	 1
   24    29	 1
   24    60	 1
   24    61	 1
   25    35	 1
   25    57	 1
   25    34	 1
   25    30	 1
   26    58	 1
   26    59	 1
   26    29	 1
   26    60	 1
   26    61	 1
   27    58	 1
   27    59	 1
   27    29	 1
   27    60	 1
   27    61	 1
   28    58	 1
   28    59	 1
   28    33	 1
   28    66	 1
   28    31	 1
   28    62	 1
   29    32	 1
   29    63	 1
   29    65	 1
   30    60	 1
   30    61	 1
   30    33	 1
   30    66	 1
   30    64	 1
   31    34	 1
   31    65	 1
   32    62	 1
   32    66	 1
   33    63	 1
   34    60	 1
   34    61	 1
   34    62	 1
   34    64	 1
   35    56	 1
   35    58	 1
   35    59	 1
   36    57	 1
   37    43	 1
   37    45	 1
   37    70	 1
   37    71	 1
   37    72	 1
   38    42	 1
   38    41	 1
   38    40	 1
   39    67	 1
   39    68	 1
   39    69	 1
   40    70	 1
   40    71	 1
   40    72	 1
   41    70	 1
   41    71	 1
   41    72	 1
   46    48	 1
   46    49	 1
   47    48	 1
   47    49	 1
   48    50	 1
   49    50	 1
   50    51	 1
   51    52	 1
   51    53	 1
   54    56	 1
   55    56	 1
   56    57	 1
   57    58	 1
   57    59	 1
   62    63	 1
   63    64	 1
   64    65	 1
   65    66	 1

[ angles ]
;	ai	  aj	ak funct			c0			  c1			c2			  c3
    2     1     6	5 ;     CG2R61     CG2R61     CG2R61
    2     1    37	5 ;     CG2R61     CG2R61      NG301
    6     1    37	5 ;     CG2R61     CG2R61      NG301
    3     2     1	5 ;     CG2R61     CG2R61     CG2R61
    3     2    43	5 ;     CG2R61     CG2R61      HGR61
    1     2    43	5 ;     CG2R61     CG2R61      HGR61
   19     3     4	5 ;      CG2O1     CG2R61     CG2R61
   19     3     2	5 ;      CG2O1     CG2R61     CG2R61
    4     3     2	5 ;     CG2R61     CG2R61     CG2R61
    3     4     5	5 ;     CG2R61     CG2R61     CG2R61
    3     4    44	5 ;     CG2R61     CG2R61      HGR61
    5     4    44	5 ;     CG2R61     CG2R61      HGR61
    4     5     7	5 ;     CG2R61     CG2R61      CG2O1
    4     5     6	5 ;     CG2R61     CG2R61     CG2R61
    7     5     6	5 ;      CG2O1     CG2R61     CG2R61
    5     6     1	5 ;     CG2R61     CG2R61     CG2R61
    5     6    45	5 ;     CG2R61     CG2R61      HGR61
    1     6    45	5 ;     CG2R61     CG2R61      HGR61
    9     7     8	5 ;      NG2S1      CG2O1      OG2D1
    9     7     5	5 ;      NG2S1      CG2O1     CG2R61
    8     7     5	5 ;      OG2D1      CG2O1     CG2R61
   10     9    21	5 ;      CG321      NG2S1       HGP1
   10     9     7	5 ;      CG321      NG2S1      CG2O1
   21     9     7	5 ;       HGP1      NG2S1      CG2O1
   11    10     9	5 ;      CG321      CG321      NG2S1
   11    10    46	5 ;      CG321      CG321       HGA2
   11    10    47	5 ;      CG321      CG321       HGA2
    9    10    46	5 ;      NG2S1      CG321       HGA2
    9    10    47	5 ;      NG2S1      CG321       HGA2
   46    10    47	5 ;       HGA2      CG321       HGA2
   12    11    10	5 ;      CG2D1      CG321      CG321
   12    11    48	5 ;      CG2D1      CG321       HGA2
   12    11    49	5 ;      CG2D1      CG321       HGA2
   10    11    48	5 ;      CG321      CG321       HGA2
   10    11    49	5 ;      CG321      CG321       HGA2
   48    11    49	5 ;       HGA2      CG321       HGA2
   13    12    11	5 ;      CG2D1      CG2D1      CG321
   13    12    50	5 ;      CG2D1      CG2D1       HGA4
   11    12    50	5 ;      CG321      CG2D1       HGA4
   14    13    12	5 ;      CG321      CG2D1      CG2D1
   14    13    51	5 ;      CG321      CG2D1       HGA4
   12    13    51	5 ;      CG2D1      CG2D1       HGA4
   15    14    13	5 ;      OG301      CG321      CG2D1
   15    14    52	5 ;      OG301      CG321       HGA2
   15    14    53	5 ;      OG301      CG321       HGA2
   13    14    52	5 ;      CG2D1      CG321       HGA2
   13    14    53	5 ;      CG2D1      CG321       HGA2
   52    14    53	5 ;       HGA2      CG321       HGA2
   14    15    16	5 ;      CG321      OG301      CG321
   15    16    17	5 ;      OG301      CG321      CG311
   15    16    54	5 ;      OG301      CG321       HGA2
   15    16    55	5 ;      OG301      CG321       HGA2
   17    16    54	5 ;      CG311      CG321       HGA2
   17    16    55	5 ;      CG311      CG321       HGA2
   54    16    55	5 ;       HGA2      CG321       HGA2
   16    17    23	5 ;      CG321      CG311      CG311
   16    17    18	5 ;      CG321      CG311      NG2S1
   16    17    56	5 ;      CG321      CG311       HGA1
   23    17    18	5 ;      CG311      CG311      NG2S1
   23    17    56	5 ;      CG311      CG311       HGA1
   18    17    56	5 ;      NG2S1      CG311       HGA1
   17    18    22	5 ;      CG311      NG2S1       HGP1
   17    18    19	5 ;      CG311      NG2S1      CG2O1
   22    18    19	5 ;       HGP1      NG2S1      CG2O1
   18    19    20	5 ;      NG2S1      CG2O1      OG2D1
   18    19     3	5 ;      NG2S1      CG2O1     CG2R61
   20    19     3	5 ;      OG2D1      CG2O1     CG2R61
   35    23    17	5 ;      OG311      CG311      CG311
   35    23    24	5 ;      OG311      CG311      CG324
   35    23    57	5 ;      OG311      CG311       HGA1
   17    23    24	5 ;      CG311      CG311      CG324
   17    23    57	5 ;      CG311      CG311       HGA1
   24    23    57	5 ;      CG324      CG311       HGA1
   23    24    25	5 ;      CG311      CG324      NG3P2
   23    24    58	5 ;      CG311      CG324       HGA2
   23    24    59	5 ;      CG311      CG324       HGA2
   25    24    58	5 ;      NG3P2      CG324       HGA2
   25    24    59	5 ;      NG3P2      CG324       HGA2
   58    24    59	5 ;       HGA2      CG324       HGA2
   27    25    26	5 ;       HGP2      NG3P2       HGP2
   27    25    24	5 ;       HGP2      NG3P2      CG324
   27    25    28	5 ;       HGP2      NG3P2      CG324
   26    25    24	5 ;       HGP2      NG3P2      CG324
   26    25    28	5 ;       HGP2      NG3P2      CG324
   24    25    28	5 ;      CG324      NG3P2      CG324
   25    28    29	5 ;      NG3P2      CG324     CG2R61
   25    28    60	5 ;      NG3P2      CG324       HGA2
   25    28    61	5 ;      NG3P2      CG324       HGA2
   29    28    60	5 ;     CG2R61      CG324       HGA2
   29    28    61	5 ;     CG2R61      CG324       HGA2
   60    28    61	5 ;       HGA2      CG324       HGA2
   34    29    28	5 ;     CG2R61     CG2R61      CG324
   34    29    30	5 ;     CG2R61     CG2R61     CG2R61
   28    29    30	5 ;      CG324     CG2R61     CG2R61
   29    30    31	5 ;     CG2R61     CG2R61     CG2R61
   29    30    62	5 ;     CG2R61     CG2R61      HGR61
   31    30    62	5 ;     CG2R61     CG2R61      HGR61
   32    31    30	5 ;     CG2R61     CG2R61     CG2R61
   32    31    63	5 ;     CG2R61     CG2R61      HGR61
   30    31    63	5 ;     CG2R61     CG2R61      HGR61
   33    32    31	5 ;     CG2R61     CG2R61     CG2R61
   33    32    64	5 ;     CG2R61     CG2R61      HGR61
   31    32    64	5 ;     CG2R61     CG2R61      HGR61
   34    33    32	5 ;     CG2R61     CG2R61     CG2R61
   34    33    65	5 ;     CG2R61     CG2R61      HGR61
   32    33    65	5 ;     CG2R61     CG2R61      HGR61
   33    34    29	5 ;     CG2R61     CG2R61     CG2R61
   33    34    66	5 ;     CG2R61     CG2R61      HGR61
   29    34    66	5 ;     CG2R61     CG2R61      HGR61
   36    35    23	5 ;       HGP1      OG311      CG311
    1    37    38	5 ;     CG2R61      NG301      CG331
    1    37    39	5 ;     CG2R61      NG301      SG3O2
   38    37    39	5 ;      CG331      NG301      SG3O2
   37    38    67	5 ;      NG301      CG331       HGA3
   37    38    68	5 ;      NG301      CG331       HGA3
   37    38    69	5 ;      NG301      CG331       HGA3
   67    38    68	5 ;       HGA3      CG331       HGA3
   67    38    69	5 ;       HGA3      CG331       HGA3
   68    38    69	5 ;       HGA3      CG331       HGA3
   37    39    42	5 ;      NG301      SG3O2      CG331
   37    39    41	5 ;      NG301      SG3O2      OG2P1
   37    39    40	5 ;      NG301      SG3O2      OG2P1
   42    39    41	5 ;      CG331      SG3O2      OG2P1
   42    39    40	5 ;      CG331      SG3O2      OG2P1
   41    39    40	5 ;      OG2P1      SG3O2      OG2P1
   39    42    70	5 ;      SG3O2      CG331       HGA3
   39    42    71	5 ;      SG3O2      CG331       HGA3
   39    42    72	5 ;      SG3O2      CG331       HGA3
   70    42    71	5 ;       HGA3      CG331       HGA3
   70    42    72	5 ;       HGA3      CG331       HGA3
   71    42    72	5 ;       HGA3      CG331       HGA3

[ dihedrals ]
;	ai	  aj	ak	  al funct			  c0			c1			  c2			c3			  c4			c5
    6     1     2     3	 9 ;     CG2R61     CG2R61     CG2R61     CG2R61
    6     1     2    43	 9 ;     CG2R61     CG2R61     CG2R61      HGR61
   37     1     2     3	 9 ;      NG301     CG2R61     CG2R61     CG2R61
   37     1     2    43	 9 ;      NG301     CG2R61     CG2R61      HGR61
    2     1     6     5	 9 ;     CG2R61     CG2R61     CG2R61     CG2R61
    2     1     6    45	 9 ;     CG2R61     CG2R61     CG2R61      HGR61
   37     1     6     5	 9 ;      NG301     CG2R61     CG2R61     CG2R61
   37     1     6    45	 9 ;      NG301     CG2R61     CG2R61      HGR61
    2     1    37    38	 9 ;     CG2R61     CG2R61      NG301      CG331
    2     1    37    39	 9 ;     CG2R61     CG2R61      NG301      SG3O2
    6     1    37    38	 9 ;     CG2R61     CG2R61      NG301      CG331
    6     1    37    39	 9 ;     CG2R61     CG2R61      NG301      SG3O2
    1     2     3    19	 9 ;     CG2R61     CG2R61     CG2R61      CG2O1
    1     2     3     4	 9 ;     CG2R61     CG2R61     CG2R61     CG2R61
   43     2     3    19	 9 ;      HGR61     CG2R61     CG2R61      CG2O1
   43     2     3     4	 9 ;      HGR61     CG2R61     CG2R61     CG2R61
    4     3    19    18	 9 ;     CG2R61     CG2R61      CG2O1      NG2S1
    4     3    19    20	 9 ;     CG2R61     CG2R61      CG2O1      OG2D1
    2     3    19    18	 9 ;     CG2R61     CG2R61      CG2O1      NG2S1
    2     3    19    20	 9 ;     CG2R61     CG2R61      CG2O1      OG2D1
   19     3     4     5	 9 ;      CG2O1     CG2R61     CG2R61     CG2R61
   19     3     4    44	 9 ;      CG2O1     CG2R61     CG2R61      HGR61
    2     3     4     5	 9 ;     CG2R61     CG2R61     CG2R61     CG2R61
    2     3     4    44	 9 ;     CG2R61     CG2R61     CG2R61      HGR61
    3     4     5     7	 9 ;     CG2R61     CG2R61     CG2R61      CG2O1
    3     4     5     6	 9 ;     CG2R61     CG2R61     CG2R61     CG2R61
   44     4     5     7	 9 ;      HGR61     CG2R61     CG2R61      CG2O1
   44     4     5     6	 9 ;      HGR61     CG2R61     CG2R61     CG2R61
    4     5     7     9	 9 ;     CG2R61     CG2R61      CG2O1      NG2S1
    4     5     7     8	 9 ;     CG2R61     CG2R61      CG2O1      OG2D1
    6     5     7     9	 9 ;     CG2R61     CG2R61      CG2O1      NG2S1
    6     5     7     8	 9 ;     CG2R61     CG2R61      CG2O1      OG2D1
    4     5     6     1	 9 ;     CG2R61     CG2R61     CG2R61     CG2R61
    4     5     6    45	 9 ;     CG2R61     CG2R61     CG2R61      HGR61
    7     5     6     1	 9 ;      CG2O1     CG2R61     CG2R61     CG2R61
    7     5     6    45	 9 ;      CG2O1     CG2R61     CG2R61      HGR61
    8     7     9    10	 9 ;      OG2D1      CG2O1      NG2S1      CG321
    8     7     9    21	 9 ;      OG2D1      CG2O1      NG2S1       HGP1
    5     7     9    10	 9 ;     CG2R61      CG2O1      NG2S1      CG321
    5     7     9    21	 9 ;     CG2R61      CG2O1      NG2S1       HGP1
   21     9    10    11	 9 ;       HGP1      NG2S1      CG321      CG321
   21     9    10    46	 9 ;       HGP1      NG2S1      CG321       HGA2
   21     9    10    47	 9 ;       HGP1      NG2S1      CG321       HGA2
    7     9    10    11	 9 ;      CG2O1      NG2S1      CG321      CG321
    7     9    10    46	 9 ;      CG2O1      NG2S1      CG321       HGA2
    7     9    10    47	 9 ;      CG2O1      NG2S1      CG321       HGA2
    9    10    11    12	 9 ;      NG2S1      CG321      CG321      CG2D1
    9    10    11    48	 9 ;      NG2S1      CG321      CG321       HGA2
    9    10    11    49	 9 ;      NG2S1      CG321      CG321       HGA2
   46    10    11    12	 9 ;       HGA2      CG321      CG321      CG2D1
   46    10    11    48	 9 ;       HGA2      CG321      CG321       HGA2
   46    10    11    49	 9 ;       HGA2      CG321      CG321       HGA2
   47    10    11    12	 9 ;       HGA2      CG321      CG321      CG2D1
   47    10    11    48	 9 ;       HGA2      CG321      CG321       HGA2
   47    10    11    49	 9 ;       HGA2      CG321      CG321       HGA2
   10    11    12    13	 9 ;      CG321      CG321      CG2D1      CG2D1
   10    11    12    50	 9 ;      CG321      CG321      CG2D1       HGA4
   48    11    12    13	 9 ;       HGA2      CG321      CG2D1      CG2D1
   48    11    12    50	 9 ;       HGA2      CG321      CG2D1       HGA4
   49    11    12    13	 9 ;       HGA2      CG321      CG2D1      CG2D1
   49    11    12    50	 9 ;       HGA2      CG321      CG2D1       HGA4
   11    12    13    14	 9 ;      CG321      CG2D1      CG2D1      CG321
   11    12    13    51	 9 ;      CG321      CG2D1      CG2D1       HGA4
   50    12    13    14	 9 ;       HGA4      CG2D1      CG2D1      CG321
   50    12    13    51	 9 ;       HGA4      CG2D1      CG2D1       HGA4
   12    13    14    15	 9 ;      CG2D1      CG2D1      CG321      OG301
   12    13    14    52	 9 ;      CG2D1      CG2D1      CG321       HGA2
   12    13    14    53	 9 ;      CG2D1      CG2D1      CG321       HGA2
   51    13    14    15	 9 ;       HGA4      CG2D1      CG321      OG301
   51    13    14    52	 9 ;       HGA4      CG2D1      CG321       HGA2
   51    13    14    53	 9 ;       HGA4      CG2D1      CG321       HGA2
   13    14    15    16	 9 ;      CG2D1      CG321      OG301      CG321
   52    14    15    16	 9 ;       HGA2      CG321      OG301      CG321
   53    14    15    16	 9 ;       HGA2      CG321      OG301      CG321
   14    15    16    17	 9 ;      CG321      OG301      CG321      CG311
   14    15    16    54	 9 ;      CG321      OG301      CG321       HGA2
   14    15    16    55	 9 ;      CG321      OG301      CG321       HGA2
   15    16    17    23	 9 ;      OG301      CG321      CG311      CG311
   15    16    17    18	 9 ;      OG301      CG321      CG311      NG2S1
   15    16    17    56	 9 ;      OG301      CG321      CG311       HGA1
   54    16    17    23	 9 ;       HGA2      CG321      CG311      CG311
   54    16    17    18	 9 ;       HGA2      CG321      CG311      NG2S1
   54    16    17    56	 9 ;       HGA2      CG321      CG311       HGA1
   55    16    17    23	 9 ;       HGA2      CG321      CG311      CG311
   55    16    17    18	 9 ;       HGA2      CG321      CG311      NG2S1
   55    16    17    56	 9 ;       HGA2      CG321      CG311       HGA1
   16    17    23    35	 9 ;      CG321      CG311      CG311      OG311
   16    17    23    24	 9 ;      CG321      CG311      CG311      CG324
   16    17    23    57	 9 ;      CG321      CG311      CG311       HGA1
   18    17    23    35	 9 ;      NG2S1      CG311      CG311      OG311
   18    17    23    24	 9 ;      NG2S1      CG311      CG311      CG324
   18    17    23    57	 9 ;      NG2S1      CG311      CG311       HGA1
   56    17    23    35	 9 ;       HGA1      CG311      CG311      OG311
   56    17    23    24	 9 ;       HGA1      CG311      CG311      CG324
   56    17    23    57	 9 ;       HGA1      CG311      CG311       HGA1
   16    17    18    22	 9 ;      CG321      CG311      NG2S1       HGP1
   16    17    18    19	 9 ;      CG321      CG311      NG2S1      CG2O1
   23    17    18    22	 9 ;      CG311      CG311      NG2S1       HGP1
   23    17    18    19	 9 ;      CG311      CG311      NG2S1      CG2O1
   56    17    18    22	 9 ;       HGA1      CG311      NG2S1       HGP1
   56    17    18    19	 9 ;       HGA1      CG311      NG2S1      CG2O1
   17    18    19    20	 9 ;      CG311      NG2S1      CG2O1      OG2D1
   17    18    19     3	 9 ;      CG311      NG2S1      CG2O1     CG2R61
   22    18    19    20	 9 ;       HGP1      NG2S1      CG2O1      OG2D1
   22    18    19     3	 9 ;       HGP1      NG2S1      CG2O1     CG2R61
   17    23    35    36	 9 ;      CG311      CG311      OG311       HGP1
   24    23    35    36	 9 ;      CG324      CG311      OG311       HGP1
   57    23    35    36	 9 ;       HGA1      CG311      OG311       HGP1
   35    23    24    25	 9 ;      OG311      CG311      CG324      NG3P2
   35    23    24    58	 9 ;      OG311      CG311      CG324       HGA2
   35    23    24    59	 9 ;      OG311      CG311      CG324       HGA2
   17    23    24    25	 9 ;      CG311      CG311      CG324      NG3P2
   17    23    24    58	 9 ;      CG311      CG311      CG324       HGA2
   17    23    24    59	 9 ;      CG311      CG311      CG324       HGA2
   57    23    24    25	 9 ;       HGA1      CG311      CG324      NG3P2
   57    23    24    58	 9 ;       HGA1      CG311      CG324       HGA2
   57    23    24    59	 9 ;       HGA1      CG311      CG324       HGA2
   23    24    25    27	 9 ;      CG311      CG324      NG3P2       HGP2
   23    24    25    26	 9 ;      CG311      CG324      NG3P2       HGP2
   23    24    25    28	 9 ;      CG311      CG324      NG3P2      CG324
   58    24    25    27	 9 ;       HGA2      CG324      NG3P2       HGP2
   58    24    25    26	 9 ;       HGA2      CG324      NG3P2       HGP2
   58    24    25    28	 9 ;       HGA2      CG324      NG3P2      CG324
   59    24    25    27	 9 ;       HGA2      CG324      NG3P2       HGP2
   59    24    25    26	 9 ;       HGA2      CG324      NG3P2       HGP2
   59    24    25    28	 9 ;       HGA2      CG324      NG3P2      CG324
   27    25    28    29	 9 ;       HGP2      NG3P2      CG324     CG2R61
   27    25    28    60	 9 ;       HGP2      NG3P2      CG324       HGA2
   27    25    28    61	 9 ;       HGP2      NG3P2      CG324       HGA2
   26    25    28    29	 9 ;       HGP2      NG3P2      CG324     CG2R61
   26    25    28    60	 9 ;       HGP2      NG3P2      CG324       HGA2
   26    25    28    61	 9 ;       HGP2      NG3P2      CG324       HGA2
   24    25    28    29	 9 ;      CG324      NG3P2      CG324     CG2R61
   24    25    28    60	 9 ;      CG324      NG3P2      CG324       HGA2
   24    25    28    61	 9 ;      CG324      NG3P2      CG324       HGA2
   25    28    29    34	 9 ;      NG3P2      CG324     CG2R61     CG2R61
   25    28    29    30	 9 ;      NG3P2      CG324     CG2R61     CG2R61
   60    28    29    34	 9 ;       HGA2      CG324     CG2R61     CG2R61
   60    28    29    30	 9 ;       HGA2      CG324     CG2R61     CG2R61
   61    28    29    34	 9 ;       HGA2      CG324     CG2R61     CG2R61
   61    28    29    30	 9 ;       HGA2      CG324     CG2R61     CG2R61
   28    29    34    33	 9 ;      CG324     CG2R61     CG2R61     CG2R61
   28    29    34    66	 9 ;      CG324     CG2R61     CG2R61      HGR61
   30    29    34    33	 9 ;     CG2R61     CG2R61     CG2R61     CG2R61
   30    29    34    66	 9 ;     CG2R61     CG2R61     CG2R61      HGR61
   34    29    30    31	 9 ;     CG2R61     CG2R61     CG2R61     CG2R61
   34    29    30    62	 9 ;     CG2R61     CG2R61     CG2R61      HGR61
   28    29    30    31	 9 ;      CG324     CG2R61     CG2R61     CG2R61
   28    29    30    62	 9 ;      CG324     CG2R61     CG2R61      HGR61
   29    30    31    32	 9 ;     CG2R61     CG2R61     CG2R61     CG2R61
   29    30    31    63	 9 ;     CG2R61     CG2R61     CG2R61      HGR61
   62    30    31    32	 9 ;      HGR61     CG2R61     CG2R61     CG2R61
   62    30    31    63	 9 ;      HGR61     CG2R61     CG2R61      HGR61
   30    31    32    33	 9 ;     CG2R61     CG2R61     CG2R61     CG2R61
   30    31    32    64	 9 ;     CG2R61     CG2R61     CG2R61      HGR61
   63    31    32    33	 9 ;      HGR61     CG2R61     CG2R61     CG2R61
   63    31    32    64	 9 ;      HGR61     CG2R61     CG2R61      HGR61
   31    32    33    34	 9 ;     CG2R61     CG2R61     CG2R61     CG2R61
   31    32    33    65	 9 ;     CG2R61     CG2R61     CG2R61      HGR61
   64    32    33    34	 9 ;      HGR61     CG2R61     CG2R61     CG2R61
   64    32    33    65	 9 ;      HGR61     CG2R61     CG2R61      HGR61
   32    33    34    29	 9 ;     CG2R61     CG2R61     CG2R61     CG2R61
   32    33    34    66	 9 ;     CG2R61     CG2R61     CG2R61      HGR61
   65    33    34    29	 9 ;      HGR61     CG2R61     CG2R61     CG2R61
   65    33    34    66	 9 ;      HGR61     CG2R61     CG2R61      HGR61
    1    37    38    67	 9 ;     CG2R61      NG301      CG331       HGA3
    1    37    38    68	 9 ;     CG2R61      NG301      CG331       HGA3
    1    37    38    69	 9 ;     CG2R61      NG301      CG331       HGA3
   39    37    38    67	 9 ;      SG3O2      NG301      CG331       HGA3
   39    37    38    68	 9 ;      SG3O2      NG301      CG331       HGA3
   39    37    38    69	 9 ;      SG3O2      NG301      CG331       HGA3
    1    37    39    42	 9 ;     CG2R61      NG301      SG3O2      CG331
    1    37    39    41	 9 ;     CG2R61      NG301      SG3O2      OG2P1
    1    37    39    40	 9 ;     CG2R61      NG301      SG3O2      OG2P1
   38    37    39    42	 9 ;      CG331      NG301      SG3O2      CG331
   38    37    39    41	 9 ;      CG331      NG301      SG3O2      OG2P1
   38    37    39    40	 9 ;      CG331      NG301      SG3O2      OG2P1
   37    39    42    70	 9 ;      NG301      SG3O2      CG331       HGA3
   37    39    42    71	 9 ;      NG301      SG3O2      CG331       HGA3
   37    39    42    72	 9 ;      NG301      SG3O2      CG331       HGA3
   41    39    42    70	 9 ;      OG2P1      SG3O2      CG331       HGA3
   41    39    42    71	 9 ;      OG2P1      SG3O2      CG331       HGA3
   41    39    42    72	 9 ;      OG2P1      SG3O2      CG331       HGA3
   40    39    42    70	 9 ;      OG2P1      SG3O2      CG331       HGA3
   40    39    42    71	 9 ;      OG2P1      SG3O2      CG331       HGA3
   40    39    42    72	 9 ;      OG2P1      SG3O2      CG331       HGA3

[ dihedrals ]
;	ai	  aj	ak	  al funct			  c0			c1			  c2			c3
    7     5     9     8	 2
   19     3    18    20	 2

