God Rules Over Mankind, Animals, Cosmos and Such
   53
    1LIG     C1    1  -1.592   0.457  -1.544
    1LIG     C2    2  -1.554   0.587  -1.582
    1LIG     C3    3  -1.648   0.688  -1.609
    1LIG     C4    4  -1.784   0.654  -1.602
    1LIG     C5    5  -1.823   0.525  -1.568
    1LIG     C6    6  -1.728   0.427  -1.539
    1LIG     N1    7  -1.499   0.357  -1.508
    1LIG     C7    8  -1.413   0.289  -1.593
    1LIG     O1    9  -1.406   0.300  -1.715
    1LIG     H1   10  -1.490   0.334  -1.409
    1LIG     C8   11  -1.321   0.191  -1.526
    1LIG     C9   12  -1.269   0.223  -1.401
    1LIG    C10   13  -1.182   0.134  -1.339
    1LIG    C11   14  -1.150   0.014  -1.403
    1LIG    C12   15  -1.208  -0.010  -1.528
    1LIG     N2   16  -1.292   0.075  -1.592
    1LIG    HN3   17  -1.331   0.054  -1.684
    1LIG    C13   18  -1.056  -0.086  -1.342
    1LIG     F1   19  -0.993  -0.163  -1.434
    1LIG     F2   20  -1.120  -0.172  -1.258
    1LIG     F3   21  -0.958  -0.027  -1.269
    1LIG    C14   22  -1.597   0.830  -1.640
    1LIG     N3   23  -1.644   0.924  -1.535
    1LIG    C15   24  -1.724   1.020  -1.564
    1LIG    HN4   25  -1.613   0.911  -1.439
    1LIG    C16   26  -1.781   1.043  -1.703
    1LIG     N4   27  -1.699   0.988  -1.809
    1LIG    C17   28  -1.735   1.027  -1.944
    1LIG    C18   29  -1.635   0.867  -1.788
    1LIG     O2   30  -1.602   0.795  -1.882
    1LIG    C19   31  -1.443   0.844  -1.636
    1LIG     N5   32  -1.766   1.101  -1.463
    1LIG     H2   33  -1.867   1.111  -1.450
    1LIG     H3   34  -1.717   1.082  -1.376
    1LIG     HC   35  -1.449   0.610  -1.590
    1LIG    HC1   36  -1.859   0.729  -1.622
    1LIG    HC2   37  -1.928   0.499  -1.565
    1LIG    HC3   38  -1.759   0.327  -1.513
    1LIG    HC4   39  -1.296   0.316  -1.352
    1LIG    HC5   40  -1.140   0.157  -1.243
    1LIG    HC6   41  -1.184  -0.103  -1.577
    1LIG    HN2   42  -1.565   0.984  -1.554
    1LIG    HC7   43  -1.640   1.086  -1.586
    1LIG    HC8   44  -1.880   0.996  -1.708
    1LIG    HC9   45  -1.792   1.150  -1.719
    1LIG   HC10   46  -1.666   0.980  -2.014
    1LIG   HC11   47  -1.836   0.995  -1.965
    1LIG   HC12   48  -1.727   1.135  -1.954
    1LIG   HC13   49  -1.415   0.947  -1.655
    1LIG   HC14   50  -1.406   0.814  -1.538
    1LIG   HC15   51  -1.398   0.780  -1.712
    1LIG    HN1   52  -1.735   1.193  -1.490
    1LIG    H24   53  -1.406   0.143  -1.479
   0.00000   0.00000   0.00000
