Great Red Owns Many ACres of Sand 
   99
    1LIG     C1    1  -1.979   0.314  -1.192
    1LIG     N1    2  -1.903   0.398  -1.291
    1LIG     C2    3  -1.769   0.421  -1.289
    1LIG     O1    4  -1.693   0.381  -1.201
    1LIG     H1    5  -1.959   0.443  -1.362
    1LIG     C3    6  -1.712   0.504  -1.401
    1LIG     C4    7  -1.577   0.482  -1.430
    1LIG     C5    8  -1.507   0.570  -1.512
    1LIG     C6    9  -1.576   0.668  -1.584
    1LIG     C7   10  -1.714   0.684  -1.563
    1LIG     C8   11  -1.781   0.603  -1.470
    1LIG     C9   12  -1.358   0.562  -1.519
    1LIG     O2   13  -1.291   0.664  -1.520
    1LIG     N2   14  -1.307   0.434  -1.521
    1LIG     H2   15  -1.368   0.354  -1.509
    1LIG    C10   16  -1.176   0.403  -1.579
    1LIG    C11   17  -1.189   0.413  -1.731
    1LIG    C12   18  -1.130   0.270  -1.519
    1LIG    C13   19  -1.192   0.152  -1.565
    1LIG    C14   20  -1.138   0.026  -1.538
    1LIG    C15   21  -1.022   0.014  -1.462
    1LIG    C16   22  -0.964   0.129  -1.410
    1LIG    C17   23  -1.017   0.256  -1.437
    1LIG     N3   24  -1.785   0.790  -1.628
    1LIG    C18   25  -1.860   0.756  -1.752
    1LIG      S   26  -1.837   0.924  -1.539
    1LIG     O3   27  -1.798   0.903  -1.401
    1LIG     O4   28  -1.975   0.953  -1.572
    1LIG    C19   29  -1.735   1.056  -1.603
    1LIG    C20   30  -2.120   0.377  -1.160
    1LIG     O5   31  -2.118   0.519  -1.147
    1LIG     H3   32  -2.156   0.543  -1.060
    1LIG    C21   33  -2.228   0.354  -1.266
    1LIG    C22   34  -2.235   0.454  -1.382
    1LIG    C23   35  -2.197   0.384  -1.515
    1LIG     O6   36  -2.055   0.389  -1.538
    1LIG    C24   37  -2.006   0.259  -1.572
    1LIG    C25   38  -1.868   0.262  -1.632
    1LIG    C26   39  -1.841   0.351  -1.738
    1LIG    C27   40  -1.710   0.375  -1.781
    1LIG    C28   41  -1.605   0.307  -1.719
    1LIG    C29   42  -1.630   0.215  -1.617
    1LIG    C30   43  -1.761   0.193  -1.574
    1LIG     O7   44  -1.673   0.465  -1.877
    1LIG    C31   45  -1.533   0.479  -1.901
    1LIG     O8   46  -2.368   0.507  -1.393
    1LIG    C32   47  -2.464   0.441  -1.310
    1LIG    C33   48  -1.983   0.159  -1.219
    1LIG     O9   49  -2.046   0.086  -1.112
    1LIG    C34   50  -2.014  -0.049  -1.104
    1LIG    C35   51  -2.041  -0.124  -1.220
    1LIG    C36   52  -2.022  -0.263  -1.220
    1LIG     F1   53  -2.054  -0.334  -1.329
    1LIG    C37   54  -1.970  -0.329  -1.109
    1LIG    C38   55  -1.933  -0.252  -0.999
    1LIG     F2   56  -1.875  -0.312  -0.895
    1LIG    C39   57  -1.956  -0.114  -0.996
    1LIG     HC   58  -1.923   0.325  -1.099
    1LIG    HC1   59  -1.526   0.396  -1.388
    1LIG    HC2   60  -1.524   0.731  -1.655
    1LIG    HC3   61  -1.887   0.617  -1.452
    1LIG    HC4   62  -1.107   0.480  -1.546
    1LIG    HC5   63  -1.093   0.391  -1.777
    1LIG    HC6   64  -1.220   0.514  -1.758
    1LIG    HC7   65  -1.264   0.342  -1.766
    1LIG    HC8   66  -1.283   0.160  -1.622
    1LIG    HC9   67  -1.187  -0.063  -1.576
    1LIG   HC10   68  -0.977  -0.082  -1.445
    1LIG   HC11   69  -0.876   0.120  -1.347
    1LIG   HC12   70  -0.970   0.344  -1.395
    1LIG   HC13   71  -1.908   0.845  -1.791
    1LIG   HC14   72  -1.790   0.717  -1.827
    1LIG   HC15   73  -1.934   0.680  -1.730
    1LIG   HC16   74  -1.760   1.149  -1.552
    1LIG   HC17   75  -1.752   1.067  -1.710
    1LIG   HC18   76  -1.630   1.032  -1.586
    1LIG   HC19   77  -2.155   0.335  -1.066
    1LIG   HC20   78  -2.325   0.357  -1.215
    1LIG   HC21   79  -2.215   0.254  -1.307
    1LIG   HC22   80  -2.165   0.535  -1.363
    1LIG   HC23   81  -2.247   0.435  -1.597
    1LIG   HC24   82  -2.229   0.280  -1.512
    1LIG   HC25   83  -2.004   0.197  -1.482
    1LIG   HC26   84  -2.075   0.213  -1.644
    1LIG   HC27   85  -1.923   0.400  -1.788
    1LIG   HC28   86  -1.503   0.326  -1.750
    1LIG   HC29   87  -1.549   0.161  -1.572
    1LIG   HC30   88  -1.780   0.122  -1.494
    1LIG   HC31   89  -1.517   0.554  -1.977
    1LIG   HC32   90  -1.493   0.383  -1.934
    1LIG   HC33   91  -1.484   0.509  -1.808
    1LIG   HC34   92  -2.565   0.470  -1.341
    1LIG   HC35   93  -2.448   0.470  -1.207
    1LIG   HC36   94  -2.453   0.333  -1.320
    1LIG   HC37   95  -2.038   0.141  -1.311
    1LIG   HC38   96  -1.880   0.124  -1.231
    1LIG   HC39   97  -2.076  -0.075  -1.309
    1LIG   HC40   98  -1.958  -0.436  -1.109
    1LIG   HC41   99  -1.929  -0.057  -0.908
   0.00000   0.00000   0.00000
