Giant Rising Ordinary Mutants for A Clerical Setup
   70
    1LIG      S    1  -1.793   0.650  -1.576
    1LIG     O1    2  -1.747   0.558  -1.472
    1LIG     O2    3  -1.922   0.712  -1.569
    1LIG     C1    4  -1.668   0.774  -1.594
    1LIG     C2    5  -1.530   0.712  -1.623
    1LIG     C3    6  -1.532   0.622  -1.750
    1LIG     C4    7  -1.638   0.507  -1.744
    1LIG     C5    8  -1.780   0.563  -1.729
    1LIG      N    9  -1.603   0.408  -1.637
    1LIG     H1   10  -1.575   0.454  -1.550
    1LIG     H2   11  -1.686   0.350  -1.612
    1LIG     C6   12  -1.500   0.304  -1.668
    1LIG     C7   13  -1.404   0.300  -1.553
    1LIG     C8   14  -1.342   0.179  -1.519
    1LIG     C9   15  -1.237   0.172  -1.426
    1LIG    C10   16  -1.196   0.294  -1.368
    1LIG    C11   17  -1.258   0.415  -1.398
    1LIG    C12   18  -1.362   0.418  -1.491
    1LIG    C13   19  -1.165   0.040  -1.397
    1LIG    C14   20  -1.186  -0.053  -1.519
    1LIG    C15   21  -1.014   0.059  -1.374
    1LIG    C16   22  -1.220  -0.032  -1.272
    1LIG     O3   23  -1.565   0.700  -1.864
    1LIG     H3   24  -1.658   0.684  -1.890
    1LIG    C17   25  -1.417   0.817  -1.622
    1LIG    C18   26  -1.273   0.772  -1.626
    1LIG    C19   27  -1.214   0.732  -1.748
    1LIG    C20   28  -1.087   0.674  -1.750
    1LIG    C21   29  -1.015   0.661  -1.630
    1LIG    C22   30  -1.071   0.703  -1.510
    1LIG    C23   31  -1.200   0.754  -1.508
    1LIG     O4   32  -1.025   0.618  -1.858
    1LIG    C24   33  -0.977   0.484  -1.846
    1LIG    C25   34  -1.096   0.389  -1.844
    1LIG    C26   35  -1.079   0.275  -1.744
    1LIG    HC2   36  -1.695   0.840  -1.676
    1LIG    HC3   37  -1.661   0.832  -1.502
    1LIG     HC   38  -1.510   0.645  -1.540
    1LIG    HC1   39  -1.434   0.579  -1.764
    1LIG    HC4   40  -1.635   0.455  -1.840
    1LIG    HC5   41  -1.852   0.481  -1.730
    1LIG    HC6   42  -1.801   0.631  -1.811
    1LIG    HC7   43  -1.547   0.206  -1.680
    1LIG    HC8   44  -1.446   0.330  -1.759
    1LIG    HC9   45  -1.376   0.087  -1.567
    1LIG   HC10   46  -1.114   0.293  -1.298
    1LIG   HC11   47  -1.226   0.506  -1.350
    1LIG   HC12   48  -1.410   0.512  -1.515
    1LIG   HC13   49  -1.121  -0.140  -1.510
    1LIG   HC14   50  -1.161   0.002  -1.610
    1LIG   HC15   51  -1.289  -0.085  -1.523
    1LIG   HC16   52  -0.970   0.110  -1.460
    1LIG   HC17   53  -0.966  -0.038  -1.360
    1LIG   HC18   54  -0.998   0.120  -1.284
    1LIG   HC19   55  -1.327  -0.049  -1.284
    1LIG   HC20   56  -1.202   0.029  -1.184
    1LIG   HC21   57  -1.170  -0.128  -1.260
    1LIG   HC22   58  -1.433   0.881  -1.709
    1LIG   HC23   59  -1.430   0.879  -1.533
    1LIG   HC24   60  -1.267   0.747  -1.840
    1LIG   HC25   61  -0.916   0.619  -1.632
    1LIG   HC26   62  -1.013   0.696  -1.418
    1LIG   HC27   63  -1.245   0.781  -1.413
    1LIG   HC28   64  -0.913   0.461  -1.931
    1LIG   HC29   65  -0.920   0.474  -1.754
    1LIG   HC30   66  -1.109   0.347  -1.944
    1LIG   HC31   67  -1.186   0.445  -1.818
    1LIG   HC32   68  -1.166   0.211  -1.747
    1LIG   HC33   69  -1.067   0.316  -1.644
    1LIG   HC34   70  -0.990   0.217  -1.771
   0.00000   0.00000   0.00000
