Green Red Orange Magenta Azure Cyan Skyblue
   76
    1LIG     N1    1  -1.541   0.506  -1.804
    1LIG     H1    2  -1.554   0.447  -1.888
    1LIG     H2    3  -1.441   0.530  -1.803
    1LIG     C1    4  -1.621   0.634  -1.835
    1LIG     C2    5  -1.511   0.742  -1.849
    1LIG     O1    6  -1.556   0.833  -1.951
    1LIG     H3    7  -1.654   0.824  -1.954
    1LIG     C3    8  -1.449   0.817  -1.727
    1LIG     C4    9  -1.294   0.809  -1.747
    1LIG     C5   10  -1.225   0.701  -1.668
    1LIG     C6   11  -1.281   0.651  -1.550
    1LIG     C7   12  -1.212   0.554  -1.477
    1LIG     F1   13  -1.266   0.509  -1.363
    1LIG     C8   14  -1.090   0.504  -1.519
    1LIG     C9   15  -1.036   0.552  -1.638
    1LIG    C10   16  -1.102   0.649  -1.713
    1LIG     F2   17  -0.919   0.506  -1.681
    1LIG     N2   18  -1.484   0.958  -1.701
    1LIG    C11   19  -1.600   1.011  -1.653
    1LIG     O2   20  -1.701   0.942  -1.634
    1LIG    C12   21  -1.595   1.159  -1.627
    1LIG     H4   22  -1.409   1.025  -1.713
    1LIG    C13   23  -1.569   0.423  -1.680
    1LIG    C14   24  -1.694   0.336  -1.715
    1LIG    C15   25  -1.751   0.263  -1.593
    1LIG    C16   26  -1.793   0.361  -1.484
    1LIG    C17   27  -1.681   0.457  -1.446
    1LIG    C18   28  -1.615   0.523  -1.569
    1LIG    C19   29  -1.447   0.335  -1.649
    1LIG    C20   30  -1.434   0.265  -1.525
    1LIG    C21   31  -1.319   0.189  -1.495
    1LIG    C22   32  -1.220   0.179  -1.592
    1LIG    C23   33  -1.232   0.242  -1.715
    1LIG    C24   34  -1.345   0.319  -1.743
    1LIG     N3   35  -1.300   0.125  -1.371
    1LIG    C25   36  -1.222   0.181  -1.261
    1LIG    C26   37  -1.288   0.116  -1.140
    1LIG    C27   38  -1.083   0.115  -1.260
    1LIG    C28   39  -1.269  -0.024  -1.196
    1LIG    C29   40  -1.117  -0.029  -1.217
    1LIG    C30   41  -1.335  -0.006  -1.333
    1LIG     O3   42  -1.396  -0.090  -1.398
    1LIG    HC2   43  -1.689   0.658  -1.753
    1LIG    HC3   44  -1.676   0.623  -1.928
    1LIG     HC   45  -1.427   0.690  -1.894
    1LIG    HC1   46  -1.474   0.760  -1.638
    1LIG    HC4   47  -1.252   0.905  -1.717
    1LIG    HC5   48  -1.274   0.794  -1.853
    1LIG    HC6   49  -1.376   0.688  -1.515
    1LIG    HC7   50  -1.037   0.431  -1.461
    1LIG    HC8   51  -1.059   0.684  -1.806
    1LIG    HC9   52  -1.772   0.402  -1.755
    1LIG   HC10   53  -1.667   0.263  -1.790
    1LIG   HC11   54  -1.838   0.205  -1.623
    1LIG   HC12   55  -1.675   0.196  -1.553
    1LIG   HC13   56  -1.879   0.418  -1.519
    1LIG   HC14   57  -1.822   0.305  -1.395
    1LIG   HC15   58  -1.605   0.403  -1.391
    1LIG   HC16   59  -1.722   0.535  -1.382
    1LIG   HC17   60  -1.687   0.592  -1.613
    1LIG   HC18   61  -1.528   0.579  -1.535
    1LIG   HC19   62  -1.514   0.271  -1.452
    1LIG   HC20   63  -1.131   0.121  -1.571
    1LIG   HC21   64  -1.155   0.232  -1.789
    1LIG   HC22   65  -1.353   0.367  -1.839
    1LIG   HC23   66  -1.219   0.290  -1.259
    1LIG   HC24   67  -1.393   0.145  -1.128
    1LIG   HC25   68  -1.231   0.132  -1.049
    1LIG   HC26   69  -1.037   0.117  -1.358
    1LIG   HC27   70  -1.018   0.163  -1.186
    1LIG   HC28   71  -1.311  -0.105  -1.135
    1LIG   HC29   72  -1.065  -0.055  -1.124
    1LIG   HC30   73  -1.091  -0.100  -1.296
    1LIG   HC31   74  -1.691   1.193  -1.588
    1LIG   HC32   75  -1.572   1.212  -1.720
    1LIG   HC33   76  -1.517   1.181  -1.553
   0.00000   0.00000   0.00000
