GROup of MAchos and Cynical Suckers
   89
    1LIG     C1    1  -1.615   0.574  -1.584
    1LIG     C2    2  -1.503   0.665  -1.652
    1LIG     C3    3  -1.354   0.684  -1.625
    1LIG     C4    4  -1.300   0.633  -1.503
    1LIG     C5    5  -1.162   0.626  -1.477
    1LIG     C6    6  -1.072   0.669  -1.575
    1LIG     C7    7  -1.121   0.719  -1.695
    1LIG     C8    8  -1.260   0.726  -1.720
    1LIG     C9    9  -1.769   0.623  -1.568
    1LIG    C10   10  -1.904   0.562  -1.514
    1LIG     N1   11  -1.912   0.417  -1.478
    1LIG     H1   12  -1.817   0.378  -1.479
    1LIG     H2   13  -1.939   0.414  -1.378
    1LIG    C11   14  -2.012   0.326  -1.554
    1LIG    C12   15  -1.935   0.273  -1.675
    1LIG    C13   16  -2.092   0.229  -1.457
    1LIG     O1   17  -2.171   0.283  -1.378
    1LIG     N2   18  -2.083   0.091  -1.460
    1LIG     H3   19  -1.999   0.048  -1.497
    1LIG    C14   20  -2.164   0.002  -1.366
    1LIG    C15   21  -2.103  -0.005  -1.223
    1LIG    C16   22  -2.164  -0.110  -1.127
    1LIG    C17   23  -2.207  -0.243  -1.187
    1LIG    C18   24  -2.268  -0.226  -1.325
    1LIG    C19   25  -2.181  -0.142  -1.418
    1LIG     O2   26  -1.766   0.750  -1.497
    1LIG     H4   27  -1.832   0.749  -1.425
    1LIG     N3   28  -1.601   0.426  -1.594
    1LIG    C20   29  -1.523   0.355  -1.688
    1LIG     O3   30  -1.587   0.298  -1.777
    1LIG     H5   31  -1.692   0.387  -1.609
    1LIG    C21   32  -1.376   0.322  -1.672
    1LIG    C22   33  -1.284   0.363  -1.773
    1LIG    C23   34  -1.148   0.325  -1.772
    1LIG    C24   35  -1.100   0.252  -1.662
    1LIG    C25   36  -1.191   0.200  -1.568
    1LIG    C26   37  -1.328   0.237  -1.572
    1LIG     O4   38  -1.082   0.308  -1.891
    1LIG    C27   39  -1.036   0.418  -1.972
    1LIG    C28   40  -0.890   0.390  -2.015
    1LIG    C29   41  -0.808   0.315  -1.911
    1LIG     N4   42  -1.152   0.096  -1.480
    1LIG    C30   43  -1.074   0.114  -1.360
    1LIG    C31   44  -1.031  -0.027  -1.323
    1LIG    C32   45  -1.140  -0.116  -1.378
    1LIG    C33   46  -1.196  -0.037  -1.493
    1LIG     O5   47  -1.269  -0.083  -1.580
    1LIG     HC   48  -1.584   0.586  -1.480
    1LIG    HC2   49  -1.507   0.636  -1.756
    1LIG    HC3   50  -1.544   0.766  -1.650
    1LIG    HC1   51  -1.369   0.599  -1.428
    1LIG    HC4   52  -1.126   0.588  -1.383
    1LIG    HC5   53  -0.965   0.663  -1.558
    1LIG    HC6   54  -1.052   0.753  -1.771
    1LIG    HC7   55  -1.295   0.765  -1.815
    1LIG    HC8   56  -1.796   0.653  -1.669
    1LIG    HC9   57  -1.930   0.618  -1.425
    1LIG   HC10   58  -1.981   0.582  -1.589
    1LIG   HC11   59  -2.087   0.394  -1.595
    1LIG   HC12   60  -2.002   0.214  -1.737
    1LIG   HC13   61  -1.896   0.357  -1.733
    1LIG   HC14   62  -1.853   0.211  -1.641
    1LIG   HC15   63  -2.263   0.046  -1.357
    1LIG   HC16   64  -2.116   0.093  -1.177
    1LIG   HC17   65  -1.997  -0.025  -1.232
    1LIG   HC18   66  -2.090  -0.131  -1.049
    1LIG   HC19   67  -2.252  -0.065  -1.079
    1LIG   HC20   68  -2.280  -0.290  -1.122
    1LIG   HC21   69  -2.119  -0.308  -1.195
    1LIG   HC22   70  -2.282  -0.325  -1.369
    1LIG   HC23   71  -2.366  -0.178  -1.314
    1LIG   HC24   72  -2.228  -0.138  -1.516
    1LIG   HC25   73  -2.083  -0.189  -1.428
    1LIG   HC26   74  -1.320   0.425  -1.854
    1LIG   HC27   75  -0.994   0.235  -1.651
    1LIG   HC28   76  -1.395   0.199  -1.497
    1LIG   HC29   77  -1.099   0.428  -2.060
    1LIG   HC30   78  -1.040   0.510  -1.914
    1LIG   HC31   79  -0.842   0.485  -2.036
    1LIG   HC32   80  -0.892   0.331  -2.107
    1LIG   HC33   81  -0.707   0.299  -1.950
    1LIG   HC34   82  -0.854   0.219  -1.890
    1LIG   HC35   83  -0.803   0.374  -1.820
    1LIG   HC36   84  -0.988   0.177  -1.379
    1LIG   HC37   85  -1.136   0.156  -1.281
    1LIG   HC38   86  -1.023  -0.037  -1.215
    1LIG   HC39   87  -0.935  -0.051  -1.370
    1LIG   HC40   88  -1.100  -0.211  -1.413
    1LIG   HC41   89  -1.217  -0.133  -1.303
   0.00000   0.00000   0.00000
