; Created by cgenff_charmm2gmx.py

[ moleculetype ]
; Name			   nrexcl
LIG				 3

[ atoms ]
;	 nr		  type	resnr residue  atom   cgnr	   charge		mass  typeB    chargeB		massB
; residue	 1 LIG rtp LIG q	qsum
     1      CG311      1    LIG     C1      1      0.010     12.011   ;
     2      CG321      1    LIG     C2      2     -0.153     12.011   ;
     3     CG2R61      1    LIG     C3      3      0.057     12.011   ;
     4     CG2R61      1    LIG     C4      4     -0.218     12.011   ;
     5     CG2R66      1    LIG     C5      5      0.261     12.011   ;
     6       FGR1      1    LIG     F1      6     -0.210     18.998   ;
     7     CG2R61      1    LIG     C6      7     -0.240     12.011   ;
     8     CG2R66      1    LIG     C7      8      0.261     12.011   ;
     9       FGR1      1    LIG     F2      9     -0.210     18.998   ;
    10     CG2R61      1    LIG     C8     10     -0.218     12.011   ;
    11      CG311      1    LIG     C9     11      0.094     12.011   ;
    12      OG311      1    LIG     O1     12     -0.625     15.999   ;
    13       HGP1      1    LIG     H1     13      0.415      1.008   ;
    14      CG324      1    LIG    C10     14      0.178     12.011   ;
    15      NG3P2      1    LIG     N1     15     -0.444     14.007   ;
    16       HGP2      1    LIG     H2     16      0.348      1.008   ;
    17       HGP2      1    LIG     H3     17      0.348      1.008   ;
    18      CG324      1    LIG    C11     18      0.171     12.011   ;
    19     CG2R61      1    LIG    C12     19      0.036     12.011   ;
    20     CG2R61      1    LIG    C13     20     -0.124     12.011   ;
    21     CG2R61      1    LIG    C14     21      0.216     12.011   ;
    22     CG2R61      1    LIG    C15     22     -0.121     12.011   ;
    23     CG2R61      1    LIG    C16     23     -0.108     12.011   ;
    24     CG2R61      1    LIG    C17     24     -0.119     12.011   ;
    25      OG301      1    LIG     O2     25     -0.383     15.999   ;
    26      CG331      1    LIG    C18     26     -0.094     12.011   ;
    27      NG2S1      1    LIG     N2     27     -0.226     14.007   ;
    28      CG2O1      1    LIG    C19     28      0.302     12.011   ;
    29      OG2D1      1    LIG     O3     29     -0.463     15.999   ;
    30       HGP1      1    LIG     H4     30      0.262      1.008   ;
    31     CG2R61      1    LIG    C20     31     -0.100     12.011   ;
    32     CG2R61      1    LIG    C21     32     -0.064     12.011   ;
    33     CG2R61      1    LIG    C22     33      0.139     12.011   ;
    34     CG2R61      1    LIG    C23     34     -0.061     12.011   ;
    35     CG2R61      1    LIG    C24     35     -0.027     12.011   ;
    36     CG2R61      1    LIG    C25     36     -0.001     12.011   ;
    37      NG301      1    LIG     N3     37     -0.228     14.007   ;
    38      CG331      1    LIG    C26     38     -0.103     12.011   ;
    39      SG3O2      1    LIG      S     39      0.397     32.060   ;
    40      OG2P1      1    LIG     O4     40     -0.388     15.999   ;
    41      OG2P1      1    LIG     O5     41     -0.388     15.999   ;
    42      CG331      1    LIG    C27     42      0.036     12.011   ;
    43      CG314      1    LIG    C28     43      0.215     12.011   ;
    44      NG3P2      1    LIG     N4     44     -0.381     14.007   ;
    45       HGP2      1    LIG     HN     45      0.347      1.008   ;
    46      CG331      1    LIG    C29     46     -0.231     12.011   ;
    47      OG301      1    LIG     O6     47      0.042     15.999   ;
    48      CG321      1    LIG    C30     48      0.017     12.011   ;
    49      CG311      1    LIG    C31     49     -0.045     12.011   ;
    50      CG331      1    LIG    C32     50     -0.286     12.011   ;
    51      CG331      1    LIG    C33     51     -0.286     12.011   ;
    52       HGA1      1    LIG     H5     52      0.090      1.008   ;
    53       HGA2      1    LIG     H6     53      0.090      1.008   ;
    54       HGA2      1    LIG     H7     54      0.090      1.008   ;
    55      HGR62      1    LIG     H8     55      0.174      1.008   ;
    56      HGR62      1    LIG     H9     56      0.186      1.008   ;
    57      HGR62      1    LIG    H10     57      0.174      1.008   ;
    58       HGA1      1    LIG    H11     58      0.090      1.008   ;
    59       HGA2      1    LIG    H12     59      0.090      1.008   ;
    60       HGA2      1    LIG    H13     60      0.090      1.008   ;
    61       HGA2      1    LIG    H14     61      0.090      1.008   ;
    62       HGA2      1    LIG    H15     62      0.090      1.008   ;
    63      HGR61      1    LIG    H16     63      0.116      1.008   ;
    64      HGR61      1    LIG    H17     64      0.116      1.008   ;
    65      HGR61      1    LIG    H18     65      0.116      1.008   ;
    66      HGR61      1    LIG    H19     66      0.116      1.008   ;
    67       HGA3      1    LIG    H20     67      0.090      1.008   ;
    68       HGA3      1    LIG    H21     68      0.090      1.008   ;
    69       HGA3      1    LIG    H22     69      0.090      1.008   ;
    70      HGR61      1    LIG    H23     70      0.116      1.008   ;
    71      HGR61      1    LIG    H24     71      0.116      1.008   ;
    72      HGR61      1    LIG    H25     72      0.116      1.008   ;
    73       HGA3      1    LIG    H26     73      0.090      1.008   ;
    74       HGA3      1    LIG    H27     74      0.090      1.008   ;
    75       HGA3      1    LIG    H28     75      0.090      1.008   ;
    76       HGA3      1    LIG    H29     76      0.090      1.008   ;
    77       HGA3      1    LIG    H30     77      0.090      1.008   ;
    78       HGA3      1    LIG    H31     78      0.090      1.008   ;
    79       HGA1      1    LIG    H32     79      0.090      1.008   ;
    80       HGP2      1    LIG    H33     80      0.347      1.008   ;
    81       HGA3      1    LIG    H34     81      0.090      1.008   ;
    82       HGA3      1    LIG    H35     82      0.090      1.008   ;
    83       HGA3      1    LIG    H36     83      0.090      1.008   ;
    84       HGA2      1    LIG    H37     84      0.090      1.008   ;
    85       HGA2      1    LIG    H38     85      0.090      1.008   ;
    86       HGA1      1    LIG    H39     86      0.090      1.008   ;
    87       HGA3      1    LIG    H40     87      0.090      1.008   ;
    88       HGA3      1    LIG    H41     88      0.090      1.008   ;
    89       HGA3      1    LIG    H42     89      0.090      1.008   ;
    90       HGA3      1    LIG    H43     90      0.090      1.008   ;
    91       HGA3      1    LIG    H44     91      0.090      1.008   ;
    92       HGA3      1    LIG    H45     92      0.090      1.008   ;

[ bonds ]
;	ai	  aj funct			  c0			c1			  c2			c3
    1    27	 1 ;       CG311      NG2S1
    1    11	 1 ;       CG311      CG311
    1     2	 1 ;       CG311      CG321
    1    52	 1 ;       CG311       HGA1
    2     3	 1 ;       CG321     CG2R61
    2    53	 1 ;       CG321       HGA2
    2    54	 1 ;       CG321       HGA2
    3    10	 1 ;      CG2R61     CG2R61
    3     4	 1 ;      CG2R61     CG2R61
    4     5	 1 ;      CG2R61     CG2R66
    4    55	 1 ;      CG2R61      HGR62
    5     7	 1 ;      CG2R66     CG2R61
    5     6	 1 ;      CG2R66       FGR1
    7     8	 1 ;      CG2R61     CG2R66
    7    56	 1 ;      CG2R61      HGR62
    8    10	 1 ;      CG2R66     CG2R61
    8     9	 1 ;      CG2R66       FGR1
   10    57	 1 ;      CG2R61      HGR62
   11    14	 1 ;       CG311      CG324
   11    12	 1 ;       CG311      OG311
   11    58	 1 ;       CG311       HGA1
   12    13	 1 ;       OG311       HGP1
   14    15	 1 ;       CG324      NG3P2
   14    59	 1 ;       CG324       HGA2
   14    60	 1 ;       CG324       HGA2
   15    16	 1 ;       NG3P2       HGP2
   15    18	 1 ;       NG3P2      CG324
   15    17	 1 ;       NG3P2       HGP2
   18    19	 1 ;       CG324     CG2R61
   18    61	 1 ;       CG324       HGA2
   18    62	 1 ;       CG324       HGA2
   19    20	 1 ;      CG2R61     CG2R61
   19    24	 1 ;      CG2R61     CG2R61
   20    21	 1 ;      CG2R61     CG2R61
   20    63	 1 ;      CG2R61      HGR61
   21    25	 1 ;      CG2R61      OG301
   21    22	 1 ;      CG2R61     CG2R61
   22    23	 1 ;      CG2R61     CG2R61
   22    64	 1 ;      CG2R61      HGR61
   23    24	 1 ;      CG2R61     CG2R61
   23    65	 1 ;      CG2R61      HGR61
   24    66	 1 ;      CG2R61      HGR61
   25    26	 1 ;       OG301      CG331
   26    67	 1 ;       CG331       HGA3
   26    68	 1 ;       CG331       HGA3
   26    69	 1 ;       CG331       HGA3
   27    28	 1 ;       NG2S1      CG2O1
   27    30	 1 ;       NG2S1       HGP1
   28    31	 1 ;       CG2O1     CG2R61
   28    29	 1 ;       CG2O1      OG2D1
   31    32	 1 ;      CG2R61     CG2R61
   31    36	 1 ;      CG2R61     CG2R61
   32    33	 1 ;      CG2R61     CG2R61
   32    70	 1 ;      CG2R61      HGR61
   33    37	 1 ;      CG2R61      NG301
   33    34	 1 ;      CG2R61     CG2R61
   34    35	 1 ;      CG2R61     CG2R61
   34    71	 1 ;      CG2R61      HGR61
   35    43	 1 ;      CG2R61      CG314
   35    36	 1 ;      CG2R61     CG2R61
   36    72	 1 ;      CG2R61      HGR61
   37    39	 1 ;       NG301      SG3O2
   37    38	 1 ;       NG301      CG331
   38    73	 1 ;       CG331       HGA3
   38    74	 1 ;       CG331       HGA3
   38    75	 1 ;       CG331       HGA3
   39    41	 1 ;       SG3O2      OG2P1
   39    42	 1 ;       SG3O2      CG331
   39    40	 1 ;       SG3O2      OG2P1
   42    76	 1 ;       CG331       HGA3
   42    77	 1 ;       CG331       HGA3
   42    78	 1 ;       CG331       HGA3
   43    46	 1 ;       CG314      CG331
   43    44	 1 ;       CG314      NG3P2
   43    79	 1 ;       CG314       HGA1
   44    47	 1 ;       NG3P2      OG301
   44    45	 1 ;       NG3P2       HGP2
   44    80	 1 ;       NG3P2       HGP2
   46    81	 1 ;       CG331       HGA3
   46    82	 1 ;       CG331       HGA3
   46    83	 1 ;       CG331       HGA3
   47    48	 1 ;       OG301      CG321
   48    49	 1 ;       CG321      CG311
   48    84	 1 ;       CG321       HGA2
   48    85	 1 ;       CG321       HGA2
   49    51	 1 ;       CG311      CG331
   49    50	 1 ;       CG311      CG331
   49    86	 1 ;       CG311       HGA1
   50    87	 1 ;       CG331       HGA3
   50    88	 1 ;       CG331       HGA3
   50    89	 1 ;       CG331       HGA3
   51    90	 1 ;       CG331       HGA3
   51    91	 1 ;       CG331       HGA3
   51    92	 1 ;       CG331       HGA3

[ pairs ]
;	ai	  aj funct			  c0			c1			  c2			c3
    1    10	 1
    1     4	 1
    1    15	 1
    1    59	 1
    1    60	 1
    1    13	 1
    1    31	 1
    1    29	 1
    2    28	 1
    2    30	 1
    2    14	 1
    2    12	 1
    2    58	 1
    2     8	 1
    2    57	 1
    2     5	 1
    2    55	 1
    3    27	 1
    3    11	 1
    3    52	 1
    3     7	 1
    3     6	 1
    3     9	 1
    4    53	 1
    4    54	 1
    4     8	 1
    4    57	 1
    4    56	 1
    5    10	 1
    5     9	 1
    6    55	 1
    6     8	 1
    6    56	 1
    7    55	 1
    7    57	 1
    9    56	 1
    9    57	 1
   10    53	 1
   10    54	 1
   10    55	 1
   10    56	 1
   11    28	 1
   11    30	 1
   11    53	 1
   11    54	 1
   11    16	 1
   11    18	 1
   11    17	 1
   12    27	 1
   12    52	 1
   12    15	 1
   12    59	 1
   12    60	 1
   13    14	 1
   13    58	 1
   14    27	 1
   14    52	 1
   14    19	 1
   14    61	 1
   14    62	 1
   15    58	 1
   15    20	 1
   15    24	 1
   16    59	 1
   16    60	 1
   16    19	 1
   16    61	 1
   16    62	 1
   17    59	 1
   17    60	 1
   17    19	 1
   17    61	 1
   17    62	 1
   18    59	 1
   18    60	 1
   18    21	 1
   18    63	 1
   18    23	 1
   18    66	 1
   19    25	 1
   19    22	 1
   19    65	 1
   20    61	 1
   20    62	 1
   20    23	 1
   20    66	 1
   20    26	 1
   20    64	 1
   21    24	 1
   21    65	 1
   21    67	 1
   21    68	 1
   21    69	 1
   22    63	 1
   22    26	 1
   22    66	 1
   23    25	 1
   24    61	 1
   24    62	 1
   24    63	 1
   24    64	 1
   25    63	 1
   25    64	 1
   27    58	 1
   27    53	 1
   27    54	 1
   27    32	 1
   27    36	 1
   28    52	 1
   28    33	 1
   28    70	 1
   28    35	 1
   28    72	 1
   29    30	 1
   29    32	 1
   29    36	 1
   30    52	 1
   30    31	 1
   31    37	 1
   31    34	 1
   31    43	 1
   32    35	 1
   32    72	 1
   32    39	 1
   32    38	 1
   32    71	 1
   33    36	 1
   33    43	 1
   33    41	 1
   33    42	 1
   33    40	 1
   33    73	 1
   33    74	 1
   33    75	 1
   34    70	 1
   34    39	 1
   34    38	 1
   34    46	 1
   34    44	 1
   34    79	 1
   34    72	 1
   35    37	 1
   35    81	 1
   35    82	 1
   35    83	 1
   35    47	 1
   35    45	 1
   35    80	 1
   36    70	 1
   36    71	 1
   36    46	 1
   36    44	 1
   36    79	 1
   37    70	 1
   37    71	 1
   37    76	 1
   37    77	 1
   37    78	 1
   38    41	 1
   38    42	 1
   38    40	 1
   39    73	 1
   39    74	 1
   39    75	 1
   40    76	 1
   40    77	 1
   40    78	 1
   41    76	 1
   41    77	 1
   41    78	 1
   43    71	 1
   43    72	 1
   43    48	 1
   44    81	 1
   44    82	 1
   44    83	 1
   44    49	 1
   44    84	 1
   44    85	 1
   45    46	 1
   45    79	 1
   45    48	 1
   46    47	 1
   46    80	 1
   47    79	 1
   47    51	 1
   47    50	 1
   47    86	 1
   48    80	 1
   48    90	 1
   48    91	 1
   48    92	 1
   48    87	 1
   48    88	 1
   48    89	 1
   50    84	 1
   50    85	 1
   50    90	 1
   50    91	 1
   50    92	 1
   51    84	 1
   51    85	 1
   51    87	 1
   51    88	 1
   51    89	 1
   52    58	 1
   52    53	 1
   52    54	 1
   58    59	 1
   58    60	 1
   64    65	 1
   65    66	 1
   79    81	 1
   79    82	 1
   79    83	 1
   79    80	 1
   84    86	 1
   85    86	 1
   86    90	 1
   86    91	 1
   86    92	 1
   86    87	 1
   86    88	 1
   86    89	 1

[ angles ]
;	ai	  aj	ak funct			c0			  c1			c2			  c3
   27     1    11	5 ;      NG2S1      CG311      CG311
   27     1     2	5 ;      NG2S1      CG311      CG321
   27     1    52	5 ;      NG2S1      CG311       HGA1
   11     1     2	5 ;      CG311      CG311      CG321
   11     1    52	5 ;      CG311      CG311       HGA1
    2     1    52	5 ;      CG321      CG311       HGA1
    1     2     3	5 ;      CG311      CG321     CG2R61
    1     2    53	5 ;      CG311      CG321       HGA2
    1     2    54	5 ;      CG311      CG321       HGA2
    3     2    53	5 ;     CG2R61      CG321       HGA2
    3     2    54	5 ;     CG2R61      CG321       HGA2
   53     2    54	5 ;       HGA2      CG321       HGA2
    2     3    10	5 ;      CG321     CG2R61     CG2R61
    2     3     4	5 ;      CG321     CG2R61     CG2R61
   10     3     4	5 ;     CG2R61     CG2R61     CG2R61
    3     4     5	5 ;     CG2R61     CG2R61     CG2R66
    3     4    55	5 ;     CG2R61     CG2R61      HGR62
    5     4    55	5 ;     CG2R66     CG2R61      HGR62
    4     5     7	5 ;     CG2R61     CG2R66     CG2R61
    4     5     6	5 ;     CG2R61     CG2R66       FGR1
    7     5     6	5 ;     CG2R61     CG2R66       FGR1
    8     7     5	5 ;     CG2R66     CG2R61     CG2R66
    8     7    56	5 ;     CG2R66     CG2R61      HGR62
    5     7    56	5 ;     CG2R66     CG2R61      HGR62
   10     8     9	5 ;     CG2R61     CG2R66       FGR1
   10     8     7	5 ;     CG2R61     CG2R66     CG2R61
    9     8     7	5 ;       FGR1     CG2R66     CG2R61
    3    10     8	5 ;     CG2R61     CG2R61     CG2R66
    3    10    57	5 ;     CG2R61     CG2R61      HGR62
    8    10    57	5 ;     CG2R66     CG2R61      HGR62
    1    11    14	5 ;      CG311      CG311      CG324
    1    11    12	5 ;      CG311      CG311      OG311
    1    11    58	5 ;      CG311      CG311       HGA1
   14    11    12	5 ;      CG324      CG311      OG311
   14    11    58	5 ;      CG324      CG311       HGA1
   12    11    58	5 ;      OG311      CG311       HGA1
   11    12    13	5 ;      CG311      OG311       HGP1
   15    14    11	5 ;      NG3P2      CG324      CG311
   15    14    59	5 ;      NG3P2      CG324       HGA2
   15    14    60	5 ;      NG3P2      CG324       HGA2
   11    14    59	5 ;      CG311      CG324       HGA2
   11    14    60	5 ;      CG311      CG324       HGA2
   59    14    60	5 ;       HGA2      CG324       HGA2
   16    15    18	5 ;       HGP2      NG3P2      CG324
   16    15    17	5 ;       HGP2      NG3P2       HGP2
   16    15    14	5 ;       HGP2      NG3P2      CG324
   18    15    17	5 ;      CG324      NG3P2       HGP2
   18    15    14	5 ;      CG324      NG3P2      CG324
   17    15    14	5 ;       HGP2      NG3P2      CG324
   19    18    15	5 ;     CG2R61      CG324      NG3P2
   19    18    61	5 ;     CG2R61      CG324       HGA2
   19    18    62	5 ;     CG2R61      CG324       HGA2
   15    18    61	5 ;      NG3P2      CG324       HGA2
   15    18    62	5 ;      NG3P2      CG324       HGA2
   61    18    62	5 ;       HGA2      CG324       HGA2
   20    19    24	5 ;     CG2R61     CG2R61     CG2R61
   20    19    18	5 ;     CG2R61     CG2R61      CG324
   24    19    18	5 ;     CG2R61     CG2R61      CG324
   21    20    19	5 ;     CG2R61     CG2R61     CG2R61
   21    20    63	5 ;     CG2R61     CG2R61      HGR61
   19    20    63	5 ;     CG2R61     CG2R61      HGR61
   25    21    22	5 ;      OG301     CG2R61     CG2R61
   25    21    20	5 ;      OG301     CG2R61     CG2R61
   22    21    20	5 ;     CG2R61     CG2R61     CG2R61
   21    22    23	5 ;     CG2R61     CG2R61     CG2R61
   21    22    64	5 ;     CG2R61     CG2R61      HGR61
   23    22    64	5 ;     CG2R61     CG2R61      HGR61
   22    23    24	5 ;     CG2R61     CG2R61     CG2R61
   22    23    65	5 ;     CG2R61     CG2R61      HGR61
   24    23    65	5 ;     CG2R61     CG2R61      HGR61
   23    24    19	5 ;     CG2R61     CG2R61     CG2R61
   23    24    66	5 ;     CG2R61     CG2R61      HGR61
   19    24    66	5 ;     CG2R61     CG2R61      HGR61
   26    25    21	5 ;      CG331      OG301     CG2R61
   25    26    67	5 ;      OG301      CG331       HGA3
   25    26    68	5 ;      OG301      CG331       HGA3
   25    26    69	5 ;      OG301      CG331       HGA3
   67    26    68	5 ;       HGA3      CG331       HGA3
   67    26    69	5 ;       HGA3      CG331       HGA3
   68    26    69	5 ;       HGA3      CG331       HGA3
   28    27    30	5 ;      CG2O1      NG2S1       HGP1
   28    27     1	5 ;      CG2O1      NG2S1      CG311
   30    27     1	5 ;       HGP1      NG2S1      CG311
   31    28    29	5 ;     CG2R61      CG2O1      OG2D1
   31    28    27	5 ;     CG2R61      CG2O1      NG2S1
   29    28    27	5 ;      OG2D1      CG2O1      NG2S1
   32    31    36	5 ;     CG2R61     CG2R61     CG2R61
   32    31    28	5 ;     CG2R61     CG2R61      CG2O1
   36    31    28	5 ;     CG2R61     CG2R61      CG2O1
   33    32    31	5 ;     CG2R61     CG2R61     CG2R61
   33    32    70	5 ;     CG2R61     CG2R61      HGR61
   31    32    70	5 ;     CG2R61     CG2R61      HGR61
   37    33    34	5 ;      NG301     CG2R61     CG2R61
   37    33    32	5 ;      NG301     CG2R61     CG2R61
   34    33    32	5 ;     CG2R61     CG2R61     CG2R61
   33    34    35	5 ;     CG2R61     CG2R61     CG2R61
   33    34    71	5 ;     CG2R61     CG2R61      HGR61
   35    34    71	5 ;     CG2R61     CG2R61      HGR61
   34    35    43	5 ;     CG2R61     CG2R61      CG314
   34    35    36	5 ;     CG2R61     CG2R61     CG2R61
   43    35    36	5 ;      CG314     CG2R61     CG2R61
   35    36    31	5 ;     CG2R61     CG2R61     CG2R61
   35    36    72	5 ;     CG2R61     CG2R61      HGR61
   31    36    72	5 ;     CG2R61     CG2R61      HGR61
   39    37    38	5 ;      SG3O2      NG301      CG331
   39    37    33	5 ;      SG3O2      NG301     CG2R61
   38    37    33	5 ;      CG331      NG301     CG2R61
   37    38    73	5 ;      NG301      CG331       HGA3
   37    38    74	5 ;      NG301      CG331       HGA3
   37    38    75	5 ;      NG301      CG331       HGA3
   73    38    74	5 ;       HGA3      CG331       HGA3
   73    38    75	5 ;       HGA3      CG331       HGA3
   74    38    75	5 ;       HGA3      CG331       HGA3
   41    39    42	5 ;      OG2P1      SG3O2      CG331
   41    39    40	5 ;      OG2P1      SG3O2      OG2P1
   41    39    37	5 ;      OG2P1      SG3O2      NG301
   42    39    40	5 ;      CG331      SG3O2      OG2P1
   42    39    37	5 ;      CG331      SG3O2      NG301
   40    39    37	5 ;      OG2P1      SG3O2      NG301
   39    42    76	5 ;      SG3O2      CG331       HGA3
   39    42    77	5 ;      SG3O2      CG331       HGA3
   39    42    78	5 ;      SG3O2      CG331       HGA3
   76    42    77	5 ;       HGA3      CG331       HGA3
   76    42    78	5 ;       HGA3      CG331       HGA3
   77    42    78	5 ;       HGA3      CG331       HGA3
   35    43    46	5 ;     CG2R61      CG314      CG331
   35    43    44	5 ;     CG2R61      CG314      NG3P2
   35    43    79	5 ;     CG2R61      CG314       HGA1
   46    43    44	5 ;      CG331      CG314      NG3P2
   46    43    79	5 ;      CG331      CG314       HGA1
   44    43    79	5 ;      NG3P2      CG314       HGA1
   43    44    47	5 ;      CG314      NG3P2      OG301
   43    44    45	5 ;      CG314      NG3P2       HGP2
   43    44    80	5 ;      CG314      NG3P2       HGP2
   47    44    45	5 ;      OG301      NG3P2       HGP2
   47    44    80	5 ;      OG301      NG3P2       HGP2
   45    44    80	5 ;       HGP2      NG3P2       HGP2
   43    46    81	5 ;      CG314      CG331       HGA3
   43    46    82	5 ;      CG314      CG331       HGA3
   43    46    83	5 ;      CG314      CG331       HGA3
   81    46    82	5 ;       HGA3      CG331       HGA3
   81    46    83	5 ;       HGA3      CG331       HGA3
   82    46    83	5 ;       HGA3      CG331       HGA3
   48    47    44	5 ;      CG321      OG301      NG3P2
   49    48    47	5 ;      CG311      CG321      OG301
   49    48    84	5 ;      CG311      CG321       HGA2
   49    48    85	5 ;      CG311      CG321       HGA2
   47    48    84	5 ;      OG301      CG321       HGA2
   47    48    85	5 ;      OG301      CG321       HGA2
   84    48    85	5 ;       HGA2      CG321       HGA2
   51    49    50	5 ;      CG331      CG311      CG331
   51    49    48	5 ;      CG331      CG311      CG321
   51    49    86	5 ;      CG331      CG311       HGA1
   50    49    48	5 ;      CG331      CG311      CG321
   50    49    86	5 ;      CG331      CG311       HGA1
   48    49    86	5 ;      CG321      CG311       HGA1
   49    50    87	5 ;      CG311      CG331       HGA3
   49    50    88	5 ;      CG311      CG331       HGA3
   49    50    89	5 ;      CG311      CG331       HGA3
   87    50    88	5 ;       HGA3      CG331       HGA3
   87    50    89	5 ;       HGA3      CG331       HGA3
   88    50    89	5 ;       HGA3      CG331       HGA3
   49    51    90	5 ;      CG311      CG331       HGA3
   49    51    91	5 ;      CG311      CG331       HGA3
   49    51    92	5 ;      CG311      CG331       HGA3
   90    51    91	5 ;       HGA3      CG331       HGA3
   90    51    92	5 ;       HGA3      CG331       HGA3
   91    51    92	5 ;       HGA3      CG331       HGA3

[ dihedrals ]
;	ai	  aj	ak	  al funct			  c0			c1			  c2			c3			  c4			c5
   11     1    27    28	 9 ;      CG311      CG311      NG2S1      CG2O1
   11     1    27    30	 9 ;      CG311      CG311      NG2S1       HGP1
    2     1    27    28	 9 ;      CG321      CG311      NG2S1      CG2O1
    2     1    27    30	 9 ;      CG321      CG311      NG2S1       HGP1
   52     1    27    28	 9 ;       HGA1      CG311      NG2S1      CG2O1
   52     1    27    30	 9 ;       HGA1      CG311      NG2S1       HGP1
   27     1    11    14	 9 ;      NG2S1      CG311      CG311      CG324
   27     1    11    12	 9 ;      NG2S1      CG311      CG311      OG311
   27     1    11    58	 9 ;      NG2S1      CG311      CG311       HGA1
    2     1    11    14	 9 ;      CG321      CG311      CG311      CG324
    2     1    11    12	 9 ;      CG321      CG311      CG311      OG311
    2     1    11    58	 9 ;      CG321      CG311      CG311       HGA1
   52     1    11    14	 9 ;       HGA1      CG311      CG311      CG324
   52     1    11    12	 9 ;       HGA1      CG311      CG311      OG311
   52     1    11    58	 9 ;       HGA1      CG311      CG311       HGA1
   27     1     2     3	 9 ;      NG2S1      CG311      CG321     CG2R61
   27     1     2    53	 9 ;      NG2S1      CG311      CG321       HGA2
   27     1     2    54	 9 ;      NG2S1      CG311      CG321       HGA2
   11     1     2     3	 9 ;      CG311      CG311      CG321     CG2R61
   11     1     2    53	 9 ;      CG311      CG311      CG321       HGA2
   11     1     2    54	 9 ;      CG311      CG311      CG321       HGA2
   52     1     2     3	 9 ;       HGA1      CG311      CG321     CG2R61
   52     1     2    53	 9 ;       HGA1      CG311      CG321       HGA2
   52     1     2    54	 9 ;       HGA1      CG311      CG321       HGA2
    1     2     3    10	 9 ;      CG311      CG321     CG2R61     CG2R61
    1     2     3     4	 9 ;      CG311      CG321     CG2R61     CG2R61
   53     2     3    10	 9 ;       HGA2      CG321     CG2R61     CG2R61
   53     2     3     4	 9 ;       HGA2      CG321     CG2R61     CG2R61
   54     2     3    10	 9 ;       HGA2      CG321     CG2R61     CG2R61
   54     2     3     4	 9 ;       HGA2      CG321     CG2R61     CG2R61
    2     3    10     8	 9 ;      CG321     CG2R61     CG2R61     CG2R66
    2     3    10    57	 9 ;      CG321     CG2R61     CG2R61      HGR62
    4     3    10     8	 9 ;     CG2R61     CG2R61     CG2R61     CG2R66
    4     3    10    57	 9 ;     CG2R61     CG2R61     CG2R61      HGR62
    2     3     4     5	 9 ;      CG321     CG2R61     CG2R61     CG2R66
    2     3     4    55	 9 ;      CG321     CG2R61     CG2R61      HGR62
   10     3     4     5	 9 ;     CG2R61     CG2R61     CG2R61     CG2R66
   10     3     4    55	 9 ;     CG2R61     CG2R61     CG2R61      HGR62
    3     4     5     7	 9 ;     CG2R61     CG2R61     CG2R66     CG2R61
    3     4     5     6	 9 ;     CG2R61     CG2R61     CG2R66       FGR1
   55     4     5     7	 9 ;      HGR62     CG2R61     CG2R66     CG2R61
   55     4     5     6	 9 ;      HGR62     CG2R61     CG2R66       FGR1
    4     5     7     8	 9 ;     CG2R61     CG2R66     CG2R61     CG2R66
    4     5     7    56	 9 ;     CG2R61     CG2R66     CG2R61      HGR62
    6     5     7     8	 9 ;       FGR1     CG2R66     CG2R61     CG2R66
    6     5     7    56	 9 ;       FGR1     CG2R66     CG2R61      HGR62
    5     7     8    10	 9 ;     CG2R66     CG2R61     CG2R66     CG2R61
    5     7     8     9	 9 ;     CG2R66     CG2R61     CG2R66       FGR1
   56     7     8    10	 9 ;      HGR62     CG2R61     CG2R66     CG2R61
   56     7     8     9	 9 ;      HGR62     CG2R61     CG2R66       FGR1
    9     8    10     3	 9 ;       FGR1     CG2R66     CG2R61     CG2R61
    9     8    10    57	 9 ;       FGR1     CG2R66     CG2R61      HGR62
    7     8    10     3	 9 ;     CG2R61     CG2R66     CG2R61     CG2R61
    7     8    10    57	 9 ;     CG2R61     CG2R66     CG2R61      HGR62
    1    11    14    15	 9 ;      CG311      CG311      CG324      NG3P2
    1    11    14    59	 9 ;      CG311      CG311      CG324       HGA2
    1    11    14    60	 9 ;      CG311      CG311      CG324       HGA2
   12    11    14    15	 9 ;      OG311      CG311      CG324      NG3P2
   12    11    14    59	 9 ;      OG311      CG311      CG324       HGA2
   12    11    14    60	 9 ;      OG311      CG311      CG324       HGA2
   58    11    14    15	 9 ;       HGA1      CG311      CG324      NG3P2
   58    11    14    59	 9 ;       HGA1      CG311      CG324       HGA2
   58    11    14    60	 9 ;       HGA1      CG311      CG324       HGA2
    1    11    12    13	 9 ;      CG311      CG311      OG311       HGP1
   14    11    12    13	 9 ;      CG324      CG311      OG311       HGP1
   58    11    12    13	 9 ;       HGA1      CG311      OG311       HGP1
   11    14    15    16	 9 ;      CG311      CG324      NG3P2       HGP2
   11    14    15    18	 9 ;      CG311      CG324      NG3P2      CG324
   11    14    15    17	 9 ;      CG311      CG324      NG3P2       HGP2
   59    14    15    16	 9 ;       HGA2      CG324      NG3P2       HGP2
   59    14    15    18	 9 ;       HGA2      CG324      NG3P2      CG324
   59    14    15    17	 9 ;       HGA2      CG324      NG3P2       HGP2
   60    14    15    16	 9 ;       HGA2      CG324      NG3P2       HGP2
   60    14    15    18	 9 ;       HGA2      CG324      NG3P2      CG324
   60    14    15    17	 9 ;       HGA2      CG324      NG3P2       HGP2
   16    15    18    19	 9 ;       HGP2      NG3P2      CG324     CG2R61
   16    15    18    61	 9 ;       HGP2      NG3P2      CG324       HGA2
   16    15    18    62	 9 ;       HGP2      NG3P2      CG324       HGA2
   17    15    18    19	 9 ;       HGP2      NG3P2      CG324     CG2R61
   17    15    18    61	 9 ;       HGP2      NG3P2      CG324       HGA2
   17    15    18    62	 9 ;       HGP2      NG3P2      CG324       HGA2
   14    15    18    19	 9 ;      CG324      NG3P2      CG324     CG2R61
   14    15    18    61	 9 ;      CG324      NG3P2      CG324       HGA2
   14    15    18    62	 9 ;      CG324      NG3P2      CG324       HGA2
   15    18    19    20	 9 ;      NG3P2      CG324     CG2R61     CG2R61
   15    18    19    24	 9 ;      NG3P2      CG324     CG2R61     CG2R61
   61    18    19    20	 9 ;       HGA2      CG324     CG2R61     CG2R61
   61    18    19    24	 9 ;       HGA2      CG324     CG2R61     CG2R61
   62    18    19    20	 9 ;       HGA2      CG324     CG2R61     CG2R61
   62    18    19    24	 9 ;       HGA2      CG324     CG2R61     CG2R61
   24    19    20    21	 9 ;     CG2R61     CG2R61     CG2R61     CG2R61
   24    19    20    63	 9 ;     CG2R61     CG2R61     CG2R61      HGR61
   18    19    20    21	 9 ;      CG324     CG2R61     CG2R61     CG2R61
   18    19    20    63	 9 ;      CG324     CG2R61     CG2R61      HGR61
   20    19    24    23	 9 ;     CG2R61     CG2R61     CG2R61     CG2R61
   20    19    24    66	 9 ;     CG2R61     CG2R61     CG2R61      HGR61
   18    19    24    23	 9 ;      CG324     CG2R61     CG2R61     CG2R61
   18    19    24    66	 9 ;      CG324     CG2R61     CG2R61      HGR61
   19    20    21    25	 9 ;     CG2R61     CG2R61     CG2R61      OG301
   19    20    21    22	 9 ;     CG2R61     CG2R61     CG2R61     CG2R61
   63    20    21    25	 9 ;      HGR61     CG2R61     CG2R61      OG301
   63    20    21    22	 9 ;      HGR61     CG2R61     CG2R61     CG2R61
   22    21    25    26	 9 ;     CG2R61     CG2R61      OG301      CG331
   20    21    25    26	 9 ;     CG2R61     CG2R61      OG301      CG331
   25    21    22    23	 9 ;      OG301     CG2R61     CG2R61     CG2R61
   25    21    22    64	 9 ;      OG301     CG2R61     CG2R61      HGR61
   20    21    22    23	 9 ;     CG2R61     CG2R61     CG2R61     CG2R61
   20    21    22    64	 9 ;     CG2R61     CG2R61     CG2R61      HGR61
   21    22    23    24	 9 ;     CG2R61     CG2R61     CG2R61     CG2R61
   21    22    23    65	 9 ;     CG2R61     CG2R61     CG2R61      HGR61
   64    22    23    24	 9 ;      HGR61     CG2R61     CG2R61     CG2R61
   64    22    23    65	 9 ;      HGR61     CG2R61     CG2R61      HGR61
   22    23    24    19	 9 ;     CG2R61     CG2R61     CG2R61     CG2R61
   22    23    24    66	 9 ;     CG2R61     CG2R61     CG2R61      HGR61
   65    23    24    19	 9 ;      HGR61     CG2R61     CG2R61     CG2R61
   65    23    24    66	 9 ;      HGR61     CG2R61     CG2R61      HGR61
   21    25    26    67	 9 ;     CG2R61      OG301      CG331       HGA3
   21    25    26    68	 9 ;     CG2R61      OG301      CG331       HGA3
   21    25    26    69	 9 ;     CG2R61      OG301      CG331       HGA3
   30    27    28    31	 9 ;       HGP1      NG2S1      CG2O1     CG2R61
   30    27    28    29	 9 ;       HGP1      NG2S1      CG2O1      OG2D1
    1    27    28    31	 9 ;      CG311      NG2S1      CG2O1     CG2R61
    1    27    28    29	 9 ;      CG311      NG2S1      CG2O1      OG2D1
   29    28    31    32	 9 ;      OG2D1      CG2O1     CG2R61     CG2R61
   29    28    31    36	 9 ;      OG2D1      CG2O1     CG2R61     CG2R61
   27    28    31    32	 9 ;      NG2S1      CG2O1     CG2R61     CG2R61
   27    28    31    36	 9 ;      NG2S1      CG2O1     CG2R61     CG2R61
   36    31    32    33	 9 ;     CG2R61     CG2R61     CG2R61     CG2R61
   36    31    32    70	 9 ;     CG2R61     CG2R61     CG2R61      HGR61
   28    31    32    33	 9 ;      CG2O1     CG2R61     CG2R61     CG2R61
   28    31    32    70	 9 ;      CG2O1     CG2R61     CG2R61      HGR61
   32    31    36    35	 9 ;     CG2R61     CG2R61     CG2R61     CG2R61
   32    31    36    72	 9 ;     CG2R61     CG2R61     CG2R61      HGR61
   28    31    36    35	 9 ;      CG2O1     CG2R61     CG2R61     CG2R61
   28    31    36    72	 9 ;      CG2O1     CG2R61     CG2R61      HGR61
   31    32    33    37	 9 ;     CG2R61     CG2R61     CG2R61      NG301
   31    32    33    34	 9 ;     CG2R61     CG2R61     CG2R61     CG2R61
   70    32    33    37	 9 ;      HGR61     CG2R61     CG2R61      NG301
   70    32    33    34	 9 ;      HGR61     CG2R61     CG2R61     CG2R61
   34    33    37    39	 9 ;     CG2R61     CG2R61      NG301      SG3O2
   34    33    37    38	 9 ;     CG2R61     CG2R61      NG301      CG331
   32    33    37    39	 9 ;     CG2R61     CG2R61      NG301      SG3O2
   32    33    37    38	 9 ;     CG2R61     CG2R61      NG301      CG331
   37    33    34    35	 9 ;      NG301     CG2R61     CG2R61     CG2R61
   37    33    34    71	 9 ;      NG301     CG2R61     CG2R61      HGR61
   32    33    34    35	 9 ;     CG2R61     CG2R61     CG2R61     CG2R61
   32    33    34    71	 9 ;     CG2R61     CG2R61     CG2R61      HGR61
   33    34    35    43	 9 ;     CG2R61     CG2R61     CG2R61      CG314
   33    34    35    36	 9 ;     CG2R61     CG2R61     CG2R61     CG2R61
   71    34    35    43	 9 ;      HGR61     CG2R61     CG2R61      CG314
   71    34    35    36	 9 ;      HGR61     CG2R61     CG2R61     CG2R61
   34    35    43    46	 9 ;     CG2R61     CG2R61      CG314      CG331
   34    35    43    44	 9 ;     CG2R61     CG2R61      CG314      NG3P2
   34    35    43    79	 9 ;     CG2R61     CG2R61      CG314       HGA1
   36    35    43    46	 9 ;     CG2R61     CG2R61      CG314      CG331
   36    35    43    44	 9 ;     CG2R61     CG2R61      CG314      NG3P2
   36    35    43    79	 9 ;     CG2R61     CG2R61      CG314       HGA1
   34    35    36    31	 9 ;     CG2R61     CG2R61     CG2R61     CG2R61
   34    35    36    72	 9 ;     CG2R61     CG2R61     CG2R61      HGR61
   43    35    36    31	 9 ;      CG314     CG2R61     CG2R61     CG2R61
   43    35    36    72	 9 ;      CG314     CG2R61     CG2R61      HGR61
   38    37    39    41	 9 ;      CG331      NG301      SG3O2      OG2P1
   38    37    39    42	 9 ;      CG331      NG301      SG3O2      CG331
   38    37    39    40	 9 ;      CG331      NG301      SG3O2      OG2P1
   33    37    39    41	 9 ;     CG2R61      NG301      SG3O2      OG2P1
   33    37    39    42	 9 ;     CG2R61      NG301      SG3O2      CG331
   33    37    39    40	 9 ;     CG2R61      NG301      SG3O2      OG2P1
   39    37    38    73	 9 ;      SG3O2      NG301      CG331       HGA3
   39    37    38    74	 9 ;      SG3O2      NG301      CG331       HGA3
   39    37    38    75	 9 ;      SG3O2      NG301      CG331       HGA3
   33    37    38    73	 9 ;     CG2R61      NG301      CG331       HGA3
   33    37    38    74	 9 ;     CG2R61      NG301      CG331       HGA3
   33    37    38    75	 9 ;     CG2R61      NG301      CG331       HGA3
   41    39    42    76	 9 ;      OG2P1      SG3O2      CG331       HGA3
   41    39    42    77	 9 ;      OG2P1      SG3O2      CG331       HGA3
   41    39    42    78	 9 ;      OG2P1      SG3O2      CG331       HGA3
   40    39    42    76	 9 ;      OG2P1      SG3O2      CG331       HGA3
   40    39    42    77	 9 ;      OG2P1      SG3O2      CG331       HGA3
   40    39    42    78	 9 ;      OG2P1      SG3O2      CG331       HGA3
   37    39    42    76	 9 ;      NG301      SG3O2      CG331       HGA3
   37    39    42    77	 9 ;      NG301      SG3O2      CG331       HGA3
   37    39    42    78	 9 ;      NG301      SG3O2      CG331       HGA3
   35    43    46    81	 9 ;     CG2R61      CG314      CG331       HGA3
   35    43    46    82	 9 ;     CG2R61      CG314      CG331       HGA3
   35    43    46    83	 9 ;     CG2R61      CG314      CG331       HGA3
   44    43    46    81	 9 ;      NG3P2      CG314      CG331       HGA3
   44    43    46    82	 9 ;      NG3P2      CG314      CG331       HGA3
   44    43    46    83	 9 ;      NG3P2      CG314      CG331       HGA3
   79    43    46    81	 9 ;       HGA1      CG314      CG331       HGA3
   79    43    46    82	 9 ;       HGA1      CG314      CG331       HGA3
   79    43    46    83	 9 ;       HGA1      CG314      CG331       HGA3
   35    43    44    47	 9 ;     CG2R61      CG314      NG3P2      OG301
   35    43    44    45	 9 ;     CG2R61      CG314      NG3P2       HGP2
   35    43    44    80	 9 ;     CG2R61      CG314      NG3P2       HGP2
   46    43    44    47	 9 ;      CG331      CG314      NG3P2      OG301
   46    43    44    45	 9 ;      CG331      CG314      NG3P2       HGP2
   46    43    44    80	 9 ;      CG331      CG314      NG3P2       HGP2
   79    43    44    47	 9 ;       HGA1      CG314      NG3P2      OG301
   79    43    44    45	 9 ;       HGA1      CG314      NG3P2       HGP2
   79    43    44    80	 9 ;       HGA1      CG314      NG3P2       HGP2
   43    44    47    48	 9 ;      CG314      NG3P2      OG301      CG321
   45    44    47    48	 9 ;       HGP2      NG3P2      OG301      CG321
   80    44    47    48	 9 ;       HGP2      NG3P2      OG301      CG321
   44    47    48    49	 9 ;      NG3P2      OG301      CG321      CG311
   44    47    48    84	 9 ;      NG3P2      OG301      CG321       HGA2
   44    47    48    85	 9 ;      NG3P2      OG301      CG321       HGA2
   47    48    49    51	 9 ;      OG301      CG321      CG311      CG331
   47    48    49    50	 9 ;      OG301      CG321      CG311      CG331
   47    48    49    86	 9 ;      OG301      CG321      CG311       HGA1
   84    48    49    51	 9 ;       HGA2      CG321      CG311      CG331
   84    48    49    50	 9 ;       HGA2      CG321      CG311      CG331
   84    48    49    86	 9 ;       HGA2      CG321      CG311       HGA1
   85    48    49    51	 9 ;       HGA2      CG321      CG311      CG331
   85    48    49    50	 9 ;       HGA2      CG321      CG311      CG331
   85    48    49    86	 9 ;       HGA2      CG321      CG311       HGA1
   50    49    51    90	 9 ;      CG331      CG311      CG331       HGA3
   50    49    51    91	 9 ;      CG331      CG311      CG331       HGA3
   50    49    51    92	 9 ;      CG331      CG311      CG331       HGA3
   48    49    51    90	 9 ;      CG321      CG311      CG331       HGA3
   48    49    51    91	 9 ;      CG321      CG311      CG331       HGA3
   48    49    51    92	 9 ;      CG321      CG311      CG331       HGA3
   86    49    51    90	 9 ;       HGA1      CG311      CG331       HGA3
   86    49    51    91	 9 ;       HGA1      CG311      CG331       HGA3
   86    49    51    92	 9 ;       HGA1      CG311      CG331       HGA3
   51    49    50    87	 9 ;      CG331      CG311      CG331       HGA3
   51    49    50    88	 9 ;      CG331      CG311      CG331       HGA3
   51    49    50    89	 9 ;      CG331      CG311      CG331       HGA3
   48    49    50    87	 9 ;      CG321      CG311      CG331       HGA3
   48    49    50    88	 9 ;      CG321      CG311      CG331       HGA3
   48    49    50    89	 9 ;      CG321      CG311      CG331       HGA3
   86    49    50    87	 9 ;       HGA1      CG311      CG331       HGA3
   86    49    50    88	 9 ;       HGA1      CG311      CG331       HGA3
   86    49    50    89	 9 ;       HGA1      CG311      CG331       HGA3

[ dihedrals ]
;	ai	  aj	ak	  al funct			  c0			c1			  c2			c3
   28    31    27    29	 2

