GROtesk MACabre and Sinister
   92
    1LIG     C1    1  -1.645   0.434  -1.261
    1LIG     C2    2  -1.572   0.489  -1.134
    1LIG     C3    3  -1.621   0.439  -0.998
    1LIG     C4    4  -1.692   0.517  -0.907
    1LIG     C5    5  -1.739   0.462  -0.786
    1LIG     F1    6  -1.801   0.541  -0.698
    1LIG     C6    7  -1.719   0.329  -0.752
    1LIG     C7    8  -1.645   0.252  -0.840
    1LIG     F2    9  -1.611   0.127  -0.807
    1LIG     C8   10  -1.597   0.306  -0.960
    1LIG     C9   11  -1.780   0.506  -1.295
    1LIG     O1   12  -1.887   0.440  -1.226
    1LIG     H1   13  -1.858   0.348  -1.205
    1LIG    C10   14  -1.778   0.656  -1.252
    1LIG     N1   15  -1.727   0.761  -1.351
    1LIG     H2   16  -1.777   0.741  -1.440
    1LIG     H3   17  -1.762   0.855  -1.326
    1LIG    C11   18  -1.582   0.774  -1.389
    1LIG    C12   19  -1.557   0.816  -1.533
    1LIG    C13   20  -1.464   0.742  -1.610
    1LIG    C14   21  -1.454   0.761  -1.748
    1LIG    C15   22  -1.532   0.858  -1.809
    1LIG    C16   23  -1.615   0.941  -1.733
    1LIG    C17   24  -1.624   0.922  -1.594
    1LIG     O2   25  -1.374   0.688  -1.832
    1LIG    C18   26  -1.235   0.718  -1.834
    1LIG     N2   27  -1.557   0.432  -1.382
    1LIG    C19   28  -1.553   0.335  -1.483
    1LIG     O3   29  -1.633   0.247  -1.488
    1LIG     H4   30  -1.485   0.502  -1.386
    1LIG    C20   31  -1.446   0.348  -1.589
    1LIG    C21   32  -1.472   0.326  -1.725
    1LIG    C22   33  -1.372   0.326  -1.820
    1LIG    C23   34  -1.242   0.357  -1.783
    1LIG    C24   35  -1.209   0.372  -1.646
    1LIG    C25   36  -1.313   0.369  -1.550
    1LIG     N3   37  -1.402   0.274  -1.952
    1LIG    C26   38  -1.313   0.168  -2.004
    1LIG      S   39  -1.476   0.384  -2.061
    1LIG     O4   40  -1.566   0.470  -1.984
    1LIG     O5   41  -1.526   0.313  -2.174
    1LIG    C27   42  -1.338   0.484  -2.115
    1LIG    C28   43  -1.064   0.371  -1.602
    1LIG     N4   44  -1.003   0.274  -1.539
    1LIG     HN   45  -0.907   0.282  -1.505
    1LIG    C29   46  -0.983   0.497  -1.626
    1LIG     O6   47  -1.083   0.160  -1.523
    1LIG    C30   48  -1.005   0.043  -1.548
    1LIG    C31   49  -1.080  -0.058  -1.638
    1LIG    C32   50  -1.219  -0.011  -1.680
    1LIG    C33   51  -0.995  -0.084  -1.762
    1LIG     H5   52  -1.670   0.333  -1.235
    1LIG     H6   53  -1.584   0.596  -1.134
    1LIG     H7   54  -1.472   0.454  -1.142
    1LIG     H8   55  -1.710   0.617  -0.928
    1LIG     H9   56  -1.757   0.289  -0.665
    1LIG    H10   57  -1.542   0.246  -1.023
    1LIG    H11   58  -1.793   0.501  -1.401
    1LIG    H12   59  -1.878   0.683  -1.227
    1LIG    H13   60  -1.705   0.660  -1.173
    1LIG    H14   61  -1.536   0.846  -1.325
    1LIG    H15   62  -1.539   0.676  -1.379
    1LIG    H16   63  -1.403   0.673  -1.564
    1LIG    H17   64  -1.530   0.869  -1.912
    1LIG    H18   65  -1.668   1.016  -1.778
    1LIG    H19   66  -1.681   0.986  -1.538
    1LIG    H20   67  -1.185   0.654  -1.904
    1LIG    H21   68  -1.194   0.702  -1.736
    1LIG    H22   69  -1.221   0.820  -1.862
    1LIG    H23   70  -1.570   0.311  -1.755
    1LIG    H24   71  -1.170   0.371  -1.855
    1LIG    H25   72  -1.290   0.384  -1.450
    1LIG    H26   73  -1.346   0.138  -2.101
    1LIG    H27   74  -1.316   0.084  -1.938
    1LIG    H28   75  -1.213   0.205  -2.010
    1LIG    H29   76  -1.373   0.558  -2.184
    1LIG    H30   77  -1.265   0.422  -2.162
    1LIG    H31   78  -1.294   0.533  -2.030
    1LIG    H32   79  -1.106   0.279  -1.639
    1LIG    H33   80  -0.907   0.281  -1.505
    1LIG    H34   81  -0.978   0.554  -1.536
    1LIG    H35   82  -1.030   0.556  -1.702
    1LIG    H36   83  -0.884   0.471  -1.657
    1LIG    H37   84  -0.914   0.072  -1.597
    1LIG    H38   85  -0.985  -0.004  -1.454
    1LIG    H39   86  -1.094  -0.147  -1.580
    1LIG    H40   87  -1.211   0.079  -1.738
    1LIG    H41   88  -1.278   0.009  -1.593
    1LIG    H42   89  -1.266  -0.087  -1.738
    1LIG    H43   90  -0.983   0.007  -1.817
    1LIG    H44   91  -1.044  -0.157  -1.824
    1LIG    H45   92  -0.899  -0.122  -1.733
   0.00000   0.00000   0.00000
