Gromacs Runs One Microsecond At Cannonball Speeds
   76
    1LIG     N1    1  -1.592   0.557  -1.870
    1LIG     H1    2  -1.615   0.515  -1.962
    1LIG     H2    3  -1.495   0.590  -1.880
    1LIG     C1    4  -1.683   0.681  -1.862
    1LIG     C2    5  -1.583   0.798  -1.846
    1LIG     O1    6  -1.635   0.908  -1.923
    1LIG     H3    7  -1.644   0.983  -1.860
    1LIG     C3    8  -1.528   0.844  -1.707
    1LIG     C4    9  -1.376   0.874  -1.730
    1LIG     C5   10  -1.280   0.777  -1.667
    1LIG     C6   11  -1.314   0.708  -1.550
    1LIG     C7   12  -1.223   0.621  -1.492
    1LIG     F1   13  -1.255   0.557  -1.379
    1LIG     C8   14  -1.097   0.599  -1.548
    1LIG     C9   15  -1.065   0.665  -1.665
    1LIG    C10   16  -1.155   0.753  -1.725
    1LIG     F2   17  -0.945   0.645  -1.721
    1LIG     N2   18  -1.588   0.960  -1.639
    1LIG    C11   19  -1.710   0.972  -1.580
    1LIG     O2   20  -1.794   0.883  -1.584
    1LIG    C12   21  -1.732   1.105  -1.511
    1LIG     H4   22  -1.528   1.042  -1.631
    1LIG    C13   23  -1.595   0.449  -1.763
    1LIG    C14   24  -1.691   0.339  -1.818
    1LIG    C15   25  -1.723   0.232  -1.713
    1LIG    C16   26  -1.788   0.293  -1.590
    1LIG    C17   27  -1.707   0.407  -1.532
    1LIG    C18   28  -1.664   0.510  -1.638
    1LIG    C19   29  -1.452   0.394  -1.744
    1LIG    C20   30  -1.425   0.298  -1.643
    1LIG    C21   31  -1.297   0.242  -1.620
    1LIG    C22   32  -1.195   0.285  -1.705
    1LIG    C23   33  -1.218   0.380  -1.805
    1LIG    C24   34  -1.345   0.433  -1.825
    1LIG     N3   35  -1.273   0.152  -1.510
    1LIG    C25   36  -1.233   0.012  -1.536
    1LIG    C26   37  -1.086  -0.012  -1.504
    1LIG    C27   38  -1.066  -0.056  -1.359
    1LIG     O3   39  -1.168  -0.007  -1.272
    1LIG    C28   40  -1.184   0.134  -1.276
    1LIG    C29   41  -1.284   0.195  -1.377
    1LIG     O4   42  -1.358   0.288  -1.341
    1LIG    HC2   43  -1.742   0.692  -1.954
    1LIG    HC3   44  -1.749   0.675  -1.776
    1LIG     HC   45  -1.495   0.766  -1.901
    1LIG    HC1   46  -1.535   0.759  -1.640
    1LIG    HC4   47  -1.355   0.973  -1.689
    1LIG    HC5   48  -1.357   0.876  -1.837
    1LIG    HC6   49  -1.411   0.722  -1.504
    1LIG    HC7   50  -1.027   0.531  -1.500
    1LIG    HC8   51  -1.128   0.803  -1.816
    1LIG    HC9   52  -1.832   1.107  -1.466
    1LIG   HC10   53  -1.657   1.118  -1.433
    1LIG   HC11   54  -1.723   1.185  -1.584
    1LIG   HC12   55  -1.645   0.292  -1.904
    1LIG   HC13   56  -1.785   0.386  -1.849
    1LIG   HC14   57  -1.791   0.159  -1.757
    1LIG   HC15   58  -1.630   0.182  -1.684
    1LIG   HC16   59  -1.799   0.215  -1.514
    1LIG   HC17   60  -1.888   0.329  -1.617
    1LIG   HC18   61  -1.767   0.458  -1.457
    1LIG   HC19   62  -1.618   0.367  -1.485
    1LIG   HC20   63  -1.594   0.580  -1.591
    1LIG   HC21   64  -1.752   0.566  -1.670
    1LIG   HC22   65  -1.506   0.266  -1.579
    1LIG   HC23   66  -1.095   0.245  -1.693
    1LIG   HC24   67  -1.137   0.413  -1.867
    1LIG   HC25   68  -1.362   0.505  -1.904
    1LIG   HC26   69  -1.251  -0.011  -1.641
    1LIG   HC27   70  -1.294  -0.054  -1.474
    1LIG   HC28   71  -1.048  -0.090  -1.570
    1LIG   HC29   72  -1.030   0.080  -1.521
    1LIG   HC30   73  -1.067  -0.164  -1.355
    1LIG   HC31   74  -0.970  -0.020  -1.324
    1LIG   HC32   75  -1.215   0.165  -1.176
    1LIG   HC33   76  -1.086   0.178  -1.295
   0.00000   0.00000   0.00000
