Good ROcking Metal Altar for Chronical Sinners
   67
    1LIG      S    1  -1.797   0.335  -1.753
    1LIG     O1    2  -1.694   0.278  -1.837
    1LIG     O2    3  -1.934   0.289  -1.761
    1LIG     C1    4  -1.745   0.326  -1.582
    1LIG     C2    5  -1.610   0.397  -1.558
    1LIG     C3    6  -1.623   0.545  -1.606
    1LIG     C4    7  -1.664   0.570  -1.755
    1LIG     C5    8  -1.797   0.507  -1.788
    1LIG      N    9  -1.548   0.532  -1.845
    1LIG     H1   10  -1.498   0.453  -1.800
    1LIG     H2   11  -1.581   0.497  -1.935
    1LIG     C6   12  -1.447   0.635  -1.884
    1LIG     C7   13  -1.311   0.584  -1.844
    1LIG     C8   14  -1.247   0.636  -1.730
    1LIG     C9   15  -1.132   0.574  -1.679
    1LIG    C10   16  -1.082   0.460  -1.742
    1LIG    C11   17  -1.140   0.413  -1.860
    1LIG    C12   18  -1.253   0.475  -1.911
    1LIG    C13   19  -1.061   0.635  -1.559
    1LIG    C14   20  -0.945   0.725  -1.601
    1LIG    C15   21  -1.162   0.709  -1.470
    1LIG     O3   22  -1.510   0.627  -1.580
    1LIG     H3   23  -1.429   0.577  -1.564
    1LIG    C16   24  -1.490   0.314  -1.611
    1LIG    C17   25  -1.364   0.313  -1.526
    1LIG    C18   26  -1.258   0.226  -1.560
    1LIG    C19   27  -1.153   0.204  -1.470
    1LIG    C20   28  -1.148   0.277  -1.351
    1LIG    C21   29  -1.245   0.373  -1.322
    1LIG    C22   30  -1.354   0.389  -1.408
    1LIG     O4   31  -1.058   0.106  -1.483
    1LIG    C23   32  -1.011   0.046  -1.362
    1LIG    C24   33  -1.046  -0.103  -1.356
    1LIG    C25   34  -1.189  -0.133  -1.314
    1LIG    HC2   35  -1.734   0.221  -1.554
    1LIG    HC3   36  -1.821   0.372  -1.519
    1LIG     HC   37  -1.598   0.402  -1.449
    1LIG    HC1   38  -1.704   0.587  -1.547
    1LIG    HC4   39  -1.677   0.678  -1.765
    1LIG    HC5   40  -1.818   0.521  -1.894
    1LIG    HC6   41  -1.875   0.555  -1.729
    1LIG    HC7   42  -1.450   0.650  -1.992
    1LIG    HC8   43  -1.467   0.729  -1.833
    1LIG    HC9   44  -1.287   0.723  -1.682
    1LIG   HC10   45  -0.997   0.407  -1.699
    1LIG   HC11   46  -1.097   0.328  -1.911
    1LIG   HC12   47  -1.297   0.439  -2.003
    1LIG   HC13   48  -1.020   0.553  -1.500
    1LIG   HC14   49  -0.876   0.669  -1.663
    1LIG   HC15   50  -0.893   0.761  -1.512
    1LIG   HC16   51  -0.984   0.810  -1.657
    1LIG   HC17   52  -1.116   0.731  -1.374
    1LIG   HC18   53  -1.191   0.802  -1.519
    1LIG   HC19   54  -1.250   0.647  -1.456
    1LIG   HC20   55  -1.463   0.355  -1.709
    1LIG   HC21   56  -1.523   0.211  -1.624
    1LIG   HC22   57  -1.258   0.176  -1.656
    1LIG   HC23   58  -1.067   0.260  -1.281
    1LIG   HC24   59  -1.236   0.434  -1.234
    1LIG   HC25   60  -1.432   0.460  -1.383
    1LIG   HC26   61  -0.903   0.057  -1.357
    1LIG   HC27   62  -1.056   0.097  -1.277
    1LIG   HC28   63  -0.979  -0.150  -1.284
    1LIG   HC29   64  -1.029  -0.147  -1.454
    1LIG   HC30   65  -1.205  -0.241  -1.313
    1LIG   HC31   66  -1.207  -0.092  -1.215
    1LIG   HC32   67  -1.258  -0.087  -1.385
   0.00000   0.00000   0.00000
