Good ROcking Metal Altar for Chronical Sinners
   41
    1LIG     C1    1  -1.681   0.391  -1.598
    1LIG     C2    2  -1.557   0.371  -1.535
    1LIG     C3    3  -1.466   0.271  -1.574
    1LIG     C4    4  -1.502   0.191  -1.683
    1LIG     C5    5  -1.622   0.211  -1.751
    1LIG     C6    6  -1.711   0.310  -1.709
    1LIG     C7    7  -1.776   0.500  -1.547
    1LIG     N1    8  -1.701   0.621  -1.505
    1LIG     C8    9  -1.756   0.727  -1.555
    1LIG     HN   10  -1.619   0.621  -1.445
    1LIG     C9   11  -1.879   0.717  -1.643
    1LIG     N2   12  -1.703   0.850  -1.527
    1LIG      S   13  -1.896   0.542  -1.679
    1LIG     H1   14  -1.609   0.846  -1.489
    1LIG     H2   15  -1.718   0.925  -1.593
    1LIG    C10   16  -1.857   0.456  -1.423
    1LIG    C11   17  -1.338   0.250  -1.502
    1LIG    C12   18  -1.253   0.143  -1.534
    1LIG    C13   19  -1.133   0.120  -1.465
    1LIG    C14   20  -1.096   0.208  -1.362
    1LIG    C15   21  -1.177   0.316  -1.329
    1LIG    C16   22  -1.297   0.336  -1.398
    1LIG      O   23  -1.046   0.018  -1.488
    1LIG    C17   24  -1.041  -0.085  -1.390
    1LIG     HC   25  -1.530   0.436  -1.452
    1LIG    HC1   26  -1.436   0.112  -1.715
    1LIG    HC2   27  -1.647   0.149  -1.836
    1LIG    HC3   28  -1.804   0.325  -1.762
    1LIG    HC4   29  -1.865   0.774  -1.735
    1LIG    HC5   30  -1.967   0.753  -1.590
    1LIG    HC6   31  -1.914   0.367  -1.447
    1LIG    HC7   32  -1.924   0.536  -1.393
    1LIG    HC8   33  -1.788   0.434  -1.341
    1LIG    HC9   34  -1.280   0.076  -1.614
    1LIG   HC10   35  -1.003   0.192  -1.309
    1LIG   HC11   36  -1.148   0.384  -1.251
    1LIG   HC12   37  -1.360   0.419  -1.370
    1LIG   HC13   38  -0.968  -0.160  -1.420
    1LIG   HC14   39  -1.012  -0.043  -1.294
    1LIG   HC15   40  -1.139  -0.131  -1.381
    1LIG    H20   41  -1.692   0.719  -1.643
   0.00000   0.00000   0.00000
