; Created by cgenff_charmm2gmx.py

[ moleculetype ]
; Name			   nrexcl
LIG				 3

[ atoms ]
;	 nr		  type	resnr residue  atom   cgnr	   charge		mass  typeB    chargeB		massB
; residue	 1 LIG rtp LIG q	qsum
     1     CG2R61      1    LIG     C1      1      0.010     12.011   ;
     2     CG2R61      1    LIG     C2      2     -0.184     12.011   ;
     3     CG2R67      1    LIG     C3      3      0.014     12.011   ;
     4     CG2R61      1    LIG     C4      4     -0.119     12.011   ;
     5     CG2R61      1    LIG     C5      5     -0.108     12.011   ;
     6     CG2R61      1    LIG     C6      6     -0.177     12.011   ;
     7     CG3C50      1    LIG     C7      7      0.428     12.011   ;
     8     NG3C51      1    LIG     N1      8     -0.622     14.007   ;
     9     CG3C51      1    LIG     C8      9     -0.002     12.011   ;
    10       HGP1      1    LIG     HN     10      0.263      1.008   ;
    11     CG3C52      1    LIG     C9     11      0.038     12.011   ;
    12      NG321      1    LIG     N2     12     -0.883     14.007   ;
    13      SG311      1    LIG      S     13     -0.215     32.060   ;
    14     HGPAM2      1    LIG     H1     14      0.349      1.008   ;
    15     HGPAM2      1    LIG     H2     15      0.349      1.008   ;
    16      CG331      1    LIG    C10     16     -0.171     12.011   ;
    17     CG2R67      1    LIG    C11     17      0.006     12.011   ;
    18     CG2R61      1    LIG    C12     18     -0.122     12.011   ;
    19     CG2R61      1    LIG    C13     19      0.209     12.011   ;
    20     CG2R61      1    LIG    C14     20     -0.115     12.011   ;
    21     CG2R61      1    LIG    C15     21     -0.116     12.011   ;
    22     CG2R61      1    LIG    C16     22     -0.119     12.011   ;
    23      OG301      1    LIG      O     23     -0.383     15.999   ;
    24      CG331      1    LIG    C17     24     -0.094     12.011   ;
    25      HGR61      1    LIG     HC     25      0.116      1.008   ;
    26      HGR61      1    LIG    HC1     26      0.116      1.008   ;
    27      HGR61      1    LIG    HC2     27      0.116      1.008   ;
    28      HGR61      1    LIG    HC3     28      0.116      1.008   ;
    29       HGA2      1    LIG    HC4     29      0.090      1.008   ;
    30       HGA2      1    LIG    HC5     30      0.090      1.008   ;
    31       HGA3      1    LIG    HC6     31      0.090      1.008   ;
    32       HGA3      1    LIG    HC7     32      0.090      1.008   ;
    33       HGA3      1    LIG    HC8     33      0.090      1.008   ;
    34      HGR61      1    LIG    HC9     34      0.116      1.008   ;
    35      HGR61      1    LIG   HC10     35      0.116      1.008   ;
    36      HGR61      1    LIG   HC11     36      0.116      1.008   ;
    37      HGR61      1    LIG   HC12     37      0.116      1.008   ;
    38       HGA3      1    LIG   HC13     38      0.090      1.008   ;
    39       HGA3      1    LIG   HC14     39      0.090      1.008   ;
    40       HGA3      1    LIG   HC15     40      0.090      1.008   ;
    41       HGA1      1    LIG    H20     41      0.116      1.008   ;

[ bonds ]
;	ai	  aj funct			  c0			c1			  c2			c3
    1     2	 1 ;      CG2R61     CG2R61
    1     6	 1 ;      CG2R61     CG2R61
    1     7	 1 ;      CG2R61     CG3C50
    2     3	 1 ;      CG2R61     CG2R67
    2    25	 1 ;      CG2R61      HGR61
    3    17	 1 ;      CG2R67     CG2R67
    3     4	 1 ;      CG2R67     CG2R61
    4     5	 1 ;      CG2R61     CG2R61
    4    26	 1 ;      CG2R61      HGR61
    5     6	 1 ;      CG2R61     CG2R61
    5    27	 1 ;      CG2R61      HGR61
    6    28	 1 ;      CG2R61      HGR61
    7     8	 1 ;      CG3C50     NG3C51
    7    13	 1 ;      CG3C50      SG311
    7    16	 1 ;      CG3C50      CG331
    8    10	 1 ;      NG3C51       HGP1
    8     9	 1 ;      NG3C51     CG3C51
    9    12	 1 ;      CG3C51      NG321
    9    11	 1 ;      CG3C51     CG3C52
    9    41	 1 ;      CG3C51       HGA1
   11    13	 1 ;      CG3C52      SG311
   11    29	 1 ;      CG3C52       HGA2
   11    30	 1 ;      CG3C52       HGA2
   12    14	 1 ;       NG321     HGPAM2
   12    15	 1 ;       NG321     HGPAM2
   16    31	 1 ;       CG331       HGA3
   16    32	 1 ;       CG331       HGA3
   16    33	 1 ;       CG331       HGA3
   17    18	 1 ;      CG2R67     CG2R61
   17    22	 1 ;      CG2R67     CG2R61
   18    19	 1 ;      CG2R61     CG2R61
   18    34	 1 ;      CG2R61      HGR61
   19    23	 1 ;      CG2R61      OG301
   19    20	 1 ;      CG2R61     CG2R61
   20    21	 1 ;      CG2R61     CG2R61
   20    35	 1 ;      CG2R61      HGR61
   21    22	 1 ;      CG2R61     CG2R61
   21    36	 1 ;      CG2R61      HGR61
   22    37	 1 ;      CG2R61      HGR61
   23    24	 1 ;       OG301      CG331
   24    38	 1 ;       CG331       HGA3
   24    39	 1 ;       CG331       HGA3
   24    40	 1 ;       CG331       HGA3

[ pairs ]
;	ai	  aj funct			  c0			c1			  c2			c3
    1    17	 1
    1     4	 1
    1    27	 1
    1    10	 1
    1     9	 1
    1    11	 1
    1    31	 1
    1    32	 1
    1    33	 1
    2     5	 1
    2    28	 1
    2     8	 1
    2    13	 1
    2    16	 1
    2    18	 1
    2    22	 1
    2    26	 1
    3     6	 1
    3     7	 1
    3    27	 1
    3    19	 1
    3    34	 1
    3    21	 1
    3    37	 1
    4    25	 1
    4    18	 1
    4    22	 1
    4    28	 1
    5     7	 1
    5    17	 1
    6    25	 1
    6     8	 1
    6    13	 1
    6    16	 1
    6    26	 1
    7    25	 1
    7    28	 1
    7    12	 1
    7    41	 1
    7    29	 1
    7    30	 1
    8    31	 1
    8    32	 1
    8    33	 1
    8    14	 1
    8    15	 1
    8    29	 1
    8    30	 1
    9    16	 1
   10    13	 1
   10    16	 1
   10    12	 1
   10    11	 1
   10    41	 1
   11    16	 1
   11    14	 1
   11    15	 1
   12    13	 1
   12    29	 1
   12    30	 1
   13    31	 1
   13    32	 1
   13    33	 1
   13    41	 1
   14    41	 1
   15    41	 1
   17    25	 1
   17    26	 1
   17    23	 1
   17    20	 1
   17    36	 1
   18    21	 1
   18    37	 1
   18    24	 1
   18    35	 1
   19    22	 1
   19    36	 1
   19    38	 1
   19    39	 1
   19    40	 1
   20    34	 1
   20    24	 1
   20    37	 1
   21    23	 1
   22    34	 1
   22    35	 1
   23    34	 1
   23    35	 1
   26    27	 1
   27    28	 1
   29    41	 1
   30    41	 1
   35    36	 1
   36    37	 1

[ angles ]
;	ai	  aj	ak funct			c0			  c1			c2			  c3
    2     1     6	5 ;     CG2R61     CG2R61     CG2R61
    2     1     7	5 ;     CG2R61     CG2R61     CG3C50
    6     1     7	5 ;     CG2R61     CG2R61     CG3C50
    3     2     1	5 ;     CG2R67     CG2R61     CG2R61
    3     2    25	5 ;     CG2R67     CG2R61      HGR61
    1     2    25	5 ;     CG2R61     CG2R61      HGR61
   17     3     4	5 ;     CG2R67     CG2R67     CG2R61
   17     3     2	5 ;     CG2R67     CG2R67     CG2R61
    4     3     2	5 ;     CG2R61     CG2R67     CG2R61
    3     4     5	5 ;     CG2R67     CG2R61     CG2R61
    3     4    26	5 ;     CG2R67     CG2R61      HGR61
    5     4    26	5 ;     CG2R61     CG2R61      HGR61
    4     5     6	5 ;     CG2R61     CG2R61     CG2R61
    4     5    27	5 ;     CG2R61     CG2R61      HGR61
    6     5    27	5 ;     CG2R61     CG2R61      HGR61
    5     6     1	5 ;     CG2R61     CG2R61     CG2R61
    5     6    28	5 ;     CG2R61     CG2R61      HGR61
    1     6    28	5 ;     CG2R61     CG2R61      HGR61
    1     7     8	5 ;     CG2R61     CG3C50     NG3C51
    1     7    13	5 ;     CG2R61     CG3C50      SG311
    1     7    16	5 ;     CG2R61     CG3C50      CG331
    8     7    13	5 ;     NG3C51     CG3C50      SG311
    8     7    16	5 ;     NG3C51     CG3C50      CG331
   13     7    16	5 ;      SG311     CG3C50      CG331
   10     8     9	5 ;       HGP1     NG3C51     CG3C51
   10     8     7	5 ;       HGP1     NG3C51     CG3C50
    9     8     7	5 ;     CG3C51     NG3C51     CG3C50
   12     9     8	5 ;      NG321     CG3C51     NG3C51
   12     9    11	5 ;      NG321     CG3C51     CG3C52
   12     9    41	5 ;      NG321     CG3C51       HGA1
    8     9    11	5 ;     NG3C51     CG3C51     CG3C52
    8     9    41	5 ;     NG3C51     CG3C51       HGA1
   11     9    41	5 ;     CG3C52     CG3C51       HGA1
    9    11    13	5 ;     CG3C51     CG3C52      SG311
    9    11    29	5 ;     CG3C51     CG3C52       HGA2
    9    11    30	5 ;     CG3C51     CG3C52       HGA2
   13    11    29	5 ;      SG311     CG3C52       HGA2
   13    11    30	5 ;      SG311     CG3C52       HGA2
   29    11    30	5 ;       HGA2     CG3C52       HGA2
   14    12    15	5 ;     HGPAM2      NG321     HGPAM2
   14    12     9	5 ;     HGPAM2      NG321     CG3C51
   15    12     9	5 ;     HGPAM2      NG321     CG3C51
   11    13     7	5 ;     CG3C52      SG311     CG3C50
    7    16    31	5 ;     CG3C50      CG331       HGA3
    7    16    32	5 ;     CG3C50      CG331       HGA3
    7    16    33	5 ;     CG3C50      CG331       HGA3
   31    16    32	5 ;       HGA3      CG331       HGA3
   31    16    33	5 ;       HGA3      CG331       HGA3
   32    16    33	5 ;       HGA3      CG331       HGA3
   18    17    22	5 ;     CG2R61     CG2R67     CG2R61
   18    17     3	5 ;     CG2R61     CG2R67     CG2R67
   22    17     3	5 ;     CG2R61     CG2R67     CG2R67
   19    18    17	5 ;     CG2R61     CG2R61     CG2R67
   19    18    34	5 ;     CG2R61     CG2R61      HGR61
   17    18    34	5 ;     CG2R67     CG2R61      HGR61
   23    19    20	5 ;      OG301     CG2R61     CG2R61
   23    19    18	5 ;      OG301     CG2R61     CG2R61
   20    19    18	5 ;     CG2R61     CG2R61     CG2R61
   19    20    21	5 ;     CG2R61     CG2R61     CG2R61
   19    20    35	5 ;     CG2R61     CG2R61      HGR61
   21    20    35	5 ;     CG2R61     CG2R61      HGR61
   20    21    22	5 ;     CG2R61     CG2R61     CG2R61
   20    21    36	5 ;     CG2R61     CG2R61      HGR61
   22    21    36	5 ;     CG2R61     CG2R61      HGR61
   21    22    17	5 ;     CG2R61     CG2R61     CG2R67
   21    22    37	5 ;     CG2R61     CG2R61      HGR61
   17    22    37	5 ;     CG2R67     CG2R61      HGR61
   19    23    24	5 ;     CG2R61      OG301      CG331
   23    24    38	5 ;      OG301      CG331       HGA3
   23    24    39	5 ;      OG301      CG331       HGA3
   23    24    40	5 ;      OG301      CG331       HGA3
   38    24    39	5 ;       HGA3      CG331       HGA3
   38    24    40	5 ;       HGA3      CG331       HGA3
   39    24    40	5 ;       HGA3      CG331       HGA3

[ dihedrals ]
;	ai	  aj	ak	  al funct			  c0			c1			  c2			c3			  c4			c5
    6     1     2     3	 9 ;     CG2R61     CG2R61     CG2R61     CG2R67
    6     1     2    25	 9 ;     CG2R61     CG2R61     CG2R61      HGR61
    7     1     2     3	 9 ;     CG3C50     CG2R61     CG2R61     CG2R67
    7     1     2    25	 9 ;     CG3C50     CG2R61     CG2R61      HGR61
    2     1     6     5	 9 ;     CG2R61     CG2R61     CG2R61     CG2R61
    2     1     6    28	 9 ;     CG2R61     CG2R61     CG2R61      HGR61
    7     1     6     5	 9 ;     CG3C50     CG2R61     CG2R61     CG2R61
    7     1     6    28	 9 ;     CG3C50     CG2R61     CG2R61      HGR61
    2     1     7     8	 9 ;     CG2R61     CG2R61     CG3C50     NG3C51
    2     1     7    13	 9 ;     CG2R61     CG2R61     CG3C50      SG311
    2     1     7    16	 9 ;     CG2R61     CG2R61     CG3C50      CG331
    6     1     7     8	 9 ;     CG2R61     CG2R61     CG3C50     NG3C51
    6     1     7    13	 9 ;     CG2R61     CG2R61     CG3C50      SG311
    6     1     7    16	 9 ;     CG2R61     CG2R61     CG3C50      CG331
    1     2     3    17	 9 ;     CG2R61     CG2R61     CG2R67     CG2R67
    1     2     3     4	 9 ;     CG2R61     CG2R61     CG2R67     CG2R61
   25     2     3    17	 9 ;      HGR61     CG2R61     CG2R67     CG2R67
   25     2     3     4	 9 ;      HGR61     CG2R61     CG2R67     CG2R61
    4     3    17    18	 9 ;     CG2R61     CG2R67     CG2R67     CG2R61
    4     3    17    22	 9 ;     CG2R61     CG2R67     CG2R67     CG2R61
    2     3    17    18	 9 ;     CG2R61     CG2R67     CG2R67     CG2R61
    2     3    17    22	 9 ;     CG2R61     CG2R67     CG2R67     CG2R61
   17     3     4     5	 9 ;     CG2R67     CG2R67     CG2R61     CG2R61
   17     3     4    26	 9 ;     CG2R67     CG2R67     CG2R61      HGR61
    2     3     4     5	 9 ;     CG2R61     CG2R67     CG2R61     CG2R61
    2     3     4    26	 9 ;     CG2R61     CG2R67     CG2R61      HGR61
    3     4     5     6	 9 ;     CG2R67     CG2R61     CG2R61     CG2R61
    3     4     5    27	 9 ;     CG2R67     CG2R61     CG2R61      HGR61
   26     4     5     6	 9 ;      HGR61     CG2R61     CG2R61     CG2R61
   26     4     5    27	 9 ;      HGR61     CG2R61     CG2R61      HGR61
    4     5     6     1	 9 ;     CG2R61     CG2R61     CG2R61     CG2R61
    4     5     6    28	 9 ;     CG2R61     CG2R61     CG2R61      HGR61
   27     5     6     1	 9 ;      HGR61     CG2R61     CG2R61     CG2R61
   27     5     6    28	 9 ;      HGR61     CG2R61     CG2R61      HGR61
    1     7     8    10	 9 ;     CG2R61     CG3C50     NG3C51       HGP1
    1     7     8     9	 9 ;     CG2R61     CG3C50     NG3C51     CG3C51
   13     7     8    10	 9 ;      SG311     CG3C50     NG3C51       HGP1
   13     7     8     9	 9 ;      SG311     CG3C50     NG3C51     CG3C51
   16     7     8    10	 9 ;      CG331     CG3C50     NG3C51       HGP1
   16     7     8     9	 9 ;      CG331     CG3C50     NG3C51     CG3C51
    1     7    13    11	 9 ;     CG2R61     CG3C50      SG311     CG3C52
    8     7    13    11	 9 ;     NG3C51     CG3C50      SG311     CG3C52
   16     7    13    11	 9 ;      CG331     CG3C50      SG311     CG3C52
    1     7    16    31	 9 ;     CG2R61     CG3C50      CG331       HGA3
    1     7    16    32	 9 ;     CG2R61     CG3C50      CG331       HGA3
    1     7    16    33	 9 ;     CG2R61     CG3C50      CG331       HGA3
    8     7    16    31	 9 ;     NG3C51     CG3C50      CG331       HGA3
    8     7    16    32	 9 ;     NG3C51     CG3C50      CG331       HGA3
    8     7    16    33	 9 ;     NG3C51     CG3C50      CG331       HGA3
   13     7    16    31	 9 ;      SG311     CG3C50      CG331       HGA3
   13     7    16    32	 9 ;      SG311     CG3C50      CG331       HGA3
   13     7    16    33	 9 ;      SG311     CG3C50      CG331       HGA3
   10     8     9    12	 9 ;       HGP1     NG3C51     CG3C51      NG321
   10     8     9    11	 9 ;       HGP1     NG3C51     CG3C51     CG3C52
   10     8     9    41	 9 ;       HGP1     NG3C51     CG3C51       HGA1
    7     8     9    12	 9 ;     CG3C50     NG3C51     CG3C51      NG321
    7     8     9    11	 9 ;     CG3C50     NG3C51     CG3C51     CG3C52
    7     8     9    41	 9 ;     CG3C50     NG3C51     CG3C51       HGA1
    8     9    12    14	 9 ;     NG3C51     CG3C51      NG321     HGPAM2
    8     9    12    15	 9 ;     NG3C51     CG3C51      NG321     HGPAM2
   11     9    12    14	 9 ;     CG3C52     CG3C51      NG321     HGPAM2
   11     9    12    15	 9 ;     CG3C52     CG3C51      NG321     HGPAM2
   41     9    12    14	 9 ;       HGA1     CG3C51      NG321     HGPAM2
   41     9    12    15	 9 ;       HGA1     CG3C51      NG321     HGPAM2
   12     9    11    13	 9 ;      NG321     CG3C51     CG3C52      SG311
   12     9    11    29	 9 ;      NG321     CG3C51     CG3C52       HGA2
   12     9    11    30	 9 ;      NG321     CG3C51     CG3C52       HGA2
    8     9    11    13	 9 ;     NG3C51     CG3C51     CG3C52      SG311
    8     9    11    29	 9 ;     NG3C51     CG3C51     CG3C52       HGA2
    8     9    11    30	 9 ;     NG3C51     CG3C51     CG3C52       HGA2
   41     9    11    13	 9 ;       HGA1     CG3C51     CG3C52      SG311
   41     9    11    29	 9 ;       HGA1     CG3C51     CG3C52       HGA2
   41     9    11    30	 9 ;       HGA1     CG3C51     CG3C52       HGA2
    9    11    13     7	 9 ;     CG3C51     CG3C52      SG311     CG3C50
   29    11    13     7	 9 ;       HGA2     CG3C52      SG311     CG3C50
   30    11    13     7	 9 ;       HGA2     CG3C52      SG311     CG3C50
   22    17    18    19	 9 ;     CG2R61     CG2R67     CG2R61     CG2R61
   22    17    18    34	 9 ;     CG2R61     CG2R67     CG2R61      HGR61
    3    17    18    19	 9 ;     CG2R67     CG2R67     CG2R61     CG2R61
    3    17    18    34	 9 ;     CG2R67     CG2R67     CG2R61      HGR61
   18    17    22    21	 9 ;     CG2R61     CG2R67     CG2R61     CG2R61
   18    17    22    37	 9 ;     CG2R61     CG2R67     CG2R61      HGR61
    3    17    22    21	 9 ;     CG2R67     CG2R67     CG2R61     CG2R61
    3    17    22    37	 9 ;     CG2R67     CG2R67     CG2R61      HGR61
   17    18    19    23	 9 ;     CG2R67     CG2R61     CG2R61      OG301
   17    18    19    20	 9 ;     CG2R67     CG2R61     CG2R61     CG2R61
   34    18    19    23	 9 ;      HGR61     CG2R61     CG2R61      OG301
   34    18    19    20	 9 ;      HGR61     CG2R61     CG2R61     CG2R61
   20    19    23    24	 9 ;     CG2R61     CG2R61      OG301      CG331
   18    19    23    24	 9 ;     CG2R61     CG2R61      OG301      CG331
   23    19    20    21	 9 ;      OG301     CG2R61     CG2R61     CG2R61
   23    19    20    35	 9 ;      OG301     CG2R61     CG2R61      HGR61
   18    19    20    21	 9 ;     CG2R61     CG2R61     CG2R61     CG2R61
   18    19    20    35	 9 ;     CG2R61     CG2R61     CG2R61      HGR61
   19    20    21    22	 9 ;     CG2R61     CG2R61     CG2R61     CG2R61
   19    20    21    36	 9 ;     CG2R61     CG2R61     CG2R61      HGR61
   35    20    21    22	 9 ;      HGR61     CG2R61     CG2R61     CG2R61
   35    20    21    36	 9 ;      HGR61     CG2R61     CG2R61      HGR61
   20    21    22    17	 9 ;     CG2R61     CG2R61     CG2R61     CG2R67
   20    21    22    37	 9 ;     CG2R61     CG2R61     CG2R61      HGR61
   36    21    22    17	 9 ;      HGR61     CG2R61     CG2R61     CG2R67
   36    21    22    37	 9 ;      HGR61     CG2R61     CG2R61      HGR61
   19    23    24    38	 9 ;     CG2R61      OG301      CG331       HGA3
   19    23    24    39	 9 ;     CG2R61      OG301      CG331       HGA3
   19    23    24    40	 9 ;     CG2R61      OG301      CG331       HGA3

