GROwing Monsters And Cloning Shrimps
   86
    1LIG     C1    1  -1.179   0.381  -1.685
    1LIG     N1    2  -1.316   0.336  -1.653
    1LIG     C2    3  -1.393   0.400  -1.557
    1LIG     O1    4  -1.347   0.496  -1.495
    1LIG     H1    5  -1.355   0.260  -1.707
    1LIG     C3    6  -1.534   0.357  -1.533
    1LIG     C4    7  -1.623   0.420  -1.444
    1LIG     C5    8  -1.754   0.371  -1.430
    1LIG     C6    9  -1.794   0.255  -1.498
    1LIG     C7   10  -1.706   0.192  -1.586
    1LIG     C8   11  -1.578   0.243  -1.604
    1LIG     N2   12  -1.850   0.440  -1.348
    1LIG     H2   13  -1.802   0.514  -1.295
    1LIG      S   14  -1.981   0.512  -1.433
    1LIG     O2   15  -2.036   0.613  -1.345
    1LIG     O3   16  -2.061   0.403  -1.484
    1LIG     C9   17  -1.892   0.589  -1.571
    1LIG    C10   18  -1.862   0.733  -1.540
    1LIG    C11   19  -1.762   0.766  -1.447
    1LIG    C12   20  -1.737   0.898  -1.412
    1LIG    C13   21  -1.811   1.001  -1.471
    1LIG    C14   22  -1.907   0.971  -1.567
    1LIG    C15   23  -1.932   0.838  -1.602
    1LIG    C16   24  -1.076   0.266  -1.673
    1LIG    C17   25  -1.059   0.188  -1.545
    1LIG    C18   26  -1.107   0.226  -1.420
    1LIG    C19   27  -1.095   0.140  -1.310
    1LIG    C20   28  -1.032   0.016  -1.324
    1LIG    C21   29  -0.979  -0.021  -1.447
    1LIG    C22   30  -0.991   0.065  -1.556
    1LIG    C23   31  -1.171   0.444  -1.829
    1LIG     O4   32  -1.298   0.453  -1.895
    1LIG     H3   33  -1.295   0.525  -1.961
    1LIG    C24   34  -1.110   0.586  -1.824
    1LIG     N3   35  -1.091   0.632  -1.682
    1LIG     H4   36  -1.157   0.581  -1.621
    1LIG     H5   37  -0.996   0.608  -1.653
    1LIG    C25   38  -1.122   0.783  -1.664
    1LIG    C26   39  -0.991   0.848  -1.623
    1LIG    C27   40  -1.230   0.798  -1.555
    1LIG     O5   41  -1.191   0.797  -1.437
    1LIG     N4   42  -1.362   0.809  -1.577
    1LIG     H6   43  -1.412   0.814  -1.488
    1LIG    C28   44  -1.452   0.817  -1.694
    1LIG    C29   45  -1.537   0.945  -1.702
    1LIG    C30   46  -1.612   0.951  -1.836
    1LIG    C31   47  -1.696   0.826  -1.861
    1LIG    C32   48  -1.616   0.698  -1.846
    1LIG    C33   49  -1.539   0.693  -1.714
    1LIG     HC   50  -1.152   0.458  -1.613
    1LIG    HC1   51  -1.592   0.506  -1.388
    1LIG    HC2   52  -1.893   0.215  -1.482
    1LIG    HC3   53  -1.738   0.104  -1.640
    1LIG    HC4   54  -1.511   0.196  -1.674
    1LIG    HC5   55  -1.953   0.583  -1.661
    1LIG    HC6   56  -1.798   0.535  -1.588
    1LIG    HC7   57  -1.704   0.687  -1.402
    1LIG    HC8   58  -1.661   0.922  -1.339
    1LIG    HC9   59  -1.793   1.104  -1.442
    1LIG   HC10   60  -1.962   1.050  -1.615
    1LIG   HC11   61  -2.006   0.815  -1.677
    1LIG   HC12   62  -1.101   0.194  -1.751
    1LIG   HC13   63  -0.978   0.308  -1.698
    1LIG   HC14   64  -1.154   0.323  -1.407
    1LIG   HC15   65  -1.134   0.170  -1.214
    1LIG   HC16   66  -1.026  -0.051  -1.240
    1LIG   HC17   67  -0.927  -0.115  -1.457
    1LIG   HC18   68  -0.947   0.037  -1.650
    1LIG   HC19   69  -1.106   0.382  -1.889
    1LIG   HC20   70  -1.013   0.585  -1.875
    1LIG   HC21   71  -1.176   0.655  -1.876
    1LIG   HC22   72  -1.157   0.825  -1.758
    1LIG   HC23   73  -1.007   0.955  -1.609
    1LIG   HC24   74  -0.956   0.804  -1.530
    1LIG   HC25   75  -0.916   0.833  -1.701
    1LIG   HC26   76  -1.387   0.821  -1.781
    1LIG   HC27   77  -1.471   1.032  -1.694
    1LIG   HC28   78  -1.609   0.946  -1.620
    1LIG   HC29   79  -1.677   1.038  -1.836
    1LIG   HC30   80  -1.539   0.961  -1.917
    1LIG   HC31   81  -1.737   0.831  -1.962
    1LIG   HC32   82  -1.779   0.825  -1.789
    1LIG   HC33   83  -1.684   0.613  -1.850
    1LIG   HC34   84  -1.545   0.690  -1.929
    1LIG   HC35   85  -1.474   0.605  -1.714
    1LIG   HC36   86  -1.610   0.685  -1.632
   0.00000   0.00000   0.00000
