Giant Rising Ordinary Mutants for A Clerical Setup
   66
    1LIG      S    1  -2.228   0.465  -1.435
    1LIG     O1    2  -2.166   0.516  -1.315
    1LIG     O2    3  -2.367   0.430  -1.446
    1LIG     N1    4  -2.193   0.572  -1.561
    1LIG     C1    5  -2.073   0.529  -1.637
    1LIG     C2    6  -2.011   0.401  -1.569
    1LIG     N2    7  -2.130   0.345  -1.499
    1LIG     C3    8  -1.898   0.435  -1.470
    1LIG     C4    9  -1.765   0.479  -1.533
    1LIG     N3   10  -1.725   0.380  -1.642
    1LIG     C5   11  -1.832   0.351  -1.744
    1LIG     C6   12  -1.958   0.302  -1.674
    1LIG     C7   13  -1.762   0.623  -1.585
    1LIG     H1   14  -2.278   0.582  -1.617
    1LIG     H2   15  -1.707   0.292  -1.593
    1LIG     C8   16  -2.155   0.210  -1.465
    1LIG     C9   17  -2.109   0.155  -1.346
    1LIG    C10   18  -2.139   0.023  -1.316
    1LIG      F   19  -2.095  -0.031  -1.202
    1LIG    C11   20  -2.217  -0.055  -1.402
    1LIG    C12   21  -2.264   0.001  -1.520
    1LIG    C13   22  -2.234   0.133  -1.552
    1LIG    C14   23  -1.591   0.412  -1.711
    1LIG    C15   24  -1.475   0.416  -1.615
    1LIG    C16   25  -1.451   0.305  -1.533
    1LIG    C17   26  -1.349   0.307  -1.437
    1LIG    C18   27  -1.266   0.418  -1.429
    1LIG    C19   28  -1.287   0.528  -1.513
    1LIG    C20   29  -1.391   0.527  -1.605
    1LIG     O3   30  -1.324   0.205  -1.350
    1LIG    C21   31  -1.211   0.121  -1.378
    1LIG    C22   32  -1.224   0.048  -1.512
    1LIG    C23   33  -1.194  -0.099  -1.485
    1LIG    C24   34  -1.135  -0.104  -1.345
    1LIG    C25   35  -1.203   0.011  -1.272
    1LIG    HC2   36  -2.000   0.609  -1.637
    1LIG    HC3   37  -2.102   0.505  -1.740
    1LIG    HC4   38  -1.933   0.515  -1.406
    1LIG    HC5   39  -1.879   0.347  -1.409
    1LIG     HC   40  -1.689   0.472  -1.456
    1LIG    HC6   41  -1.855   0.442  -1.799
    1LIG    HC7   42  -1.797   0.274  -1.812
    1LIG    HC8   43  -2.035   0.286  -1.749
    1LIG    HC9   44  -1.937   0.207  -1.625
    1LIG    HC1   45  -1.661   0.663  -1.575
    1LIG   HC10   46  -1.832   0.683  -1.526
    1LIG   HC11   47  -1.792   0.625  -1.690
    1LIG   HC12   48  -2.049   0.214  -1.278
    1LIG   HC13   49  -2.239  -0.157  -1.377
    1LIG   HC14   50  -2.325  -0.058  -1.588
    1LIG   HC15   51  -2.270   0.177  -1.643
    1LIG   HC16   52  -1.599   0.509  -1.760
    1LIG   HC17   53  -1.572   0.336  -1.787
    1LIG   HC18   54  -1.512   0.216  -1.543
    1LIG   HC19   55  -1.185   0.419  -1.358
    1LIG   HC20   56  -1.221   0.614  -1.506
    1LIG   HC21   57  -1.408   0.613  -1.669
    1LIG   HC22   58  -1.120   0.181  -1.376
    1LIG   HC23   59  -1.325   0.059  -1.551
    1LIG   HC24   60  -1.152   0.088  -1.583
    1LIG   HC25   61  -1.122  -0.137  -1.558
    1LIG   HC26   62  -1.285  -0.157  -1.489
    1LIG   HC27   63  -1.157  -0.199  -1.297
    1LIG   HC28   64  -1.027  -0.088  -1.349
    1LIG   HC29   65  -1.143   0.043  -1.187
    1LIG   HC30   66  -1.303  -0.019  -1.240
   0.00000   0.00000   0.00000
