; Created by cgenff_charmm2gmx.py

[ moleculetype ]
; Name			   nrexcl
LIG				 3

[ atoms ]
;	 nr		  type	resnr residue  atom   cgnr	   charge		mass  typeB    chargeB		massB
; residue	 1 LIG rtp LIG q	qsum
     1      SG3O2      1    LIG      S      1      0.311     32.060   ;
     2      OG2P1      1    LIG     O1      2     -0.246     15.999   ;
     3      OG2P1      1    LIG     O2      3     -0.246     15.999   ;
     4     NG3C51      1    LIG     N1      4     -0.562     14.007   ;
     5     CG3C52      1    LIG     C1      5      0.080     12.011   ;
     6     CG3C50      1    LIG     C2      6      0.202     12.011   ;
     7     NG3C51      1    LIG     N2      7     -0.408     14.007   ;
     8      CG321      1    LIG     C3      8     -0.124     12.011   ;
     9      CG314      1    LIG     C4      9      0.198     12.011   ;
    10      NG3P1      1    LIG     N3     10     -0.462     14.007   ;
    11      CG324      1    LIG     C5     11      0.103     12.011   ;
    12      CG321      1    LIG     C6     12     -0.123     12.011   ;
    13      CG331      1    LIG     C7     13     -0.213     12.011   ;
    14       HGP1      1    LIG     H1     14      0.398      1.008   ;
    15       HGP2      1    LIG     H2     15      0.319      1.008   ;
    16     CG2R61      1    LIG     C8     16      0.378     12.011   ;
    17     CG2R61      1    LIG     C9     17     -0.169     12.011   ;
    18     CG2R66      1    LIG    C10     18      0.105     12.011   ;
    19       FGR1      1    LIG      F     19     -0.211     18.998   ;
    20     CG2R61      1    LIG    C11     20     -0.107     12.011   ;
    21     CG2R61      1    LIG    C12     21     -0.149     12.011   ;
    22     CG2R61      1    LIG    C13     22     -0.107     12.011   ;
    23      CG324      1    LIG    C14     23      0.119     12.011   ;
    24     CG2R61      1    LIG    C15     24      0.069     12.011   ;
    25     CG2R61      1    LIG    C16     25     -0.123     12.011   ;
    26     CG2R61      1    LIG    C17     26      0.222     12.011   ;
    27     CG2R61      1    LIG    C18     27     -0.119     12.011   ;
    28     CG2R61      1    LIG    C19     28     -0.108     12.011   ;
    29     CG2R61      1    LIG    C20     29     -0.120     12.011   ;
    30      OG301      1    LIG     O3     30     -0.409     15.999   ;
    31     CG3C51      1    LIG    C21     31      0.104     12.011   ;
    32     CG3C52      1    LIG    C22     32     -0.181     12.011   ;
    33     CG3C52      1    LIG    C23     33     -0.180     12.011   ;
    34     CG3C52      1    LIG    C24     34     -0.180     12.011   ;
    35     CG3C52      1    LIG    C25     35     -0.181     12.011   ;
    36       HGA2      1    LIG    HC2     36      0.090      1.008   ;
    37       HGA2      1    LIG    HC3     37      0.090      1.008   ;
    38       HGA2      1    LIG    HC4     38      0.090      1.008   ;
    39       HGA2      1    LIG    HC5     39      0.090      1.008   ;
    40       HGA1      1    LIG     HC     40      0.090      1.008   ;
    41       HGA2      1    LIG    HC6     41      0.090      1.008   ;
    42       HGA2      1    LIG    HC7     42      0.090      1.008   ;
    43       HGA2      1    LIG    HC8     43      0.090      1.008   ;
    44       HGA2      1    LIG    HC9     44      0.090      1.008   ;
    45       HGA3      1    LIG    HC1     45      0.090      1.008   ;
    46       HGA3      1    LIG   HC10     46      0.090      1.008   ;
    47       HGA3      1    LIG   HC11     47      0.090      1.008   ;
    48      HGR62      1    LIG   HC12     48      0.175      1.008   ;
    49      HGR62      1    LIG   HC13     49      0.179      1.008   ;
    50      HGR61      1    LIG   HC14     50      0.116      1.008   ;
    51      HGR61      1    LIG   HC15     51      0.116      1.008   ;
    52       HGA2      1    LIG   HC16     52      0.090      1.008   ;
    53       HGA2      1    LIG   HC17     53      0.090      1.008   ;
    54      HGR61      1    LIG   HC18     54      0.116      1.008   ;
    55      HGR61      1    LIG   HC19     55      0.116      1.008   ;
    56      HGR61      1    LIG   HC20     56      0.116      1.008   ;
    57      HGR61      1    LIG   HC21     57      0.116      1.008   ;
    58       HGA1      1    LIG   HC22     58      0.090      1.008   ;
    59       HGA2      1    LIG   HC23     59      0.090      1.008   ;
    60       HGA2      1    LIG   HC24     60      0.090      1.008   ;
    61       HGA2      1    LIG   HC25     61      0.090      1.008   ;
    62       HGA2      1    LIG   HC26     62      0.090      1.008   ;
    63       HGA2      1    LIG   HC27     63      0.090      1.008   ;
    64       HGA2      1    LIG   HC28     64      0.090      1.008   ;
    65       HGA2      1    LIG   HC29     65      0.090      1.008   ;
    66       HGA2      1    LIG   HC30     66      0.090      1.008   ;

[ bonds ]
;	ai	  aj funct			  c0			c1			  c2			c3
    1     4	 1 ;       SG3O2     NG3C51
    1     7	 1 ;       SG3O2     NG3C51
    1     2	 1 ;       SG3O2      OG2P1
    1     3	 1 ;       SG3O2      OG2P1
    4     5	 1 ;      NG3C51     CG3C52
    4    14	 1 ;      NG3C51       HGP1
    5     6	 1 ;      CG3C52     CG3C50
    5    36	 1 ;      CG3C52       HGA2
    5    37	 1 ;      CG3C52       HGA2
    6    12	 1 ;      CG3C50      CG321
    6     8	 1 ;      CG3C50      CG321
    6     7	 1 ;      CG3C50     NG3C51
    7    16	 1 ;      NG3C51     CG2R61
    8     9	 1 ;       CG321      CG314
    8    38	 1 ;       CG321       HGA2
    8    39	 1 ;       CG321       HGA2
    9    10	 1 ;       CG314      NG3P1
    9    13	 1 ;       CG314      CG331
    9    40	 1 ;       CG314       HGA1
   10    23	 1 ;       NG3P1      CG324
   10    15	 1 ;       NG3P1       HGP2
   10    11	 1 ;       NG3P1      CG324
   11    12	 1 ;       CG324      CG321
   11    41	 1 ;       CG324       HGA2
   11    42	 1 ;       CG324       HGA2
   12    43	 1 ;       CG321       HGA2
   12    44	 1 ;       CG321       HGA2
   13    45	 1 ;       CG331       HGA3
   13    46	 1 ;       CG331       HGA3
   13    47	 1 ;       CG331       HGA3
   16    22	 1 ;      CG2R61     CG2R61
   16    17	 1 ;      CG2R61     CG2R61
   17    18	 1 ;      CG2R61     CG2R66
   17    48	 1 ;      CG2R61      HGR62
   18    20	 1 ;      CG2R66     CG2R61
   18    19	 1 ;      CG2R66       FGR1
   20    21	 1 ;      CG2R61     CG2R61
   20    49	 1 ;      CG2R61      HGR62
   21    22	 1 ;      CG2R61     CG2R61
   21    50	 1 ;      CG2R61      HGR61
   22    51	 1 ;      CG2R61      HGR61
   23    24	 1 ;       CG324     CG2R61
   23    52	 1 ;       CG324       HGA2
   23    53	 1 ;       CG324       HGA2
   24    29	 1 ;      CG2R61     CG2R61
   24    25	 1 ;      CG2R61     CG2R61
   25    26	 1 ;      CG2R61     CG2R61
   25    54	 1 ;      CG2R61      HGR61
   26    27	 1 ;      CG2R61     CG2R61
   26    30	 1 ;      CG2R61      OG301
   27    28	 1 ;      CG2R61     CG2R61
   27    55	 1 ;      CG2R61      HGR61
   28    29	 1 ;      CG2R61     CG2R61
   28    56	 1 ;      CG2R61      HGR61
   29    57	 1 ;      CG2R61      HGR61
   30    31	 1 ;       OG301     CG3C51
   31    32	 1 ;      CG3C51     CG3C52
   31    35	 1 ;      CG3C51     CG3C52
   31    58	 1 ;      CG3C51       HGA1
   32    33	 1 ;      CG3C52     CG3C52
   32    59	 1 ;      CG3C52       HGA2
   32    60	 1 ;      CG3C52       HGA2
   33    34	 1 ;      CG3C52     CG3C52
   33    61	 1 ;      CG3C52       HGA2
   33    62	 1 ;      CG3C52       HGA2
   34    35	 1 ;      CG3C52     CG3C52
   34    63	 1 ;      CG3C52       HGA2
   34    64	 1 ;      CG3C52       HGA2
   35    65	 1 ;      CG3C52       HGA2
   35    66	 1 ;      CG3C52       HGA2

[ pairs ]
;	ai	  aj funct			  c0			c1			  c2			c3
    1    36	 1
    1    37	 1
    1    12	 1
    1     8	 1
    1    22	 1
    1    17	 1
    2     5	 1
    2    14	 1
    2     6	 1
    2    16	 1
    3     5	 1
    3    14	 1
    3     6	 1
    3    16	 1
    4    16	 1
    4    12	 1
    4     8	 1
    5    11	 1
    5    43	 1
    5    44	 1
    5     9	 1
    5    38	 1
    5    39	 1
    5    16	 1
    6    14	 1
    6    22	 1
    6    17	 1
    6    10	 1
    6    13	 1
    6    40	 1
    6    41	 1
    6    42	 1
    7    14	 1
    7    36	 1
    7    37	 1
    7    11	 1
    7    43	 1
    7    44	 1
    7     9	 1
    7    38	 1
    7    39	 1
    7    21	 1
    7    51	 1
    7    18	 1
    7    48	 1
    8    36	 1
    8    37	 1
    8    11	 1
    8    43	 1
    8    44	 1
    8    16	 1
    8    23	 1
    8    15	 1
    8    45	 1
    8    46	 1
    8    47	 1
    9    12	 1
    9    24	 1
    9    52	 1
    9    53	 1
    9    41	 1
    9    42	 1
   10    38	 1
   10    39	 1
   10    45	 1
   10    46	 1
   10    47	 1
   10    43	 1
   10    44	 1
   10    29	 1
   10    25	 1
   11    13	 1
   11    40	 1
   11    24	 1
   11    52	 1
   11    53	 1
   12    36	 1
   12    37	 1
   12    38	 1
   12    39	 1
   12    16	 1
   12    23	 1
   12    15	 1
   13    38	 1
   13    39	 1
   13    23	 1
   13    15	 1
   14    36	 1
   14    37	 1
   15    40	 1
   15    24	 1
   15    52	 1
   15    53	 1
   15    41	 1
   15    42	 1
   16    20	 1
   16    19	 1
   16    50	 1
   17    21	 1
   17    51	 1
   17    49	 1
   18    22	 1
   18    50	 1
   19    48	 1
   19    21	 1
   19    49	 1
   20    48	 1
   20    51	 1
   22    48	 1
   22    49	 1
   23    40	 1
   23    41	 1
   23    42	 1
   23    28	 1
   23    57	 1
   23    26	 1
   23    54	 1
   24    27	 1
   24    30	 1
   24    56	 1
   25    52	 1
   25    53	 1
   25    28	 1
   25    57	 1
   25    55	 1
   25    31	 1
   26    29	 1
   26    56	 1
   26    32	 1
   26    35	 1
   26    58	 1
   27    54	 1
   27    31	 1
   27    57	 1
   28    30	 1
   29    52	 1
   29    53	 1
   29    54	 1
   29    55	 1
   30    54	 1
   30    55	 1
   30    33	 1
   30    59	 1
   30    60	 1
   30    34	 1
   30    65	 1
   30    66	 1
   31    61	 1
   31    62	 1
   31    63	 1
   31    64	 1
   32    65	 1
   32    66	 1
   32    63	 1
   32    64	 1
   33    58	 1
   33    65	 1
   33    66	 1
   34    58	 1
   34    59	 1
   34    60	 1
   35    59	 1
   35    60	 1
   35    61	 1
   35    62	 1
   38    40	 1
   39    40	 1
   40    45	 1
   40    46	 1
   40    47	 1
   41    43	 1
   41    44	 1
   42    43	 1
   42    44	 1
   49    50	 1
   50    51	 1
   55    56	 1
   56    57	 1
   58    59	 1
   58    60	 1
   58    65	 1
   58    66	 1
   59    61	 1
   59    62	 1
   60    61	 1
   60    62	 1
   61    63	 1
   61    64	 1
   62    63	 1
   62    64	 1
   63    65	 1
   63    66	 1
   64    65	 1
   64    66	 1

[ angles ]
;	ai	  aj	ak funct			c0			  c1			c2			  c3
    4     1     7	5 ;     NG3C51      SG3O2     NG3C51
    4     1     2	5 ;     NG3C51      SG3O2      OG2P1
    4     1     3	5 ;     NG3C51      SG3O2      OG2P1
    7     1     2	5 ;     NG3C51      SG3O2      OG2P1
    7     1     3	5 ;     NG3C51      SG3O2      OG2P1
    2     1     3	5 ;      OG2P1      SG3O2      OG2P1
    5     4    14	5 ;     CG3C52     NG3C51       HGP1
    5     4     1	5 ;     CG3C52     NG3C51      SG3O2
   14     4     1	5 ;       HGP1     NG3C51      SG3O2
    6     5     4	5 ;     CG3C50     CG3C52     NG3C51
    6     5    36	5 ;     CG3C50     CG3C52       HGA2
    6     5    37	5 ;     CG3C50     CG3C52       HGA2
    4     5    36	5 ;     NG3C51     CG3C52       HGA2
    4     5    37	5 ;     NG3C51     CG3C52       HGA2
   36     5    37	5 ;       HGA2     CG3C52       HGA2
   12     6     8	5 ;      CG321     CG3C50      CG321
   12     6     5	5 ;      CG321     CG3C50     CG3C52
   12     6     7	5 ;      CG321     CG3C50     NG3C51
    8     6     5	5 ;      CG321     CG3C50     CG3C52
    8     6     7	5 ;      CG321     CG3C50     NG3C51
    5     6     7	5 ;     CG3C52     CG3C50     NG3C51
    6     7    16	5 ;     CG3C50     NG3C51     CG2R61
    6     7     1	5 ;     CG3C50     NG3C51      SG3O2
   16     7     1	5 ;     CG2R61     NG3C51      SG3O2
    9     8     6	5 ;      CG314      CG321     CG3C50
    9     8    38	5 ;      CG314      CG321       HGA2
    9     8    39	5 ;      CG314      CG321       HGA2
    6     8    38	5 ;     CG3C50      CG321       HGA2
    6     8    39	5 ;     CG3C50      CG321       HGA2
   38     8    39	5 ;       HGA2      CG321       HGA2
   10     9    13	5 ;      NG3P1      CG314      CG331
   10     9     8	5 ;      NG3P1      CG314      CG321
   10     9    40	5 ;      NG3P1      CG314       HGA1
   13     9     8	5 ;      CG331      CG314      CG321
   13     9    40	5 ;      CG331      CG314       HGA1
    8     9    40	5 ;      CG321      CG314       HGA1
   23    10    15	5 ;      CG324      NG3P1       HGP2
   23    10    11	5 ;      CG324      NG3P1      CG324
   23    10     9	5 ;      CG324      NG3P1      CG314
   15    10    11	5 ;       HGP2      NG3P1      CG324
   15    10     9	5 ;       HGP2      NG3P1      CG314
   11    10     9	5 ;      CG324      NG3P1      CG314
   10    11    12	5 ;      NG3P1      CG324      CG321
   10    11    41	5 ;      NG3P1      CG324       HGA2
   10    11    42	5 ;      NG3P1      CG324       HGA2
   12    11    41	5 ;      CG321      CG324       HGA2
   12    11    42	5 ;      CG321      CG324       HGA2
   41    11    42	5 ;       HGA2      CG324       HGA2
   11    12     6	5 ;      CG324      CG321     CG3C50
   11    12    43	5 ;      CG324      CG321       HGA2
   11    12    44	5 ;      CG324      CG321       HGA2
    6    12    43	5 ;     CG3C50      CG321       HGA2
    6    12    44	5 ;     CG3C50      CG321       HGA2
   43    12    44	5 ;       HGA2      CG321       HGA2
    9    13    45	5 ;      CG314      CG331       HGA3
    9    13    46	5 ;      CG314      CG331       HGA3
    9    13    47	5 ;      CG314      CG331       HGA3
   45    13    46	5 ;       HGA3      CG331       HGA3
   45    13    47	5 ;       HGA3      CG331       HGA3
   46    13    47	5 ;       HGA3      CG331       HGA3
    7    16    22	5 ;     NG3C51     CG2R61     CG2R61
    7    16    17	5 ;     NG3C51     CG2R61     CG2R61
   22    16    17	5 ;     CG2R61     CG2R61     CG2R61
   16    17    18	5 ;     CG2R61     CG2R61     CG2R66
   16    17    48	5 ;     CG2R61     CG2R61      HGR62
   18    17    48	5 ;     CG2R66     CG2R61      HGR62
   17    18    20	5 ;     CG2R61     CG2R66     CG2R61
   17    18    19	5 ;     CG2R61     CG2R66       FGR1
   20    18    19	5 ;     CG2R61     CG2R66       FGR1
   21    20    18	5 ;     CG2R61     CG2R61     CG2R66
   21    20    49	5 ;     CG2R61     CG2R61      HGR62
   18    20    49	5 ;     CG2R66     CG2R61      HGR62
   22    21    20	5 ;     CG2R61     CG2R61     CG2R61
   22    21    50	5 ;     CG2R61     CG2R61      HGR61
   20    21    50	5 ;     CG2R61     CG2R61      HGR61
   16    22    21	5 ;     CG2R61     CG2R61     CG2R61
   16    22    51	5 ;     CG2R61     CG2R61      HGR61
   21    22    51	5 ;     CG2R61     CG2R61      HGR61
   24    23    10	5 ;     CG2R61      CG324      NG3P1
   24    23    52	5 ;     CG2R61      CG324       HGA2
   24    23    53	5 ;     CG2R61      CG324       HGA2
   10    23    52	5 ;      NG3P1      CG324       HGA2
   10    23    53	5 ;      NG3P1      CG324       HGA2
   52    23    53	5 ;       HGA2      CG324       HGA2
   29    24    23	5 ;     CG2R61     CG2R61      CG324
   29    24    25	5 ;     CG2R61     CG2R61     CG2R61
   23    24    25	5 ;      CG324     CG2R61     CG2R61
   24    25    26	5 ;     CG2R61     CG2R61     CG2R61
   24    25    54	5 ;     CG2R61     CG2R61      HGR61
   26    25    54	5 ;     CG2R61     CG2R61      HGR61
   27    26    25	5 ;     CG2R61     CG2R61     CG2R61
   27    26    30	5 ;     CG2R61     CG2R61      OG301
   25    26    30	5 ;     CG2R61     CG2R61      OG301
   28    27    26	5 ;     CG2R61     CG2R61     CG2R61
   28    27    55	5 ;     CG2R61     CG2R61      HGR61
   26    27    55	5 ;     CG2R61     CG2R61      HGR61
   29    28    27	5 ;     CG2R61     CG2R61     CG2R61
   29    28    56	5 ;     CG2R61     CG2R61      HGR61
   27    28    56	5 ;     CG2R61     CG2R61      HGR61
   28    29    24	5 ;     CG2R61     CG2R61     CG2R61
   28    29    57	5 ;     CG2R61     CG2R61      HGR61
   24    29    57	5 ;     CG2R61     CG2R61      HGR61
   31    30    26	5 ;     CG3C51      OG301     CG2R61
   32    31    35	5 ;     CG3C52     CG3C51     CG3C52
   32    31    30	5 ;     CG3C52     CG3C51      OG301
   32    31    58	5 ;     CG3C52     CG3C51       HGA1
   35    31    30	5 ;     CG3C52     CG3C51      OG301
   35    31    58	5 ;     CG3C52     CG3C51       HGA1
   30    31    58	5 ;      OG301     CG3C51       HGA1
   33    32    31	5 ;     CG3C52     CG3C52     CG3C51
   33    32    59	5 ;     CG3C52     CG3C52       HGA2
   33    32    60	5 ;     CG3C52     CG3C52       HGA2
   31    32    59	5 ;     CG3C51     CG3C52       HGA2
   31    32    60	5 ;     CG3C51     CG3C52       HGA2
   59    32    60	5 ;       HGA2     CG3C52       HGA2
   32    33    34	5 ;     CG3C52     CG3C52     CG3C52
   32    33    61	5 ;     CG3C52     CG3C52       HGA2
   32    33    62	5 ;     CG3C52     CG3C52       HGA2
   34    33    61	5 ;     CG3C52     CG3C52       HGA2
   34    33    62	5 ;     CG3C52     CG3C52       HGA2
   61    33    62	5 ;       HGA2     CG3C52       HGA2
   33    34    35	5 ;     CG3C52     CG3C52     CG3C52
   33    34    63	5 ;     CG3C52     CG3C52       HGA2
   33    34    64	5 ;     CG3C52     CG3C52       HGA2
   35    34    63	5 ;     CG3C52     CG3C52       HGA2
   35    34    64	5 ;     CG3C52     CG3C52       HGA2
   63    34    64	5 ;       HGA2     CG3C52       HGA2
   31    35    34	5 ;     CG3C51     CG3C52     CG3C52
   31    35    65	5 ;     CG3C51     CG3C52       HGA2
   31    35    66	5 ;     CG3C51     CG3C52       HGA2
   34    35    65	5 ;     CG3C52     CG3C52       HGA2
   34    35    66	5 ;     CG3C52     CG3C52       HGA2
   65    35    66	5 ;       HGA2     CG3C52       HGA2

[ dihedrals ]
;	ai	  aj	ak	  al funct			  c0			c1			  c2			c3			  c4			c5
    7     1     4     5	 9 ;     NG3C51      SG3O2     NG3C51     CG3C52
    7     1     4    14	 9 ;     NG3C51      SG3O2     NG3C51       HGP1
    2     1     4     5	 9 ;      OG2P1      SG3O2     NG3C51     CG3C52
    2     1     4    14	 9 ;      OG2P1      SG3O2     NG3C51       HGP1
    3     1     4     5	 9 ;      OG2P1      SG3O2     NG3C51     CG3C52
    3     1     4    14	 9 ;      OG2P1      SG3O2     NG3C51       HGP1
    4     1     7     6	 9 ;     NG3C51      SG3O2     NG3C51     CG3C50
    4     1     7    16	 9 ;     NG3C51      SG3O2     NG3C51     CG2R61
    2     1     7     6	 9 ;      OG2P1      SG3O2     NG3C51     CG3C50
    2     1     7    16	 9 ;      OG2P1      SG3O2     NG3C51     CG2R61
    3     1     7     6	 9 ;      OG2P1      SG3O2     NG3C51     CG3C50
    3     1     7    16	 9 ;      OG2P1      SG3O2     NG3C51     CG2R61
   14     4     5     6	 9 ;       HGP1     NG3C51     CG3C52     CG3C50
   14     4     5    36	 9 ;       HGP1     NG3C51     CG3C52       HGA2
   14     4     5    37	 9 ;       HGP1     NG3C51     CG3C52       HGA2
    1     4     5     6	 9 ;      SG3O2     NG3C51     CG3C52     CG3C50
    1     4     5    36	 9 ;      SG3O2     NG3C51     CG3C52       HGA2
    1     4     5    37	 9 ;      SG3O2     NG3C51     CG3C52       HGA2
    4     5     6    12	 9 ;     NG3C51     CG3C52     CG3C50      CG321
    4     5     6     8	 9 ;     NG3C51     CG3C52     CG3C50      CG321
    4     5     6     7	 9 ;     NG3C51     CG3C52     CG3C50     NG3C51
   36     5     6    12	 9 ;       HGA2     CG3C52     CG3C50      CG321
   36     5     6     8	 9 ;       HGA2     CG3C52     CG3C50      CG321
   36     5     6     7	 9 ;       HGA2     CG3C52     CG3C50     NG3C51
   37     5     6    12	 9 ;       HGA2     CG3C52     CG3C50      CG321
   37     5     6     8	 9 ;       HGA2     CG3C52     CG3C50      CG321
   37     5     6     7	 9 ;       HGA2     CG3C52     CG3C50     NG3C51
    8     6    12    11	 9 ;      CG321     CG3C50      CG321      CG324
    8     6    12    43	 9 ;      CG321     CG3C50      CG321       HGA2
    8     6    12    44	 9 ;      CG321     CG3C50      CG321       HGA2
    5     6    12    11	 9 ;     CG3C52     CG3C50      CG321      CG324
    5     6    12    43	 9 ;     CG3C52     CG3C50      CG321       HGA2
    5     6    12    44	 9 ;     CG3C52     CG3C50      CG321       HGA2
    7     6    12    11	 9 ;     NG3C51     CG3C50      CG321      CG324
    7     6    12    43	 9 ;     NG3C51     CG3C50      CG321       HGA2
    7     6    12    44	 9 ;     NG3C51     CG3C50      CG321       HGA2
   12     6     8     9	 9 ;      CG321     CG3C50      CG321      CG314
   12     6     8    38	 9 ;      CG321     CG3C50      CG321       HGA2
   12     6     8    39	 9 ;      CG321     CG3C50      CG321       HGA2
    5     6     8     9	 9 ;     CG3C52     CG3C50      CG321      CG314
    5     6     8    38	 9 ;     CG3C52     CG3C50      CG321       HGA2
    5     6     8    39	 9 ;     CG3C52     CG3C50      CG321       HGA2
    7     6     8     9	 9 ;     NG3C51     CG3C50      CG321      CG314
    7     6     8    38	 9 ;     NG3C51     CG3C50      CG321       HGA2
    7     6     8    39	 9 ;     NG3C51     CG3C50      CG321       HGA2
   12     6     7    16	 9 ;      CG321     CG3C50     NG3C51     CG2R61
   12     6     7     1	 9 ;      CG321     CG3C50     NG3C51      SG3O2
    8     6     7    16	 9 ;      CG321     CG3C50     NG3C51     CG2R61
    8     6     7     1	 9 ;      CG321     CG3C50     NG3C51      SG3O2
    5     6     7    16	 9 ;     CG3C52     CG3C50     NG3C51     CG2R61
    5     6     7     1	 9 ;     CG3C52     CG3C50     NG3C51      SG3O2
    6     7    16    22	 9 ;     CG3C50     NG3C51     CG2R61     CG2R61
    6     7    16    17	 9 ;     CG3C50     NG3C51     CG2R61     CG2R61
    1     7    16    22	 9 ;      SG3O2     NG3C51     CG2R61     CG2R61
    1     7    16    17	 9 ;      SG3O2     NG3C51     CG2R61     CG2R61
    6     8     9    10	 9 ;     CG3C50      CG321      CG314      NG3P1
    6     8     9    13	 9 ;     CG3C50      CG321      CG314      CG331
    6     8     9    40	 9 ;     CG3C50      CG321      CG314       HGA1
   38     8     9    10	 9 ;       HGA2      CG321      CG314      NG3P1
   38     8     9    13	 9 ;       HGA2      CG321      CG314      CG331
   38     8     9    40	 9 ;       HGA2      CG321      CG314       HGA1
   39     8     9    10	 9 ;       HGA2      CG321      CG314      NG3P1
   39     8     9    13	 9 ;       HGA2      CG321      CG314      CG331
   39     8     9    40	 9 ;       HGA2      CG321      CG314       HGA1
   13     9    10    23	 9 ;      CG331      CG314      NG3P1      CG324
   13     9    10    15	 9 ;      CG331      CG314      NG3P1       HGP2
   13     9    10    11	 9 ;      CG331      CG314      NG3P1      CG324
    8     9    10    23	 9 ;      CG321      CG314      NG3P1      CG324
    8     9    10    15	 9 ;      CG321      CG314      NG3P1       HGP2
    8     9    10    11	 9 ;      CG321      CG314      NG3P1      CG324
   40     9    10    23	 9 ;       HGA1      CG314      NG3P1      CG324
   40     9    10    15	 9 ;       HGA1      CG314      NG3P1       HGP2
   40     9    10    11	 9 ;       HGA1      CG314      NG3P1      CG324
   10     9    13    45	 9 ;      NG3P1      CG314      CG331       HGA3
   10     9    13    46	 9 ;      NG3P1      CG314      CG331       HGA3
   10     9    13    47	 9 ;      NG3P1      CG314      CG331       HGA3
    8     9    13    45	 9 ;      CG321      CG314      CG331       HGA3
    8     9    13    46	 9 ;      CG321      CG314      CG331       HGA3
    8     9    13    47	 9 ;      CG321      CG314      CG331       HGA3
   40     9    13    45	 9 ;       HGA1      CG314      CG331       HGA3
   40     9    13    46	 9 ;       HGA1      CG314      CG331       HGA3
   40     9    13    47	 9 ;       HGA1      CG314      CG331       HGA3
   15    10    23    24	 9 ;       HGP2      NG3P1      CG324     CG2R61
   15    10    23    52	 9 ;       HGP2      NG3P1      CG324       HGA2
   15    10    23    53	 9 ;       HGP2      NG3P1      CG324       HGA2
   11    10    23    24	 9 ;      CG324      NG3P1      CG324     CG2R61
   11    10    23    52	 9 ;      CG324      NG3P1      CG324       HGA2
   11    10    23    53	 9 ;      CG324      NG3P1      CG324       HGA2
    9    10    23    24	 9 ;      CG314      NG3P1      CG324     CG2R61
    9    10    23    52	 9 ;      CG314      NG3P1      CG324       HGA2
    9    10    23    53	 9 ;      CG314      NG3P1      CG324       HGA2
   23    10    11    12	 9 ;      CG324      NG3P1      CG324      CG321
   23    10    11    41	 9 ;      CG324      NG3P1      CG324       HGA2
   23    10    11    42	 9 ;      CG324      NG3P1      CG324       HGA2
   15    10    11    12	 9 ;       HGP2      NG3P1      CG324      CG321
   15    10    11    41	 9 ;       HGP2      NG3P1      CG324       HGA2
   15    10    11    42	 9 ;       HGP2      NG3P1      CG324       HGA2
    9    10    11    12	 9 ;      CG314      NG3P1      CG324      CG321
    9    10    11    41	 9 ;      CG314      NG3P1      CG324       HGA2
    9    10    11    42	 9 ;      CG314      NG3P1      CG324       HGA2
   10    11    12     6	 9 ;      NG3P1      CG324      CG321     CG3C50
   10    11    12    43	 9 ;      NG3P1      CG324      CG321       HGA2
   10    11    12    44	 9 ;      NG3P1      CG324      CG321       HGA2
   41    11    12     6	 9 ;       HGA2      CG324      CG321     CG3C50
   41    11    12    43	 9 ;       HGA2      CG324      CG321       HGA2
   41    11    12    44	 9 ;       HGA2      CG324      CG321       HGA2
   42    11    12     6	 9 ;       HGA2      CG324      CG321     CG3C50
   42    11    12    43	 9 ;       HGA2      CG324      CG321       HGA2
   42    11    12    44	 9 ;       HGA2      CG324      CG321       HGA2
    7    16    22    21	 9 ;     NG3C51     CG2R61     CG2R61     CG2R61
    7    16    22    51	 9 ;     NG3C51     CG2R61     CG2R61      HGR61
   17    16    22    21	 9 ;     CG2R61     CG2R61     CG2R61     CG2R61
   17    16    22    51	 9 ;     CG2R61     CG2R61     CG2R61      HGR61
    7    16    17    18	 9 ;     NG3C51     CG2R61     CG2R61     CG2R66
    7    16    17    48	 9 ;     NG3C51     CG2R61     CG2R61      HGR62
   22    16    17    18	 9 ;     CG2R61     CG2R61     CG2R61     CG2R66
   22    16    17    48	 9 ;     CG2R61     CG2R61     CG2R61      HGR62
   16    17    18    20	 9 ;     CG2R61     CG2R61     CG2R66     CG2R61
   16    17    18    19	 9 ;     CG2R61     CG2R61     CG2R66       FGR1
   48    17    18    20	 9 ;      HGR62     CG2R61     CG2R66     CG2R61
   48    17    18    19	 9 ;      HGR62     CG2R61     CG2R66       FGR1
   17    18    20    21	 9 ;     CG2R61     CG2R66     CG2R61     CG2R61
   17    18    20    49	 9 ;     CG2R61     CG2R66     CG2R61      HGR62
   19    18    20    21	 9 ;       FGR1     CG2R66     CG2R61     CG2R61
   19    18    20    49	 9 ;       FGR1     CG2R66     CG2R61      HGR62
   18    20    21    22	 9 ;     CG2R66     CG2R61     CG2R61     CG2R61
   18    20    21    50	 9 ;     CG2R66     CG2R61     CG2R61      HGR61
   49    20    21    22	 9 ;      HGR62     CG2R61     CG2R61     CG2R61
   49    20    21    50	 9 ;      HGR62     CG2R61     CG2R61      HGR61
   20    21    22    16	 9 ;     CG2R61     CG2R61     CG2R61     CG2R61
   20    21    22    51	 9 ;     CG2R61     CG2R61     CG2R61      HGR61
   50    21    22    16	 9 ;      HGR61     CG2R61     CG2R61     CG2R61
   50    21    22    51	 9 ;      HGR61     CG2R61     CG2R61      HGR61
   10    23    24    29	 9 ;      NG3P1      CG324     CG2R61     CG2R61
   10    23    24    25	 9 ;      NG3P1      CG324     CG2R61     CG2R61
   52    23    24    29	 9 ;       HGA2      CG324     CG2R61     CG2R61
   52    23    24    25	 9 ;       HGA2      CG324     CG2R61     CG2R61
   53    23    24    29	 9 ;       HGA2      CG324     CG2R61     CG2R61
   53    23    24    25	 9 ;       HGA2      CG324     CG2R61     CG2R61
   23    24    29    28	 9 ;      CG324     CG2R61     CG2R61     CG2R61
   23    24    29    57	 9 ;      CG324     CG2R61     CG2R61      HGR61
   25    24    29    28	 9 ;     CG2R61     CG2R61     CG2R61     CG2R61
   25    24    29    57	 9 ;     CG2R61     CG2R61     CG2R61      HGR61
   29    24    25    26	 9 ;     CG2R61     CG2R61     CG2R61     CG2R61
   29    24    25    54	 9 ;     CG2R61     CG2R61     CG2R61      HGR61
   23    24    25    26	 9 ;      CG324     CG2R61     CG2R61     CG2R61
   23    24    25    54	 9 ;      CG324     CG2R61     CG2R61      HGR61
   24    25    26    27	 9 ;     CG2R61     CG2R61     CG2R61     CG2R61
   24    25    26    30	 9 ;     CG2R61     CG2R61     CG2R61      OG301
   54    25    26    27	 9 ;      HGR61     CG2R61     CG2R61     CG2R61
   54    25    26    30	 9 ;      HGR61     CG2R61     CG2R61      OG301
   25    26    27    28	 9 ;     CG2R61     CG2R61     CG2R61     CG2R61
   25    26    27    55	 9 ;     CG2R61     CG2R61     CG2R61      HGR61
   30    26    27    28	 9 ;      OG301     CG2R61     CG2R61     CG2R61
   30    26    27    55	 9 ;      OG301     CG2R61     CG2R61      HGR61
   27    26    30    31	 9 ;     CG2R61     CG2R61      OG301     CG3C51
   25    26    30    31	 9 ;     CG2R61     CG2R61      OG301     CG3C51
   26    27    28    29	 9 ;     CG2R61     CG2R61     CG2R61     CG2R61
   26    27    28    56	 9 ;     CG2R61     CG2R61     CG2R61      HGR61
   55    27    28    29	 9 ;      HGR61     CG2R61     CG2R61     CG2R61
   55    27    28    56	 9 ;      HGR61     CG2R61     CG2R61      HGR61
   27    28    29    24	 9 ;     CG2R61     CG2R61     CG2R61     CG2R61
   27    28    29    57	 9 ;     CG2R61     CG2R61     CG2R61      HGR61
   56    28    29    24	 9 ;      HGR61     CG2R61     CG2R61     CG2R61
   56    28    29    57	 9 ;      HGR61     CG2R61     CG2R61      HGR61
   26    30    31    32	 9 ;     CG2R61      OG301     CG3C51     CG3C52
   26    30    31    35	 9 ;     CG2R61      OG301     CG3C51     CG3C52
   26    30    31    58	 9 ;     CG2R61      OG301     CG3C51       HGA1
   35    31    32    33	 9 ;     CG3C52     CG3C51     CG3C52     CG3C52
   35    31    32    59	 9 ;     CG3C52     CG3C51     CG3C52       HGA2
   35    31    32    60	 9 ;     CG3C52     CG3C51     CG3C52       HGA2
   30    31    32    33	 9 ;      OG301     CG3C51     CG3C52     CG3C52
   30    31    32    59	 9 ;      OG301     CG3C51     CG3C52       HGA2
   30    31    32    60	 9 ;      OG301     CG3C51     CG3C52       HGA2
   58    31    32    33	 9 ;       HGA1     CG3C51     CG3C52     CG3C52
   58    31    32    59	 9 ;       HGA1     CG3C51     CG3C52       HGA2
   58    31    32    60	 9 ;       HGA1     CG3C51     CG3C52       HGA2
   32    31    35    34	 9 ;     CG3C52     CG3C51     CG3C52     CG3C52
   32    31    35    65	 9 ;     CG3C52     CG3C51     CG3C52       HGA2
   32    31    35    66	 9 ;     CG3C52     CG3C51     CG3C52       HGA2
   30    31    35    34	 9 ;      OG301     CG3C51     CG3C52     CG3C52
   30    31    35    65	 9 ;      OG301     CG3C51     CG3C52       HGA2
   30    31    35    66	 9 ;      OG301     CG3C51     CG3C52       HGA2
   58    31    35    34	 9 ;       HGA1     CG3C51     CG3C52     CG3C52
   58    31    35    65	 9 ;       HGA1     CG3C51     CG3C52       HGA2
   58    31    35    66	 9 ;       HGA1     CG3C51     CG3C52       HGA2
   31    32    33    34	 9 ;     CG3C51     CG3C52     CG3C52     CG3C52
   31    32    33    61	 9 ;     CG3C51     CG3C52     CG3C52       HGA2
   31    32    33    62	 9 ;     CG3C51     CG3C52     CG3C52       HGA2
   59    32    33    34	 9 ;       HGA2     CG3C52     CG3C52     CG3C52
   59    32    33    61	 9 ;       HGA2     CG3C52     CG3C52       HGA2
   59    32    33    62	 9 ;       HGA2     CG3C52     CG3C52       HGA2
   60    32    33    34	 9 ;       HGA2     CG3C52     CG3C52     CG3C52
   60    32    33    61	 9 ;       HGA2     CG3C52     CG3C52       HGA2
   60    32    33    62	 9 ;       HGA2     CG3C52     CG3C52       HGA2
   32    33    34    35	 9 ;     CG3C52     CG3C52     CG3C52     CG3C52
   32    33    34    63	 9 ;     CG3C52     CG3C52     CG3C52       HGA2
   32    33    34    64	 9 ;     CG3C52     CG3C52     CG3C52       HGA2
   61    33    34    35	 9 ;       HGA2     CG3C52     CG3C52     CG3C52
   61    33    34    63	 9 ;       HGA2     CG3C52     CG3C52       HGA2
   61    33    34    64	 9 ;       HGA2     CG3C52     CG3C52       HGA2
   62    33    34    35	 9 ;       HGA2     CG3C52     CG3C52     CG3C52
   62    33    34    63	 9 ;       HGA2     CG3C52     CG3C52       HGA2
   62    33    34    64	 9 ;       HGA2     CG3C52     CG3C52       HGA2
   33    34    35    31	 9 ;     CG3C52     CG3C52     CG3C52     CG3C51
   33    34    35    65	 9 ;     CG3C52     CG3C52     CG3C52       HGA2
   33    34    35    66	 9 ;     CG3C52     CG3C52     CG3C52       HGA2
   63    34    35    31	 9 ;       HGA2     CG3C52     CG3C52     CG3C51
   63    34    35    65	 9 ;       HGA2     CG3C52     CG3C52       HGA2
   63    34    35    66	 9 ;       HGA2     CG3C52     CG3C52       HGA2
   64    34    35    31	 9 ;       HGA2     CG3C52     CG3C52     CG3C51
   64    34    35    65	 9 ;       HGA2     CG3C52     CG3C52       HGA2
   64    34    35    66	 9 ;       HGA2     CG3C52     CG3C52       HGA2

