GROtesk MACabre and Sinister
   48
    1LIG     C2    1   2.012   3.856  -1.670
    1LIG     O5    2   1.846   3.728  -1.848
    1LIG     C4    3   1.826   3.916  -1.989
    1LIG     C5    4   1.867   4.047  -2.018
    1LIG     C6    5   1.743   3.846  -2.078
    1LIG     C7    6   1.828   4.106  -2.140
    1LIG     C8    7   1.702   3.906  -2.197
    1LIG     C9    8   1.745   4.036  -2.227
    1LIG    C10    9   1.946   3.928  -1.763
    1LIG    C11   10   1.935   4.076  -1.778
    1LIG    C12   11   1.870   3.847  -1.865
    1LIG    C13   12   1.959   4.120  -1.922
    1LIG     N1   13   2.019   3.926  -1.443
    1LIG     O4   14   2.210   3.943  -1.568
    1LIG     C3   15   2.092   3.912  -1.559
    1LIG     H4   16   1.918   3.923  -1.449
    1LIG    C14   17   2.075   3.998  -1.327
    1LIG    C16   18   2.023   3.937  -1.195
    1LIG    C17   19   2.021   4.042  -1.083
    1LIG    C18   20   1.883   3.878  -1.210
    1LIG     O2   21   1.918   4.178  -1.378
    1LIG    C15   22   2.030   4.144  -1.342
    1LIG     O3   23   2.130   4.229  -1.305
    1LIG    C19   24   2.260   4.186  -1.345
    1LIG     C1   25   1.795   4.321  -2.240
    1LIG     O1   26   1.876   4.233  -2.163
    1LIG     H1   27   2.006   3.753  -1.677
    1LIG     H2   28   1.713   3.750  -2.056
    1LIG     H3   29   1.641   3.855  -2.262
    1LIG     H5   30   1.715   4.080  -2.316
    1LIG     H6   31   1.837   4.107  -1.748
    1LIG     H7   32   2.009   4.122  -1.716
    1LIG     H8   33   1.941   4.225  -1.931
    1LIG     H9   34   2.060   4.095  -1.948
    1LIG    H10   35   2.181   3.990  -1.325
    1LIG    H11   36   2.091   3.858  -1.169
    1LIG    H12   37   1.953   4.120  -1.110
    1LIG    H13   38   2.119   4.083  -1.071
    1LIG    H14   39   1.989   3.996  -0.992
    1LIG    H15   40   1.814   3.955  -1.236
    1LIG    H16   41   1.853   3.833  -1.118
    1LIG    H17   42   1.884   3.803  -1.287
    1LIG    H18   43   2.333   4.258  -1.313
    1LIG    H19   44   2.263   4.178  -1.452
    1LIG    H20   45   2.282   4.091  -1.302
    1LIG    H21   46   1.845   4.415  -2.250
    1LIG    H22   47   1.701   4.335  -2.190
    1LIG    H23   48   1.778   4.279  -2.337
   0.00000   0.00000   0.00000
