GROwing Monsters And Cloning Shrimps
   51
    1LIG     O1    1  -1.602   0.310  -1.589
    1LIG     C1    2  -1.512   0.346  -1.484
    1LIG     C2    3  -1.374   0.363  -1.552
    1LIG     N1    4  -1.399   0.324  -1.693
    1LIG    HN3    5  -1.332   0.317  -1.769
    1LIG     C3    6  -1.525   0.299  -1.699
    1LIG     C4    7  -1.328   0.507  -1.546
    1LIG     C5    8  -1.404   0.610  -1.605
    1LIG     C6    9  -1.367   0.746  -1.598
    1LIG     C7   10  -1.247   0.775  -1.531
    1LIG     C8   11  -1.169   0.674  -1.474
    1LIG     C9   12  -1.209   0.541  -1.481
    1LIG     O2   13  -1.126   0.450  -1.421
    1LIG    C10   14  -1.156   0.316  -1.431
    1LIG    C11   15  -1.272   0.268  -1.492
    1LIG    C12   16  -1.293   0.128  -1.497
    1LIG    C13   17  -1.200   0.039  -1.442
    1LIG    C14   18  -1.085   0.090  -1.383
    1LIG    C15   19  -1.063   0.228  -1.377
    1LIG     N2   20  -1.594   0.259  -1.808
    1LIG     H1   21  -1.641   0.333  -1.858
    1LIG     H2   22  -1.648   0.175  -1.793
    1LIG    C16   23  -1.451   0.851  -1.657
    1LIG    C17   24  -1.413   0.926  -1.768
    1LIG     N3   25  -1.487   1.024  -1.825
    1LIG    C18   26  -1.606   1.046  -1.768
    1LIG    HN4   27  -1.455   1.076  -1.906
    1LIG     N4   28  -1.656   0.982  -1.662
    1LIG    C19   29  -1.577   0.886  -1.609
    1LIG    HN5   30  -1.748   1.003  -1.623
    1LIG     O3   31  -1.211  -0.097  -1.443
    1LIG    C20   32  -1.163  -0.165  -1.327
    1LIG    HC2   33  -1.542   0.440  -1.437
    1LIG    HC3   34  -1.507   0.267  -1.409
    1LIG    HN2   35  -1.382   0.227  -1.670
    1LIG     HC   36  -1.545   0.403  -1.724
    1LIG    HC1   37  -1.495   0.584  -1.658
    1LIG    HC4   38  -1.214   0.878  -1.523
    1LIG    HC5   39  -1.077   0.699  -1.424
    1LIG    HC6   40  -1.382   0.089  -1.543
    1LIG    HC7   41  -1.012   0.023  -1.340
    1LIG    HC8   42  -0.974   0.266  -1.330
    1LIG    HN1   43  -1.521   0.229  -1.872
    1LIG    HC9   44  -1.316   0.905  -1.811
    1LIG   HC10   45  -1.668   1.124  -1.811
    1LIG   HC11   46  -1.613   0.832  -1.523
    1LIG   HC12   47  -1.206  -0.265  -1.323
    1LIG   HC13   48  -1.055  -0.172  -1.331
    1LIG   HC14   49  -1.193  -0.109  -1.238
    1LIG    H23   50  -1.459   0.853  -1.834
    1LIG    H24   51  -1.561   1.120  -1.702
   0.00000   0.00000   0.00000
