; Created by cgenff_charmm2gmx.py

[ moleculetype ]
; Name			   nrexcl
LIG				 3

[ atoms ]
;	 nr		  type	resnr residue  atom   cgnr	   charge		mass  typeB    chargeB		massB
; residue	 1 LIG rtp LIG q	qsum
     1     OG3C51      1    LIG     O1      1     -0.243     15.999   ;
     2     CG3C52      1    LIG     C1      2     -0.015     12.011   ;
     3     CG3C50      1    LIG     C2      3      1.306     12.011   ;
     4      NG3P2      1    LIG     N1      4     -1.541     14.007   ;
     5       HGP2      1    LIG    HN3      5      0.500      1.008   ;
     6     CG3C53      1    LIG     C3      6      1.711     12.011   ;
     7     CG2R61      1    LIG     C4      7     -0.324     12.011   ;
     8     CG2R61      1    LIG     C5      8     -0.130     12.011   ;
     9     CG2R61      1    LIG     C6      9      0.025     12.011   ;
    10     CG2R61      1    LIG     C7     10     -0.116     12.011   ;
    11     CG2R61      1    LIG     C8     11     -0.106     12.011   ;
    12     CG2R61      1    LIG     C9     12      0.147     12.011   ;
    13     OG3R60      1    LIG     O2     13     -0.292     15.999   ;
    14     CG2R61      1    LIG    C10     14      0.147     12.011   ;
    15     CG2R61      1    LIG    C11     15     -0.324     12.011   ;
    16     CG2R61      1    LIG    C12     16     -0.131     12.011   ;
    17     CG2R61      1    LIG    C13     17      0.222     12.011   ;
    18     CG2R61      1    LIG    C14     18     -0.117     12.011   ;
    19     CG2R61      1    LIG    C15     19     -0.106     12.011   ;
    20      NG3P3      1    LIG     N2     20     -0.781     14.007   ;
    21       HGP2      1    LIG     H1     21      0.307      1.008   ;
    22       HGP2      1    LIG     H2     22      0.307      1.008   ;
    23     CG2DC1      1    LIG    C16     23     -0.086     12.011   ;
    24      CG321      1    LIG    C17     24      0.013     12.011   ;
    25      NG311      1    LIG     N3     25     -0.656     14.007   ;
    26      CG321      1    LIG    C18     26      0.131     12.011   ;
    27     HGPAM1      1    LIG    HN4     27      0.367      1.008   ;
    28      NG311      1    LIG     N4     28     -0.598     14.007   ;
    29     CG2D1O      1    LIG    C19     29     -0.097     12.011   ;
    30     HGPAM1      1    LIG    HN5     30      0.406      1.008   ;
    31      OG301      1    LIG     O3     31     -0.383     15.999   ;
    32      CG331      1    LIG    C20     32     -0.094     12.011   ;
    33       HGA2      1    LIG    HC2     33      0.090      1.008   ;
    34       HGA2      1    LIG    HC3     34      0.090      1.008   ;
    35       HGP2      1    LIG    HN2     35      0.500      1.008   ;
    36       HGA1      1    LIG     HC     36      0.090      1.008   ;
    37      HGR61      1    LIG    HC1     37      0.116      1.008   ;
    38      HGR61      1    LIG    HC4     38      0.116      1.008   ;
    39      HGR61      1    LIG    HC5     39      0.116      1.008   ;
    40      HGR61      1    LIG    HC6     40      0.116      1.008   ;
    41      HGR61      1    LIG    HC7     41      0.116      1.008   ;
    42      HGR61      1    LIG    HC8     42      0.116      1.008   ;
    43       HGP2      1    LIG    HN1     43      0.307      1.008   ;
    44       HGA2      1    LIG    HC9     44      0.090      1.008   ;
    45       HGA2      1    LIG   HC10     45      0.090      1.008   ;
    46       HGA4      1    LIG   HC11     46      0.148      1.008   ;
    47       HGA3      1    LIG   HC12     47      0.090      1.008   ;
    48       HGA3      1    LIG   HC13     48      0.090      1.008   ;
    49       HGA3      1    LIG   HC14     49      0.090      1.008   ;
    50       HGA2      1    LIG    H23     50      0.090      1.008   ;
    51       HGA2      1    LIG    H24     51      0.090      1.008   ;

[ bonds ]
;	ai	  aj funct			  c0			c1			  c2			c3
    1     6	 1 ;      OG3C51     CG3C53
    1     2	 1 ;      OG3C51     CG3C52
    2     3	 1 ;      CG3C52     CG3C50
    2    33	 1 ;      CG3C52       HGA2
    2    34	 1 ;      CG3C52       HGA2
    3     7	 1 ;      CG3C50     CG2R61
    3     4	 1 ;      CG3C50      NG3P2
    3    15	 1 ;      CG3C50     CG2R61
    4     5	 1 ;       NG3P2       HGP2
    4     6	 1 ;       NG3P2     CG3C53
    4    35	 1 ;       NG3P2       HGP2
    6    20	 1 ;      CG3C53      NG3P3
    6    36	 1 ;      CG3C53       HGA1
    7    12	 1 ;      CG2R61     CG2R61
    7     8	 1 ;      CG2R61     CG2R61
    8     9	 1 ;      CG2R61     CG2R61
    8    37	 1 ;      CG2R61      HGR61
    9    10	 1 ;      CG2R61     CG2R61
    9    23	 1 ;      CG2R61     CG2DC1
   10    11	 1 ;      CG2R61     CG2R61
   10    38	 1 ;      CG2R61      HGR61
   11    12	 1 ;      CG2R61     CG2R61
   11    39	 1 ;      CG2R61      HGR61
   12    13	 1 ;      CG2R61     OG3R60
   13    14	 1 ;      OG3R60     CG2R61
   14    19	 1 ;      CG2R61     CG2R61
   14    15	 1 ;      CG2R61     CG2R61
   15    16	 1 ;      CG2R61     CG2R61
   16    17	 1 ;      CG2R61     CG2R61
   16    40	 1 ;      CG2R61      HGR61
   17    18	 1 ;      CG2R61     CG2R61
   17    31	 1 ;      CG2R61      OG301
   18    19	 1 ;      CG2R61     CG2R61
   18    41	 1 ;      CG2R61      HGR61
   19    42	 1 ;      CG2R61      HGR61
   20    21	 1 ;       NG3P3       HGP2
   20    22	 1 ;       NG3P3       HGP2
   20    43	 1 ;       NG3P3       HGP2
   23    24	 1 ;      CG2DC1      CG321
   23    29	 1 ;      CG2DC1     CG2D1O
   24    25	 1 ;       CG321      NG311
   24    44	 1 ;       CG321       HGA2
   24    50	 1 ;       CG321       HGA2
   25    27	 1 ;       NG311     HGPAM1
   25    26	 1 ;       NG311      CG321
   26    28	 1 ;       CG321      NG311
   26    45	 1 ;       CG321       HGA2
   26    51	 1 ;       CG321       HGA2
   28    29	 1 ;       NG311     CG2D1O
   28    30	 1 ;       NG311     HGPAM1
   29    46	 1 ;      CG2D1O       HGA4
   31    32	 1 ;       OG301      CG331
   32    47	 1 ;       CG331       HGA3
   32    48	 1 ;       CG331       HGA3
   32    49	 1 ;       CG331       HGA3

[ pairs ]
;	ai	  aj funct			  c0			c1			  c2			c3
    1     7	 1
    1    15	 1
    1     5	 1
    1    35	 1
    1    21	 1
    1    22	 1
    1    43	 1
    2    20	 1
    2    36	 1
    2    12	 1
    2     8	 1
    2     5	 1
    2    35	 1
    2    14	 1
    2    16	 1
    3    20	 1
    3    36	 1
    3    11	 1
    3    13	 1
    3     9	 1
    3    37	 1
    3    19	 1
    3    17	 1
    3    40	 1
    4    33	 1
    4    34	 1
    4    12	 1
    4     8	 1
    4    14	 1
    4    16	 1
    4    21	 1
    4    22	 1
    4    43	 1
    5     7	 1
    5    15	 1
    5    20	 1
    5    36	 1
    6    33	 1
    6    34	 1
    6     7	 1
    6    15	 1
    7    33	 1
    7    34	 1
    7    35	 1
    7    14	 1
    7    16	 1
    7    10	 1
    7    23	 1
    7    39	 1
    8    15	 1
    8    11	 1
    8    13	 1
    8    38	 1
    8    24	 1
    8    29	 1
    9    12	 1
    9    39	 1
    9    25	 1
    9    44	 1
    9    50	 1
    9    28	 1
    9    46	 1
   10    37	 1
   10    24	 1
   10    29	 1
   10    13	 1
   11    23	 1
   11    14	 1
   12    15	 1
   12    37	 1
   12    38	 1
   12    19	 1
   13    39	 1
   13    18	 1
   13    42	 1
   13    16	 1
   14    17	 1
   14    40	 1
   14    41	 1
   15    33	 1
   15    34	 1
   15    35	 1
   15    18	 1
   15    42	 1
   15    31	 1
   16    19	 1
   16    41	 1
   16    32	 1
   17    42	 1
   17    47	 1
   17    48	 1
   17    49	 1
   18    40	 1
   18    32	 1
   19    31	 1
   20    35	 1
   21    36	 1
   22    36	 1
   23    37	 1
   23    38	 1
   23    27	 1
   23    26	 1
   23    30	 1
   24    28	 1
   24    46	 1
   24    45	 1
   24    51	 1
   25    29	 1
   25    30	 1
   26    44	 1
   26    50	 1
   26    46	 1
   27    44	 1
   27    50	 1
   27    28	 1
   27    45	 1
   27    51	 1
   29    44	 1
   29    50	 1
   29    45	 1
   29    51	 1
   30    45	 1
   30    51	 1
   30    46	 1
   31    40	 1
   31    41	 1
   35    36	 1
   36    43	 1
   38    39	 1
   41    42	 1

[ angles ]
;	ai	  aj	ak funct			c0			  c1			c2			  c3
    6     1     2	5 ;     CG3C53     OG3C51     CG3C52
    3     2     1	5 ;     CG3C50     CG3C52     OG3C51
    3     2    33	5 ;     CG3C50     CG3C52       HGA2
    3     2    34	5 ;     CG3C50     CG3C52       HGA2
    1     2    33	5 ;     OG3C51     CG3C52       HGA2
    1     2    34	5 ;     OG3C51     CG3C52       HGA2
   33     2    34	5 ;       HGA2     CG3C52       HGA2
    7     3     4	5 ;     CG2R61     CG3C50      NG3P2
    7     3    15	5 ;     CG2R61     CG3C50     CG2R61
    7     3     2	5 ;     CG2R61     CG3C50     CG3C52
    4     3    15	5 ;      NG3P2     CG3C50     CG2R61
    4     3     2	5 ;      NG3P2     CG3C50     CG3C52
   15     3     2	5 ;     CG2R61     CG3C50     CG3C52
    5     4     3	5 ;       HGP2      NG3P2     CG3C50
    5     4     6	5 ;       HGP2      NG3P2     CG3C53
    5     4    35	5 ;       HGP2      NG3P2       HGP2
    3     4     6	5 ;     CG3C50      NG3P2     CG3C53
    3     4    35	5 ;     CG3C50      NG3P2       HGP2
    6     4    35	5 ;     CG3C53      NG3P2       HGP2
    4     6    20	5 ;      NG3P2     CG3C53      NG3P3
    4     6     1	5 ;      NG3P2     CG3C53     OG3C51
    4     6    36	5 ;      NG3P2     CG3C53       HGA1
   20     6     1	5 ;      NG3P3     CG3C53     OG3C51
   20     6    36	5 ;      NG3P3     CG3C53       HGA1
    1     6    36	5 ;     OG3C51     CG3C53       HGA1
   12     7     8	5 ;     CG2R61     CG2R61     CG2R61
   12     7     3	5 ;     CG2R61     CG2R61     CG3C50
    8     7     3	5 ;     CG2R61     CG2R61     CG3C50
    9     8     7	5 ;     CG2R61     CG2R61     CG2R61
    9     8    37	5 ;     CG2R61     CG2R61      HGR61
    7     8    37	5 ;     CG2R61     CG2R61      HGR61
   10     9    23	5 ;     CG2R61     CG2R61     CG2DC1
   10     9     8	5 ;     CG2R61     CG2R61     CG2R61
   23     9     8	5 ;     CG2DC1     CG2R61     CG2R61
   11    10     9	5 ;     CG2R61     CG2R61     CG2R61
   11    10    38	5 ;     CG2R61     CG2R61      HGR61
    9    10    38	5 ;     CG2R61     CG2R61      HGR61
   10    11    12	5 ;     CG2R61     CG2R61     CG2R61
   10    11    39	5 ;     CG2R61     CG2R61      HGR61
   12    11    39	5 ;     CG2R61     CG2R61      HGR61
   11    12    13	5 ;     CG2R61     CG2R61     OG3R60
   11    12     7	5 ;     CG2R61     CG2R61     CG2R61
   13    12     7	5 ;     OG3R60     CG2R61     CG2R61
   12    13    14	5 ;     CG2R61     OG3R60     CG2R61
   13    14    19	5 ;     OG3R60     CG2R61     CG2R61
   13    14    15	5 ;     OG3R60     CG2R61     CG2R61
   19    14    15	5 ;     CG2R61     CG2R61     CG2R61
   14    15     3	5 ;     CG2R61     CG2R61     CG3C50
   14    15    16	5 ;     CG2R61     CG2R61     CG2R61
    3    15    16	5 ;     CG3C50     CG2R61     CG2R61
   15    16    17	5 ;     CG2R61     CG2R61     CG2R61
   15    16    40	5 ;     CG2R61     CG2R61      HGR61
   17    16    40	5 ;     CG2R61     CG2R61      HGR61
   18    17    16	5 ;     CG2R61     CG2R61     CG2R61
   18    17    31	5 ;     CG2R61     CG2R61      OG301
   16    17    31	5 ;     CG2R61     CG2R61      OG301
   19    18    17	5 ;     CG2R61     CG2R61     CG2R61
   19    18    41	5 ;     CG2R61     CG2R61      HGR61
   17    18    41	5 ;     CG2R61     CG2R61      HGR61
   14    19    18	5 ;     CG2R61     CG2R61     CG2R61
   14    19    42	5 ;     CG2R61     CG2R61      HGR61
   18    19    42	5 ;     CG2R61     CG2R61      HGR61
   21    20     6	5 ;       HGP2      NG3P3     CG3C53
   21    20    22	5 ;       HGP2      NG3P3       HGP2
   21    20    43	5 ;       HGP2      NG3P3       HGP2
    6    20    22	5 ;     CG3C53      NG3P3       HGP2
    6    20    43	5 ;     CG3C53      NG3P3       HGP2
   22    20    43	5 ;       HGP2      NG3P3       HGP2
   24    23     9	5 ;      CG321     CG2DC1     CG2R61
   24    23    29	5 ;      CG321     CG2DC1     CG2D1O
    9    23    29	5 ;     CG2R61     CG2DC1     CG2D1O
   25    24    23	5 ;      NG311      CG321     CG2DC1
   25    24    44	5 ;      NG311      CG321       HGA2
   25    24    50	5 ;      NG311      CG321       HGA2
   23    24    44	5 ;     CG2DC1      CG321       HGA2
   23    24    50	5 ;     CG2DC1      CG321       HGA2
   44    24    50	5 ;       HGA2      CG321       HGA2
   27    25    24	5 ;     HGPAM1      NG311      CG321
   27    25    26	5 ;     HGPAM1      NG311      CG321
   24    25    26	5 ;      CG321      NG311      CG321
   25    26    28	5 ;      NG311      CG321      NG311
   25    26    45	5 ;      NG311      CG321       HGA2
   25    26    51	5 ;      NG311      CG321       HGA2
   28    26    45	5 ;      NG311      CG321       HGA2
   28    26    51	5 ;      NG311      CG321       HGA2
   45    26    51	5 ;       HGA2      CG321       HGA2
   26    28    29	5 ;      CG321      NG311     CG2D1O
   26    28    30	5 ;      CG321      NG311     HGPAM1
   29    28    30	5 ;     CG2D1O      NG311     HGPAM1
   23    29    28	5 ;     CG2DC1     CG2D1O      NG311
   23    29    46	5 ;     CG2DC1     CG2D1O       HGA4
   28    29    46	5 ;      NG311     CG2D1O       HGA4
   17    31    32	5 ;     CG2R61      OG301      CG331
   31    32    47	5 ;      OG301      CG331       HGA3
   31    32    48	5 ;      OG301      CG331       HGA3
   31    32    49	5 ;      OG301      CG331       HGA3
   47    32    48	5 ;       HGA3      CG331       HGA3
   47    32    49	5 ;       HGA3      CG331       HGA3
   48    32    49	5 ;       HGA3      CG331       HGA3

[ dihedrals ]
;	ai	  aj	ak	  al funct			  c0			c1			  c2			c3			  c4			c5
    2     1     6     4	 9 ;     CG3C52     OG3C51     CG3C53      NG3P2
    2     1     6    20	 9 ;     CG3C52     OG3C51     CG3C53      NG3P3
    2     1     6    36	 9 ;     CG3C52     OG3C51     CG3C53       HGA1
    6     1     2     3	 9 ;     CG3C53     OG3C51     CG3C52     CG3C50
    6     1     2    33	 9 ;     CG3C53     OG3C51     CG3C52       HGA2
    6     1     2    34	 9 ;     CG3C53     OG3C51     CG3C52       HGA2
    1     2     3     7	 9 ;     OG3C51     CG3C52     CG3C50     CG2R61
    1     2     3     4	 9 ;     OG3C51     CG3C52     CG3C50      NG3P2
    1     2     3    15	 9 ;     OG3C51     CG3C52     CG3C50     CG2R61
   33     2     3     7	 9 ;       HGA2     CG3C52     CG3C50     CG2R61
   33     2     3     4	 9 ;       HGA2     CG3C52     CG3C50      NG3P2
   33     2     3    15	 9 ;       HGA2     CG3C52     CG3C50     CG2R61
   34     2     3     7	 9 ;       HGA2     CG3C52     CG3C50     CG2R61
   34     2     3     4	 9 ;       HGA2     CG3C52     CG3C50      NG3P2
   34     2     3    15	 9 ;       HGA2     CG3C52     CG3C50     CG2R61
    4     3     7    12	 9 ;      NG3P2     CG3C50     CG2R61     CG2R61
    4     3     7     8	 9 ;      NG3P2     CG3C50     CG2R61     CG2R61
   15     3     7    12	 9 ;     CG2R61     CG3C50     CG2R61     CG2R61
   15     3     7     8	 9 ;     CG2R61     CG3C50     CG2R61     CG2R61
    2     3     7    12	 9 ;     CG3C52     CG3C50     CG2R61     CG2R61
    2     3     7     8	 9 ;     CG3C52     CG3C50     CG2R61     CG2R61
    7     3     4     5	 9 ;     CG2R61     CG3C50      NG3P2       HGP2
    7     3     4     6	 9 ;     CG2R61     CG3C50      NG3P2     CG3C53
    7     3     4    35	 9 ;     CG2R61     CG3C50      NG3P2       HGP2
   15     3     4     5	 9 ;     CG2R61     CG3C50      NG3P2       HGP2
   15     3     4     6	 9 ;     CG2R61     CG3C50      NG3P2     CG3C53
   15     3     4    35	 9 ;     CG2R61     CG3C50      NG3P2       HGP2
    2     3     4     5	 9 ;     CG3C52     CG3C50      NG3P2       HGP2
    2     3     4     6	 9 ;     CG3C52     CG3C50      NG3P2     CG3C53
    2     3     4    35	 9 ;     CG3C52     CG3C50      NG3P2       HGP2
    7     3    15    14	 9 ;     CG2R61     CG3C50     CG2R61     CG2R61
    7     3    15    16	 9 ;     CG2R61     CG3C50     CG2R61     CG2R61
    4     3    15    14	 9 ;      NG3P2     CG3C50     CG2R61     CG2R61
    4     3    15    16	 9 ;      NG3P2     CG3C50     CG2R61     CG2R61
    2     3    15    14	 9 ;     CG3C52     CG3C50     CG2R61     CG2R61
    2     3    15    16	 9 ;     CG3C52     CG3C50     CG2R61     CG2R61
    5     4     6    20	 9 ;       HGP2      NG3P2     CG3C53      NG3P3
    5     4     6     1	 9 ;       HGP2      NG3P2     CG3C53     OG3C51
    5     4     6    36	 9 ;       HGP2      NG3P2     CG3C53       HGA1
    3     4     6    20	 9 ;     CG3C50      NG3P2     CG3C53      NG3P3
    3     4     6     1	 9 ;     CG3C50      NG3P2     CG3C53     OG3C51
    3     4     6    36	 9 ;     CG3C50      NG3P2     CG3C53       HGA1
   35     4     6    20	 9 ;       HGP2      NG3P2     CG3C53      NG3P3
   35     4     6     1	 9 ;       HGP2      NG3P2     CG3C53     OG3C51
   35     4     6    36	 9 ;       HGP2      NG3P2     CG3C53       HGA1
    4     6    20    21	 9 ;      NG3P2     CG3C53      NG3P3       HGP2
    4     6    20    22	 9 ;      NG3P2     CG3C53      NG3P3       HGP2
    4     6    20    43	 9 ;      NG3P2     CG3C53      NG3P3       HGP2
    1     6    20    21	 9 ;     OG3C51     CG3C53      NG3P3       HGP2
    1     6    20    22	 9 ;     OG3C51     CG3C53      NG3P3       HGP2
    1     6    20    43	 9 ;     OG3C51     CG3C53      NG3P3       HGP2
   36     6    20    21	 9 ;       HGA1     CG3C53      NG3P3       HGP2
   36     6    20    22	 9 ;       HGA1     CG3C53      NG3P3       HGP2
   36     6    20    43	 9 ;       HGA1     CG3C53      NG3P3       HGP2
    8     7    12    11	 9 ;     CG2R61     CG2R61     CG2R61     CG2R61
    8     7    12    13	 9 ;     CG2R61     CG2R61     CG2R61     OG3R60
    3     7    12    11	 9 ;     CG3C50     CG2R61     CG2R61     CG2R61
    3     7    12    13	 9 ;     CG3C50     CG2R61     CG2R61     OG3R60
   12     7     8     9	 9 ;     CG2R61     CG2R61     CG2R61     CG2R61
   12     7     8    37	 9 ;     CG2R61     CG2R61     CG2R61      HGR61
    3     7     8     9	 9 ;     CG3C50     CG2R61     CG2R61     CG2R61
    3     7     8    37	 9 ;     CG3C50     CG2R61     CG2R61      HGR61
    7     8     9    10	 9 ;     CG2R61     CG2R61     CG2R61     CG2R61
    7     8     9    23	 9 ;     CG2R61     CG2R61     CG2R61     CG2DC1
   37     8     9    10	 9 ;      HGR61     CG2R61     CG2R61     CG2R61
   37     8     9    23	 9 ;      HGR61     CG2R61     CG2R61     CG2DC1
   23     9    10    11	 9 ;     CG2DC1     CG2R61     CG2R61     CG2R61
   23     9    10    38	 9 ;     CG2DC1     CG2R61     CG2R61      HGR61
    8     9    10    11	 9 ;     CG2R61     CG2R61     CG2R61     CG2R61
    8     9    10    38	 9 ;     CG2R61     CG2R61     CG2R61      HGR61
   10     9    23    24	 9 ;     CG2R61     CG2R61     CG2DC1      CG321
   10     9    23    29	 9 ;     CG2R61     CG2R61     CG2DC1     CG2D1O
    8     9    23    24	 9 ;     CG2R61     CG2R61     CG2DC1      CG321
    8     9    23    29	 9 ;     CG2R61     CG2R61     CG2DC1     CG2D1O
    9    10    11    12	 9 ;     CG2R61     CG2R61     CG2R61     CG2R61
    9    10    11    39	 9 ;     CG2R61     CG2R61     CG2R61      HGR61
   38    10    11    12	 9 ;      HGR61     CG2R61     CG2R61     CG2R61
   38    10    11    39	 9 ;      HGR61     CG2R61     CG2R61      HGR61
   10    11    12    13	 9 ;     CG2R61     CG2R61     CG2R61     OG3R60
   10    11    12     7	 9 ;     CG2R61     CG2R61     CG2R61     CG2R61
   39    11    12    13	 9 ;      HGR61     CG2R61     CG2R61     OG3R60
   39    11    12     7	 9 ;      HGR61     CG2R61     CG2R61     CG2R61
   11    12    13    14	 9 ;     CG2R61     CG2R61     OG3R60     CG2R61
    7    12    13    14	 9 ;     CG2R61     CG2R61     OG3R60     CG2R61
   12    13    14    19	 9 ;     CG2R61     OG3R60     CG2R61     CG2R61
   12    13    14    15	 9 ;     CG2R61     OG3R60     CG2R61     CG2R61
   13    14    19    18	 9 ;     OG3R60     CG2R61     CG2R61     CG2R61
   13    14    19    42	 9 ;     OG3R60     CG2R61     CG2R61      HGR61
   15    14    19    18	 9 ;     CG2R61     CG2R61     CG2R61     CG2R61
   15    14    19    42	 9 ;     CG2R61     CG2R61     CG2R61      HGR61
   13    14    15     3	 9 ;     OG3R60     CG2R61     CG2R61     CG3C50
   13    14    15    16	 9 ;     OG3R60     CG2R61     CG2R61     CG2R61
   19    14    15     3	 9 ;     CG2R61     CG2R61     CG2R61     CG3C50
   19    14    15    16	 9 ;     CG2R61     CG2R61     CG2R61     CG2R61
   14    15    16    17	 9 ;     CG2R61     CG2R61     CG2R61     CG2R61
   14    15    16    40	 9 ;     CG2R61     CG2R61     CG2R61      HGR61
    3    15    16    17	 9 ;     CG3C50     CG2R61     CG2R61     CG2R61
    3    15    16    40	 9 ;     CG3C50     CG2R61     CG2R61      HGR61
   15    16    17    18	 9 ;     CG2R61     CG2R61     CG2R61     CG2R61
   15    16    17    31	 9 ;     CG2R61     CG2R61     CG2R61      OG301
   40    16    17    18	 9 ;      HGR61     CG2R61     CG2R61     CG2R61
   40    16    17    31	 9 ;      HGR61     CG2R61     CG2R61      OG301
   16    17    18    19	 9 ;     CG2R61     CG2R61     CG2R61     CG2R61
   16    17    18    41	 9 ;     CG2R61     CG2R61     CG2R61      HGR61
   31    17    18    19	 9 ;      OG301     CG2R61     CG2R61     CG2R61
   31    17    18    41	 9 ;      OG301     CG2R61     CG2R61      HGR61
   18    17    31    32	 9 ;     CG2R61     CG2R61      OG301      CG331
   16    17    31    32	 9 ;     CG2R61     CG2R61      OG301      CG331
   17    18    19    14	 9 ;     CG2R61     CG2R61     CG2R61     CG2R61
   17    18    19    42	 9 ;     CG2R61     CG2R61     CG2R61      HGR61
   41    18    19    14	 9 ;      HGR61     CG2R61     CG2R61     CG2R61
   41    18    19    42	 9 ;      HGR61     CG2R61     CG2R61      HGR61
    9    23    24    25	 9 ;     CG2R61     CG2DC1      CG321      NG311
    9    23    24    44	 9 ;     CG2R61     CG2DC1      CG321       HGA2
    9    23    24    50	 9 ;     CG2R61     CG2DC1      CG321       HGA2
   29    23    24    25	 9 ;     CG2D1O     CG2DC1      CG321      NG311
   29    23    24    44	 9 ;     CG2D1O     CG2DC1      CG321       HGA2
   29    23    24    50	 9 ;     CG2D1O     CG2DC1      CG321       HGA2
   24    23    29    28	 9 ;      CG321     CG2DC1     CG2D1O      NG311
   24    23    29    46	 9 ;      CG321     CG2DC1     CG2D1O       HGA4
    9    23    29    28	 9 ;     CG2R61     CG2DC1     CG2D1O      NG311
    9    23    29    46	 9 ;     CG2R61     CG2DC1     CG2D1O       HGA4
   23    24    25    27	 9 ;     CG2DC1      CG321      NG311     HGPAM1
   23    24    25    26	 9 ;     CG2DC1      CG321      NG311      CG321
   44    24    25    27	 9 ;       HGA2      CG321      NG311     HGPAM1
   44    24    25    26	 9 ;       HGA2      CG321      NG311      CG321
   50    24    25    27	 9 ;       HGA2      CG321      NG311     HGPAM1
   50    24    25    26	 9 ;       HGA2      CG321      NG311      CG321
   27    25    26    28	 9 ;     HGPAM1      NG311      CG321      NG311
   27    25    26    45	 9 ;     HGPAM1      NG311      CG321       HGA2
   27    25    26    51	 9 ;     HGPAM1      NG311      CG321       HGA2
   24    25    26    28	 9 ;      CG321      NG311      CG321      NG311
   24    25    26    45	 9 ;      CG321      NG311      CG321       HGA2
   24    25    26    51	 9 ;      CG321      NG311      CG321       HGA2
   25    26    28    29	 9 ;      NG311      CG321      NG311     CG2D1O
   25    26    28    30	 9 ;      NG311      CG321      NG311     HGPAM1
   45    26    28    29	 9 ;       HGA2      CG321      NG311     CG2D1O
   45    26    28    30	 9 ;       HGA2      CG321      NG311     HGPAM1
   51    26    28    29	 9 ;       HGA2      CG321      NG311     CG2D1O
   51    26    28    30	 9 ;       HGA2      CG321      NG311     HGPAM1
   26    28    29    23	 9 ;      CG321      NG311     CG2D1O     CG2DC1
   26    28    29    46	 9 ;      CG321      NG311     CG2D1O       HGA4
   30    28    29    23	 9 ;     HGPAM1      NG311     CG2D1O     CG2DC1
   30    28    29    46	 9 ;     HGPAM1      NG311     CG2D1O       HGA4
   17    31    32    47	 9 ;     CG2R61      OG301      CG331       HGA3
   17    31    32    48	 9 ;     CG2R61      OG301      CG331       HGA3
   17    31    32    49	 9 ;     CG2R61      OG301      CG331       HGA3

[ dihedrals ]
;	ai	  aj	ak	  al funct			  c0			c1			  c2			c3
   29    23    28    46	 2

