Gromacs Runs On Most of All Computer Systems
   42
    1LIG     C1    1  -1.379   0.525  -1.707
    1LIG     O5    2  -1.120   0.444  -1.755
    1LIG     C3    3  -1.167   0.219  -1.698
    1LIG     C4    4  -1.263   0.125  -1.657
    1LIG     C5    5  -1.037   0.178  -1.731
    1LIG     C6    6  -1.228  -0.010  -1.651
    1LIG     C7    7  -1.004   0.043  -1.723
    1LIG     C8    8  -1.099  -0.051  -1.683
    1LIG     C9    9  -1.337   0.406  -1.662
    1LIG    C10   10  -1.406   0.310  -1.569
    1LIG    C11   11  -1.201   0.363  -1.709
    1LIG    C12   12  -1.404   0.168  -1.625
    1LIG     N1   13  -1.499   0.715  -1.629
    1LIG     O4   14  -1.615   0.524  -1.686
    1LIG     C2   15  -1.510   0.585  -1.674
    1LIG     H3   16  -1.407   0.737  -1.591
    1LIG    C13   17  -1.616   0.783  -1.570
    1LIG    C15   18  -1.659   0.909  -1.649
    1LIG    C16   19  -1.590   0.923  -1.785
    1LIG    C17   20  -1.811   0.911  -1.672
    1LIG     O2   21  -1.553   0.747  -1.336
    1LIG    C14   22  -1.576   0.824  -1.427
    1LIG     O3   23  -1.577   0.959  -1.409
    1LIG     H2   24  -1.665   0.998  -1.425
    1LIG     O1   25  -0.879  -0.002  -1.753
    1LIG     H1   26  -0.815   0.040  -1.694
    1LIG     H4   27  -1.315   0.580  -1.767
    1LIG     H5   28  -0.966   0.247  -1.760
    1LIG     H6   29  -1.299  -0.080  -1.623
    1LIG     H7   30  -1.073  -0.151  -1.678
    1LIG     H8   31  -1.508   0.342  -1.557
    1LIG     H9   32  -1.355   0.311  -1.475
    1LIG    H10   33  -1.446   0.102  -1.553
    1LIG    H11   34  -1.462   0.166  -1.715
    1LIG     HA   35  -1.699   0.716  -1.572
    1LIG     HB   36  -1.629   0.992  -1.589
    1LIG   HG11   37  -1.619   0.841  -1.848
    1LIG   HG12   38  -1.484   0.922  -1.772
    1LIG   HG13   39  -1.620   1.015  -1.831
    1LIG   HG21   40  -1.839   0.827  -1.732
    1LIG   HG22   41  -1.839   1.002  -1.721
    1LIG   HG23   42  -1.861   0.905  -1.577
   0.00000   0.00000   0.00000
