; Created by cgenff_charmm2gmx.py

[ moleculetype ]
; Name			   nrexcl
LIG				 3

[ atoms ]
;	 nr		  type	resnr residue  atom   cgnr	   charge		mass  typeB    chargeB		massB
; residue	 1 LIG rtp LIG q	qsum
     1      SG3O2      1    LIG      S      1      0.113     32.060   ;
     2      OG2P1      1    LIG     O1      2     -0.300     15.999   ;
     3      OG2P1      1    LIG     O2      3     -0.300     15.999   ;
     4      CG321      1    LIG     C1      4      0.180     12.011   ;
     5      CG311      1    LIG     C2      5     -0.145     12.011   ;
     6      CG311      1    LIG     C3      6      0.100     12.011   ;
     7      CG314      1    LIG     C4      7     -0.043     12.011   ;
     8      CG321      1    LIG     C5      8      0.224     12.011   ;
     9      NG3P2      1    LIG      N      9     -0.444     14.007   ;
    10       HGP2      1    LIG     H1     10      0.346      1.008   ;
    11       HGP2      1    LIG     H2     11      0.346      1.008   ;
    12      CG324      1    LIG     C6     12      0.178     12.011   ;
    13     CG2R61      1    LIG     C7     13      0.035     12.011   ;
    14     CG2R61      1    LIG     C8     14     -0.117     12.011   ;
    15     CG2R61      1    LIG     C9     15     -0.017     12.011   ;
    16     CG2R61      1    LIG    C10     16     -0.114     12.011   ;
    17     CG2R61      1    LIG    C11     17     -0.109     12.011   ;
    18     CG2R61      1    LIG    C12     18     -0.119     12.011   ;
    19      CG311      1    LIG    C13     19     -0.088     12.011   ;
    20      CG331      1    LIG    C14     20     -0.264     12.011   ;
    21      CG331      1    LIG    C15     21     -0.264     12.011   ;
    22      OG311      1    LIG     O3     22     -0.595     15.999   ;
    23       HGP1      1    LIG     H3     23      0.422      1.008   ;
    24      CG321      1    LIG    C16     24     -0.087     12.011   ;
    25     CG2R61      1    LIG    C17     25     -0.031     12.011   ;
    26     CG2R61      1    LIG    C18     26     -0.129     12.011   ;
    27     CG2R61      1    LIG    C19     27      0.029     12.011   ;
    28     CG2R61      1    LIG    C20     28      0.093     12.011   ;
    29     CG2R61      1    LIG    C21     29     -0.109     12.011   ;
    30     CG2R61      1    LIG    C22     30     -0.121     12.011   ;
    31      CG321      1    LIG    C23     31     -0.184     12.011   ;
    32      CG331      1    LIG    C24     32     -0.271     12.011   ;
    33      OG311      1    LIG     O4     33     -0.537     15.999   ;
    34       HGP1      1    LIG     H4     34      0.421      1.008   ;
    35       HGA2      1    LIG    HC2     35      0.090      1.008   ;
    36       HGA2      1    LIG    HC3     36      0.090      1.008   ;
    37       HGA1      1    LIG     HC     37      0.090      1.008   ;
    38       HGA1      1    LIG    HC1     38      0.090      1.008   ;
    39       HGA1      1    LIG    HC4     39      0.109      1.008   ;
    40       HGA2      1    LIG    HC5     40      0.090      1.008   ;
    41       HGA2      1    LIG    HC6     41      0.090      1.008   ;
    42       HGA2      1    LIG    HC7     42      0.090      1.008   ;
    43       HGA2      1    LIG    HC8     43      0.090      1.008   ;
    44      HGR61      1    LIG    HC9     44      0.116      1.008   ;
    45      HGR61      1    LIG   HC10     45      0.116      1.008   ;
    46      HGR61      1    LIG   HC11     46      0.116      1.008   ;
    47      HGR61      1    LIG   HC12     47      0.116      1.008   ;
    48       HGA1      1    LIG   HC13     48      0.090      1.008   ;
    49       HGA2      1    LIG   HC14     49      0.090      1.008   ;
    50       HGA2      1    LIG   HC15     50      0.090      1.008   ;
    51      HGR61      1    LIG   HC16     51      0.116      1.008   ;
    52      HGR61      1    LIG   HC17     52      0.116      1.008   ;
    53      HGR61      1    LIG   HC18     53      0.116      1.008   ;
    54       HGA2      1    LIG   HC19     54      0.090      1.008   ;
    55       HGA2      1    LIG   HC20     55      0.090      1.008   ;
    56       HGA3      1    LIG   HC21     56      0.090      1.008   ;
    57       HGA3      1    LIG   HC22     57      0.090      1.008   ;
    58       HGA3      1    LIG   HC23     58      0.090      1.008   ;
    59       HGA3      1    LIG   HC24     59      0.090      1.008   ;
    60       HGA3      1    LIG   HC25     60      0.090      1.008   ;
    61       HGA3      1    LIG   HC26     61      0.090      1.008   ;
    62       HGA3      1    LIG   HC27     62      0.090      1.008   ;
    63       HGA3      1    LIG   HC28     63      0.090      1.008   ;
    64       HGA3      1    LIG   HC29     64      0.090      1.008   ;

[ bonds ]
;	ai	  aj funct			  c0			c1			  c2			c3
    1     4	 1 ;       SG3O2      CG321
    1     3	 1 ;       SG3O2      OG2P1
    1     8	 1 ;       SG3O2      CG321
    1     2	 1 ;       SG3O2      OG2P1
    4     5	 1 ;       CG321      CG311
    4    35	 1 ;       CG321       HGA2
    4    36	 1 ;       CG321       HGA2
    5    24	 1 ;       CG311      CG321
    5     6	 1 ;       CG311      CG311
    5    37	 1 ;       CG311       HGA1
    6    22	 1 ;       CG311      OG311
    6     7	 1 ;       CG311      CG314
    6    38	 1 ;       CG311       HGA1
    7     8	 1 ;       CG314      CG321
    7     9	 1 ;       CG314      NG3P2
    7    39	 1 ;       CG314       HGA1
    8    40	 1 ;       CG321       HGA2
    8    41	 1 ;       CG321       HGA2
    9    10	 1 ;       NG3P2       HGP2
    9    11	 1 ;       NG3P2       HGP2
    9    12	 1 ;       NG3P2      CG324
   12    13	 1 ;       CG324     CG2R61
   12    42	 1 ;       CG324       HGA2
   12    43	 1 ;       CG324       HGA2
   13    18	 1 ;      CG2R61     CG2R61
   13    14	 1 ;      CG2R61     CG2R61
   14    15	 1 ;      CG2R61     CG2R61
   14    44	 1 ;      CG2R61      HGR61
   15    16	 1 ;      CG2R61     CG2R61
   15    19	 1 ;      CG2R61      CG311
   16    17	 1 ;      CG2R61     CG2R61
   16    45	 1 ;      CG2R61      HGR61
   17    18	 1 ;      CG2R61     CG2R61
   17    46	 1 ;      CG2R61      HGR61
   18    47	 1 ;      CG2R61      HGR61
   19    20	 1 ;       CG311      CG331
   19    21	 1 ;       CG311      CG331
   19    48	 1 ;       CG311       HGA1
   20    56	 1 ;       CG331       HGA3
   20    57	 1 ;       CG331       HGA3
   20    58	 1 ;       CG331       HGA3
   21    59	 1 ;       CG331       HGA3
   21    60	 1 ;       CG331       HGA3
   21    61	 1 ;       CG331       HGA3
   22    23	 1 ;       OG311       HGP1
   24    25	 1 ;       CG321     CG2R61
   24    49	 1 ;       CG321       HGA2
   24    50	 1 ;       CG321       HGA2
   25    26	 1 ;      CG2R61     CG2R61
   25    30	 1 ;      CG2R61     CG2R61
   26    27	 1 ;      CG2R61     CG2R61
   26    51	 1 ;      CG2R61      HGR61
   27    31	 1 ;      CG2R61      CG321
   27    28	 1 ;      CG2R61     CG2R61
   28    29	 1 ;      CG2R61     CG2R61
   28    33	 1 ;      CG2R61      OG311
   29    30	 1 ;      CG2R61     CG2R61
   29    52	 1 ;      CG2R61      HGR61
   30    53	 1 ;      CG2R61      HGR61
   31    32	 1 ;       CG321      CG331
   31    54	 1 ;       CG321       HGA2
   31    55	 1 ;       CG321       HGA2
   32    62	 1 ;       CG331       HGA3
   32    63	 1 ;       CG331       HGA3
   32    64	 1 ;       CG331       HGA3
   33    34	 1 ;       OG311       HGP1

[ pairs ]
;	ai	  aj funct			  c0			c1			  c2			c3
    1    24	 1
    1     6	 1
    1    37	 1
    1     9	 1
    1    39	 1
    2     5	 1
    2    35	 1
    2    36	 1
    2     7	 1
    2    40	 1
    2    41	 1
    3     5	 1
    3    35	 1
    3    36	 1
    3     7	 1
    3    40	 1
    3    41	 1
    4     7	 1
    4    40	 1
    4    41	 1
    4    25	 1
    4    49	 1
    4    50	 1
    4    22	 1
    4    38	 1
    5     8	 1
    5    23	 1
    5     9	 1
    5    39	 1
    5    26	 1
    5    30	 1
    6    35	 1
    6    36	 1
    6    25	 1
    6    49	 1
    6    50	 1
    6    40	 1
    6    41	 1
    6    10	 1
    6    11	 1
    6    12	 1
    7    24	 1
    7    37	 1
    7    23	 1
    7    13	 1
    7    42	 1
    7    43	 1
    8    35	 1
    8    36	 1
    8    22	 1
    8    38	 1
    8    10	 1
    8    11	 1
    8    12	 1
    9    22	 1
    9    38	 1
    9    40	 1
    9    41	 1
    9    18	 1
    9    14	 1
   10    39	 1
   10    13	 1
   10    42	 1
   10    43	 1
   11    39	 1
   11    13	 1
   11    42	 1
   11    43	 1
   12    39	 1
   12    17	 1
   12    47	 1
   12    15	 1
   12    44	 1
   13    16	 1
   13    19	 1
   13    46	 1
   14    42	 1
   14    43	 1
   14    17	 1
   14    47	 1
   14    45	 1
   14    20	 1
   14    21	 1
   14    48	 1
   15    18	 1
   15    46	 1
   15    56	 1
   15    57	 1
   15    58	 1
   15    59	 1
   15    60	 1
   15    61	 1
   16    44	 1
   16    20	 1
   16    21	 1
   16    48	 1
   16    47	 1
   17    19	 1
   18    42	 1
   18    43	 1
   18    44	 1
   18    45	 1
   19    44	 1
   19    45	 1
   20    59	 1
   20    60	 1
   20    61	 1
   21    56	 1
   21    57	 1
   21    58	 1
   22    24	 1
   22    37	 1
   22    39	 1
   23    38	 1
   24    35	 1
   24    36	 1
   24    38	 1
   24    27	 1
   24    51	 1
   24    29	 1
   24    53	 1
   25    37	 1
   25    31	 1
   25    28	 1
   25    52	 1
   26    49	 1
   26    50	 1
   26    29	 1
   26    53	 1
   26    32	 1
   26    54	 1
   26    55	 1
   26    33	 1
   27    30	 1
   27    52	 1
   27    34	 1
   27    62	 1
   27    63	 1
   27    64	 1
   28    51	 1
   28    32	 1
   28    54	 1
   28    55	 1
   28    53	 1
   29    31	 1
   29    34	 1
   30    49	 1
   30    50	 1
   30    51	 1
   30    33	 1
   31    51	 1
   31    33	 1
   33    52	 1
   35    37	 1
   36    37	 1
   37    49	 1
   37    50	 1
   37    38	 1
   38    39	 1
   39    40	 1
   39    41	 1
   45    46	 1
   46    47	 1
   48    56	 1
   48    57	 1
   48    58	 1
   48    59	 1
   48    60	 1
   48    61	 1
   52    53	 1
   54    62	 1
   54    63	 1
   54    64	 1
   55    62	 1
   55    63	 1
   55    64	 1

[ angles ]
;	ai	  aj	ak funct			c0			  c1			c2			  c3
    4     1     3	5 ;      CG321      SG3O2      OG2P1
    4     1     8	5 ;      CG321      SG3O2      CG321
    4     1     2	5 ;      CG321      SG3O2      OG2P1
    3     1     8	5 ;      OG2P1      SG3O2      CG321
    3     1     2	5 ;      OG2P1      SG3O2      OG2P1
    8     1     2	5 ;      CG321      SG3O2      OG2P1
    5     4     1	5 ;      CG311      CG321      SG3O2
    5     4    35	5 ;      CG311      CG321       HGA2
    5     4    36	5 ;      CG311      CG321       HGA2
    1     4    35	5 ;      SG3O2      CG321       HGA2
    1     4    36	5 ;      SG3O2      CG321       HGA2
   35     4    36	5 ;       HGA2      CG321       HGA2
   24     5     4	5 ;      CG321      CG311      CG321
   24     5     6	5 ;      CG321      CG311      CG311
   24     5    37	5 ;      CG321      CG311       HGA1
    4     5     6	5 ;      CG321      CG311      CG311
    4     5    37	5 ;      CG321      CG311       HGA1
    6     5    37	5 ;      CG311      CG311       HGA1
   22     6     5	5 ;      OG311      CG311      CG311
   22     6     7	5 ;      OG311      CG311      CG314
   22     6    38	5 ;      OG311      CG311       HGA1
    5     6     7	5 ;      CG311      CG311      CG314
    5     6    38	5 ;      CG311      CG311       HGA1
    7     6    38	5 ;      CG314      CG311       HGA1
    6     7     8	5 ;      CG311      CG314      CG321
    6     7     9	5 ;      CG311      CG314      NG3P2
    6     7    39	5 ;      CG311      CG314       HGA1
    8     7     9	5 ;      CG321      CG314      NG3P2
    8     7    39	5 ;      CG321      CG314       HGA1
    9     7    39	5 ;      NG3P2      CG314       HGA1
    1     8     7	5 ;      SG3O2      CG321      CG314
    1     8    40	5 ;      SG3O2      CG321       HGA2
    1     8    41	5 ;      SG3O2      CG321       HGA2
    7     8    40	5 ;      CG314      CG321       HGA2
    7     8    41	5 ;      CG314      CG321       HGA2
   40     8    41	5 ;       HGA2      CG321       HGA2
    7     9    10	5 ;      CG314      NG3P2       HGP2
    7     9    11	5 ;      CG314      NG3P2       HGP2
    7     9    12	5 ;      CG314      NG3P2      CG324
   10     9    11	5 ;       HGP2      NG3P2       HGP2
   10     9    12	5 ;       HGP2      NG3P2      CG324
   11     9    12	5 ;       HGP2      NG3P2      CG324
    9    12    13	5 ;      NG3P2      CG324     CG2R61
    9    12    42	5 ;      NG3P2      CG324       HGA2
    9    12    43	5 ;      NG3P2      CG324       HGA2
   13    12    42	5 ;     CG2R61      CG324       HGA2
   13    12    43	5 ;     CG2R61      CG324       HGA2
   42    12    43	5 ;       HGA2      CG324       HGA2
   12    13    18	5 ;      CG324     CG2R61     CG2R61
   12    13    14	5 ;      CG324     CG2R61     CG2R61
   18    13    14	5 ;     CG2R61     CG2R61     CG2R61
   13    14    15	5 ;     CG2R61     CG2R61     CG2R61
   13    14    44	5 ;     CG2R61     CG2R61      HGR61
   15    14    44	5 ;     CG2R61     CG2R61      HGR61
   14    15    16	5 ;     CG2R61     CG2R61     CG2R61
   14    15    19	5 ;     CG2R61     CG2R61      CG311
   16    15    19	5 ;     CG2R61     CG2R61      CG311
   17    16    15	5 ;     CG2R61     CG2R61     CG2R61
   17    16    45	5 ;     CG2R61     CG2R61      HGR61
   15    16    45	5 ;     CG2R61     CG2R61      HGR61
   18    17    16	5 ;     CG2R61     CG2R61     CG2R61
   18    17    46	5 ;     CG2R61     CG2R61      HGR61
   16    17    46	5 ;     CG2R61     CG2R61      HGR61
   13    18    17	5 ;     CG2R61     CG2R61     CG2R61
   13    18    47	5 ;     CG2R61     CG2R61      HGR61
   17    18    47	5 ;     CG2R61     CG2R61      HGR61
   15    19    20	5 ;     CG2R61      CG311      CG331
   15    19    21	5 ;     CG2R61      CG311      CG331
   15    19    48	5 ;     CG2R61      CG311       HGA1
   20    19    21	5 ;      CG331      CG311      CG331
   20    19    48	5 ;      CG331      CG311       HGA1
   21    19    48	5 ;      CG331      CG311       HGA1
   19    20    56	5 ;      CG311      CG331       HGA3
   19    20    57	5 ;      CG311      CG331       HGA3
   19    20    58	5 ;      CG311      CG331       HGA3
   56    20    57	5 ;       HGA3      CG331       HGA3
   56    20    58	5 ;       HGA3      CG331       HGA3
   57    20    58	5 ;       HGA3      CG331       HGA3
   19    21    59	5 ;      CG311      CG331       HGA3
   19    21    60	5 ;      CG311      CG331       HGA3
   19    21    61	5 ;      CG311      CG331       HGA3
   59    21    60	5 ;       HGA3      CG331       HGA3
   59    21    61	5 ;       HGA3      CG331       HGA3
   60    21    61	5 ;       HGA3      CG331       HGA3
   23    22     6	5 ;       HGP1      OG311      CG311
   25    24     5	5 ;     CG2R61      CG321      CG311
   25    24    49	5 ;     CG2R61      CG321       HGA2
   25    24    50	5 ;     CG2R61      CG321       HGA2
    5    24    49	5 ;      CG311      CG321       HGA2
    5    24    50	5 ;      CG311      CG321       HGA2
   49    24    50	5 ;       HGA2      CG321       HGA2
   24    25    26	5 ;      CG321     CG2R61     CG2R61
   24    25    30	5 ;      CG321     CG2R61     CG2R61
   26    25    30	5 ;     CG2R61     CG2R61     CG2R61
   25    26    27	5 ;     CG2R61     CG2R61     CG2R61
   25    26    51	5 ;     CG2R61     CG2R61      HGR61
   27    26    51	5 ;     CG2R61     CG2R61      HGR61
   26    27    31	5 ;     CG2R61     CG2R61      CG321
   26    27    28	5 ;     CG2R61     CG2R61     CG2R61
   31    27    28	5 ;      CG321     CG2R61     CG2R61
   27    28    29	5 ;     CG2R61     CG2R61     CG2R61
   27    28    33	5 ;     CG2R61     CG2R61      OG311
   29    28    33	5 ;     CG2R61     CG2R61      OG311
   30    29    28	5 ;     CG2R61     CG2R61     CG2R61
   30    29    52	5 ;     CG2R61     CG2R61      HGR61
   28    29    52	5 ;     CG2R61     CG2R61      HGR61
   25    30    29	5 ;     CG2R61     CG2R61     CG2R61
   25    30    53	5 ;     CG2R61     CG2R61      HGR61
   29    30    53	5 ;     CG2R61     CG2R61      HGR61
   32    31    27	5 ;      CG331      CG321     CG2R61
   32    31    54	5 ;      CG331      CG321       HGA2
   32    31    55	5 ;      CG331      CG321       HGA2
   27    31    54	5 ;     CG2R61      CG321       HGA2
   27    31    55	5 ;     CG2R61      CG321       HGA2
   54    31    55	5 ;       HGA2      CG321       HGA2
   31    32    62	5 ;      CG321      CG331       HGA3
   31    32    63	5 ;      CG321      CG331       HGA3
   31    32    64	5 ;      CG321      CG331       HGA3
   62    32    63	5 ;       HGA3      CG331       HGA3
   62    32    64	5 ;       HGA3      CG331       HGA3
   63    32    64	5 ;       HGA3      CG331       HGA3
   28    33    34	5 ;     CG2R61      OG311       HGP1

[ dihedrals ]
;	ai	  aj	ak	  al funct			  c0			c1			  c2			c3			  c4			c5
    3     1     4     5	 9 ;      OG2P1      SG3O2      CG321      CG311
    3     1     4    35	 9 ;      OG2P1      SG3O2      CG321       HGA2
    3     1     4    36	 9 ;      OG2P1      SG3O2      CG321       HGA2
    8     1     4     5	 9 ;      CG321      SG3O2      CG321      CG311
    8     1     4    35	 9 ;      CG321      SG3O2      CG321       HGA2
    8     1     4    36	 9 ;      CG321      SG3O2      CG321       HGA2
    2     1     4     5	 9 ;      OG2P1      SG3O2      CG321      CG311
    2     1     4    35	 9 ;      OG2P1      SG3O2      CG321       HGA2
    2     1     4    36	 9 ;      OG2P1      SG3O2      CG321       HGA2
    4     1     8     7	 9 ;      CG321      SG3O2      CG321      CG314
    4     1     8    40	 9 ;      CG321      SG3O2      CG321       HGA2
    4     1     8    41	 9 ;      CG321      SG3O2      CG321       HGA2
    3     1     8     7	 9 ;      OG2P1      SG3O2      CG321      CG314
    3     1     8    40	 9 ;      OG2P1      SG3O2      CG321       HGA2
    3     1     8    41	 9 ;      OG2P1      SG3O2      CG321       HGA2
    2     1     8     7	 9 ;      OG2P1      SG3O2      CG321      CG314
    2     1     8    40	 9 ;      OG2P1      SG3O2      CG321       HGA2
    2     1     8    41	 9 ;      OG2P1      SG3O2      CG321       HGA2
    1     4     5    24	 9 ;      SG3O2      CG321      CG311      CG321
    1     4     5     6	 9 ;      SG3O2      CG321      CG311      CG311
    1     4     5    37	 9 ;      SG3O2      CG321      CG311       HGA1
   35     4     5    24	 9 ;       HGA2      CG321      CG311      CG321
   35     4     5     6	 9 ;       HGA2      CG321      CG311      CG311
   35     4     5    37	 9 ;       HGA2      CG321      CG311       HGA1
   36     4     5    24	 9 ;       HGA2      CG321      CG311      CG321
   36     4     5     6	 9 ;       HGA2      CG321      CG311      CG311
   36     4     5    37	 9 ;       HGA2      CG321      CG311       HGA1
    4     5    24    25	 9 ;      CG321      CG311      CG321     CG2R61
    4     5    24    49	 9 ;      CG321      CG311      CG321       HGA2
    4     5    24    50	 9 ;      CG321      CG311      CG321       HGA2
    6     5    24    25	 9 ;      CG311      CG311      CG321     CG2R61
    6     5    24    49	 9 ;      CG311      CG311      CG321       HGA2
    6     5    24    50	 9 ;      CG311      CG311      CG321       HGA2
   37     5    24    25	 9 ;       HGA1      CG311      CG321     CG2R61
   37     5    24    49	 9 ;       HGA1      CG311      CG321       HGA2
   37     5    24    50	 9 ;       HGA1      CG311      CG321       HGA2
   24     5     6    22	 9 ;      CG321      CG311      CG311      OG311
   24     5     6     7	 9 ;      CG321      CG311      CG311      CG314
   24     5     6    38	 9 ;      CG321      CG311      CG311       HGA1
    4     5     6    22	 9 ;      CG321      CG311      CG311      OG311
    4     5     6     7	 9 ;      CG321      CG311      CG311      CG314
    4     5     6    38	 9 ;      CG321      CG311      CG311       HGA1
   37     5     6    22	 9 ;       HGA1      CG311      CG311      OG311
   37     5     6     7	 9 ;       HGA1      CG311      CG311      CG314
   37     5     6    38	 9 ;       HGA1      CG311      CG311       HGA1
    5     6    22    23	 9 ;      CG311      CG311      OG311       HGP1
    7     6    22    23	 9 ;      CG314      CG311      OG311       HGP1
   38     6    22    23	 9 ;       HGA1      CG311      OG311       HGP1
   22     6     7     8	 9 ;      OG311      CG311      CG314      CG321
   22     6     7     9	 9 ;      OG311      CG311      CG314      NG3P2
   22     6     7    39	 9 ;      OG311      CG311      CG314       HGA1
    5     6     7     8	 9 ;      CG311      CG311      CG314      CG321
    5     6     7     9	 9 ;      CG311      CG311      CG314      NG3P2
    5     6     7    39	 9 ;      CG311      CG311      CG314       HGA1
   38     6     7     8	 9 ;       HGA1      CG311      CG314      CG321
   38     6     7     9	 9 ;       HGA1      CG311      CG314      NG3P2
   38     6     7    39	 9 ;       HGA1      CG311      CG314       HGA1
    6     7     8     1	 9 ;      CG311      CG314      CG321      SG3O2
    6     7     8    40	 9 ;      CG311      CG314      CG321       HGA2
    6     7     8    41	 9 ;      CG311      CG314      CG321       HGA2
    9     7     8     1	 9 ;      NG3P2      CG314      CG321      SG3O2
    9     7     8    40	 9 ;      NG3P2      CG314      CG321       HGA2
    9     7     8    41	 9 ;      NG3P2      CG314      CG321       HGA2
   39     7     8     1	 9 ;       HGA1      CG314      CG321      SG3O2
   39     7     8    40	 9 ;       HGA1      CG314      CG321       HGA2
   39     7     8    41	 9 ;       HGA1      CG314      CG321       HGA2
    6     7     9    10	 9 ;      CG311      CG314      NG3P2       HGP2
    6     7     9    11	 9 ;      CG311      CG314      NG3P2       HGP2
    6     7     9    12	 9 ;      CG311      CG314      NG3P2      CG324
    8     7     9    10	 9 ;      CG321      CG314      NG3P2       HGP2
    8     7     9    11	 9 ;      CG321      CG314      NG3P2       HGP2
    8     7     9    12	 9 ;      CG321      CG314      NG3P2      CG324
   39     7     9    10	 9 ;       HGA1      CG314      NG3P2       HGP2
   39     7     9    11	 9 ;       HGA1      CG314      NG3P2       HGP2
   39     7     9    12	 9 ;       HGA1      CG314      NG3P2      CG324
    7     9    12    13	 9 ;      CG314      NG3P2      CG324     CG2R61
    7     9    12    42	 9 ;      CG314      NG3P2      CG324       HGA2
    7     9    12    43	 9 ;      CG314      NG3P2      CG324       HGA2
   10     9    12    13	 9 ;       HGP2      NG3P2      CG324     CG2R61
   10     9    12    42	 9 ;       HGP2      NG3P2      CG324       HGA2
   10     9    12    43	 9 ;       HGP2      NG3P2      CG324       HGA2
   11     9    12    13	 9 ;       HGP2      NG3P2      CG324     CG2R61
   11     9    12    42	 9 ;       HGP2      NG3P2      CG324       HGA2
   11     9    12    43	 9 ;       HGP2      NG3P2      CG324       HGA2
    9    12    13    18	 9 ;      NG3P2      CG324     CG2R61     CG2R61
    9    12    13    14	 9 ;      NG3P2      CG324     CG2R61     CG2R61
   42    12    13    18	 9 ;       HGA2      CG324     CG2R61     CG2R61
   42    12    13    14	 9 ;       HGA2      CG324     CG2R61     CG2R61
   43    12    13    18	 9 ;       HGA2      CG324     CG2R61     CG2R61
   43    12    13    14	 9 ;       HGA2      CG324     CG2R61     CG2R61
   12    13    18    17	 9 ;      CG324     CG2R61     CG2R61     CG2R61
   12    13    18    47	 9 ;      CG324     CG2R61     CG2R61      HGR61
   14    13    18    17	 9 ;     CG2R61     CG2R61     CG2R61     CG2R61
   14    13    18    47	 9 ;     CG2R61     CG2R61     CG2R61      HGR61
   12    13    14    15	 9 ;      CG324     CG2R61     CG2R61     CG2R61
   12    13    14    44	 9 ;      CG324     CG2R61     CG2R61      HGR61
   18    13    14    15	 9 ;     CG2R61     CG2R61     CG2R61     CG2R61
   18    13    14    44	 9 ;     CG2R61     CG2R61     CG2R61      HGR61
   13    14    15    16	 9 ;     CG2R61     CG2R61     CG2R61     CG2R61
   13    14    15    19	 9 ;     CG2R61     CG2R61     CG2R61      CG311
   44    14    15    16	 9 ;      HGR61     CG2R61     CG2R61     CG2R61
   44    14    15    19	 9 ;      HGR61     CG2R61     CG2R61      CG311
   14    15    16    17	 9 ;     CG2R61     CG2R61     CG2R61     CG2R61
   14    15    16    45	 9 ;     CG2R61     CG2R61     CG2R61      HGR61
   19    15    16    17	 9 ;      CG311     CG2R61     CG2R61     CG2R61
   19    15    16    45	 9 ;      CG311     CG2R61     CG2R61      HGR61
   14    15    19    20	 9 ;     CG2R61     CG2R61      CG311      CG331
   14    15    19    21	 9 ;     CG2R61     CG2R61      CG311      CG331
   14    15    19    48	 9 ;     CG2R61     CG2R61      CG311       HGA1
   16    15    19    20	 9 ;     CG2R61     CG2R61      CG311      CG331
   16    15    19    21	 9 ;     CG2R61     CG2R61      CG311      CG331
   16    15    19    48	 9 ;     CG2R61     CG2R61      CG311       HGA1
   15    16    17    18	 9 ;     CG2R61     CG2R61     CG2R61     CG2R61
   15    16    17    46	 9 ;     CG2R61     CG2R61     CG2R61      HGR61
   45    16    17    18	 9 ;      HGR61     CG2R61     CG2R61     CG2R61
   45    16    17    46	 9 ;      HGR61     CG2R61     CG2R61      HGR61
   16    17    18    13	 9 ;     CG2R61     CG2R61     CG2R61     CG2R61
   16    17    18    47	 9 ;     CG2R61     CG2R61     CG2R61      HGR61
   46    17    18    13	 9 ;      HGR61     CG2R61     CG2R61     CG2R61
   46    17    18    47	 9 ;      HGR61     CG2R61     CG2R61      HGR61
   15    19    20    56	 9 ;     CG2R61      CG311      CG331       HGA3
   15    19    20    57	 9 ;     CG2R61      CG311      CG331       HGA3
   15    19    20    58	 9 ;     CG2R61      CG311      CG331       HGA3
   21    19    20    56	 9 ;      CG331      CG311      CG331       HGA3
   21    19    20    57	 9 ;      CG331      CG311      CG331       HGA3
   21    19    20    58	 9 ;      CG331      CG311      CG331       HGA3
   48    19    20    56	 9 ;       HGA1      CG311      CG331       HGA3
   48    19    20    57	 9 ;       HGA1      CG311      CG331       HGA3
   48    19    20    58	 9 ;       HGA1      CG311      CG331       HGA3
   15    19    21    59	 9 ;     CG2R61      CG311      CG331       HGA3
   15    19    21    60	 9 ;     CG2R61      CG311      CG331       HGA3
   15    19    21    61	 9 ;     CG2R61      CG311      CG331       HGA3
   20    19    21    59	 9 ;      CG331      CG311      CG331       HGA3
   20    19    21    60	 9 ;      CG331      CG311      CG331       HGA3
   20    19    21    61	 9 ;      CG331      CG311      CG331       HGA3
   48    19    21    59	 9 ;       HGA1      CG311      CG331       HGA3
   48    19    21    60	 9 ;       HGA1      CG311      CG331       HGA3
   48    19    21    61	 9 ;       HGA1      CG311      CG331       HGA3
    5    24    25    26	 9 ;      CG311      CG321     CG2R61     CG2R61
    5    24    25    30	 9 ;      CG311      CG321     CG2R61     CG2R61
   49    24    25    26	 9 ;       HGA2      CG321     CG2R61     CG2R61
   49    24    25    30	 9 ;       HGA2      CG321     CG2R61     CG2R61
   50    24    25    26	 9 ;       HGA2      CG321     CG2R61     CG2R61
   50    24    25    30	 9 ;       HGA2      CG321     CG2R61     CG2R61
   24    25    26    27	 9 ;      CG321     CG2R61     CG2R61     CG2R61
   24    25    26    51	 9 ;      CG321     CG2R61     CG2R61      HGR61
   30    25    26    27	 9 ;     CG2R61     CG2R61     CG2R61     CG2R61
   30    25    26    51	 9 ;     CG2R61     CG2R61     CG2R61      HGR61
   24    25    30    29	 9 ;      CG321     CG2R61     CG2R61     CG2R61
   24    25    30    53	 9 ;      CG321     CG2R61     CG2R61      HGR61
   26    25    30    29	 9 ;     CG2R61     CG2R61     CG2R61     CG2R61
   26    25    30    53	 9 ;     CG2R61     CG2R61     CG2R61      HGR61
   25    26    27    31	 9 ;     CG2R61     CG2R61     CG2R61      CG321
   25    26    27    28	 9 ;     CG2R61     CG2R61     CG2R61     CG2R61
   51    26    27    31	 9 ;      HGR61     CG2R61     CG2R61      CG321
   51    26    27    28	 9 ;      HGR61     CG2R61     CG2R61     CG2R61
   26    27    31    32	 9 ;     CG2R61     CG2R61      CG321      CG331
   26    27    31    54	 9 ;     CG2R61     CG2R61      CG321       HGA2
   26    27    31    55	 9 ;     CG2R61     CG2R61      CG321       HGA2
   28    27    31    32	 9 ;     CG2R61     CG2R61      CG321      CG331
   28    27    31    54	 9 ;     CG2R61     CG2R61      CG321       HGA2
   28    27    31    55	 9 ;     CG2R61     CG2R61      CG321       HGA2
   26    27    28    29	 9 ;     CG2R61     CG2R61     CG2R61     CG2R61
   26    27    28    33	 9 ;     CG2R61     CG2R61     CG2R61      OG311
   31    27    28    29	 9 ;      CG321     CG2R61     CG2R61     CG2R61
   31    27    28    33	 9 ;      CG321     CG2R61     CG2R61      OG311
   27    28    29    30	 9 ;     CG2R61     CG2R61     CG2R61     CG2R61
   27    28    29    52	 9 ;     CG2R61     CG2R61     CG2R61      HGR61
   33    28    29    30	 9 ;      OG311     CG2R61     CG2R61     CG2R61
   33    28    29    52	 9 ;      OG311     CG2R61     CG2R61      HGR61
   27    28    33    34	 9 ;     CG2R61     CG2R61      OG311       HGP1
   29    28    33    34	 9 ;     CG2R61     CG2R61      OG311       HGP1
   28    29    30    25	 9 ;     CG2R61     CG2R61     CG2R61     CG2R61
   28    29    30    53	 9 ;     CG2R61     CG2R61     CG2R61      HGR61
   52    29    30    25	 9 ;      HGR61     CG2R61     CG2R61     CG2R61
   52    29    30    53	 9 ;      HGR61     CG2R61     CG2R61      HGR61
   27    31    32    62	 9 ;     CG2R61      CG321      CG331       HGA3
   27    31    32    63	 9 ;     CG2R61      CG321      CG331       HGA3
   27    31    32    64	 9 ;     CG2R61      CG321      CG331       HGA3
   54    31    32    62	 9 ;       HGA2      CG321      CG331       HGA3
   54    31    32    63	 9 ;       HGA2      CG321      CG331       HGA3
   54    31    32    64	 9 ;       HGA2      CG321      CG331       HGA3
   55    31    32    62	 9 ;       HGA2      CG321      CG331       HGA3
   55    31    32    63	 9 ;       HGA2      CG321      CG331       HGA3
   55    31    32    64	 9 ;       HGA2      CG321      CG331       HGA3

