Gallium Rubidium Oxygen Manganese Argon Carbon Silicon
   64
    1LIG      S    1  -1.504   0.644  -1.712
    1LIG     O1    2  -1.570   0.647  -1.584
    1LIG     O2    3  -1.499   0.761  -1.799
    1LIG     C1    4  -1.340   0.580  -1.689
    1LIG     C2    5  -1.344   0.444  -1.617
    1LIG     C3    6  -1.425   0.339  -1.696
    1LIG     C4    7  -1.572   0.385  -1.722
    1LIG     C5    8  -1.580   0.514  -1.803
    1LIG      N    9  -1.648   0.393  -1.590
    1LIG     H1   10  -1.595   0.352  -1.513
    1LIG     H2   11  -1.663   0.492  -1.561
    1LIG     C6   12  -1.784   0.329  -1.586
    1LIG     C7   13  -1.869   0.400  -1.485
    1LIG     C8   14  -2.003   0.360  -1.467
    1LIG     C9   15  -2.077   0.405  -1.357
    1LIG    C10   16  -2.018   0.497  -1.269
    1LIG    C11   17  -1.887   0.541  -1.289
    1LIG    C12   18  -1.812   0.492  -1.396
    1LIG    C13   19  -2.217   0.351  -1.335
    1LIG    C14   20  -2.224   0.262  -1.211
    1LIG    C15   21  -2.319   0.464  -1.330
    1LIG     O3   22  -1.364   0.318  -1.823
    1LIG     H3   23  -1.414   0.365  -1.892
    1LIG    C16   24  -1.203   0.397  -1.583
    1LIG    C17   25  -1.202   0.327  -1.449
    1LIG    C18   26  -1.194   0.187  -1.442
    1LIG    C19   27  -1.228   0.118  -1.325
    1LIG    C20   28  -1.262   0.194  -1.212
    1LIG    C21   29  -1.256   0.334  -1.215
    1LIG    C22   30  -1.224   0.401  -1.332
    1LIG    C23   31  -1.236  -0.033  -1.331
    1LIG    C24   32  -1.134  -0.103  -1.243
    1LIG     O4   33  -1.306   0.141  -1.094
    1LIG     H4   34  -1.390   0.181  -1.069
    1LIG    HC2   35  -1.292   0.568  -1.786
    1LIG    HC3   36  -1.283   0.651  -1.629
    1LIG     HC   37  -1.396   0.459  -1.523
    1LIG    HC1   38  -1.426   0.245  -1.641
    1LIG    HC4   39  -1.620   0.307  -1.781
    1LIG    HC5   40  -1.684   0.539  -1.821
    1LIG    HC6   41  -1.528   0.501  -1.898
    1LIG    HC7   42  -1.774   0.224  -1.558
    1LIG    HC8   43  -1.831   0.336  -1.684
    1LIG    HC9   44  -2.049   0.295  -1.540
    1LIG   HC10   45  -2.075   0.534  -1.185
    1LIG   HC11   46  -1.844   0.613  -1.222
    1LIG   HC12   47  -1.711   0.525  -1.410
    1LIG   HC13   48  -2.242   0.289  -1.421
    1LIG   HC14   49  -1.168   0.327  -1.660
    1LIG   HC15   50  -1.136   0.483  -1.580
    1LIG   HC16   51  -1.161   0.132  -1.529
    1LIG   HC17   52  -1.277   0.390  -1.125
    1LIG   HC18   53  -1.215   0.508  -1.333
    1LIG   HC19   54  -1.336  -0.063  -1.299
    1LIG   HC20   55  -1.221  -0.064  -1.434
    1LIG   HC21   56  -2.149   0.182  -1.219
    1LIG   HC22   57  -2.323   0.218  -1.203
    1LIG   HC23   58  -2.203   0.322  -1.122
    1LIG   HC24   59  -2.311   0.525  -1.420
    1LIG   HC25   60  -2.419   0.423  -1.323
    1LIG   HC26   61  -2.300   0.526  -1.242
    1LIG   HC27   62  -1.145  -0.211  -1.252
    1LIG   HC28   63  -1.033  -0.074  -1.274
    1LIG   HC29   64  -1.150  -0.074  -1.139
   0.00000   0.00000   0.00000
