GRoups of Organic Molecules in ACtion for Science
   60
    1LIG     C1    1  -1.754   0.801  -1.452
    1LIG     C2    2  -1.711   0.674  -1.373
    1LIG     N1    3  -1.746   0.550  -1.450
    1LIG     H1    4  -1.847   0.541  -1.468
    1LIG     H2    5  -1.702   0.551  -1.543
    1LIG     C3    6  -1.701   0.424  -1.382
    1LIG     C4    7  -1.590   0.358  -1.460
    1LIG     C5    8  -1.456   0.374  -1.420
    1LIG     C6    9  -1.350   0.312  -1.488
    1LIG     C7   10  -1.383   0.231  -1.598
    1LIG     C8   11  -1.516   0.214  -1.639
    1LIG     C9   12  -1.619   0.276  -1.570
    1LIG    C10   13  -1.204   0.326  -1.440
    1LIG    C11   14  -1.179   0.215  -1.336
    1LIG    C12   15  -1.102   0.312  -1.556
    1LIG    C13   16  -1.175   0.462  -1.373
    1LIG     O1   17  -1.797   0.905  -1.365
    1LIG     H3   18  -1.880   0.947  -1.392
    1LIG    C14   19  -1.637   0.852  -1.541
    1LIG     N2   20  -1.645   0.999  -1.550
    1LIG    C15   21  -1.709   1.078  -1.641
    1LIG     O2   22  -1.697   1.199  -1.629
    1LIG    C16   23  -1.791   1.014  -1.749
    1LIG     H4   24  -1.577   1.054  -1.497
    1LIG    C17   25  -1.497   0.803  -1.494
    1LIG    C18   26  -1.424   0.723  -1.599
    1LIG    C19   27  -1.494   0.639  -1.686
    1LIG    C20   28  -1.424   0.553  -1.771
    1LIG     F1   29  -1.493   0.469  -1.850
    1LIG    C21   30  -1.286   0.550  -1.773
    1LIG    C22   31  -1.217   0.638  -1.690
    1LIG    C23   32  -1.284   0.725  -1.605
    1LIG     F2   33  -1.083   0.636  -1.689
    1LIG     HC   34  -1.838   0.774  -1.517
    1LIG    HC2   35  -1.762   0.673  -1.277
    1LIG    HC3   36  -1.603   0.678  -1.357
    1LIG    HC4   37  -1.785   0.355  -1.375
    1LIG    HC5   38  -1.665   0.448  -1.282
    1LIG    HC1   39  -1.435   0.436  -1.334
    1LIG    HC6   40  -1.304   0.181  -1.652
    1LIG    HC7   41  -1.538   0.151  -1.724
    1LIG    HC8   42  -1.721   0.262  -1.601
    1LIG    HC9   43  -1.199   0.118  -1.382
    1LIG   HC10   44  -1.244   0.229  -1.250
    1LIG   HC11   45  -1.075   0.219  -1.304
    1LIG   HC12   46  -1.118   0.216  -1.607
    1LIG   HC13   47  -1.115   0.393  -1.626
    1LIG   HC14   48  -1.001   0.314  -1.515
    1LIG   HC15   49  -1.244   0.478  -1.291
    1LIG   HC16   50  -1.187   0.542  -1.446
    1LIG   HC17   51  -1.072   0.463  -1.336
    1LIG   HC18   52  -1.653   0.813  -1.642
    1LIG   HC19   53  -1.836   1.092  -1.810
    1LIG   HC20   54  -1.869   0.953  -1.703
    1LIG   HC21   55  -1.727   0.951  -1.811
    1LIG   HC22   56  -1.437   0.891  -1.469
    1LIG   HC23   57  -1.510   0.742  -1.405
    1LIG   HC24   58  -1.602   0.640  -1.688
    1LIG   HC25   59  -1.233   0.481  -1.837
    1LIG   HC26   60  -1.229   0.794  -1.543
   0.00000   0.00000   0.00000
