; Created by cgenff_charmm2gmx.py

[ moleculetype ]
; Name			   nrexcl
LIG				 3

[ atoms ]
;	 nr		  type	resnr residue  atom   cgnr	   charge		mass  typeB    chargeB		massB
; residue	 1 LIG rtp LIG q	qsum
     1      CG311      1    LIG     C1      1      0.094     12.011   ;
     2      CG324      1    LIG     C2      2      0.178     12.011   ;
     3      NG3P2      1    LIG     N1      3     -0.444     14.007   ;
     4       HGP2      1    LIG     H1      4      0.348      1.008   ;
     5       HGP2      1    LIG     H2      5      0.348      1.008   ;
     6      CG324      1    LIG     C3      6      0.171     12.011   ;
     7     CG2R61      1    LIG     C4      7      0.036     12.011   ;
     8     CG2R61      1    LIG     C5      8     -0.124     12.011   ;
     9     CG2R61      1    LIG     C6      9      0.084     12.011   ;
    10     CG2R61      1    LIG     C7     10     -0.121     12.011   ;
    11     CG2R61      1    LIG     C8     11     -0.108     12.011   ;
    12     CG2R61      1    LIG     C9     12     -0.119     12.011   ;
    13      CG301      1    LIG    C10     13     -0.018     12.011   ;
    14      CG331      1    LIG    C11     14     -0.289     12.011   ;
    15      CG331      1    LIG    C12     15     -0.289     12.011   ;
    16      CG331      1    LIG    C13     16     -0.289     12.011   ;
    17      OG311      1    LIG     O1     17     -0.625     15.999   ;
    18       HGP1      1    LIG     H3     18      0.415      1.008   ;
    19      CG311      1    LIG    C14     19     -0.007     12.011   ;
    20      NG2S1      1    LIG     N2     20     -0.339     14.007   ;
    21      CG2O1      1    LIG    C15     21      0.488     12.011   ;
    22      OG2D1      1    LIG     O2     22     -0.509     15.999   ;
    23      CG331      1    LIG    C16     23     -0.270     12.011   ;
    24       HGP1      1    LIG     H4     24      0.261      1.008   ;
    25      CG321      1    LIG    C17     25     -0.153     12.011   ;
    26     CG2R61      1    LIG    C18     26      0.057     12.011   ;
    27     CG2R61      1    LIG    C19     27     -0.218     12.011   ;
    28     CG2R66      1    LIG    C20     28      0.261     12.011   ;
    29       FGR1      1    LIG     F1     29     -0.210     18.998   ;
    30     CG2R61      1    LIG    C21     30     -0.240     12.011   ;
    31     CG2R66      1    LIG    C22     31      0.261     12.011   ;
    32     CG2R61      1    LIG    C23     32     -0.218     12.011   ;
    33       FGR1      1    LIG     F2     33     -0.210     18.998   ;
    34       HGA1      1    LIG     HC     34      0.090      1.008   ;
    35       HGA2      1    LIG    HC2     35      0.090      1.008   ;
    36       HGA2      1    LIG    HC3     36      0.090      1.008   ;
    37       HGA2      1    LIG    HC4     37      0.090      1.008   ;
    38       HGA2      1    LIG    HC5     38      0.090      1.008   ;
    39      HGR61      1    LIG    HC1     39      0.116      1.008   ;
    40      HGR61      1    LIG    HC6     40      0.116      1.008   ;
    41      HGR61      1    LIG    HC7     41      0.116      1.008   ;
    42      HGR61      1    LIG    HC8     42      0.116      1.008   ;
    43       HGA3      1    LIG    HC9     43      0.090      1.008   ;
    44       HGA3      1    LIG   HC10     44      0.090      1.008   ;
    45       HGA3      1    LIG   HC11     45      0.090      1.008   ;
    46       HGA3      1    LIG   HC12     46      0.090      1.008   ;
    47       HGA3      1    LIG   HC13     47      0.090      1.008   ;
    48       HGA3      1    LIG   HC14     48      0.090      1.008   ;
    49       HGA3      1    LIG   HC15     49      0.090      1.008   ;
    50       HGA3      1    LIG   HC16     50      0.090      1.008   ;
    51       HGA3      1    LIG   HC17     51      0.090      1.008   ;
    52       HGA1      1    LIG   HC18     52      0.090      1.008   ;
    53       HGA3      1    LIG   HC19     53      0.090      1.008   ;
    54       HGA3      1    LIG   HC20     54      0.090      1.008   ;
    55       HGA3      1    LIG   HC21     55      0.090      1.008   ;
    56       HGA2      1    LIG   HC22     56      0.090      1.008   ;
    57       HGA2      1    LIG   HC23     57      0.090      1.008   ;
    58      HGR62      1    LIG   HC24     58      0.174      1.008   ;
    59      HGR62      1    LIG   HC25     59      0.186      1.008   ;
    60      HGR62      1    LIG   HC26     60      0.174      1.008   ;

[ bonds ]
;	ai	  aj funct			  c0			c1			  c2			c3
    1    19	 1 ;       CG311      CG311
    1    17	 1 ;       CG311      OG311
    1     2	 1 ;       CG311      CG324
    1    34	 1 ;       CG311       HGA1
    2     3	 1 ;       CG324      NG3P2
    2    35	 1 ;       CG324       HGA2
    2    36	 1 ;       CG324       HGA2
    3     5	 1 ;       NG3P2       HGP2
    3     4	 1 ;       NG3P2       HGP2
    3     6	 1 ;       NG3P2      CG324
    6     7	 1 ;       CG324     CG2R61
    6    37	 1 ;       CG324       HGA2
    6    38	 1 ;       CG324       HGA2
    7     8	 1 ;      CG2R61     CG2R61
    7    12	 1 ;      CG2R61     CG2R61
    8     9	 1 ;      CG2R61     CG2R61
    8    39	 1 ;      CG2R61      HGR61
    9    13	 1 ;      CG2R61      CG301
    9    10	 1 ;      CG2R61     CG2R61
   10    11	 1 ;      CG2R61     CG2R61
   10    40	 1 ;      CG2R61      HGR61
   11    12	 1 ;      CG2R61     CG2R61
   11    41	 1 ;      CG2R61      HGR61
   12    42	 1 ;      CG2R61      HGR61
   13    15	 1 ;       CG301      CG331
   13    16	 1 ;       CG301      CG331
   13    14	 1 ;       CG301      CG331
   14    43	 1 ;       CG331       HGA3
   14    44	 1 ;       CG331       HGA3
   14    45	 1 ;       CG331       HGA3
   15    46	 1 ;       CG331       HGA3
   15    47	 1 ;       CG331       HGA3
   15    48	 1 ;       CG331       HGA3
   16    49	 1 ;       CG331       HGA3
   16    50	 1 ;       CG331       HGA3
   16    51	 1 ;       CG331       HGA3
   17    18	 1 ;       OG311       HGP1
   19    20	 1 ;       CG311      NG2S1
   19    25	 1 ;       CG311      CG321
   19    52	 1 ;       CG311       HGA1
   20    21	 1 ;       NG2S1      CG2O1
   20    24	 1 ;       NG2S1       HGP1
   21    22	 1 ;       CG2O1      OG2D1
   21    23	 1 ;       CG2O1      CG331
   23    53	 1 ;       CG331       HGA3
   23    54	 1 ;       CG331       HGA3
   23    55	 1 ;       CG331       HGA3
   25    26	 1 ;       CG321     CG2R61
   25    56	 1 ;       CG321       HGA2
   25    57	 1 ;       CG321       HGA2
   26    32	 1 ;      CG2R61     CG2R61
   26    27	 1 ;      CG2R61     CG2R61
   27    28	 1 ;      CG2R61     CG2R66
   27    58	 1 ;      CG2R61      HGR62
   28    30	 1 ;      CG2R66     CG2R61
   28    29	 1 ;      CG2R66       FGR1
   30    31	 1 ;      CG2R61     CG2R66
   30    59	 1 ;      CG2R61      HGR62
   31    33	 1 ;      CG2R66       FGR1
   31    32	 1 ;      CG2R66     CG2R61
   32    60	 1 ;      CG2R61      HGR62

[ pairs ]
;	ai	  aj funct			  c0			c1			  c2			c3
    1     5	 1
    1     4	 1
    1     6	 1
    1    21	 1
    1    24	 1
    1    26	 1
    1    56	 1
    1    57	 1
    2    20	 1
    2    25	 1
    2    52	 1
    2    18	 1
    2     7	 1
    2    37	 1
    2    38	 1
    3    19	 1
    3    17	 1
    3    34	 1
    3     8	 1
    3    12	 1
    4    35	 1
    4    36	 1
    4     7	 1
    4    37	 1
    4    38	 1
    5    35	 1
    5    36	 1
    5     7	 1
    5    37	 1
    5    38	 1
    6    35	 1
    6    36	 1
    6     9	 1
    6    39	 1
    6    11	 1
    6    42	 1
    7    13	 1
    7    10	 1
    7    41	 1
    8    37	 1
    8    38	 1
    8    11	 1
    8    42	 1
    8    15	 1
    8    16	 1
    8    14	 1
    8    40	 1
    9    12	 1
    9    41	 1
    9    46	 1
    9    47	 1
    9    48	 1
    9    49	 1
    9    50	 1
    9    51	 1
    9    43	 1
    9    44	 1
    9    45	 1
   10    39	 1
   10    15	 1
   10    16	 1
   10    14	 1
   10    42	 1
   11    13	 1
   12    37	 1
   12    38	 1
   12    39	 1
   12    40	 1
   13    39	 1
   13    40	 1
   14    46	 1
   14    47	 1
   14    48	 1
   14    49	 1
   14    50	 1
   14    51	 1
   15    49	 1
   15    50	 1
   15    51	 1
   15    43	 1
   15    44	 1
   15    45	 1
   16    46	 1
   16    47	 1
   16    48	 1
   16    43	 1
   16    44	 1
   16    45	 1
   17    20	 1
   17    25	 1
   17    52	 1
   17    35	 1
   17    36	 1
   18    19	 1
   18    34	 1
   19    35	 1
   19    36	 1
   19    22	 1
   19    23	 1
   19    32	 1
   19    27	 1
   20    34	 1
   20    26	 1
   20    56	 1
   20    57	 1
   20    53	 1
   20    54	 1
   20    55	 1
   21    25	 1
   21    52	 1
   22    24	 1
   22    53	 1
   22    54	 1
   22    55	 1
   23    24	 1
   24    25	 1
   24    52	 1
   25    34	 1
   25    31	 1
   25    60	 1
   25    28	 1
   25    58	 1
   26    52	 1
   26    30	 1
   26    29	 1
   26    33	 1
   27    56	 1
   27    57	 1
   27    31	 1
   27    60	 1
   27    59	 1
   28    32	 1
   28    33	 1
   29    58	 1
   29    31	 1
   29    59	 1
   30    58	 1
   30    60	 1
   32    56	 1
   32    57	 1
   32    58	 1
   32    59	 1
   33    59	 1
   33    60	 1
   34    52	 1
   34    35	 1
   34    36	 1
   40    41	 1
   41    42	 1
   52    56	 1
   52    57	 1

[ angles ]
;	ai	  aj	ak funct			c0			  c1			c2			  c3
   19     1    17	5 ;      CG311      CG311      OG311
   19     1     2	5 ;      CG311      CG311      CG324
   19     1    34	5 ;      CG311      CG311       HGA1
   17     1     2	5 ;      OG311      CG311      CG324
   17     1    34	5 ;      OG311      CG311       HGA1
    2     1    34	5 ;      CG324      CG311       HGA1
    1     2     3	5 ;      CG311      CG324      NG3P2
    1     2    35	5 ;      CG311      CG324       HGA2
    1     2    36	5 ;      CG311      CG324       HGA2
    3     2    35	5 ;      NG3P2      CG324       HGA2
    3     2    36	5 ;      NG3P2      CG324       HGA2
   35     2    36	5 ;       HGA2      CG324       HGA2
    5     3     2	5 ;       HGP2      NG3P2      CG324
    5     3     4	5 ;       HGP2      NG3P2       HGP2
    5     3     6	5 ;       HGP2      NG3P2      CG324
    2     3     4	5 ;      CG324      NG3P2       HGP2
    2     3     6	5 ;      CG324      NG3P2      CG324
    4     3     6	5 ;       HGP2      NG3P2      CG324
    7     6     3	5 ;     CG2R61      CG324      NG3P2
    7     6    37	5 ;     CG2R61      CG324       HGA2
    7     6    38	5 ;     CG2R61      CG324       HGA2
    3     6    37	5 ;      NG3P2      CG324       HGA2
    3     6    38	5 ;      NG3P2      CG324       HGA2
   37     6    38	5 ;       HGA2      CG324       HGA2
    8     7    12	5 ;     CG2R61     CG2R61     CG2R61
    8     7     6	5 ;     CG2R61     CG2R61      CG324
   12     7     6	5 ;     CG2R61     CG2R61      CG324
    9     8     7	5 ;     CG2R61     CG2R61     CG2R61
    9     8    39	5 ;     CG2R61     CG2R61      HGR61
    7     8    39	5 ;     CG2R61     CG2R61      HGR61
   13     9    10	5 ;      CG301     CG2R61     CG2R61
   13     9     8	5 ;      CG301     CG2R61     CG2R61
   10     9     8	5 ;     CG2R61     CG2R61     CG2R61
    9    10    11	5 ;     CG2R61     CG2R61     CG2R61
    9    10    40	5 ;     CG2R61     CG2R61      HGR61
   11    10    40	5 ;     CG2R61     CG2R61      HGR61
   10    11    12	5 ;     CG2R61     CG2R61     CG2R61
   10    11    41	5 ;     CG2R61     CG2R61      HGR61
   12    11    41	5 ;     CG2R61     CG2R61      HGR61
   11    12     7	5 ;     CG2R61     CG2R61     CG2R61
   11    12    42	5 ;     CG2R61     CG2R61      HGR61
    7    12    42	5 ;     CG2R61     CG2R61      HGR61
   15    13    16	5 ;      CG331      CG301      CG331
   15    13     9	5 ;      CG331      CG301     CG2R61
   15    13    14	5 ;      CG331      CG301      CG331
   16    13     9	5 ;      CG331      CG301     CG2R61
   16    13    14	5 ;      CG331      CG301      CG331
    9    13    14	5 ;     CG2R61      CG301      CG331
   13    14    43	5 ;      CG301      CG331       HGA3
   13    14    44	5 ;      CG301      CG331       HGA3
   13    14    45	5 ;      CG301      CG331       HGA3
   43    14    44	5 ;       HGA3      CG331       HGA3
   43    14    45	5 ;       HGA3      CG331       HGA3
   44    14    45	5 ;       HGA3      CG331       HGA3
   13    15    46	5 ;      CG301      CG331       HGA3
   13    15    47	5 ;      CG301      CG331       HGA3
   13    15    48	5 ;      CG301      CG331       HGA3
   46    15    47	5 ;       HGA3      CG331       HGA3
   46    15    48	5 ;       HGA3      CG331       HGA3
   47    15    48	5 ;       HGA3      CG331       HGA3
   13    16    49	5 ;      CG301      CG331       HGA3
   13    16    50	5 ;      CG301      CG331       HGA3
   13    16    51	5 ;      CG301      CG331       HGA3
   49    16    50	5 ;       HGA3      CG331       HGA3
   49    16    51	5 ;       HGA3      CG331       HGA3
   50    16    51	5 ;       HGA3      CG331       HGA3
    1    17    18	5 ;      CG311      OG311       HGP1
   20    19    25	5 ;      NG2S1      CG311      CG321
   20    19     1	5 ;      NG2S1      CG311      CG311
   20    19    52	5 ;      NG2S1      CG311       HGA1
   25    19     1	5 ;      CG321      CG311      CG311
   25    19    52	5 ;      CG321      CG311       HGA1
    1    19    52	5 ;      CG311      CG311       HGA1
   21    20    24	5 ;      CG2O1      NG2S1       HGP1
   21    20    19	5 ;      CG2O1      NG2S1      CG311
   24    20    19	5 ;       HGP1      NG2S1      CG311
   22    21    23	5 ;      OG2D1      CG2O1      CG331
   22    21    20	5 ;      OG2D1      CG2O1      NG2S1
   23    21    20	5 ;      CG331      CG2O1      NG2S1
   21    23    53	5 ;      CG2O1      CG331       HGA3
   21    23    54	5 ;      CG2O1      CG331       HGA3
   21    23    55	5 ;      CG2O1      CG331       HGA3
   53    23    54	5 ;       HGA3      CG331       HGA3
   53    23    55	5 ;       HGA3      CG331       HGA3
   54    23    55	5 ;       HGA3      CG331       HGA3
   26    25    19	5 ;     CG2R61      CG321      CG311
   26    25    56	5 ;     CG2R61      CG321       HGA2
   26    25    57	5 ;     CG2R61      CG321       HGA2
   19    25    56	5 ;      CG311      CG321       HGA2
   19    25    57	5 ;      CG311      CG321       HGA2
   56    25    57	5 ;       HGA2      CG321       HGA2
   32    26    27	5 ;     CG2R61     CG2R61     CG2R61
   32    26    25	5 ;     CG2R61     CG2R61      CG321
   27    26    25	5 ;     CG2R61     CG2R61      CG321
   28    27    26	5 ;     CG2R66     CG2R61     CG2R61
   28    27    58	5 ;     CG2R66     CG2R61      HGR62
   26    27    58	5 ;     CG2R61     CG2R61      HGR62
   30    28    29	5 ;     CG2R61     CG2R66       FGR1
   30    28    27	5 ;     CG2R61     CG2R66     CG2R61
   29    28    27	5 ;       FGR1     CG2R66     CG2R61
   31    30    28	5 ;     CG2R66     CG2R61     CG2R66
   31    30    59	5 ;     CG2R66     CG2R61      HGR62
   28    30    59	5 ;     CG2R66     CG2R61      HGR62
   33    31    30	5 ;       FGR1     CG2R66     CG2R61
   33    31    32	5 ;       FGR1     CG2R66     CG2R61
   30    31    32	5 ;     CG2R61     CG2R66     CG2R61
   31    32    26	5 ;     CG2R66     CG2R61     CG2R61
   31    32    60	5 ;     CG2R66     CG2R61      HGR62
   26    32    60	5 ;     CG2R61     CG2R61      HGR62

[ dihedrals ]
;	ai	  aj	ak	  al funct			  c0			c1			  c2			c3			  c4			c5
   17     1    19    20	 9 ;      OG311      CG311      CG311      NG2S1
   17     1    19    25	 9 ;      OG311      CG311      CG311      CG321
   17     1    19    52	 9 ;      OG311      CG311      CG311       HGA1
    2     1    19    20	 9 ;      CG324      CG311      CG311      NG2S1
    2     1    19    25	 9 ;      CG324      CG311      CG311      CG321
    2     1    19    52	 9 ;      CG324      CG311      CG311       HGA1
   34     1    19    20	 9 ;       HGA1      CG311      CG311      NG2S1
   34     1    19    25	 9 ;       HGA1      CG311      CG311      CG321
   34     1    19    52	 9 ;       HGA1      CG311      CG311       HGA1
   19     1    17    18	 9 ;      CG311      CG311      OG311       HGP1
    2     1    17    18	 9 ;      CG324      CG311      OG311       HGP1
   34     1    17    18	 9 ;       HGA1      CG311      OG311       HGP1
   19     1     2     3	 9 ;      CG311      CG311      CG324      NG3P2
   19     1     2    35	 9 ;      CG311      CG311      CG324       HGA2
   19     1     2    36	 9 ;      CG311      CG311      CG324       HGA2
   17     1     2     3	 9 ;      OG311      CG311      CG324      NG3P2
   17     1     2    35	 9 ;      OG311      CG311      CG324       HGA2
   17     1     2    36	 9 ;      OG311      CG311      CG324       HGA2
   34     1     2     3	 9 ;       HGA1      CG311      CG324      NG3P2
   34     1     2    35	 9 ;       HGA1      CG311      CG324       HGA2
   34     1     2    36	 9 ;       HGA1      CG311      CG324       HGA2
    1     2     3     5	 9 ;      CG311      CG324      NG3P2       HGP2
    1     2     3     4	 9 ;      CG311      CG324      NG3P2       HGP2
    1     2     3     6	 9 ;      CG311      CG324      NG3P2      CG324
   35     2     3     5	 9 ;       HGA2      CG324      NG3P2       HGP2
   35     2     3     4	 9 ;       HGA2      CG324      NG3P2       HGP2
   35     2     3     6	 9 ;       HGA2      CG324      NG3P2      CG324
   36     2     3     5	 9 ;       HGA2      CG324      NG3P2       HGP2
   36     2     3     4	 9 ;       HGA2      CG324      NG3P2       HGP2
   36     2     3     6	 9 ;       HGA2      CG324      NG3P2      CG324
    5     3     6     7	 9 ;       HGP2      NG3P2      CG324     CG2R61
    5     3     6    37	 9 ;       HGP2      NG3P2      CG324       HGA2
    5     3     6    38	 9 ;       HGP2      NG3P2      CG324       HGA2
    2     3     6     7	 9 ;      CG324      NG3P2      CG324     CG2R61
    2     3     6    37	 9 ;      CG324      NG3P2      CG324       HGA2
    2     3     6    38	 9 ;      CG324      NG3P2      CG324       HGA2
    4     3     6     7	 9 ;       HGP2      NG3P2      CG324     CG2R61
    4     3     6    37	 9 ;       HGP2      NG3P2      CG324       HGA2
    4     3     6    38	 9 ;       HGP2      NG3P2      CG324       HGA2
    3     6     7     8	 9 ;      NG3P2      CG324     CG2R61     CG2R61
    3     6     7    12	 9 ;      NG3P2      CG324     CG2R61     CG2R61
   37     6     7     8	 9 ;       HGA2      CG324     CG2R61     CG2R61
   37     6     7    12	 9 ;       HGA2      CG324     CG2R61     CG2R61
   38     6     7     8	 9 ;       HGA2      CG324     CG2R61     CG2R61
   38     6     7    12	 9 ;       HGA2      CG324     CG2R61     CG2R61
   12     7     8     9	 9 ;     CG2R61     CG2R61     CG2R61     CG2R61
   12     7     8    39	 9 ;     CG2R61     CG2R61     CG2R61      HGR61
    6     7     8     9	 9 ;      CG324     CG2R61     CG2R61     CG2R61
    6     7     8    39	 9 ;      CG324     CG2R61     CG2R61      HGR61
    8     7    12    11	 9 ;     CG2R61     CG2R61     CG2R61     CG2R61
    8     7    12    42	 9 ;     CG2R61     CG2R61     CG2R61      HGR61
    6     7    12    11	 9 ;      CG324     CG2R61     CG2R61     CG2R61
    6     7    12    42	 9 ;      CG324     CG2R61     CG2R61      HGR61
    7     8     9    13	 9 ;     CG2R61     CG2R61     CG2R61      CG301
    7     8     9    10	 9 ;     CG2R61     CG2R61     CG2R61     CG2R61
   39     8     9    13	 9 ;      HGR61     CG2R61     CG2R61      CG301
   39     8     9    10	 9 ;      HGR61     CG2R61     CG2R61     CG2R61
   10     9    13    15	 9 ;     CG2R61     CG2R61      CG301      CG331
   10     9    13    16	 9 ;     CG2R61     CG2R61      CG301      CG331
   10     9    13    14	 9 ;     CG2R61     CG2R61      CG301      CG331
    8     9    13    15	 9 ;     CG2R61     CG2R61      CG301      CG331
    8     9    13    16	 9 ;     CG2R61     CG2R61      CG301      CG331
    8     9    13    14	 9 ;     CG2R61     CG2R61      CG301      CG331
   13     9    10    11	 9 ;      CG301     CG2R61     CG2R61     CG2R61
   13     9    10    40	 9 ;      CG301     CG2R61     CG2R61      HGR61
    8     9    10    11	 9 ;     CG2R61     CG2R61     CG2R61     CG2R61
    8     9    10    40	 9 ;     CG2R61     CG2R61     CG2R61      HGR61
    9    10    11    12	 9 ;     CG2R61     CG2R61     CG2R61     CG2R61
    9    10    11    41	 9 ;     CG2R61     CG2R61     CG2R61      HGR61
   40    10    11    12	 9 ;      HGR61     CG2R61     CG2R61     CG2R61
   40    10    11    41	 9 ;      HGR61     CG2R61     CG2R61      HGR61
   10    11    12     7	 9 ;     CG2R61     CG2R61     CG2R61     CG2R61
   10    11    12    42	 9 ;     CG2R61     CG2R61     CG2R61      HGR61
   41    11    12     7	 9 ;      HGR61     CG2R61     CG2R61     CG2R61
   41    11    12    42	 9 ;      HGR61     CG2R61     CG2R61      HGR61
   16    13    15    46	 9 ;      CG331      CG301      CG331       HGA3
   16    13    15    47	 9 ;      CG331      CG301      CG331       HGA3
   16    13    15    48	 9 ;      CG331      CG301      CG331       HGA3
    9    13    15    46	 9 ;     CG2R61      CG301      CG331       HGA3
    9    13    15    47	 9 ;     CG2R61      CG301      CG331       HGA3
    9    13    15    48	 9 ;     CG2R61      CG301      CG331       HGA3
   14    13    15    46	 9 ;      CG331      CG301      CG331       HGA3
   14    13    15    47	 9 ;      CG331      CG301      CG331       HGA3
   14    13    15    48	 9 ;      CG331      CG301      CG331       HGA3
   15    13    16    49	 9 ;      CG331      CG301      CG331       HGA3
   15    13    16    50	 9 ;      CG331      CG301      CG331       HGA3
   15    13    16    51	 9 ;      CG331      CG301      CG331       HGA3
    9    13    16    49	 9 ;     CG2R61      CG301      CG331       HGA3
    9    13    16    50	 9 ;     CG2R61      CG301      CG331       HGA3
    9    13    16    51	 9 ;     CG2R61      CG301      CG331       HGA3
   14    13    16    49	 9 ;      CG331      CG301      CG331       HGA3
   14    13    16    50	 9 ;      CG331      CG301      CG331       HGA3
   14    13    16    51	 9 ;      CG331      CG301      CG331       HGA3
   15    13    14    43	 9 ;      CG331      CG301      CG331       HGA3
   15    13    14    44	 9 ;      CG331      CG301      CG331       HGA3
   15    13    14    45	 9 ;      CG331      CG301      CG331       HGA3
   16    13    14    43	 9 ;      CG331      CG301      CG331       HGA3
   16    13    14    44	 9 ;      CG331      CG301      CG331       HGA3
   16    13    14    45	 9 ;      CG331      CG301      CG331       HGA3
    9    13    14    43	 9 ;     CG2R61      CG301      CG331       HGA3
    9    13    14    44	 9 ;     CG2R61      CG301      CG331       HGA3
    9    13    14    45	 9 ;     CG2R61      CG301      CG331       HGA3
   25    19    20    21	 9 ;      CG321      CG311      NG2S1      CG2O1
   25    19    20    24	 9 ;      CG321      CG311      NG2S1       HGP1
    1    19    20    21	 9 ;      CG311      CG311      NG2S1      CG2O1
    1    19    20    24	 9 ;      CG311      CG311      NG2S1       HGP1
   52    19    20    21	 9 ;       HGA1      CG311      NG2S1      CG2O1
   52    19    20    24	 9 ;       HGA1      CG311      NG2S1       HGP1
   20    19    25    26	 9 ;      NG2S1      CG311      CG321     CG2R61
   20    19    25    56	 9 ;      NG2S1      CG311      CG321       HGA2
   20    19    25    57	 9 ;      NG2S1      CG311      CG321       HGA2
    1    19    25    26	 9 ;      CG311      CG311      CG321     CG2R61
    1    19    25    56	 9 ;      CG311      CG311      CG321       HGA2
    1    19    25    57	 9 ;      CG311      CG311      CG321       HGA2
   52    19    25    26	 9 ;       HGA1      CG311      CG321     CG2R61
   52    19    25    56	 9 ;       HGA1      CG311      CG321       HGA2
   52    19    25    57	 9 ;       HGA1      CG311      CG321       HGA2
   24    20    21    22	 9 ;       HGP1      NG2S1      CG2O1      OG2D1
   24    20    21    23	 9 ;       HGP1      NG2S1      CG2O1      CG331
   19    20    21    22	 9 ;      CG311      NG2S1      CG2O1      OG2D1
   19    20    21    23	 9 ;      CG311      NG2S1      CG2O1      CG331
   22    21    23    53	 9 ;      OG2D1      CG2O1      CG331       HGA3
   22    21    23    54	 9 ;      OG2D1      CG2O1      CG331       HGA3
   22    21    23    55	 9 ;      OG2D1      CG2O1      CG331       HGA3
   20    21    23    53	 9 ;      NG2S1      CG2O1      CG331       HGA3
   20    21    23    54	 9 ;      NG2S1      CG2O1      CG331       HGA3
   20    21    23    55	 9 ;      NG2S1      CG2O1      CG331       HGA3
   19    25    26    32	 9 ;      CG311      CG321     CG2R61     CG2R61
   19    25    26    27	 9 ;      CG311      CG321     CG2R61     CG2R61
   56    25    26    32	 9 ;       HGA2      CG321     CG2R61     CG2R61
   56    25    26    27	 9 ;       HGA2      CG321     CG2R61     CG2R61
   57    25    26    32	 9 ;       HGA2      CG321     CG2R61     CG2R61
   57    25    26    27	 9 ;       HGA2      CG321     CG2R61     CG2R61
   27    26    32    31	 9 ;     CG2R61     CG2R61     CG2R61     CG2R66
   27    26    32    60	 9 ;     CG2R61     CG2R61     CG2R61      HGR62
   25    26    32    31	 9 ;      CG321     CG2R61     CG2R61     CG2R66
   25    26    32    60	 9 ;      CG321     CG2R61     CG2R61      HGR62
   32    26    27    28	 9 ;     CG2R61     CG2R61     CG2R61     CG2R66
   32    26    27    58	 9 ;     CG2R61     CG2R61     CG2R61      HGR62
   25    26    27    28	 9 ;      CG321     CG2R61     CG2R61     CG2R66
   25    26    27    58	 9 ;      CG321     CG2R61     CG2R61      HGR62
   26    27    28    30	 9 ;     CG2R61     CG2R61     CG2R66     CG2R61
   26    27    28    29	 9 ;     CG2R61     CG2R61     CG2R66       FGR1
   58    27    28    30	 9 ;      HGR62     CG2R61     CG2R66     CG2R61
   58    27    28    29	 9 ;      HGR62     CG2R61     CG2R66       FGR1
   29    28    30    31	 9 ;       FGR1     CG2R66     CG2R61     CG2R66
   29    28    30    59	 9 ;       FGR1     CG2R66     CG2R61      HGR62
   27    28    30    31	 9 ;     CG2R61     CG2R66     CG2R61     CG2R66
   27    28    30    59	 9 ;     CG2R61     CG2R66     CG2R61      HGR62
   28    30    31    33	 9 ;     CG2R66     CG2R61     CG2R66       FGR1
   28    30    31    32	 9 ;     CG2R66     CG2R61     CG2R66     CG2R61
   59    30    31    33	 9 ;      HGR62     CG2R61     CG2R66       FGR1
   59    30    31    32	 9 ;      HGR62     CG2R61     CG2R66     CG2R61
   33    31    32    26	 9 ;       FGR1     CG2R66     CG2R61     CG2R61
   33    31    32    60	 9 ;       FGR1     CG2R66     CG2R61      HGR62
   30    31    32    26	 9 ;     CG2R61     CG2R66     CG2R61     CG2R61
   30    31    32    60	 9 ;     CG2R61     CG2R66     CG2R61      HGR62

[ dihedrals ]
;	ai	  aj	ak	  al funct			  c0			c1			  c2			c3
   21    23    20    22	 2

