Grunge ROck MAChoS
   76
    1LIG     N1    1  -1.729   0.637  -1.634
    1LIG     H1    2  -1.689   0.715  -1.580
    1LIG     H2    3  -1.813   0.678  -1.677
    1LIG     C1    4  -1.624   0.612  -1.749
    1LIG     C2    5  -1.561   0.739  -1.817
    1LIG     C3    6  -1.438   0.808  -1.743
    1LIG     N2    7  -1.458   0.952  -1.718
    1LIG     C4    8  -1.573   0.995  -1.651
    1LIG     O1    9  -1.652   0.917  -1.598
    1LIG     C5   10  -1.594   1.144  -1.650
    1LIG     H3   11  -1.419   1.017  -1.785
    1LIG     C6   12  -1.403   0.737  -1.607
    1LIG     C7   13  -1.277   0.654  -1.618
    1LIG     C8   14  -1.156   0.707  -1.572
    1LIG     C9   15  -1.036   0.642  -1.602
    1LIG     F1   16  -0.920   0.697  -1.564
    1LIG    C10   17  -1.035   0.524  -1.675
    1LIG    C11   18  -1.155   0.468  -1.714
    1LIG    C12   19  -1.277   0.531  -1.684
    1LIG     F2   20  -1.156   0.355  -1.786
    1LIG     O2   21  -1.520   0.706  -1.949
    1LIG     H4   22  -1.424   0.717  -1.955
    1LIG    C13   23  -1.781   0.539  -1.523
    1LIG    C14   24  -1.925   0.490  -1.553
    1LIG    C15   25  -1.982   0.406  -1.437
    1LIG    C16   26  -1.981   0.480  -1.304
    1LIG    C17   27  -1.844   0.539  -1.271
    1LIG    C18   28  -1.789   0.620  -1.390
    1LIG    C19   29  -1.680   0.416  -1.509
    1LIG    C20   30  -1.550   0.423  -1.447
    1LIG    C21   31  -1.457   0.314  -1.449
    1LIG    C22   32  -1.494   0.198  -1.518
    1LIG    C23   33  -1.621   0.187  -1.575
    1LIG    C24   34  -1.713   0.292  -1.567
    1LIG    C25   35  -1.326   0.308  -1.364
    1LIG    C26   36  -1.342   0.229  -1.232
    1LIG    C27   37  -1.223   0.229  -1.450
    1LIG    C28   38  -1.253   0.444  -1.332
    1LIG    C29   39  -1.177   0.458  -1.201
    1LIG    HC2   40  -1.542   0.555  -1.706
    1LIG    HC3   41  -1.671   0.552  -1.826
    1LIG     HC   42  -1.640   0.814  -1.826
    1LIG    HC1   43  -1.351   0.798  -1.808
    1LIG    HC4   44  -1.486   0.672  -1.578
    1LIG    HC5   45  -1.389   0.813  -1.530
    1LIG    HC6   46  -1.155   0.798  -1.513
    1LIG    HC7   47  -0.941   0.477  -1.701
    1LIG    HC8   48  -1.370   0.484  -1.712
    1LIG    HC9   49  -1.989   0.577  -1.569
    1LIG   HC10   50  -1.923   0.429  -1.644
    1LIG   HC11   51  -2.085   0.379  -1.461
    1LIG   HC12   52  -1.923   0.315  -1.427
    1LIG   HC13   53  -2.054   0.561  -1.308
    1LIG   HC14   54  -2.009   0.411  -1.224
    1LIG   HC15   55  -1.775   0.459  -1.249
    1LIG   HC16   56  -1.853   0.605  -1.185
    1LIG   HC17   57  -1.855   0.706  -1.406
    1LIG   HC18   58  -1.690   0.656  -1.365
    1LIG   HC19   59  -1.522   0.514  -1.398
    1LIG   HC20   60  -1.424   0.117  -1.529
    1LIG   HC21   61  -1.648   0.096  -1.626
    1LIG   HC22   62  -1.812   0.277  -1.607
    1LIG   HC23   63  -1.329   0.522  -1.334
    1LIG   HC24   64  -1.183   0.464  -1.413
    1LIG   HC25   65  -1.406   0.142  -1.249
    1LIG   HC26   66  -1.244   0.196  -1.197
    1LIG   HC27   67  -1.387   0.293  -1.156
    1LIG   HC28   68  -1.686   1.168  -1.596
    1LIG   HC29   69  -1.510   1.192  -1.600
    1LIG   HC30   70  -1.602   1.181  -1.752
    1LIG   HC31   71  -1.118   0.550  -1.202
    1LIG   HC32   72  -1.248   0.462  -1.118
    1LIG   HC33   73  -1.111   0.373  -1.188
    1LIG   HC34   74  -1.122   0.249  -1.414
    1LIG   HC35   75  -1.231   0.261  -1.554
    1LIG   HC36   76  -1.243   0.123  -1.443
   0.00000   0.00000   0.00000
