; Created by cgenff_charmm2gmx.py

[ moleculetype ]
; Name			   nrexcl
LIG				 3

[ atoms ]
;	 nr		  type	resnr residue  atom   cgnr	   charge		mass  typeB    chargeB		massB
; residue	 1 LIG rtp LIG q	qsum
     1      CG311      1    LIG     C1      1      0.010     12.011   ;
     2      CG321      1    LIG     C2      2     -0.111     12.011   ;
     3     CG2R61      1    LIG     C3      3     -0.019     12.011   ;
     4     CG2R61      1    LIG     C4      4     -0.123     12.011   ;
     5     CG2R61      1    LIG     C5      5     -0.112     12.011   ;
     6     CG2R61      1    LIG     C6      6     -0.116     12.011   ;
     7     CG2R61      1    LIG     C7      7     -0.112     12.011   ;
     8     CG2R61      1    LIG     C8      8     -0.123     12.011   ;
     9      NG2S1      1    LIG     N1      9     -0.226     14.007   ;
    10      CG2O1      1    LIG     C9     10      0.282     12.011   ;
    11      OG2D1      1    LIG     O1     11     -0.463     15.999   ;
    12       HGP1      1    LIG     H1     12      0.262      1.008   ;
    13     CG2R61      1    LIG    C10     13     -0.127     12.011   ;
    14     CG2R61      1    LIG    C11     14     -0.124     12.011   ;
    15     CG2R61      1    LIG    C12     15      0.315     12.011   ;
    16     CG2RC0      1    LIG    C13     16      0.182     12.011   ;
    17     NG2R51      1    LIG     N2     17     -0.532     14.007   ;
    18     CG2RC0      1    LIG    C14     18      0.290     12.011   ;
    19     CG2R53      1    LIG    C15     19      0.618     12.011   ;
    20       HGP1      1    LIG     H2     20      0.334      1.008   ;
    21      OG2D1      1    LIG     O2     21     -0.589     15.999   ;
    22     NG2R51      1    LIG     N3     22     -0.165     14.007   ;
    23     CG2R61      1    LIG    C16     23     -0.195     12.011   ;
    24     NG2R53      1    LIG     N4     24     -0.324     14.007   ;
    25     CG3C52      1    LIG    C17     25     -0.028     12.011   ;
    26     CG3C52      1    LIG    C18     26     -0.175     12.011   ;
    27     CG3C52      1    LIG    C19     27     -0.030     12.011   ;
    28     CG2R53      1    LIG    C20     28      0.258     12.011   ;
    29      OG2D1      1    LIG     O3     29     -0.484     15.999   ;
    30      CG321      1    LIG    C21     30     -0.250     12.011   ;
    31      CG331      1    LIG    C22     31     -0.253     12.011   ;
    32      CG311      1    LIG    C23     32      0.094     12.011   ;
    33      OG311      1    LIG     O4     33     -0.625     15.999   ;
    34       HGP1      1    LIG     H3     34      0.415      1.008   ;
    35      CG324      1    LIG    C24     35      0.178     12.011   ;
    36      NG3P2      1    LIG     N5     36     -0.444     14.007   ;
    37       HGP2      1    LIG     H4     37      0.348      1.008   ;
    38       HGP2      1    LIG     H5     38      0.348      1.008   ;
    39      CG324      1    LIG    C25     39      0.171     12.011   ;
    40     CG2R61      1    LIG    C26     40      0.036     12.011   ;
    41     CG2R61      1    LIG    C27     41     -0.124     12.011   ;
    42     CG2R61      1    LIG    C28     42      0.216     12.011   ;
    43     CG2R61      1    LIG    C29     43     -0.121     12.011   ;
    44     CG2R61      1    LIG    C30     44     -0.108     12.011   ;
    45     CG2R61      1    LIG    C31     45     -0.119     12.011   ;
    46      OG301      1    LIG     O5     46     -0.383     15.999   ;
    47      CG331      1    LIG    C32     47     -0.094     12.011   ;
    48       HGA1      1    LIG     H6     48      0.090      1.008   ;
    49       HGA2      1    LIG     H7     49      0.090      1.008   ;
    50       HGA2      1    LIG     H8     50      0.090      1.008   ;
    51      HGR61      1    LIG     H9     51      0.116      1.008   ;
    52      HGR61      1    LIG    H10     52      0.116      1.008   ;
    53      HGR61      1    LIG    H11     53      0.116      1.008   ;
    54      HGR61      1    LIG    H12     54      0.116      1.008   ;
    55      HGR61      1    LIG    H13     55      0.116      1.008   ;
    56      HGR61      1    LIG    H14     56      0.134      1.008   ;
    57      HGR61      1    LIG    H15     57      0.184      1.008   ;
    58       HGA2      1    LIG    H16     58      0.090      1.008   ;
    59       HGA2      1    LIG    H17     59      0.090      1.008   ;
    60       HGA2      1    LIG    H18     60      0.090      1.008   ;
    61       HGA2      1    LIG    H19     61      0.090      1.008   ;
    62       HGA2      1    LIG    H20     62      0.090      1.008   ;
    63       HGA2      1    LIG    H21     63      0.090      1.008   ;
    64       HGA2      1    LIG    H22     64      0.090      1.008   ;
    65       HGA2      1    LIG    H23     65      0.090      1.008   ;
    66       HGA3      1    LIG    H24     66      0.090      1.008   ;
    67       HGA3      1    LIG    H25     67      0.090      1.008   ;
    68       HGA3      1    LIG    H26     68      0.090      1.008   ;
    69       HGA1      1    LIG    H27     69      0.090      1.008   ;
    70       HGA2      1    LIG    H28     70      0.090      1.008   ;
    71       HGA2      1    LIG    H29     71      0.090      1.008   ;
    72       HGA2      1    LIG    H30     72      0.090      1.008   ;
    73       HGA2      1    LIG    H31     73      0.090      1.008   ;
    74      HGR61      1    LIG    H32     74      0.116      1.008   ;
    75      HGR61      1    LIG    H33     75      0.116      1.008   ;
    76      HGR61      1    LIG    H34     76      0.116      1.008   ;
    77      HGR61      1    LIG    H35     77      0.116      1.008   ;
    78       HGA3      1    LIG    H36     78      0.090      1.008   ;
    79       HGA3      1    LIG    H37     79      0.090      1.008   ;
    80       HGA3      1    LIG    H38     80      0.090      1.008   ;

[ bonds ]
;	ai	  aj funct			  c0			c1			  c2			c3
    1     9	 1 ;       CG311      NG2S1
    1    32	 1 ;       CG311      CG311
    1     2	 1 ;       CG311      CG321
    1    48	 1 ;       CG311       HGA1
    2     3	 1 ;       CG321     CG2R61
    2    49	 1 ;       CG321       HGA2
    2    50	 1 ;       CG321       HGA2
    3     8	 1 ;      CG2R61     CG2R61
    3     4	 1 ;      CG2R61     CG2R61
    4     5	 1 ;      CG2R61     CG2R61
    4    51	 1 ;      CG2R61      HGR61
    5     6	 1 ;      CG2R61     CG2R61
    5    52	 1 ;      CG2R61      HGR61
    6     7	 1 ;      CG2R61     CG2R61
    6    53	 1 ;      CG2R61      HGR61
    7     8	 1 ;      CG2R61     CG2R61
    7    54	 1 ;      CG2R61      HGR61
    8    55	 1 ;      CG2R61      HGR61
    9    10	 1 ;       NG2S1      CG2O1
    9    12	 1 ;       NG2S1       HGP1
   10    13	 1 ;       CG2O1     CG2R61
   10    11	 1 ;       CG2O1      OG2D1
   13    14	 1 ;      CG2R61     CG2R61
   13    23	 1 ;      CG2R61     CG2R61
   14    15	 1 ;      CG2R61     CG2R61
   14    56	 1 ;      CG2R61      HGR61
   15    24	 1 ;      CG2R61     NG2R53
   15    16	 1 ;      CG2R61     CG2RC0
   16    17	 1 ;      CG2RC0     NG2R51
   16    18	 1 ;      CG2RC0     CG2RC0
   17    20	 1 ;      NG2R51       HGP1
   17    19	 1 ;      NG2R51     CG2R53
   18    23	 1 ;      CG2RC0     CG2R61
   18    22	 1 ;      CG2RC0     NG2R51
   19    21	 1 ;      CG2R53      OG2D1
   19    22	 1 ;      CG2R53     NG2R51
   22    30	 1 ;      NG2R51      CG321
   23    57	 1 ;      CG2R61      HGR61
   24    28	 1 ;      NG2R53     CG2R53
   24    25	 1 ;      NG2R53     CG3C52
   25    26	 1 ;      CG3C52     CG3C52
   25    58	 1 ;      CG3C52       HGA2
   25    59	 1 ;      CG3C52       HGA2
   26    27	 1 ;      CG3C52     CG3C52
   26    60	 1 ;      CG3C52       HGA2
   26    61	 1 ;      CG3C52       HGA2
   27    28	 1 ;      CG3C52     CG2R53
   27    62	 1 ;      CG3C52       HGA2
   27    63	 1 ;      CG3C52       HGA2
   28    29	 1 ;      CG2R53      OG2D1
   30    31	 1 ;       CG321      CG331
   30    64	 1 ;       CG321       HGA2
   30    65	 1 ;       CG321       HGA2
   31    66	 1 ;       CG331       HGA3
   31    67	 1 ;       CG331       HGA3
   31    68	 1 ;       CG331       HGA3
   32    35	 1 ;       CG311      CG324
   32    33	 1 ;       CG311      OG311
   32    69	 1 ;       CG311       HGA1
   33    34	 1 ;       OG311       HGP1
   35    36	 1 ;       CG324      NG3P2
   35    70	 1 ;       CG324       HGA2
   35    71	 1 ;       CG324       HGA2
   36    39	 1 ;       NG3P2      CG324
   36    38	 1 ;       NG3P2       HGP2
   36    37	 1 ;       NG3P2       HGP2
   39    40	 1 ;       CG324     CG2R61
   39    72	 1 ;       CG324       HGA2
   39    73	 1 ;       CG324       HGA2
   40    45	 1 ;      CG2R61     CG2R61
   40    41	 1 ;      CG2R61     CG2R61
   41    42	 1 ;      CG2R61     CG2R61
   41    74	 1 ;      CG2R61      HGR61
   42    43	 1 ;      CG2R61     CG2R61
   42    46	 1 ;      CG2R61      OG301
   43    44	 1 ;      CG2R61     CG2R61
   43    75	 1 ;      CG2R61      HGR61
   44    45	 1 ;      CG2R61     CG2R61
   44    76	 1 ;      CG2R61      HGR61
   45    77	 1 ;      CG2R61      HGR61
   46    47	 1 ;       OG301      CG331
   47    78	 1 ;       CG331       HGA3
   47    79	 1 ;       CG331       HGA3
   47    80	 1 ;       CG331       HGA3

[ pairs ]
;	ai	  aj funct			  c0			c1			  c2			c3
    1     8	 1
    1     4	 1
    1    13	 1
    1    11	 1
    1    36	 1
    1    70	 1
    1    71	 1
    1    34	 1
    2    10	 1
    2    12	 1
    2    35	 1
    2    33	 1
    2    69	 1
    2     7	 1
    2    55	 1
    2     5	 1
    2    51	 1
    3     9	 1
    3    32	 1
    3    48	 1
    3     6	 1
    3    52	 1
    3    54	 1
    4    49	 1
    4    50	 1
    4     7	 1
    4    55	 1
    4    53	 1
    5     8	 1
    5    54	 1
    6    51	 1
    6    55	 1
    7    52	 1
    8    49	 1
    8    50	 1
    8    51	 1
    8    53	 1
    9    35	 1
    9    33	 1
    9    69	 1
    9    49	 1
    9    50	 1
    9    14	 1
    9    23	 1
   10    32	 1
   10    48	 1
   10    15	 1
   10    56	 1
   10    18	 1
   10    57	 1
   11    12	 1
   11    14	 1
   11    23	 1
   12    32	 1
   12    48	 1
   12    13	 1
   13    24	 1
   13    16	 1
   13    22	 1
   14    18	 1
   14    57	 1
   14    28	 1
   14    25	 1
   14    17	 1
   15    23	 1
   15    20	 1
   15    19	 1
   15    22	 1
   15    27	 1
   15    29	 1
   15    26	 1
   15    58	 1
   15    59	 1
   16    56	 1
   16    28	 1
   16    25	 1
   16    21	 1
   16    57	 1
   16    30	 1
   17    24	 1
   17    23	 1
   17    30	 1
   18    24	 1
   18    20	 1
   18    21	 1
   18    31	 1
   18    64	 1
   18    65	 1
   19    23	 1
   19    31	 1
   19    64	 1
   19    65	 1
   20    21	 1
   20    22	 1
   21    30	 1
   22    57	 1
   22    66	 1
   22    67	 1
   22    68	 1
   23    56	 1
   23    30	 1
   24    56	 1
   24    60	 1
   24    61	 1
   24    62	 1
   24    63	 1
   25    29	 1
   25    62	 1
   25    63	 1
   26    29	 1
   27    58	 1
   27    59	 1
   28    58	 1
   28    59	 1
   28    60	 1
   28    61	 1
   29    62	 1
   29    63	 1
   32    49	 1
   32    50	 1
   32    39	 1
   32    38	 1
   32    37	 1
   33    48	 1
   33    36	 1
   33    70	 1
   33    71	 1
   34    35	 1
   34    69	 1
   35    48	 1
   35    40	 1
   35    72	 1
   35    73	 1
   36    69	 1
   36    45	 1
   36    41	 1
   37    70	 1
   37    71	 1
   37    40	 1
   37    72	 1
   37    73	 1
   38    70	 1
   38    71	 1
   38    40	 1
   38    72	 1
   38    73	 1
   39    70	 1
   39    71	 1
   39    44	 1
   39    77	 1
   39    42	 1
   39    74	 1
   40    43	 1
   40    46	 1
   40    76	 1
   41    72	 1
   41    73	 1
   41    44	 1
   41    77	 1
   41    75	 1
   41    47	 1
   42    45	 1
   42    76	 1
   42    78	 1
   42    79	 1
   42    80	 1
   43    74	 1
   43    47	 1
   43    77	 1
   44    46	 1
   45    72	 1
   45    73	 1
   45    74	 1
   45    75	 1
   46    74	 1
   46    75	 1
   48    69	 1
   48    49	 1
   48    50	 1
   51    52	 1
   52    53	 1
   53    54	 1
   54    55	 1
   58    60	 1
   58    61	 1
   59    60	 1
   59    61	 1
   60    62	 1
   60    63	 1
   61    62	 1
   61    63	 1
   64    66	 1
   64    67	 1
   64    68	 1
   65    66	 1
   65    67	 1
   65    68	 1
   69    70	 1
   69    71	 1
   75    76	 1
   76    77	 1

[ angles ]
;	ai	  aj	ak funct			c0			  c1			c2			  c3
    9     1    32	5 ;      NG2S1      CG311      CG311
    9     1     2	5 ;      NG2S1      CG311      CG321
    9     1    48	5 ;      NG2S1      CG311       HGA1
   32     1     2	5 ;      CG311      CG311      CG321
   32     1    48	5 ;      CG311      CG311       HGA1
    2     1    48	5 ;      CG321      CG311       HGA1
    1     2     3	5 ;      CG311      CG321     CG2R61
    1     2    49	5 ;      CG311      CG321       HGA2
    1     2    50	5 ;      CG311      CG321       HGA2
    3     2    49	5 ;     CG2R61      CG321       HGA2
    3     2    50	5 ;     CG2R61      CG321       HGA2
   49     2    50	5 ;       HGA2      CG321       HGA2
    2     3     8	5 ;      CG321     CG2R61     CG2R61
    2     3     4	5 ;      CG321     CG2R61     CG2R61
    8     3     4	5 ;     CG2R61     CG2R61     CG2R61
    3     4     5	5 ;     CG2R61     CG2R61     CG2R61
    3     4    51	5 ;     CG2R61     CG2R61      HGR61
    5     4    51	5 ;     CG2R61     CG2R61      HGR61
    4     5     6	5 ;     CG2R61     CG2R61     CG2R61
    4     5    52	5 ;     CG2R61     CG2R61      HGR61
    6     5    52	5 ;     CG2R61     CG2R61      HGR61
    7     6     5	5 ;     CG2R61     CG2R61     CG2R61
    7     6    53	5 ;     CG2R61     CG2R61      HGR61
    5     6    53	5 ;     CG2R61     CG2R61      HGR61
    8     7     6	5 ;     CG2R61     CG2R61     CG2R61
    8     7    54	5 ;     CG2R61     CG2R61      HGR61
    6     7    54	5 ;     CG2R61     CG2R61      HGR61
    3     8     7	5 ;     CG2R61     CG2R61     CG2R61
    3     8    55	5 ;     CG2R61     CG2R61      HGR61
    7     8    55	5 ;     CG2R61     CG2R61      HGR61
   10     9    12	5 ;      CG2O1      NG2S1       HGP1
   10     9     1	5 ;      CG2O1      NG2S1      CG311
   12     9     1	5 ;       HGP1      NG2S1      CG311
   13    10    11	5 ;     CG2R61      CG2O1      OG2D1
   13    10     9	5 ;     CG2R61      CG2O1      NG2S1
   11    10     9	5 ;      OG2D1      CG2O1      NG2S1
   14    13    10	5 ;     CG2R61     CG2R61      CG2O1
   14    13    23	5 ;     CG2R61     CG2R61     CG2R61
   10    13    23	5 ;      CG2O1     CG2R61     CG2R61
   15    14    13	5 ;     CG2R61     CG2R61     CG2R61
   15    14    56	5 ;     CG2R61     CG2R61      HGR61
   13    14    56	5 ;     CG2R61     CG2R61      HGR61
   24    15    14	5 ;     NG2R53     CG2R61     CG2R61
   24    15    16	5 ;     NG2R53     CG2R61     CG2RC0
   14    15    16	5 ;     CG2R61     CG2R61     CG2RC0
   15    16    17	5 ;     CG2R61     CG2RC0     NG2R51
   15    16    18	5 ;     CG2R61     CG2RC0     CG2RC0
   17    16    18	5 ;     NG2R51     CG2RC0     CG2RC0
   20    17    16	5 ;       HGP1     NG2R51     CG2RC0
   20    17    19	5 ;       HGP1     NG2R51     CG2R53
   16    17    19	5 ;     CG2RC0     NG2R51     CG2R53
   16    18    23	5 ;     CG2RC0     CG2RC0     CG2R61
   16    18    22	5 ;     CG2RC0     CG2RC0     NG2R51
   23    18    22	5 ;     CG2R61     CG2RC0     NG2R51
   17    19    21	5 ;     NG2R51     CG2R53      OG2D1
   17    19    22	5 ;     NG2R51     CG2R53     NG2R51
   21    19    22	5 ;      OG2D1     CG2R53     NG2R51
   19    22    18	5 ;     CG2R53     NG2R51     CG2RC0
   19    22    30	5 ;     CG2R53     NG2R51      CG321
   18    22    30	5 ;     CG2RC0     NG2R51      CG321
   13    23    18	5 ;     CG2R61     CG2R61     CG2RC0
   13    23    57	5 ;     CG2R61     CG2R61      HGR61
   18    23    57	5 ;     CG2RC0     CG2R61      HGR61
   28    24    25	5 ;     CG2R53     NG2R53     CG3C52
   28    24    15	5 ;     CG2R53     NG2R53     CG2R61
   25    24    15	5 ;     CG3C52     NG2R53     CG2R61
   26    25    24	5 ;     CG3C52     CG3C52     NG2R53
   26    25    58	5 ;     CG3C52     CG3C52       HGA2
   26    25    59	5 ;     CG3C52     CG3C52       HGA2
   24    25    58	5 ;     NG2R53     CG3C52       HGA2
   24    25    59	5 ;     NG2R53     CG3C52       HGA2
   58    25    59	5 ;       HGA2     CG3C52       HGA2
   27    26    25	5 ;     CG3C52     CG3C52     CG3C52
   27    26    60	5 ;     CG3C52     CG3C52       HGA2
   27    26    61	5 ;     CG3C52     CG3C52       HGA2
   25    26    60	5 ;     CG3C52     CG3C52       HGA2
   25    26    61	5 ;     CG3C52     CG3C52       HGA2
   60    26    61	5 ;       HGA2     CG3C52       HGA2
   26    27    28	5 ;     CG3C52     CG3C52     CG2R53
   26    27    62	5 ;     CG3C52     CG3C52       HGA2
   26    27    63	5 ;     CG3C52     CG3C52       HGA2
   28    27    62	5 ;     CG2R53     CG3C52       HGA2
   28    27    63	5 ;     CG2R53     CG3C52       HGA2
   62    27    63	5 ;       HGA2     CG3C52       HGA2
   27    28    29	5 ;     CG3C52     CG2R53      OG2D1
   27    28    24	5 ;     CG3C52     CG2R53     NG2R53
   29    28    24	5 ;      OG2D1     CG2R53     NG2R53
   22    30    31	5 ;     NG2R51      CG321      CG331
   22    30    64	5 ;     NG2R51      CG321       HGA2
   22    30    65	5 ;     NG2R51      CG321       HGA2
   31    30    64	5 ;      CG331      CG321       HGA2
   31    30    65	5 ;      CG331      CG321       HGA2
   64    30    65	5 ;       HGA2      CG321       HGA2
   30    31    66	5 ;      CG321      CG331       HGA3
   30    31    67	5 ;      CG321      CG331       HGA3
   30    31    68	5 ;      CG321      CG331       HGA3
   66    31    67	5 ;       HGA3      CG331       HGA3
   66    31    68	5 ;       HGA3      CG331       HGA3
   67    31    68	5 ;       HGA3      CG331       HGA3
   35    32     1	5 ;      CG324      CG311      CG311
   35    32    33	5 ;      CG324      CG311      OG311
   35    32    69	5 ;      CG324      CG311       HGA1
    1    32    33	5 ;      CG311      CG311      OG311
    1    32    69	5 ;      CG311      CG311       HGA1
   33    32    69	5 ;      OG311      CG311       HGA1
   32    33    34	5 ;      CG311      OG311       HGP1
   36    35    32	5 ;      NG3P2      CG324      CG311
   36    35    70	5 ;      NG3P2      CG324       HGA2
   36    35    71	5 ;      NG3P2      CG324       HGA2
   32    35    70	5 ;      CG311      CG324       HGA2
   32    35    71	5 ;      CG311      CG324       HGA2
   70    35    71	5 ;       HGA2      CG324       HGA2
   39    36    35	5 ;      CG324      NG3P2      CG324
   39    36    38	5 ;      CG324      NG3P2       HGP2
   39    36    37	5 ;      CG324      NG3P2       HGP2
   35    36    38	5 ;      CG324      NG3P2       HGP2
   35    36    37	5 ;      CG324      NG3P2       HGP2
   38    36    37	5 ;       HGP2      NG3P2       HGP2
   40    39    36	5 ;     CG2R61      CG324      NG3P2
   40    39    72	5 ;     CG2R61      CG324       HGA2
   40    39    73	5 ;     CG2R61      CG324       HGA2
   36    39    72	5 ;      NG3P2      CG324       HGA2
   36    39    73	5 ;      NG3P2      CG324       HGA2
   72    39    73	5 ;       HGA2      CG324       HGA2
   45    40    41	5 ;     CG2R61     CG2R61     CG2R61
   45    40    39	5 ;     CG2R61     CG2R61      CG324
   41    40    39	5 ;     CG2R61     CG2R61      CG324
   42    41    40	5 ;     CG2R61     CG2R61     CG2R61
   42    41    74	5 ;     CG2R61     CG2R61      HGR61
   40    41    74	5 ;     CG2R61     CG2R61      HGR61
   43    42    46	5 ;     CG2R61     CG2R61      OG301
   43    42    41	5 ;     CG2R61     CG2R61     CG2R61
   46    42    41	5 ;      OG301     CG2R61     CG2R61
   44    43    42	5 ;     CG2R61     CG2R61     CG2R61
   44    43    75	5 ;     CG2R61     CG2R61      HGR61
   42    43    75	5 ;     CG2R61     CG2R61      HGR61
   43    44    45	5 ;     CG2R61     CG2R61     CG2R61
   43    44    76	5 ;     CG2R61     CG2R61      HGR61
   45    44    76	5 ;     CG2R61     CG2R61      HGR61
   44    45    40	5 ;     CG2R61     CG2R61     CG2R61
   44    45    77	5 ;     CG2R61     CG2R61      HGR61
   40    45    77	5 ;     CG2R61     CG2R61      HGR61
   47    46    42	5 ;      CG331      OG301     CG2R61
   46    47    78	5 ;      OG301      CG331       HGA3
   46    47    79	5 ;      OG301      CG331       HGA3
   46    47    80	5 ;      OG301      CG331       HGA3
   78    47    79	5 ;       HGA3      CG331       HGA3
   78    47    80	5 ;       HGA3      CG331       HGA3
   79    47    80	5 ;       HGA3      CG331       HGA3

[ dihedrals ]
;	ai	  aj	ak	  al funct			  c0			c1			  c2			c3			  c4			c5
   32     1     9    10	 9 ;      CG311      CG311      NG2S1      CG2O1
   32     1     9    12	 9 ;      CG311      CG311      NG2S1       HGP1
    2     1     9    10	 9 ;      CG321      CG311      NG2S1      CG2O1
    2     1     9    12	 9 ;      CG321      CG311      NG2S1       HGP1
   48     1     9    10	 9 ;       HGA1      CG311      NG2S1      CG2O1
   48     1     9    12	 9 ;       HGA1      CG311      NG2S1       HGP1
    9     1    32    35	 9 ;      NG2S1      CG311      CG311      CG324
    9     1    32    33	 9 ;      NG2S1      CG311      CG311      OG311
    9     1    32    69	 9 ;      NG2S1      CG311      CG311       HGA1
    2     1    32    35	 9 ;      CG321      CG311      CG311      CG324
    2     1    32    33	 9 ;      CG321      CG311      CG311      OG311
    2     1    32    69	 9 ;      CG321      CG311      CG311       HGA1
   48     1    32    35	 9 ;       HGA1      CG311      CG311      CG324
   48     1    32    33	 9 ;       HGA1      CG311      CG311      OG311
   48     1    32    69	 9 ;       HGA1      CG311      CG311       HGA1
    9     1     2     3	 9 ;      NG2S1      CG311      CG321     CG2R61
    9     1     2    49	 9 ;      NG2S1      CG311      CG321       HGA2
    9     1     2    50	 9 ;      NG2S1      CG311      CG321       HGA2
   32     1     2     3	 9 ;      CG311      CG311      CG321     CG2R61
   32     1     2    49	 9 ;      CG311      CG311      CG321       HGA2
   32     1     2    50	 9 ;      CG311      CG311      CG321       HGA2
   48     1     2     3	 9 ;       HGA1      CG311      CG321     CG2R61
   48     1     2    49	 9 ;       HGA1      CG311      CG321       HGA2
   48     1     2    50	 9 ;       HGA1      CG311      CG321       HGA2
    1     2     3     8	 9 ;      CG311      CG321     CG2R61     CG2R61
    1     2     3     4	 9 ;      CG311      CG321     CG2R61     CG2R61
   49     2     3     8	 9 ;       HGA2      CG321     CG2R61     CG2R61
   49     2     3     4	 9 ;       HGA2      CG321     CG2R61     CG2R61
   50     2     3     8	 9 ;       HGA2      CG321     CG2R61     CG2R61
   50     2     3     4	 9 ;       HGA2      CG321     CG2R61     CG2R61
    2     3     8     7	 9 ;      CG321     CG2R61     CG2R61     CG2R61
    2     3     8    55	 9 ;      CG321     CG2R61     CG2R61      HGR61
    4     3     8     7	 9 ;     CG2R61     CG2R61     CG2R61     CG2R61
    4     3     8    55	 9 ;     CG2R61     CG2R61     CG2R61      HGR61
    2     3     4     5	 9 ;      CG321     CG2R61     CG2R61     CG2R61
    2     3     4    51	 9 ;      CG321     CG2R61     CG2R61      HGR61
    8     3     4     5	 9 ;     CG2R61     CG2R61     CG2R61     CG2R61
    8     3     4    51	 9 ;     CG2R61     CG2R61     CG2R61      HGR61
    3     4     5     6	 9 ;     CG2R61     CG2R61     CG2R61     CG2R61
    3     4     5    52	 9 ;     CG2R61     CG2R61     CG2R61      HGR61
   51     4     5     6	 9 ;      HGR61     CG2R61     CG2R61     CG2R61
   51     4     5    52	 9 ;      HGR61     CG2R61     CG2R61      HGR61
    4     5     6     7	 9 ;     CG2R61     CG2R61     CG2R61     CG2R61
    4     5     6    53	 9 ;     CG2R61     CG2R61     CG2R61      HGR61
   52     5     6     7	 9 ;      HGR61     CG2R61     CG2R61     CG2R61
   52     5     6    53	 9 ;      HGR61     CG2R61     CG2R61      HGR61
    5     6     7     8	 9 ;     CG2R61     CG2R61     CG2R61     CG2R61
    5     6     7    54	 9 ;     CG2R61     CG2R61     CG2R61      HGR61
   53     6     7     8	 9 ;      HGR61     CG2R61     CG2R61     CG2R61
   53     6     7    54	 9 ;      HGR61     CG2R61     CG2R61      HGR61
    6     7     8     3	 9 ;     CG2R61     CG2R61     CG2R61     CG2R61
    6     7     8    55	 9 ;     CG2R61     CG2R61     CG2R61      HGR61
   54     7     8     3	 9 ;      HGR61     CG2R61     CG2R61     CG2R61
   54     7     8    55	 9 ;      HGR61     CG2R61     CG2R61      HGR61
   12     9    10    13	 9 ;       HGP1      NG2S1      CG2O1     CG2R61
   12     9    10    11	 9 ;       HGP1      NG2S1      CG2O1      OG2D1
    1     9    10    13	 9 ;      CG311      NG2S1      CG2O1     CG2R61
    1     9    10    11	 9 ;      CG311      NG2S1      CG2O1      OG2D1
   11    10    13    14	 9 ;      OG2D1      CG2O1     CG2R61     CG2R61
   11    10    13    23	 9 ;      OG2D1      CG2O1     CG2R61     CG2R61
    9    10    13    14	 9 ;      NG2S1      CG2O1     CG2R61     CG2R61
    9    10    13    23	 9 ;      NG2S1      CG2O1     CG2R61     CG2R61
   10    13    14    15	 9 ;      CG2O1     CG2R61     CG2R61     CG2R61
   10    13    14    56	 9 ;      CG2O1     CG2R61     CG2R61      HGR61
   23    13    14    15	 9 ;     CG2R61     CG2R61     CG2R61     CG2R61
   23    13    14    56	 9 ;     CG2R61     CG2R61     CG2R61      HGR61
   14    13    23    18	 9 ;     CG2R61     CG2R61     CG2R61     CG2RC0
   14    13    23    57	 9 ;     CG2R61     CG2R61     CG2R61      HGR61
   10    13    23    18	 9 ;      CG2O1     CG2R61     CG2R61     CG2RC0
   10    13    23    57	 9 ;      CG2O1     CG2R61     CG2R61      HGR61
   13    14    15    24	 9 ;     CG2R61     CG2R61     CG2R61     NG2R53
   13    14    15    16	 9 ;     CG2R61     CG2R61     CG2R61     CG2RC0
   56    14    15    24	 9 ;      HGR61     CG2R61     CG2R61     NG2R53
   56    14    15    16	 9 ;      HGR61     CG2R61     CG2R61     CG2RC0
   14    15    24    28	 9 ;     CG2R61     CG2R61     NG2R53     CG2R53
   14    15    24    25	 9 ;     CG2R61     CG2R61     NG2R53     CG3C52
   16    15    24    28	 9 ;     CG2RC0     CG2R61     NG2R53     CG2R53
   16    15    24    25	 9 ;     CG2RC0     CG2R61     NG2R53     CG3C52
   24    15    16    17	 9 ;     NG2R53     CG2R61     CG2RC0     NG2R51
   24    15    16    18	 9 ;     NG2R53     CG2R61     CG2RC0     CG2RC0
   14    15    16    17	 9 ;     CG2R61     CG2R61     CG2RC0     NG2R51
   14    15    16    18	 9 ;     CG2R61     CG2R61     CG2RC0     CG2RC0
   15    16    17    20	 9 ;     CG2R61     CG2RC0     NG2R51       HGP1
   15    16    17    19	 9 ;     CG2R61     CG2RC0     NG2R51     CG2R53
   18    16    17    20	 9 ;     CG2RC0     CG2RC0     NG2R51       HGP1
   18    16    17    19	 9 ;     CG2RC0     CG2RC0     NG2R51     CG2R53
   15    16    18    23	 9 ;     CG2R61     CG2RC0     CG2RC0     CG2R61
   15    16    18    22	 9 ;     CG2R61     CG2RC0     CG2RC0     NG2R51
   17    16    18    23	 9 ;     NG2R51     CG2RC0     CG2RC0     CG2R61
   17    16    18    22	 9 ;     NG2R51     CG2RC0     CG2RC0     NG2R51
   20    17    19    21	 9 ;       HGP1     NG2R51     CG2R53      OG2D1
   20    17    19    22	 9 ;       HGP1     NG2R51     CG2R53     NG2R51
   16    17    19    21	 9 ;     CG2RC0     NG2R51     CG2R53      OG2D1
   16    17    19    22	 9 ;     CG2RC0     NG2R51     CG2R53     NG2R51
   16    18    23    13	 9 ;     CG2RC0     CG2RC0     CG2R61     CG2R61
   16    18    23    57	 9 ;     CG2RC0     CG2RC0     CG2R61      HGR61
   22    18    23    13	 9 ;     NG2R51     CG2RC0     CG2R61     CG2R61
   22    18    23    57	 9 ;     NG2R51     CG2RC0     CG2R61      HGR61
   16    18    22    19	 9 ;     CG2RC0     CG2RC0     NG2R51     CG2R53
   16    18    22    30	 9 ;     CG2RC0     CG2RC0     NG2R51      CG321
   23    18    22    19	 9 ;     CG2R61     CG2RC0     NG2R51     CG2R53
   23    18    22    30	 9 ;     CG2R61     CG2RC0     NG2R51      CG321
   17    19    22    18	 9 ;     NG2R51     CG2R53     NG2R51     CG2RC0
   17    19    22    30	 9 ;     NG2R51     CG2R53     NG2R51      CG321
   21    19    22    18	 9 ;      OG2D1     CG2R53     NG2R51     CG2RC0
   21    19    22    30	 9 ;      OG2D1     CG2R53     NG2R51      CG321
   19    22    30    31	 9 ;     CG2R53     NG2R51      CG321      CG331
   19    22    30    64	 9 ;     CG2R53     NG2R51      CG321       HGA2
   19    22    30    65	 9 ;     CG2R53     NG2R51      CG321       HGA2
   18    22    30    31	 9 ;     CG2RC0     NG2R51      CG321      CG331
   18    22    30    64	 9 ;     CG2RC0     NG2R51      CG321       HGA2
   18    22    30    65	 9 ;     CG2RC0     NG2R51      CG321       HGA2
   25    24    28    27	 9 ;     CG3C52     NG2R53     CG2R53     CG3C52
   25    24    28    29	 9 ;     CG3C52     NG2R53     CG2R53      OG2D1
   15    24    28    27	 9 ;     CG2R61     NG2R53     CG2R53     CG3C52
   15    24    28    29	 9 ;     CG2R61     NG2R53     CG2R53      OG2D1
   28    24    25    26	 9 ;     CG2R53     NG2R53     CG3C52     CG3C52
   28    24    25    58	 9 ;     CG2R53     NG2R53     CG3C52       HGA2
   28    24    25    59	 9 ;     CG2R53     NG2R53     CG3C52       HGA2
   15    24    25    26	 9 ;     CG2R61     NG2R53     CG3C52     CG3C52
   15    24    25    58	 9 ;     CG2R61     NG2R53     CG3C52       HGA2
   15    24    25    59	 9 ;     CG2R61     NG2R53     CG3C52       HGA2
   24    25    26    27	 9 ;     NG2R53     CG3C52     CG3C52     CG3C52
   24    25    26    60	 9 ;     NG2R53     CG3C52     CG3C52       HGA2
   24    25    26    61	 9 ;     NG2R53     CG3C52     CG3C52       HGA2
   58    25    26    27	 9 ;       HGA2     CG3C52     CG3C52     CG3C52
   58    25    26    60	 9 ;       HGA2     CG3C52     CG3C52       HGA2
   58    25    26    61	 9 ;       HGA2     CG3C52     CG3C52       HGA2
   59    25    26    27	 9 ;       HGA2     CG3C52     CG3C52     CG3C52
   59    25    26    60	 9 ;       HGA2     CG3C52     CG3C52       HGA2
   59    25    26    61	 9 ;       HGA2     CG3C52     CG3C52       HGA2
   25    26    27    28	 9 ;     CG3C52     CG3C52     CG3C52     CG2R53
   25    26    27    62	 9 ;     CG3C52     CG3C52     CG3C52       HGA2
   25    26    27    63	 9 ;     CG3C52     CG3C52     CG3C52       HGA2
   60    26    27    28	 9 ;       HGA2     CG3C52     CG3C52     CG2R53
   60    26    27    62	 9 ;       HGA2     CG3C52     CG3C52       HGA2
   60    26    27    63	 9 ;       HGA2     CG3C52     CG3C52       HGA2
   61    26    27    28	 9 ;       HGA2     CG3C52     CG3C52     CG2R53
   61    26    27    62	 9 ;       HGA2     CG3C52     CG3C52       HGA2
   61    26    27    63	 9 ;       HGA2     CG3C52     CG3C52       HGA2
   26    27    28    29	 9 ;     CG3C52     CG3C52     CG2R53      OG2D1
   26    27    28    24	 9 ;     CG3C52     CG3C52     CG2R53     NG2R53
   62    27    28    29	 9 ;       HGA2     CG3C52     CG2R53      OG2D1
   62    27    28    24	 9 ;       HGA2     CG3C52     CG2R53     NG2R53
   63    27    28    29	 9 ;       HGA2     CG3C52     CG2R53      OG2D1
   63    27    28    24	 9 ;       HGA2     CG3C52     CG2R53     NG2R53
   22    30    31    66	 9 ;     NG2R51      CG321      CG331       HGA3
   22    30    31    67	 9 ;     NG2R51      CG321      CG331       HGA3
   22    30    31    68	 9 ;     NG2R51      CG321      CG331       HGA3
   64    30    31    66	 9 ;       HGA2      CG321      CG331       HGA3
   64    30    31    67	 9 ;       HGA2      CG321      CG331       HGA3
   64    30    31    68	 9 ;       HGA2      CG321      CG331       HGA3
   65    30    31    66	 9 ;       HGA2      CG321      CG331       HGA3
   65    30    31    67	 9 ;       HGA2      CG321      CG331       HGA3
   65    30    31    68	 9 ;       HGA2      CG321      CG331       HGA3
    1    32    35    36	 9 ;      CG311      CG311      CG324      NG3P2
    1    32    35    70	 9 ;      CG311      CG311      CG324       HGA2
    1    32    35    71	 9 ;      CG311      CG311      CG324       HGA2
   33    32    35    36	 9 ;      OG311      CG311      CG324      NG3P2
   33    32    35    70	 9 ;      OG311      CG311      CG324       HGA2
   33    32    35    71	 9 ;      OG311      CG311      CG324       HGA2
   69    32    35    36	 9 ;       HGA1      CG311      CG324      NG3P2
   69    32    35    70	 9 ;       HGA1      CG311      CG324       HGA2
   69    32    35    71	 9 ;       HGA1      CG311      CG324       HGA2
   35    32    33    34	 9 ;      CG324      CG311      OG311       HGP1
    1    32    33    34	 9 ;      CG311      CG311      OG311       HGP1
   69    32    33    34	 9 ;       HGA1      CG311      OG311       HGP1
   32    35    36    39	 9 ;      CG311      CG324      NG3P2      CG324
   32    35    36    38	 9 ;      CG311      CG324      NG3P2       HGP2
   32    35    36    37	 9 ;      CG311      CG324      NG3P2       HGP2
   70    35    36    39	 9 ;       HGA2      CG324      NG3P2      CG324
   70    35    36    38	 9 ;       HGA2      CG324      NG3P2       HGP2
   70    35    36    37	 9 ;       HGA2      CG324      NG3P2       HGP2
   71    35    36    39	 9 ;       HGA2      CG324      NG3P2      CG324
   71    35    36    38	 9 ;       HGA2      CG324      NG3P2       HGP2
   71    35    36    37	 9 ;       HGA2      CG324      NG3P2       HGP2
   35    36    39    40	 9 ;      CG324      NG3P2      CG324     CG2R61
   35    36    39    72	 9 ;      CG324      NG3P2      CG324       HGA2
   35    36    39    73	 9 ;      CG324      NG3P2      CG324       HGA2
   38    36    39    40	 9 ;       HGP2      NG3P2      CG324     CG2R61
   38    36    39    72	 9 ;       HGP2      NG3P2      CG324       HGA2
   38    36    39    73	 9 ;       HGP2      NG3P2      CG324       HGA2
   37    36    39    40	 9 ;       HGP2      NG3P2      CG324     CG2R61
   37    36    39    72	 9 ;       HGP2      NG3P2      CG324       HGA2
   37    36    39    73	 9 ;       HGP2      NG3P2      CG324       HGA2
   36    39    40    45	 9 ;      NG3P2      CG324     CG2R61     CG2R61
   36    39    40    41	 9 ;      NG3P2      CG324     CG2R61     CG2R61
   72    39    40    45	 9 ;       HGA2      CG324     CG2R61     CG2R61
   72    39    40    41	 9 ;       HGA2      CG324     CG2R61     CG2R61
   73    39    40    45	 9 ;       HGA2      CG324     CG2R61     CG2R61
   73    39    40    41	 9 ;       HGA2      CG324     CG2R61     CG2R61
   41    40    45    44	 9 ;     CG2R61     CG2R61     CG2R61     CG2R61
   41    40    45    77	 9 ;     CG2R61     CG2R61     CG2R61      HGR61
   39    40    45    44	 9 ;      CG324     CG2R61     CG2R61     CG2R61
   39    40    45    77	 9 ;      CG324     CG2R61     CG2R61      HGR61
   45    40    41    42	 9 ;     CG2R61     CG2R61     CG2R61     CG2R61
   45    40    41    74	 9 ;     CG2R61     CG2R61     CG2R61      HGR61
   39    40    41    42	 9 ;      CG324     CG2R61     CG2R61     CG2R61
   39    40    41    74	 9 ;      CG324     CG2R61     CG2R61      HGR61
   40    41    42    43	 9 ;     CG2R61     CG2R61     CG2R61     CG2R61
   40    41    42    46	 9 ;     CG2R61     CG2R61     CG2R61      OG301
   74    41    42    43	 9 ;      HGR61     CG2R61     CG2R61     CG2R61
   74    41    42    46	 9 ;      HGR61     CG2R61     CG2R61      OG301
   46    42    43    44	 9 ;      OG301     CG2R61     CG2R61     CG2R61
   46    42    43    75	 9 ;      OG301     CG2R61     CG2R61      HGR61
   41    42    43    44	 9 ;     CG2R61     CG2R61     CG2R61     CG2R61
   41    42    43    75	 9 ;     CG2R61     CG2R61     CG2R61      HGR61
   43    42    46    47	 9 ;     CG2R61     CG2R61      OG301      CG331
   41    42    46    47	 9 ;     CG2R61     CG2R61      OG301      CG331
   42    43    44    45	 9 ;     CG2R61     CG2R61     CG2R61     CG2R61
   42    43    44    76	 9 ;     CG2R61     CG2R61     CG2R61      HGR61
   75    43    44    45	 9 ;      HGR61     CG2R61     CG2R61     CG2R61
   75    43    44    76	 9 ;      HGR61     CG2R61     CG2R61      HGR61
   43    44    45    40	 9 ;     CG2R61     CG2R61     CG2R61     CG2R61
   43    44    45    77	 9 ;     CG2R61     CG2R61     CG2R61      HGR61
   76    44    45    40	 9 ;      HGR61     CG2R61     CG2R61     CG2R61
   76    44    45    77	 9 ;      HGR61     CG2R61     CG2R61      HGR61
   42    46    47    78	 9 ;     CG2R61      OG301      CG331       HGA3
   42    46    47    79	 9 ;     CG2R61      OG301      CG331       HGA3
   42    46    47    80	 9 ;     CG2R61      OG301      CG331       HGA3

[ dihedrals ]
;	ai	  aj	ak	  al funct			  c0			c1			  c2			c3
   10    13     9    11	 2
   19    17    22    21	 2
   28    27    24    29	 2

