God Rules Over Mankind, Animals, Cosmos and Such
   80
    1LIG     C1    1  -1.712   0.533  -1.482
    1LIG     C2    2  -1.725   0.391  -1.419
    1LIG     C3    3  -1.676   0.388  -1.274
    1LIG     C4    4  -1.749   0.320  -1.175
    1LIG     C5    5  -1.704   0.317  -1.043
    1LIG     C6    6  -1.587   0.381  -1.007
    1LIG     C7    7  -1.514   0.451  -1.104
    1LIG     C8    8  -1.558   0.453  -1.237
    1LIG     N1    9  -1.632   0.535  -1.605
    1LIG     C9   10  -1.650   0.439  -1.705
    1LIG     O1   11  -1.762   0.407  -1.742
    1LIG     H1   12  -1.537   0.563  -1.587
    1LIG    C10   13  -1.526   0.370  -1.755
    1LIG    C11   14  -1.509   0.349  -1.895
    1LIG    C12   15  -1.396   0.289  -1.951
    1LIG    C13   16  -1.309   0.237  -1.858
    1LIG     N2   17  -1.232   0.124  -1.876
    1LIG    C14   18  -1.313   0.264  -1.720
    1LIG    C15   19  -1.200   0.071  -1.752
    1LIG     H2   20  -1.230   0.066  -1.958
    1LIG     O2   21  -1.154  -0.041  -1.734
    1LIG     N3   22  -1.225   0.172  -1.653
    1LIG    C16   23  -1.423   0.331  -1.666
    1LIG     N4   24  -1.377   0.281  -2.091
    1LIG    C17   25  -1.395   0.157  -2.165
    1LIG    C18   26  -1.302   0.171  -2.283
    1LIG    C19   27  -1.299   0.320  -2.310
    1LIG    C20   28  -1.325   0.381  -2.175
    1LIG     O3   29  -1.305   0.499  -2.149
    1LIG    C21   30  -1.093   0.218  -1.611
    1LIG    C22   31  -1.074   0.362  -1.572
    1LIG    C23   32  -1.841   0.618  -1.491
    1LIG     O4   33  -1.886   0.653  -1.358
    1LIG     H3   34  -1.812   0.696  -1.312
    1LIG    C24   35  -1.826   0.752  -1.568
    1LIG     N5   36  -1.730   0.854  -1.508
    1LIG     H4   37  -1.673   0.806  -1.436
    1LIG     H5   38  -1.788   0.922  -1.456
    1LIG    C25   39  -1.643   0.934  -1.600
    1LIG    C26   40  -1.565   0.860  -1.708
    1LIG    C27   41  -1.444   0.798  -1.671
    1LIG    C28   42  -1.370   0.720  -1.762
    1LIG    C29   43  -1.419   0.702  -1.890
    1LIG    C30   44  -1.538   0.763  -1.930
    1LIG    C31   45  -1.610   0.842  -1.840
    1LIG     O5   46  -1.254   0.654  -1.735
    1LIG    C32   47  -1.185   0.596  -1.846
    1LIG     H6   48  -1.655   0.586  -1.408
    1LIG     H7   49  -1.668   0.322  -1.476
    1LIG     H8   50  -1.829   0.365  -1.419
    1LIG     H9   51  -1.836   0.271  -1.201
    1LIG    H10   52  -1.759   0.266  -0.971
    1LIG    H11   53  -1.553   0.378  -0.910
    1LIG    H12   54  -1.427   0.500  -1.078
    1LIG    H13   55  -1.503   0.504  -1.308
    1LIG    H14   56  -1.584   0.380  -1.958
    1LIG    H15   57  -1.429   0.351  -1.565
    1LIG    H16   58  -1.367   0.073  -2.104
    1LIG    H17   59  -1.496   0.141  -2.194
    1LIG    H18   60  -1.204   0.135  -2.259
    1LIG    H19   61  -1.334   0.114  -2.368
    1LIG    H20   62  -1.376   0.347  -2.380
    1LIG    H21   63  -1.207   0.353  -2.353
    1LIG    H22   64  -1.026   0.198  -1.692
    1LIG    H23   65  -1.075   0.164  -1.520
    1LIG    H24   66  -1.090   0.424  -1.658
    1LIG    H25   67  -0.974   0.376  -1.536
    1LIG    H26   68  -1.143   0.388  -1.495
    1LIG    H27   69  -1.910   0.556  -1.544
    1LIG    H28   70  -1.791   0.730  -1.667
    1LIG    H29   71  -1.923   0.799  -1.565
    1LIG    H30   72  -1.705   1.005  -1.649
    1LIG    H31   73  -1.566   0.973  -1.536
    1LIG    H32   74  -1.409   0.809  -1.574
    1LIG    H33   75  -1.367   0.643  -1.957
    1LIG    H34   76  -1.573   0.749  -2.026
    1LIG    H35   77  -1.697   0.889  -1.871
    1LIG    H36   78  -1.097   0.548  -1.811
    1LIG    H37   79  -1.159   0.673  -1.915
    1LIG    H38   80  -1.249   0.525  -1.894
   0.00000   0.00000   0.00000
