GROtesk MACabre and Sinister
   69
    1LIG     C1    1  -1.155   0.553  -1.849
    1LIG     C2    2  -1.168   0.543  -1.704
    1LIG     C3    3  -1.178   0.538  -1.583
    1LIG     N1    4  -1.224   0.435  -1.909
    1LIG     H1    5  -1.207   0.435  -2.010
    1LIG     H2    6  -1.325   0.447  -1.896
    1LIG     C4    7  -1.181   0.302  -1.854
    1LIG     C5    8  -1.302   0.207  -1.860
    1LIG     O1    9  -1.254   0.086  -1.921
    1LIG     H3   10  -1.269   0.012  -1.859
    1LIG     C6   11  -1.365   0.183  -1.719
    1LIG     N2   12  -1.457   0.293  -1.678
    1LIG     C7   13  -1.578   0.273  -1.610
    1LIG     O2   14  -1.622   0.160  -1.593
    1LIG     H4   15  -1.413   0.383  -1.661
    1LIG     C8   16  -1.653   0.393  -1.559
    1LIG     C9   17  -1.757   0.371  -1.465
    1LIG    C10   18  -1.824   0.479  -1.407
    1LIG     N3   19  -1.950   0.464  -1.339
    1LIG    C11   20  -1.773   0.609  -1.426
    1LIG      S   21  -2.076   0.564  -1.392
    1LIG    C12   22  -1.971   0.365  -1.235
    1LIG     O3   23  -2.201   0.508  -1.344
    1LIG     O4   24  -2.059   0.590  -1.533
    1LIG    C13   25  -2.051   0.719  -1.303
    1LIG    C14   26  -1.908   0.749  -1.260
    1LIG    C15   27  -1.808   0.734  -1.369
    1LIG    C16   28  -1.734   0.831  -1.435
    1LIG     N4   29  -1.657   0.767  -1.529
    1LIG    C17   30  -1.679   0.631  -1.526
    1LIG    C18   31  -1.627   0.524  -1.602
    1LIG    C19   32  -1.560   0.834  -1.615
    1LIG    C20   33  -1.420   0.831  -1.558
    1LIG    C21   34  -1.254   0.157  -1.612
    1LIG    C22   35  -1.245   0.014  -1.563
    1LIG    C23   36  -1.359  -0.068  -1.559
    1LIG    C24   37  -1.350  -0.198  -1.509
    1LIG    C25   38  -1.228  -0.247  -1.461
    1LIG    C26   39  -1.114  -0.167  -1.467
    1LIG    C27   40  -1.122  -0.038  -1.520
    1LIG    HC2   41  -1.050   0.553  -1.877
    1LIG    HC3   42  -1.203   0.645  -1.885
    1LIG     HC   43  -1.186   0.533  -1.478
    1LIG    HC4   44  -1.100   0.262  -1.915
    1LIG    HC5   45  -1.148   0.313  -1.751
    1LIG    HC1   46  -1.377   0.252  -1.924
    1LIG    HC6   47  -1.424   0.092  -1.726
    1LIG    HC7   48  -1.784   0.270  -1.439
    1LIG    HC8   49  -2.084   0.800  -1.367
    1LIG    HC9   50  -2.114   0.718  -1.214
    1LIG   HC10   51  -1.882   0.680  -1.179
    1LIG   HC11   52  -1.904   0.851  -1.221
    1LIG   HC12   53  -1.736   0.937  -1.415
    1LIG   HC13   54  -1.569   0.543  -1.691
    1LIG   HC14   55  -1.560   0.784  -1.712
    1LIG   HC15   56  -1.591   0.938  -1.629
    1LIG   HC16   57  -1.158   0.184  -1.655
    1LIG   HC17   58  -1.273   0.222  -1.526
    1LIG   HC18   59  -1.453  -0.031  -1.596
    1LIG   HC19   60  -1.437  -0.262  -1.508
    1LIG   HC20   61  -1.222  -0.346  -1.418
    1LIG   HC21   62  -1.020  -0.205  -1.431
    1LIG   HC22   63  -1.033   0.022  -1.529
    1LIG   HC23   64  -1.352   0.882  -1.626
    1LIG   HC24   65  -1.419   0.881  -1.461
    1LIG   HC25   66  -1.388   0.728  -1.546
    1LIG   HC26   67  -1.875   0.321  -1.206
    1LIG   HC27   68  -2.037   0.286  -1.272
    1LIG   HC28   69  -2.017   0.412  -1.148
   0.00000   0.00000   0.00000
