; Created by cgenff_charmm2gmx.py

[ moleculetype ]
; Name			   nrexcl
LIG				 3

[ atoms ]
;	 nr		  type	resnr residue  atom   cgnr	   charge		mass  typeB    chargeB		massB
; residue	 1 LIG rtp LIG q	qsum
     1      CG324      1    LIG     C1      1      0.236     12.011   ;
     2      CG1T1      1    LIG     C2      2      0.134     12.011   ;
     3      CG1T2      1    LIG     C3      3     -0.409     12.011   ;
     4      NG3P2      1    LIG     N1      4     -0.506     14.007   ;
     5       HGP2      1    LIG     H1      5      0.353      1.008   ;
     6       HGP2      1    LIG     H2      6      0.353      1.008   ;
     7      CG324      1    LIG     C4      7      0.186     12.011   ;
     8      CG311      1    LIG     C5      8      0.094     12.011   ;
     9      OG311      1    LIG     O1      9     -0.625     15.999   ;
    10       HGP1      1    LIG     H3     10      0.415      1.008   ;
    11      CG311      1    LIG     C6     11      0.010     12.011   ;
    12      NG2S1      1    LIG     N2     12     -0.226     14.007   ;
    13      CG2O1      1    LIG     C7     13      0.282     12.011   ;
    14      OG2D1      1    LIG     O2     14     -0.463     15.999   ;
    15       HGP1      1    LIG     H4     15      0.262      1.008   ;
    16     CG2R61      1    LIG     C8     16     -0.126     12.011   ;
    17     CG2R61      1    LIG     C9     17     -0.153     12.011   ;
    18     CG2R61      1    LIG    C10     18      0.166     12.011   ;
    19      NG301      1    LIG     N3     19     -0.294     14.007   ;
    20     CG2RC0      1    LIG    C11     20      0.174     12.011   ;
    21      SG3O2      1    LIG      S     21      0.439     32.060   ;
    22      CG331      1    LIG    C12     22     -0.055     12.011   ;
    23      OG2P1      1    LIG     O3     23     -0.374     15.999   ;
    24      OG2P1      1    LIG     O4     24     -0.374     15.999   ;
    25      CG321      1    LIG    C13     25      0.085     12.011   ;
    26      CG321      1    LIG    C14     26     -0.173     12.011   ;
    27     CG2R51      1    LIG    C15     27     -0.141     12.011   ;
    28     CG2R51      1    LIG    C16     28     -0.130     12.011   ;
    29     NG2R51      1    LIG     N4     29     -0.061     14.007   ;
    30     CG2RC0      1    LIG    C17     30      0.193     12.011   ;
    31     CG2R61      1    LIG    C18     31     -0.202     12.011   ;
    32      CG321      1    LIG    C19     32     -0.225     12.011   ;
    33      CG331      1    LIG    C20     33     -0.272     12.011   ;
    34      CG321      1    LIG    C21     34     -0.111     12.011   ;
    35     CG2R61      1    LIG    C22     35     -0.019     12.011   ;
    36     CG2R61      1    LIG    C23     36     -0.123     12.011   ;
    37     CG2R61      1    LIG    C24     37     -0.112     12.011   ;
    38     CG2R61      1    LIG    C25     38     -0.116     12.011   ;
    39     CG2R61      1    LIG    C26     39     -0.112     12.011   ;
    40     CG2R61      1    LIG    C27     40     -0.123     12.011   ;
    41       HGA2      1    LIG    HC2     41      0.090      1.008   ;
    42       HGA2      1    LIG    HC3     42      0.090      1.008   ;
    43     HGPAM1      1    LIG     HC     43      0.291      1.008   ;
    44       HGA2      1    LIG    HC4     44      0.090      1.008   ;
    45       HGA2      1    LIG    HC5     45      0.090      1.008   ;
    46       HGA1      1    LIG    HC1     46      0.090      1.008   ;
    47       HGA1      1    LIG    HC6     47      0.090      1.008   ;
    48      HGR61      1    LIG    HC7     48      0.134      1.008   ;
    49       HGA2      1    LIG    HC8     49      0.090      1.008   ;
    50       HGA2      1    LIG    HC9     50      0.090      1.008   ;
    51       HGA2      1    LIG   HC10     51      0.090      1.008   ;
    52       HGA2      1    LIG   HC11     52      0.090      1.008   ;
    53      HGR52      1    LIG   HC12     53      0.154      1.008   ;
    54      HGR61      1    LIG   HC13     54      0.184      1.008   ;
    55       HGA2      1    LIG   HC14     55      0.090      1.008   ;
    56       HGA2      1    LIG   HC15     56      0.090      1.008   ;
    57       HGA2      1    LIG   HC16     57      0.090      1.008   ;
    58       HGA2      1    LIG   HC17     58      0.090      1.008   ;
    59      HGR61      1    LIG   HC18     59      0.116      1.008   ;
    60      HGR61      1    LIG   HC19     60      0.116      1.008   ;
    61      HGR61      1    LIG   HC20     61      0.116      1.008   ;
    62      HGR61      1    LIG   HC21     62      0.116      1.008   ;
    63      HGR61      1    LIG   HC22     63      0.116      1.008   ;
    64       HGA3      1    LIG   HC23     64      0.090      1.008   ;
    65       HGA3      1    LIG   HC24     65      0.090      1.008   ;
    66       HGA3      1    LIG   HC25     66      0.090      1.008   ;
    67       HGA3      1    LIG   HC26     67      0.090      1.008   ;
    68       HGA3      1    LIG   HC27     68      0.090      1.008   ;
    69       HGA3      1    LIG   HC28     69      0.090      1.008   ;

[ bonds ]
;	ai	  aj funct			  c0			c1			  c2			c3
    1     4	 1 ;       CG324      NG3P2
    1     2	 1 ;       CG324      CG1T1
    1    41	 1 ;       CG324       HGA2
    1    42	 1 ;       CG324       HGA2
    2     3	 1 ;       CG1T1      CG1T2
    3    43	 1 ;       CG1T2     HGPAM1
    4     5	 1 ;       NG3P2       HGP2
    4     7	 1 ;       NG3P2      CG324
    4     6	 1 ;       NG3P2       HGP2
    7     8	 1 ;       CG324      CG311
    7    44	 1 ;       CG324       HGA2
    7    45	 1 ;       CG324       HGA2
    8     9	 1 ;       CG311      OG311
    8    11	 1 ;       CG311      CG311
    8    46	 1 ;       CG311       HGA1
    9    10	 1 ;       OG311       HGP1
   11    34	 1 ;       CG311      CG321
   11    12	 1 ;       CG311      NG2S1
   11    47	 1 ;       CG311       HGA1
   12    15	 1 ;       NG2S1       HGP1
   12    13	 1 ;       NG2S1      CG2O1
   13    14	 1 ;       CG2O1      OG2D1
   13    16	 1 ;       CG2O1     CG2R61
   16    31	 1 ;      CG2R61     CG2R61
   16    17	 1 ;      CG2R61     CG2R61
   17    18	 1 ;      CG2R61     CG2R61
   17    48	 1 ;      CG2R61      HGR61
   18    20	 1 ;      CG2R61     CG2RC0
   18    19	 1 ;      CG2R61      NG301
   19    21	 1 ;       NG301      SG3O2
   19    22	 1 ;       NG301      CG331
   20    30	 1 ;      CG2RC0     CG2RC0
   20    27	 1 ;      CG2RC0     CG2R51
   21    24	 1 ;       SG3O2      OG2P1
   21    25	 1 ;       SG3O2      CG321
   21    23	 1 ;       SG3O2      OG2P1
   22    67	 1 ;       CG331       HGA3
   22    68	 1 ;       CG331       HGA3
   22    69	 1 ;       CG331       HGA3
   25    26	 1 ;       CG321      CG321
   25    49	 1 ;       CG321       HGA2
   25    50	 1 ;       CG321       HGA2
   26    27	 1 ;       CG321     CG2R51
   26    51	 1 ;       CG321       HGA2
   26    52	 1 ;       CG321       HGA2
   27    28	 1 ;      CG2R51     CG2R51
   28    29	 1 ;      CG2R51     NG2R51
   28    53	 1 ;      CG2R51      HGR52
   29    32	 1 ;      NG2R51      CG321
   29    30	 1 ;      NG2R51     CG2RC0
   30    31	 1 ;      CG2RC0     CG2R61
   31    54	 1 ;      CG2R61      HGR61
   32    33	 1 ;       CG321      CG331
   32    55	 1 ;       CG321       HGA2
   32    56	 1 ;       CG321       HGA2
   33    64	 1 ;       CG331       HGA3
   33    65	 1 ;       CG331       HGA3
   33    66	 1 ;       CG331       HGA3
   34    35	 1 ;       CG321     CG2R61
   34    57	 1 ;       CG321       HGA2
   34    58	 1 ;       CG321       HGA2
   35    40	 1 ;      CG2R61     CG2R61
   35    36	 1 ;      CG2R61     CG2R61
   36    37	 1 ;      CG2R61     CG2R61
   36    59	 1 ;      CG2R61      HGR61
   37    38	 1 ;      CG2R61     CG2R61
   37    60	 1 ;      CG2R61      HGR61
   38    39	 1 ;      CG2R61     CG2R61
   38    61	 1 ;      CG2R61      HGR61
   39    40	 1 ;      CG2R61     CG2R61
   39    62	 1 ;      CG2R61      HGR61
   40    63	 1 ;      CG2R61      HGR61

[ pairs ]
;	ai	  aj funct			  c0			c1			  c2			c3
    1    43	 1
    1     8	 1
    1    44	 1
    1    45	 1
    2     5	 1
    2     7	 1
    2     6	 1
    3     4	 1
    3    41	 1
    3    42	 1
    4     9	 1
    4    11	 1
    4    46	 1
    5    41	 1
    5    42	 1
    5     8	 1
    5    44	 1
    5    45	 1
    6    41	 1
    6    42	 1
    6     8	 1
    6    44	 1
    6    45	 1
    7    41	 1
    7    42	 1
    7    10	 1
    7    34	 1
    7    12	 1
    7    47	 1
    8    35	 1
    8    57	 1
    8    58	 1
    8    15	 1
    8    13	 1
    9    44	 1
    9    45	 1
    9    34	 1
    9    12	 1
    9    47	 1
   10    11	 1
   10    46	 1
   11    44	 1
   11    45	 1
   11    14	 1
   11    16	 1
   11    40	 1
   11    36	 1
   12    46	 1
   12    35	 1
   12    57	 1
   12    58	 1
   12    31	 1
   12    17	 1
   13    34	 1
   13    47	 1
   13    30	 1
   13    54	 1
   13    18	 1
   13    48	 1
   14    15	 1
   14    31	 1
   14    17	 1
   15    34	 1
   15    47	 1
   15    16	 1
   16    20	 1
   16    19	 1
   16    29	 1
   17    30	 1
   17    54	 1
   17    27	 1
   17    21	 1
   17    22	 1
   18    31	 1
   18    24	 1
   18    25	 1
   18    23	 1
   18    67	 1
   18    68	 1
   18    69	 1
   18    29	 1
   18    28	 1
   18    26	 1
   19    48	 1
   19    30	 1
   19    27	 1
   19    26	 1
   19    49	 1
   19    50	 1
   20    48	 1
   20    21	 1
   20    22	 1
   20    25	 1
   20    51	 1
   20    52	 1
   20    53	 1
   20    32	 1
   20    54	 1
   21    67	 1
   21    68	 1
   21    69	 1
   21    27	 1
   21    51	 1
   21    52	 1
   22    24	 1
   22    25	 1
   22    23	 1
   23    26	 1
   23    49	 1
   23    50	 1
   24    26	 1
   24    49	 1
   24    50	 1
   25    28	 1
   26    30	 1
   26    29	 1
   26    53	 1
   27    31	 1
   27    49	 1
   27    50	 1
   27    32	 1
   28    51	 1
   28    52	 1
   28    33	 1
   28    55	 1
   28    56	 1
   28    31	 1
   29    54	 1
   29    64	 1
   29    65	 1
   29    66	 1
   30    53	 1
   30    33	 1
   30    55	 1
   30    56	 1
   31    48	 1
   31    32	 1
   32    53	 1
   34    46	 1
   34    39	 1
   34    63	 1
   34    37	 1
   34    59	 1
   35    47	 1
   35    38	 1
   35    60	 1
   35    62	 1
   36    57	 1
   36    58	 1
   36    39	 1
   36    63	 1
   36    61	 1
   37    40	 1
   37    62	 1
   38    59	 1
   38    63	 1
   39    60	 1
   40    57	 1
   40    58	 1
   40    59	 1
   40    61	 1
   44    46	 1
   45    46	 1
   46    47	 1
   47    57	 1
   47    58	 1
   49    51	 1
   49    52	 1
   50    51	 1
   50    52	 1
   55    64	 1
   55    65	 1
   55    66	 1
   56    64	 1
   56    65	 1
   56    66	 1
   59    60	 1
   60    61	 1
   61    62	 1
   62    63	 1

[ angles ]
;	ai	  aj	ak funct			c0			  c1			c2			  c3
    4     1     2	5 ;      NG3P2      CG324      CG1T1
    4     1    41	5 ;      NG3P2      CG324       HGA2
    4     1    42	5 ;      NG3P2      CG324       HGA2
    2     1    41	5 ;      CG1T1      CG324       HGA2
    2     1    42	5 ;      CG1T1      CG324       HGA2
   41     1    42	5 ;       HGA2      CG324       HGA2
    1     2     3	5 ;      CG324      CG1T1      CG1T2
    2     3    43	5 ;      CG1T1      CG1T2     HGPAM1
    5     4     7	5 ;       HGP2      NG3P2      CG324
    5     4     1	5 ;       HGP2      NG3P2      CG324
    5     4     6	5 ;       HGP2      NG3P2       HGP2
    7     4     1	5 ;      CG324      NG3P2      CG324
    7     4     6	5 ;      CG324      NG3P2       HGP2
    1     4     6	5 ;      CG324      NG3P2       HGP2
    4     7     8	5 ;      NG3P2      CG324      CG311
    4     7    44	5 ;      NG3P2      CG324       HGA2
    4     7    45	5 ;      NG3P2      CG324       HGA2
    8     7    44	5 ;      CG311      CG324       HGA2
    8     7    45	5 ;      CG311      CG324       HGA2
   44     7    45	5 ;       HGA2      CG324       HGA2
    9     8     7	5 ;      OG311      CG311      CG324
    9     8    11	5 ;      OG311      CG311      CG311
    9     8    46	5 ;      OG311      CG311       HGA1
    7     8    11	5 ;      CG324      CG311      CG311
    7     8    46	5 ;      CG324      CG311       HGA1
   11     8    46	5 ;      CG311      CG311       HGA1
   10     9     8	5 ;       HGP1      OG311      CG311
    8    11    34	5 ;      CG311      CG311      CG321
    8    11    12	5 ;      CG311      CG311      NG2S1
    8    11    47	5 ;      CG311      CG311       HGA1
   34    11    12	5 ;      CG321      CG311      NG2S1
   34    11    47	5 ;      CG321      CG311       HGA1
   12    11    47	5 ;      NG2S1      CG311       HGA1
   11    12    15	5 ;      CG311      NG2S1       HGP1
   11    12    13	5 ;      CG311      NG2S1      CG2O1
   15    12    13	5 ;       HGP1      NG2S1      CG2O1
   12    13    14	5 ;      NG2S1      CG2O1      OG2D1
   12    13    16	5 ;      NG2S1      CG2O1     CG2R61
   14    13    16	5 ;      OG2D1      CG2O1     CG2R61
   13    16    31	5 ;      CG2O1     CG2R61     CG2R61
   13    16    17	5 ;      CG2O1     CG2R61     CG2R61
   31    16    17	5 ;     CG2R61     CG2R61     CG2R61
   16    17    18	5 ;     CG2R61     CG2R61     CG2R61
   16    17    48	5 ;     CG2R61     CG2R61      HGR61
   18    17    48	5 ;     CG2R61     CG2R61      HGR61
   17    18    20	5 ;     CG2R61     CG2R61     CG2RC0
   17    18    19	5 ;     CG2R61     CG2R61      NG301
   20    18    19	5 ;     CG2RC0     CG2R61      NG301
   18    19    21	5 ;     CG2R61      NG301      SG3O2
   18    19    22	5 ;     CG2R61      NG301      CG331
   21    19    22	5 ;      SG3O2      NG301      CG331
   30    20    18	5 ;     CG2RC0     CG2RC0     CG2R61
   30    20    27	5 ;     CG2RC0     CG2RC0     CG2R51
   18    20    27	5 ;     CG2R61     CG2RC0     CG2R51
   24    21    19	5 ;      OG2P1      SG3O2      NG301
   24    21    25	5 ;      OG2P1      SG3O2      CG321
   24    21    23	5 ;      OG2P1      SG3O2      OG2P1
   19    21    25	5 ;      NG301      SG3O2      CG321
   19    21    23	5 ;      NG301      SG3O2      OG2P1
   25    21    23	5 ;      CG321      SG3O2      OG2P1
   19    22    67	5 ;      NG301      CG331       HGA3
   19    22    68	5 ;      NG301      CG331       HGA3
   19    22    69	5 ;      NG301      CG331       HGA3
   67    22    68	5 ;       HGA3      CG331       HGA3
   67    22    69	5 ;       HGA3      CG331       HGA3
   68    22    69	5 ;       HGA3      CG331       HGA3
   21    25    26	5 ;      SG3O2      CG321      CG321
   21    25    49	5 ;      SG3O2      CG321       HGA2
   21    25    50	5 ;      SG3O2      CG321       HGA2
   26    25    49	5 ;      CG321      CG321       HGA2
   26    25    50	5 ;      CG321      CG321       HGA2
   49    25    50	5 ;       HGA2      CG321       HGA2
   27    26    25	5 ;     CG2R51      CG321      CG321
   27    26    51	5 ;     CG2R51      CG321       HGA2
   27    26    52	5 ;     CG2R51      CG321       HGA2
   25    26    51	5 ;      CG321      CG321       HGA2
   25    26    52	5 ;      CG321      CG321       HGA2
   51    26    52	5 ;       HGA2      CG321       HGA2
   28    27    20	5 ;     CG2R51     CG2R51     CG2RC0
   28    27    26	5 ;     CG2R51     CG2R51      CG321
   20    27    26	5 ;     CG2RC0     CG2R51      CG321
   29    28    27	5 ;     NG2R51     CG2R51     CG2R51
   29    28    53	5 ;     NG2R51     CG2R51      HGR52
   27    28    53	5 ;     CG2R51     CG2R51      HGR52
   32    29    30	5 ;      CG321     NG2R51     CG2RC0
   32    29    28	5 ;      CG321     NG2R51     CG2R51
   30    29    28	5 ;     CG2RC0     NG2R51     CG2R51
   31    30    29	5 ;     CG2R61     CG2RC0     NG2R51
   31    30    20	5 ;     CG2R61     CG2RC0     CG2RC0
   29    30    20	5 ;     NG2R51     CG2RC0     CG2RC0
   16    31    30	5 ;     CG2R61     CG2R61     CG2RC0
   16    31    54	5 ;     CG2R61     CG2R61      HGR61
   30    31    54	5 ;     CG2RC0     CG2R61      HGR61
   33    32    29	5 ;      CG331      CG321     NG2R51
   33    32    55	5 ;      CG331      CG321       HGA2
   33    32    56	5 ;      CG331      CG321       HGA2
   29    32    55	5 ;     NG2R51      CG321       HGA2
   29    32    56	5 ;     NG2R51      CG321       HGA2
   55    32    56	5 ;       HGA2      CG321       HGA2
   32    33    64	5 ;      CG321      CG331       HGA3
   32    33    65	5 ;      CG321      CG331       HGA3
   32    33    66	5 ;      CG321      CG331       HGA3
   64    33    65	5 ;       HGA3      CG331       HGA3
   64    33    66	5 ;       HGA3      CG331       HGA3
   65    33    66	5 ;       HGA3      CG331       HGA3
   11    34    35	5 ;      CG311      CG321     CG2R61
   11    34    57	5 ;      CG311      CG321       HGA2
   11    34    58	5 ;      CG311      CG321       HGA2
   35    34    57	5 ;     CG2R61      CG321       HGA2
   35    34    58	5 ;     CG2R61      CG321       HGA2
   57    34    58	5 ;       HGA2      CG321       HGA2
   34    35    40	5 ;      CG321     CG2R61     CG2R61
   34    35    36	5 ;      CG321     CG2R61     CG2R61
   40    35    36	5 ;     CG2R61     CG2R61     CG2R61
   35    36    37	5 ;     CG2R61     CG2R61     CG2R61
   35    36    59	5 ;     CG2R61     CG2R61      HGR61
   37    36    59	5 ;     CG2R61     CG2R61      HGR61
   36    37    38	5 ;     CG2R61     CG2R61     CG2R61
   36    37    60	5 ;     CG2R61     CG2R61      HGR61
   38    37    60	5 ;     CG2R61     CG2R61      HGR61
   39    38    37	5 ;     CG2R61     CG2R61     CG2R61
   39    38    61	5 ;     CG2R61     CG2R61      HGR61
   37    38    61	5 ;     CG2R61     CG2R61      HGR61
   40    39    38	5 ;     CG2R61     CG2R61     CG2R61
   40    39    62	5 ;     CG2R61     CG2R61      HGR61
   38    39    62	5 ;     CG2R61     CG2R61      HGR61
   35    40    39	5 ;     CG2R61     CG2R61     CG2R61
   35    40    63	5 ;     CG2R61     CG2R61      HGR61
   39    40    63	5 ;     CG2R61     CG2R61      HGR61

[ dihedrals ]
;	ai	  aj	ak	  al funct			  c0			c1			  c2			c3			  c4			c5
    2     1     4     5	 9 ;      CG1T1      CG324      NG3P2       HGP2
    2     1     4     7	 9 ;      CG1T1      CG324      NG3P2      CG324
    2     1     4     6	 9 ;      CG1T1      CG324      NG3P2       HGP2
   41     1     4     5	 9 ;       HGA2      CG324      NG3P2       HGP2
   41     1     4     7	 9 ;       HGA2      CG324      NG3P2      CG324
   41     1     4     6	 9 ;       HGA2      CG324      NG3P2       HGP2
   42     1     4     5	 9 ;       HGA2      CG324      NG3P2       HGP2
   42     1     4     7	 9 ;       HGA2      CG324      NG3P2      CG324
   42     1     4     6	 9 ;       HGA2      CG324      NG3P2       HGP2
    5     4     7     8	 9 ;       HGP2      NG3P2      CG324      CG311
    5     4     7    44	 9 ;       HGP2      NG3P2      CG324       HGA2
    5     4     7    45	 9 ;       HGP2      NG3P2      CG324       HGA2
    1     4     7     8	 9 ;      CG324      NG3P2      CG324      CG311
    1     4     7    44	 9 ;      CG324      NG3P2      CG324       HGA2
    1     4     7    45	 9 ;      CG324      NG3P2      CG324       HGA2
    6     4     7     8	 9 ;       HGP2      NG3P2      CG324      CG311
    6     4     7    44	 9 ;       HGP2      NG3P2      CG324       HGA2
    6     4     7    45	 9 ;       HGP2      NG3P2      CG324       HGA2
    4     7     8     9	 9 ;      NG3P2      CG324      CG311      OG311
    4     7     8    11	 9 ;      NG3P2      CG324      CG311      CG311
    4     7     8    46	 9 ;      NG3P2      CG324      CG311       HGA1
   44     7     8     9	 9 ;       HGA2      CG324      CG311      OG311
   44     7     8    11	 9 ;       HGA2      CG324      CG311      CG311
   44     7     8    46	 9 ;       HGA2      CG324      CG311       HGA1
   45     7     8     9	 9 ;       HGA2      CG324      CG311      OG311
   45     7     8    11	 9 ;       HGA2      CG324      CG311      CG311
   45     7     8    46	 9 ;       HGA2      CG324      CG311       HGA1
    7     8     9    10	 9 ;      CG324      CG311      OG311       HGP1
   11     8     9    10	 9 ;      CG311      CG311      OG311       HGP1
   46     8     9    10	 9 ;       HGA1      CG311      OG311       HGP1
    9     8    11    34	 9 ;      OG311      CG311      CG311      CG321
    9     8    11    12	 9 ;      OG311      CG311      CG311      NG2S1
    9     8    11    47	 9 ;      OG311      CG311      CG311       HGA1
    7     8    11    34	 9 ;      CG324      CG311      CG311      CG321
    7     8    11    12	 9 ;      CG324      CG311      CG311      NG2S1
    7     8    11    47	 9 ;      CG324      CG311      CG311       HGA1
   46     8    11    34	 9 ;       HGA1      CG311      CG311      CG321
   46     8    11    12	 9 ;       HGA1      CG311      CG311      NG2S1
   46     8    11    47	 9 ;       HGA1      CG311      CG311       HGA1
    8    11    34    35	 9 ;      CG311      CG311      CG321     CG2R61
    8    11    34    57	 9 ;      CG311      CG311      CG321       HGA2
    8    11    34    58	 9 ;      CG311      CG311      CG321       HGA2
   12    11    34    35	 9 ;      NG2S1      CG311      CG321     CG2R61
   12    11    34    57	 9 ;      NG2S1      CG311      CG321       HGA2
   12    11    34    58	 9 ;      NG2S1      CG311      CG321       HGA2
   47    11    34    35	 9 ;       HGA1      CG311      CG321     CG2R61
   47    11    34    57	 9 ;       HGA1      CG311      CG321       HGA2
   47    11    34    58	 9 ;       HGA1      CG311      CG321       HGA2
    8    11    12    15	 9 ;      CG311      CG311      NG2S1       HGP1
    8    11    12    13	 9 ;      CG311      CG311      NG2S1      CG2O1
   34    11    12    15	 9 ;      CG321      CG311      NG2S1       HGP1
   34    11    12    13	 9 ;      CG321      CG311      NG2S1      CG2O1
   47    11    12    15	 9 ;       HGA1      CG311      NG2S1       HGP1
   47    11    12    13	 9 ;       HGA1      CG311      NG2S1      CG2O1
   11    12    13    14	 9 ;      CG311      NG2S1      CG2O1      OG2D1
   11    12    13    16	 9 ;      CG311      NG2S1      CG2O1     CG2R61
   15    12    13    14	 9 ;       HGP1      NG2S1      CG2O1      OG2D1
   15    12    13    16	 9 ;       HGP1      NG2S1      CG2O1     CG2R61
   12    13    16    31	 9 ;      NG2S1      CG2O1     CG2R61     CG2R61
   12    13    16    17	 9 ;      NG2S1      CG2O1     CG2R61     CG2R61
   14    13    16    31	 9 ;      OG2D1      CG2O1     CG2R61     CG2R61
   14    13    16    17	 9 ;      OG2D1      CG2O1     CG2R61     CG2R61
   13    16    31    30	 9 ;      CG2O1     CG2R61     CG2R61     CG2RC0
   13    16    31    54	 9 ;      CG2O1     CG2R61     CG2R61      HGR61
   17    16    31    30	 9 ;     CG2R61     CG2R61     CG2R61     CG2RC0
   17    16    31    54	 9 ;     CG2R61     CG2R61     CG2R61      HGR61
   13    16    17    18	 9 ;      CG2O1     CG2R61     CG2R61     CG2R61
   13    16    17    48	 9 ;      CG2O1     CG2R61     CG2R61      HGR61
   31    16    17    18	 9 ;     CG2R61     CG2R61     CG2R61     CG2R61
   31    16    17    48	 9 ;     CG2R61     CG2R61     CG2R61      HGR61
   16    17    18    20	 9 ;     CG2R61     CG2R61     CG2R61     CG2RC0
   16    17    18    19	 9 ;     CG2R61     CG2R61     CG2R61      NG301
   48    17    18    20	 9 ;      HGR61     CG2R61     CG2R61     CG2RC0
   48    17    18    19	 9 ;      HGR61     CG2R61     CG2R61      NG301
   17    18    20    30	 9 ;     CG2R61     CG2R61     CG2RC0     CG2RC0
   17    18    20    27	 9 ;     CG2R61     CG2R61     CG2RC0     CG2R51
   19    18    20    30	 9 ;      NG301     CG2R61     CG2RC0     CG2RC0
   19    18    20    27	 9 ;      NG301     CG2R61     CG2RC0     CG2R51
   17    18    19    21	 9 ;     CG2R61     CG2R61      NG301      SG3O2
   17    18    19    22	 9 ;     CG2R61     CG2R61      NG301      CG331
   20    18    19    21	 9 ;     CG2RC0     CG2R61      NG301      SG3O2
   20    18    19    22	 9 ;     CG2RC0     CG2R61      NG301      CG331
   18    19    21    24	 9 ;     CG2R61      NG301      SG3O2      OG2P1
   18    19    21    25	 9 ;     CG2R61      NG301      SG3O2      CG321
   18    19    21    23	 9 ;     CG2R61      NG301      SG3O2      OG2P1
   22    19    21    24	 9 ;      CG331      NG301      SG3O2      OG2P1
   22    19    21    25	 9 ;      CG331      NG301      SG3O2      CG321
   22    19    21    23	 9 ;      CG331      NG301      SG3O2      OG2P1
   18    19    22    67	 9 ;     CG2R61      NG301      CG331       HGA3
   18    19    22    68	 9 ;     CG2R61      NG301      CG331       HGA3
   18    19    22    69	 9 ;     CG2R61      NG301      CG331       HGA3
   21    19    22    67	 9 ;      SG3O2      NG301      CG331       HGA3
   21    19    22    68	 9 ;      SG3O2      NG301      CG331       HGA3
   21    19    22    69	 9 ;      SG3O2      NG301      CG331       HGA3
   18    20    30    31	 9 ;     CG2R61     CG2RC0     CG2RC0     CG2R61
   18    20    30    29	 9 ;     CG2R61     CG2RC0     CG2RC0     NG2R51
   27    20    30    31	 9 ;     CG2R51     CG2RC0     CG2RC0     CG2R61
   27    20    30    29	 9 ;     CG2R51     CG2RC0     CG2RC0     NG2R51
   30    20    27    28	 9 ;     CG2RC0     CG2RC0     CG2R51     CG2R51
   30    20    27    26	 9 ;     CG2RC0     CG2RC0     CG2R51      CG321
   18    20    27    28	 9 ;     CG2R61     CG2RC0     CG2R51     CG2R51
   18    20    27    26	 9 ;     CG2R61     CG2RC0     CG2R51      CG321
   24    21    25    26	 9 ;      OG2P1      SG3O2      CG321      CG321
   24    21    25    49	 9 ;      OG2P1      SG3O2      CG321       HGA2
   24    21    25    50	 9 ;      OG2P1      SG3O2      CG321       HGA2
   19    21    25    26	 9 ;      NG301      SG3O2      CG321      CG321
   19    21    25    49	 9 ;      NG301      SG3O2      CG321       HGA2
   19    21    25    50	 9 ;      NG301      SG3O2      CG321       HGA2
   23    21    25    26	 9 ;      OG2P1      SG3O2      CG321      CG321
   23    21    25    49	 9 ;      OG2P1      SG3O2      CG321       HGA2
   23    21    25    50	 9 ;      OG2P1      SG3O2      CG321       HGA2
   21    25    26    27	 9 ;      SG3O2      CG321      CG321     CG2R51
   21    25    26    51	 9 ;      SG3O2      CG321      CG321       HGA2
   21    25    26    52	 9 ;      SG3O2      CG321      CG321       HGA2
   49    25    26    27	 9 ;       HGA2      CG321      CG321     CG2R51
   49    25    26    51	 9 ;       HGA2      CG321      CG321       HGA2
   49    25    26    52	 9 ;       HGA2      CG321      CG321       HGA2
   50    25    26    27	 9 ;       HGA2      CG321      CG321     CG2R51
   50    25    26    51	 9 ;       HGA2      CG321      CG321       HGA2
   50    25    26    52	 9 ;       HGA2      CG321      CG321       HGA2
   25    26    27    28	 9 ;      CG321      CG321     CG2R51     CG2R51
   25    26    27    20	 9 ;      CG321      CG321     CG2R51     CG2RC0
   51    26    27    28	 9 ;       HGA2      CG321     CG2R51     CG2R51
   51    26    27    20	 9 ;       HGA2      CG321     CG2R51     CG2RC0
   52    26    27    28	 9 ;       HGA2      CG321     CG2R51     CG2R51
   52    26    27    20	 9 ;       HGA2      CG321     CG2R51     CG2RC0
   20    27    28    29	 9 ;     CG2RC0     CG2R51     CG2R51     NG2R51
   20    27    28    53	 9 ;     CG2RC0     CG2R51     CG2R51      HGR52
   26    27    28    29	 9 ;      CG321     CG2R51     CG2R51     NG2R51
   26    27    28    53	 9 ;      CG321     CG2R51     CG2R51      HGR52
   27    28    29    32	 9 ;     CG2R51     CG2R51     NG2R51      CG321
   27    28    29    30	 9 ;     CG2R51     CG2R51     NG2R51     CG2RC0
   53    28    29    32	 9 ;      HGR52     CG2R51     NG2R51      CG321
   53    28    29    30	 9 ;      HGR52     CG2R51     NG2R51     CG2RC0
   30    29    32    33	 9 ;     CG2RC0     NG2R51      CG321      CG331
   30    29    32    55	 9 ;     CG2RC0     NG2R51      CG321       HGA2
   30    29    32    56	 9 ;     CG2RC0     NG2R51      CG321       HGA2
   28    29    32    33	 9 ;     CG2R51     NG2R51      CG321      CG331
   28    29    32    55	 9 ;     CG2R51     NG2R51      CG321       HGA2
   28    29    32    56	 9 ;     CG2R51     NG2R51      CG321       HGA2
   32    29    30    31	 9 ;      CG321     NG2R51     CG2RC0     CG2R61
   32    29    30    20	 9 ;      CG321     NG2R51     CG2RC0     CG2RC0
   28    29    30    31	 9 ;     CG2R51     NG2R51     CG2RC0     CG2R61
   28    29    30    20	 9 ;     CG2R51     NG2R51     CG2RC0     CG2RC0
   29    30    31    16	 9 ;     NG2R51     CG2RC0     CG2R61     CG2R61
   29    30    31    54	 9 ;     NG2R51     CG2RC0     CG2R61      HGR61
   20    30    31    16	 9 ;     CG2RC0     CG2RC0     CG2R61     CG2R61
   20    30    31    54	 9 ;     CG2RC0     CG2RC0     CG2R61      HGR61
   29    32    33    64	 9 ;     NG2R51      CG321      CG331       HGA3
   29    32    33    65	 9 ;     NG2R51      CG321      CG331       HGA3
   29    32    33    66	 9 ;     NG2R51      CG321      CG331       HGA3
   55    32    33    64	 9 ;       HGA2      CG321      CG331       HGA3
   55    32    33    65	 9 ;       HGA2      CG321      CG331       HGA3
   55    32    33    66	 9 ;       HGA2      CG321      CG331       HGA3
   56    32    33    64	 9 ;       HGA2      CG321      CG331       HGA3
   56    32    33    65	 9 ;       HGA2      CG321      CG331       HGA3
   56    32    33    66	 9 ;       HGA2      CG321      CG331       HGA3
   11    34    35    40	 9 ;      CG311      CG321     CG2R61     CG2R61
   11    34    35    36	 9 ;      CG311      CG321     CG2R61     CG2R61
   57    34    35    40	 9 ;       HGA2      CG321     CG2R61     CG2R61
   57    34    35    36	 9 ;       HGA2      CG321     CG2R61     CG2R61
   58    34    35    40	 9 ;       HGA2      CG321     CG2R61     CG2R61
   58    34    35    36	 9 ;       HGA2      CG321     CG2R61     CG2R61
   34    35    40    39	 9 ;      CG321     CG2R61     CG2R61     CG2R61
   34    35    40    63	 9 ;      CG321     CG2R61     CG2R61      HGR61
   36    35    40    39	 9 ;     CG2R61     CG2R61     CG2R61     CG2R61
   36    35    40    63	 9 ;     CG2R61     CG2R61     CG2R61      HGR61
   34    35    36    37	 9 ;      CG321     CG2R61     CG2R61     CG2R61
   34    35    36    59	 9 ;      CG321     CG2R61     CG2R61      HGR61
   40    35    36    37	 9 ;     CG2R61     CG2R61     CG2R61     CG2R61
   40    35    36    59	 9 ;     CG2R61     CG2R61     CG2R61      HGR61
   35    36    37    38	 9 ;     CG2R61     CG2R61     CG2R61     CG2R61
   35    36    37    60	 9 ;     CG2R61     CG2R61     CG2R61      HGR61
   59    36    37    38	 9 ;      HGR61     CG2R61     CG2R61     CG2R61
   59    36    37    60	 9 ;      HGR61     CG2R61     CG2R61      HGR61
   36    37    38    39	 9 ;     CG2R61     CG2R61     CG2R61     CG2R61
   36    37    38    61	 9 ;     CG2R61     CG2R61     CG2R61      HGR61
   60    37    38    39	 9 ;      HGR61     CG2R61     CG2R61     CG2R61
   60    37    38    61	 9 ;      HGR61     CG2R61     CG2R61      HGR61
   37    38    39    40	 9 ;     CG2R61     CG2R61     CG2R61     CG2R61
   37    38    39    62	 9 ;     CG2R61     CG2R61     CG2R61      HGR61
   61    38    39    40	 9 ;      HGR61     CG2R61     CG2R61     CG2R61
   61    38    39    62	 9 ;      HGR61     CG2R61     CG2R61      HGR61
   38    39    40    35	 9 ;     CG2R61     CG2R61     CG2R61     CG2R61
   38    39    40    63	 9 ;     CG2R61     CG2R61     CG2R61      HGR61
   62    39    40    35	 9 ;      HGR61     CG2R61     CG2R61     CG2R61
   62    39    40    63	 9 ;      HGR61     CG2R61     CG2R61      HGR61

[ dihedrals ]
;	ai	  aj	ak	  al funct			  c0			c1			  c2			c3
   13    16    12    14	 2

