; Created by cgenff_charmm2gmx.py

[ moleculetype ]
; Name			   nrexcl
LIG				 3

[ atoms ]
;	 nr		  type	resnr residue  atom   cgnr	   charge		mass  typeB    chargeB		massB
; residue	 1 LIG rtp LIG q	qsum
     1      CG324      1    LIG     C1      1      0.208     12.011   ;
     2      CG311      1    LIG     C2      2      0.089     12.011   ;
     3      OG311      1    LIG     O1      3     -0.625     15.999   ;
     4       HGP1      1    LIG     H1      4      0.415      1.008   ;
     5      CG311      1    LIG     C3      5     -0.007     12.011   ;
     6      CG321      1    LIG     C4      6     -0.153     12.011   ;
     7     CG2R61      1    LIG     C5      7      0.057     12.011   ;
     8     CG2R61      1    LIG     C6      8     -0.218     12.011   ;
     9     CG2R66      1    LIG     C7      9      0.261     12.011   ;
    10       FGR1      1    LIG     F1     10     -0.210     18.998   ;
    11     CG2R61      1    LIG     C8     11     -0.240     12.011   ;
    12     CG2R66      1    LIG     C9     12      0.261     12.011   ;
    13     CG2R61      1    LIG    C10     13     -0.218     12.011   ;
    14       FGR1      1    LIG     F2     14     -0.210     18.998   ;
    15      NG2S1      1    LIG     N1     15     -0.339     14.007   ;
    16      CG2O1      1    LIG    C11     16      0.488     12.011   ;
    17      OG2D1      1    LIG     O2     17     -0.509     15.999   ;
    18      CG331      1    LIG    C12     18     -0.270     12.011   ;
    19       HGP1      1    LIG     H2     19      0.261      1.008   ;
    20      NG3P2      1    LIG     N2     20     -0.450     14.007   ;
    21       HGP2      1    LIG     H3     21      0.341      1.008   ;
    22       HGP2      1    LIG     H4     22      0.341      1.008   ;
    23      CG301      1    LIG    C13     23      0.295     12.011   ;
    24      CG321      1    LIG    C14     24     -0.147     12.011   ;
    25      CG321      1    LIG    C15     25     -0.202     12.011   ;
    26      CG321      1    LIG    C16     26     -0.176     12.011   ;
    27      CG321      1    LIG    C17     27     -0.202     12.011   ;
    28      CG321      1    LIG    C18     28     -0.147     12.011   ;
    29     CG2R61      1    LIG    C19     29      0.085     12.011   ;
    30     CG2R61      1    LIG    C20     30     -0.134     12.011   ;
    31     CG2R61      1    LIG    C21     31      0.012     12.011   ;
    32     CG2R61      1    LIG    C22     32     -0.121     12.011   ;
    33     CG2R61      1    LIG    C23     33     -0.110     12.011   ;
    34     CG2R61      1    LIG    C24     34     -0.129     12.011   ;
    35     CG2DC1      1    LIG    C25     35     -0.198     12.011   ;
    36     CG2DC1      1    LIG    C26     36     -0.050     12.011   ;
    37      CG331      1    LIG    C27     37     -0.280     12.011   ;
    38      CG331      1    LIG    C28     38     -0.149     12.011   ;
    39       HGA2      1    LIG    HC2     39      0.090      1.008   ;
    40       HGA2      1    LIG    HC3     40      0.090      1.008   ;
    41       HGA1      1    LIG     HC     41      0.090      1.008   ;
    42       HGA1      1    LIG    HC1     42      0.090      1.008   ;
    43       HGA2      1    LIG    HC4     43      0.090      1.008   ;
    44       HGA2      1    LIG    HC5     44      0.090      1.008   ;
    45      HGR62      1    LIG    HC6     45      0.174      1.008   ;
    46      HGR62      1    LIG    HC7     46      0.186      1.008   ;
    47      HGR62      1    LIG    HC8     47      0.174      1.008   ;
    48       HGA2      1    LIG    HC9     48      0.090      1.008   ;
    49       HGA2      1    LIG   HC10     49      0.090      1.008   ;
    50       HGA2      1    LIG   HC11     50      0.090      1.008   ;
    51       HGA2      1    LIG   HC12     51      0.090      1.008   ;
    52       HGA2      1    LIG   HC13     52      0.090      1.008   ;
    53       HGA2      1    LIG   HC14     53      0.090      1.008   ;
    54       HGA2      1    LIG   HC15     54      0.090      1.008   ;
    55       HGA2      1    LIG   HC16     55      0.090      1.008   ;
    56       HGA2      1    LIG   HC17     56      0.090      1.008   ;
    57       HGA2      1    LIG   HC18     57      0.090      1.008   ;
    58      HGR61      1    LIG   HC19     58      0.116      1.008   ;
    59      HGR61      1    LIG   HC20     59      0.116      1.008   ;
    60      HGR61      1    LIG   HC21     60      0.116      1.008   ;
    61      HGR61      1    LIG   HC22     61      0.116      1.008   ;
    62       HGA4      1    LIG   HC23     62      0.132      1.008   ;
    63       HGA3      1    LIG   HC24     63      0.090      1.008   ;
    64       HGA3      1    LIG   HC25     64      0.090      1.008   ;
    65       HGA3      1    LIG   HC26     65      0.090      1.008   ;
    66       HGA3      1    LIG   HC27     66      0.090      1.008   ;
    67       HGA3      1    LIG   HC28     67      0.090      1.008   ;
    68       HGA3      1    LIG   HC29     68      0.090      1.008   ;
    69       HGA3      1    LIG   HC30     69      0.090      1.008   ;
    70       HGA3      1    LIG   HC31     70      0.090      1.008   ;
    71       HGA3      1    LIG   HC32     71      0.090      1.008   ;

[ bonds ]
;	ai	  aj funct			  c0			c1			  c2			c3
    1     2	 1 ;       CG324      CG311
    1    20	 1 ;       CG324      NG3P2
    1    39	 1 ;       CG324       HGA2
    1    40	 1 ;       CG324       HGA2
    2     5	 1 ;       CG311      CG311
    2     3	 1 ;       CG311      OG311
    2    41	 1 ;       CG311       HGA1
    3     4	 1 ;       OG311       HGP1
    5    15	 1 ;       CG311      NG2S1
    5     6	 1 ;       CG311      CG321
    5    42	 1 ;       CG311       HGA1
    6     7	 1 ;       CG321     CG2R61
    6    43	 1 ;       CG321       HGA2
    6    44	 1 ;       CG321       HGA2
    7    13	 1 ;      CG2R61     CG2R61
    7     8	 1 ;      CG2R61     CG2R61
    8     9	 1 ;      CG2R61     CG2R66
    8    45	 1 ;      CG2R61      HGR62
    9    11	 1 ;      CG2R66     CG2R61
    9    10	 1 ;      CG2R66       FGR1
   11    12	 1 ;      CG2R61     CG2R66
   11    46	 1 ;      CG2R61      HGR62
   12    14	 1 ;      CG2R66       FGR1
   12    13	 1 ;      CG2R66     CG2R61
   13    47	 1 ;      CG2R61      HGR62
   15    19	 1 ;       NG2S1       HGP1
   15    16	 1 ;       NG2S1      CG2O1
   16    18	 1 ;       CG2O1      CG331
   16    17	 1 ;       CG2O1      OG2D1
   18    66	 1 ;       CG331       HGA3
   18    67	 1 ;       CG331       HGA3
   18    68	 1 ;       CG331       HGA3
   20    21	 1 ;       NG3P2       HGP2
   20    23	 1 ;       NG3P2      CG301
   20    22	 1 ;       NG3P2       HGP2
   23    29	 1 ;       CG301     CG2R61
   23    24	 1 ;       CG301      CG321
   23    28	 1 ;       CG301      CG321
   24    25	 1 ;       CG321      CG321
   24    48	 1 ;       CG321       HGA2
   24    49	 1 ;       CG321       HGA2
   25    26	 1 ;       CG321      CG321
   25    50	 1 ;       CG321       HGA2
   25    51	 1 ;       CG321       HGA2
   26    27	 1 ;       CG321      CG321
   26    52	 1 ;       CG321       HGA2
   26    53	 1 ;       CG321       HGA2
   27    28	 1 ;       CG321      CG321
   27    54	 1 ;       CG321       HGA2
   27    55	 1 ;       CG321       HGA2
   28    56	 1 ;       CG321       HGA2
   28    57	 1 ;       CG321       HGA2
   29    30	 1 ;      CG2R61     CG2R61
   29    34	 1 ;      CG2R61     CG2R61
   30    31	 1 ;      CG2R61     CG2R61
   30    58	 1 ;      CG2R61      HGR61
   31    35	 1 ;      CG2R61     CG2DC1
   31    32	 1 ;      CG2R61     CG2R61
   32    33	 1 ;      CG2R61     CG2R61
   32    59	 1 ;      CG2R61      HGR61
   33    34	 1 ;      CG2R61     CG2R61
   33    60	 1 ;      CG2R61      HGR61
   34    61	 1 ;      CG2R61      HGR61
   35    38	 1 ;      CG2DC1      CG331
   35    36	 1 ;      CG2DC1     CG2DC1
   36    37	 1 ;      CG2DC1      CG331
   36    62	 1 ;      CG2DC1       HGA4
   37    63	 1 ;       CG331       HGA3
   37    64	 1 ;       CG331       HGA3
   37    65	 1 ;       CG331       HGA3
   38    69	 1 ;       CG331       HGA3
   38    70	 1 ;       CG331       HGA3
   38    71	 1 ;       CG331       HGA3

[ pairs ]
;	ai	  aj funct			  c0			c1			  c2			c3
    1    15	 1
    1     6	 1
    1    42	 1
    1     4	 1
    1    29	 1
    1    24	 1
    1    28	 1
    2    21	 1
    2    23	 1
    2    22	 1
    2    19	 1
    2    16	 1
    2     7	 1
    2    43	 1
    2    44	 1
    3    20	 1
    3    39	 1
    3    40	 1
    3    15	 1
    3     6	 1
    3    42	 1
    4     5	 1
    4    41	 1
    5    20	 1
    5    39	 1
    5    40	 1
    5    13	 1
    5     8	 1
    5    18	 1
    5    17	 1
    6    41	 1
    6    19	 1
    6    16	 1
    6    12	 1
    6    47	 1
    6     9	 1
    6    45	 1
    7    15	 1
    7    42	 1
    7    11	 1
    7    10	 1
    7    14	 1
    8    43	 1
    8    44	 1
    8    12	 1
    8    47	 1
    8    46	 1
    9    13	 1
    9    14	 1
   10    45	 1
   10    12	 1
   10    46	 1
   11    45	 1
   11    47	 1
   13    43	 1
   13    44	 1
   13    45	 1
   13    46	 1
   14    46	 1
   14    47	 1
   15    41	 1
   15    43	 1
   15    44	 1
   15    66	 1
   15    67	 1
   15    68	 1
   16    42	 1
   17    19	 1
   17    66	 1
   17    67	 1
   17    68	 1
   18    19	 1
   19    42	 1
   20    41	 1
   20    30	 1
   20    34	 1
   20    25	 1
   20    48	 1
   20    49	 1
   20    27	 1
   20    56	 1
   20    57	 1
   21    39	 1
   21    40	 1
   21    29	 1
   21    24	 1
   21    28	 1
   22    39	 1
   22    40	 1
   22    29	 1
   22    24	 1
   22    28	 1
   23    39	 1
   23    40	 1
   23    26	 1
   23    50	 1
   23    51	 1
   23    54	 1
   23    55	 1
   23    31	 1
   23    58	 1
   23    33	 1
   23    61	 1
   24    30	 1
   24    34	 1
   24    27	 1
   24    56	 1
   24    57	 1
   24    52	 1
   24    53	 1
   25    29	 1
   25    28	 1
   25    54	 1
   25    55	 1
   26    48	 1
   26    49	 1
   26    56	 1
   26    57	 1
   27    29	 1
   27    50	 1
   27    51	 1
   28    30	 1
   28    34	 1
   28    48	 1
   28    49	 1
   28    52	 1
   28    53	 1
   29    48	 1
   29    49	 1
   29    56	 1
   29    57	 1
   29    35	 1
   29    32	 1
   29    60	 1
   30    33	 1
   30    61	 1
   30    38	 1
   30    36	 1
   30    59	 1
   31    34	 1
   31    60	 1
   31    69	 1
   31    70	 1
   31    71	 1
   31    37	 1
   31    62	 1
   32    58	 1
   32    38	 1
   32    36	 1
   32    61	 1
   33    35	 1
   34    58	 1
   34    59	 1
   35    58	 1
   35    59	 1
   35    63	 1
   35    64	 1
   35    65	 1
   36    69	 1
   36    70	 1
   36    71	 1
   37    38	 1
   38    62	 1
   39    41	 1
   40    41	 1
   41    42	 1
   42    43	 1
   42    44	 1
   48    50	 1
   48    51	 1
   49    50	 1
   49    51	 1
   50    52	 1
   50    53	 1
   51    52	 1
   51    53	 1
   52    54	 1
   52    55	 1
   53    54	 1
   53    55	 1
   54    56	 1
   54    57	 1
   55    56	 1
   55    57	 1
   59    60	 1
   60    61	 1
   62    63	 1
   62    64	 1
   62    65	 1

[ angles ]
;	ai	  aj	ak funct			c0			  c1			c2			  c3
    2     1    20	5 ;      CG311      CG324      NG3P2
    2     1    39	5 ;      CG311      CG324       HGA2
    2     1    40	5 ;      CG311      CG324       HGA2
   20     1    39	5 ;      NG3P2      CG324       HGA2
   20     1    40	5 ;      NG3P2      CG324       HGA2
   39     1    40	5 ;       HGA2      CG324       HGA2
    5     2     3	5 ;      CG311      CG311      OG311
    5     2     1	5 ;      CG311      CG311      CG324
    5     2    41	5 ;      CG311      CG311       HGA1
    3     2     1	5 ;      OG311      CG311      CG324
    3     2    41	5 ;      OG311      CG311       HGA1
    1     2    41	5 ;      CG324      CG311       HGA1
    2     3     4	5 ;      CG311      OG311       HGP1
   15     5     6	5 ;      NG2S1      CG311      CG321
   15     5     2	5 ;      NG2S1      CG311      CG311
   15     5    42	5 ;      NG2S1      CG311       HGA1
    6     5     2	5 ;      CG321      CG311      CG311
    6     5    42	5 ;      CG321      CG311       HGA1
    2     5    42	5 ;      CG311      CG311       HGA1
    7     6     5	5 ;     CG2R61      CG321      CG311
    7     6    43	5 ;     CG2R61      CG321       HGA2
    7     6    44	5 ;     CG2R61      CG321       HGA2
    5     6    43	5 ;      CG311      CG321       HGA2
    5     6    44	5 ;      CG311      CG321       HGA2
   43     6    44	5 ;       HGA2      CG321       HGA2
   13     7     8	5 ;     CG2R61     CG2R61     CG2R61
   13     7     6	5 ;     CG2R61     CG2R61      CG321
    8     7     6	5 ;     CG2R61     CG2R61      CG321
    9     8     7	5 ;     CG2R66     CG2R61     CG2R61
    9     8    45	5 ;     CG2R66     CG2R61      HGR62
    7     8    45	5 ;     CG2R61     CG2R61      HGR62
   11     9    10	5 ;     CG2R61     CG2R66       FGR1
   11     9     8	5 ;     CG2R61     CG2R66     CG2R61
   10     9     8	5 ;       FGR1     CG2R66     CG2R61
   12    11     9	5 ;     CG2R66     CG2R61     CG2R66
   12    11    46	5 ;     CG2R66     CG2R61      HGR62
    9    11    46	5 ;     CG2R66     CG2R61      HGR62
   14    12    11	5 ;       FGR1     CG2R66     CG2R61
   14    12    13	5 ;       FGR1     CG2R66     CG2R61
   11    12    13	5 ;     CG2R61     CG2R66     CG2R61
   12    13     7	5 ;     CG2R66     CG2R61     CG2R61
   12    13    47	5 ;     CG2R66     CG2R61      HGR62
    7    13    47	5 ;     CG2R61     CG2R61      HGR62
   19    15    16	5 ;       HGP1      NG2S1      CG2O1
   19    15     5	5 ;       HGP1      NG2S1      CG311
   16    15     5	5 ;      CG2O1      NG2S1      CG311
   18    16    15	5 ;      CG331      CG2O1      NG2S1
   18    16    17	5 ;      CG331      CG2O1      OG2D1
   15    16    17	5 ;      NG2S1      CG2O1      OG2D1
   16    18    66	5 ;      CG2O1      CG331       HGA3
   16    18    67	5 ;      CG2O1      CG331       HGA3
   16    18    68	5 ;      CG2O1      CG331       HGA3
   66    18    67	5 ;       HGA3      CG331       HGA3
   66    18    68	5 ;       HGA3      CG331       HGA3
   67    18    68	5 ;       HGA3      CG331       HGA3
    1    20    21	5 ;      CG324      NG3P2       HGP2
    1    20    23	5 ;      CG324      NG3P2      CG301
    1    20    22	5 ;      CG324      NG3P2       HGP2
   21    20    23	5 ;       HGP2      NG3P2      CG301
   21    20    22	5 ;       HGP2      NG3P2       HGP2
   23    20    22	5 ;      CG301      NG3P2       HGP2
   29    23    20	5 ;     CG2R61      CG301      NG3P2
   29    23    24	5 ;     CG2R61      CG301      CG321
   29    23    28	5 ;     CG2R61      CG301      CG321
   20    23    24	5 ;      NG3P2      CG301      CG321
   20    23    28	5 ;      NG3P2      CG301      CG321
   24    23    28	5 ;      CG321      CG301      CG321
   23    24    25	5 ;      CG301      CG321      CG321
   23    24    48	5 ;      CG301      CG321       HGA2
   23    24    49	5 ;      CG301      CG321       HGA2
   25    24    48	5 ;      CG321      CG321       HGA2
   25    24    49	5 ;      CG321      CG321       HGA2
   48    24    49	5 ;       HGA2      CG321       HGA2
   24    25    26	5 ;      CG321      CG321      CG321
   24    25    50	5 ;      CG321      CG321       HGA2
   24    25    51	5 ;      CG321      CG321       HGA2
   26    25    50	5 ;      CG321      CG321       HGA2
   26    25    51	5 ;      CG321      CG321       HGA2
   50    25    51	5 ;       HGA2      CG321       HGA2
   25    26    27	5 ;      CG321      CG321      CG321
   25    26    52	5 ;      CG321      CG321       HGA2
   25    26    53	5 ;      CG321      CG321       HGA2
   27    26    52	5 ;      CG321      CG321       HGA2
   27    26    53	5 ;      CG321      CG321       HGA2
   52    26    53	5 ;       HGA2      CG321       HGA2
   28    27    26	5 ;      CG321      CG321      CG321
   28    27    54	5 ;      CG321      CG321       HGA2
   28    27    55	5 ;      CG321      CG321       HGA2
   26    27    54	5 ;      CG321      CG321       HGA2
   26    27    55	5 ;      CG321      CG321       HGA2
   54    27    55	5 ;       HGA2      CG321       HGA2
   23    28    27	5 ;      CG301      CG321      CG321
   23    28    56	5 ;      CG301      CG321       HGA2
   23    28    57	5 ;      CG301      CG321       HGA2
   27    28    56	5 ;      CG321      CG321       HGA2
   27    28    57	5 ;      CG321      CG321       HGA2
   56    28    57	5 ;       HGA2      CG321       HGA2
   30    29    34	5 ;     CG2R61     CG2R61     CG2R61
   30    29    23	5 ;     CG2R61     CG2R61      CG301
   34    29    23	5 ;     CG2R61     CG2R61      CG301
   31    30    29	5 ;     CG2R61     CG2R61     CG2R61
   31    30    58	5 ;     CG2R61     CG2R61      HGR61
   29    30    58	5 ;     CG2R61     CG2R61      HGR61
   35    31    32	5 ;     CG2DC1     CG2R61     CG2R61
   35    31    30	5 ;     CG2DC1     CG2R61     CG2R61
   32    31    30	5 ;     CG2R61     CG2R61     CG2R61
   31    32    33	5 ;     CG2R61     CG2R61     CG2R61
   31    32    59	5 ;     CG2R61     CG2R61      HGR61
   33    32    59	5 ;     CG2R61     CG2R61      HGR61
   32    33    34	5 ;     CG2R61     CG2R61     CG2R61
   32    33    60	5 ;     CG2R61     CG2R61      HGR61
   34    33    60	5 ;     CG2R61     CG2R61      HGR61
   33    34    29	5 ;     CG2R61     CG2R61     CG2R61
   33    34    61	5 ;     CG2R61     CG2R61      HGR61
   29    34    61	5 ;     CG2R61     CG2R61      HGR61
   38    35    36	5 ;      CG331     CG2DC1     CG2DC1
   38    35    31	5 ;      CG331     CG2DC1     CG2R61
   36    35    31	5 ;     CG2DC1     CG2DC1     CG2R61
   35    36    37	5 ;     CG2DC1     CG2DC1      CG331
   35    36    62	5 ;     CG2DC1     CG2DC1       HGA4
   37    36    62	5 ;      CG331     CG2DC1       HGA4
   36    37    63	5 ;     CG2DC1      CG331       HGA3
   36    37    64	5 ;     CG2DC1      CG331       HGA3
   36    37    65	5 ;     CG2DC1      CG331       HGA3
   63    37    64	5 ;       HGA3      CG331       HGA3
   63    37    65	5 ;       HGA3      CG331       HGA3
   64    37    65	5 ;       HGA3      CG331       HGA3
   35    38    69	5 ;     CG2DC1      CG331       HGA3
   35    38    70	5 ;     CG2DC1      CG331       HGA3
   35    38    71	5 ;     CG2DC1      CG331       HGA3
   69    38    70	5 ;       HGA3      CG331       HGA3
   69    38    71	5 ;       HGA3      CG331       HGA3
   70    38    71	5 ;       HGA3      CG331       HGA3

[ dihedrals ]
;	ai	  aj	ak	  al funct			  c0			c1			  c2			c3			  c4			c5
   20     1     2     5	 9 ;      NG3P2      CG324      CG311      CG311
   20     1     2     3	 9 ;      NG3P2      CG324      CG311      OG311
   20     1     2    41	 9 ;      NG3P2      CG324      CG311       HGA1
   39     1     2     5	 9 ;       HGA2      CG324      CG311      CG311
   39     1     2     3	 9 ;       HGA2      CG324      CG311      OG311
   39     1     2    41	 9 ;       HGA2      CG324      CG311       HGA1
   40     1     2     5	 9 ;       HGA2      CG324      CG311      CG311
   40     1     2     3	 9 ;       HGA2      CG324      CG311      OG311
   40     1     2    41	 9 ;       HGA2      CG324      CG311       HGA1
    2     1    20    21	 9 ;      CG311      CG324      NG3P2       HGP2
    2     1    20    23	 9 ;      CG311      CG324      NG3P2      CG301
    2     1    20    22	 9 ;      CG311      CG324      NG3P2       HGP2
   39     1    20    21	 9 ;       HGA2      CG324      NG3P2       HGP2
   39     1    20    23	 9 ;       HGA2      CG324      NG3P2      CG301
   39     1    20    22	 9 ;       HGA2      CG324      NG3P2       HGP2
   40     1    20    21	 9 ;       HGA2      CG324      NG3P2       HGP2
   40     1    20    23	 9 ;       HGA2      CG324      NG3P2      CG301
   40     1    20    22	 9 ;       HGA2      CG324      NG3P2       HGP2
    3     2     5    15	 9 ;      OG311      CG311      CG311      NG2S1
    3     2     5     6	 9 ;      OG311      CG311      CG311      CG321
    3     2     5    42	 9 ;      OG311      CG311      CG311       HGA1
    1     2     5    15	 9 ;      CG324      CG311      CG311      NG2S1
    1     2     5     6	 9 ;      CG324      CG311      CG311      CG321
    1     2     5    42	 9 ;      CG324      CG311      CG311       HGA1
   41     2     5    15	 9 ;       HGA1      CG311      CG311      NG2S1
   41     2     5     6	 9 ;       HGA1      CG311      CG311      CG321
   41     2     5    42	 9 ;       HGA1      CG311      CG311       HGA1
    5     2     3     4	 9 ;      CG311      CG311      OG311       HGP1
    1     2     3     4	 9 ;      CG324      CG311      OG311       HGP1
   41     2     3     4	 9 ;       HGA1      CG311      OG311       HGP1
    6     5    15    19	 9 ;      CG321      CG311      NG2S1       HGP1
    6     5    15    16	 9 ;      CG321      CG311      NG2S1      CG2O1
    2     5    15    19	 9 ;      CG311      CG311      NG2S1       HGP1
    2     5    15    16	 9 ;      CG311      CG311      NG2S1      CG2O1
   42     5    15    19	 9 ;       HGA1      CG311      NG2S1       HGP1
   42     5    15    16	 9 ;       HGA1      CG311      NG2S1      CG2O1
   15     5     6     7	 9 ;      NG2S1      CG311      CG321     CG2R61
   15     5     6    43	 9 ;      NG2S1      CG311      CG321       HGA2
   15     5     6    44	 9 ;      NG2S1      CG311      CG321       HGA2
    2     5     6     7	 9 ;      CG311      CG311      CG321     CG2R61
    2     5     6    43	 9 ;      CG311      CG311      CG321       HGA2
    2     5     6    44	 9 ;      CG311      CG311      CG321       HGA2
   42     5     6     7	 9 ;       HGA1      CG311      CG321     CG2R61
   42     5     6    43	 9 ;       HGA1      CG311      CG321       HGA2
   42     5     6    44	 9 ;       HGA1      CG311      CG321       HGA2
    5     6     7    13	 9 ;      CG311      CG321     CG2R61     CG2R61
    5     6     7     8	 9 ;      CG311      CG321     CG2R61     CG2R61
   43     6     7    13	 9 ;       HGA2      CG321     CG2R61     CG2R61
   43     6     7     8	 9 ;       HGA2      CG321     CG2R61     CG2R61
   44     6     7    13	 9 ;       HGA2      CG321     CG2R61     CG2R61
   44     6     7     8	 9 ;       HGA2      CG321     CG2R61     CG2R61
    8     7    13    12	 9 ;     CG2R61     CG2R61     CG2R61     CG2R66
    8     7    13    47	 9 ;     CG2R61     CG2R61     CG2R61      HGR62
    6     7    13    12	 9 ;      CG321     CG2R61     CG2R61     CG2R66
    6     7    13    47	 9 ;      CG321     CG2R61     CG2R61      HGR62
   13     7     8     9	 9 ;     CG2R61     CG2R61     CG2R61     CG2R66
   13     7     8    45	 9 ;     CG2R61     CG2R61     CG2R61      HGR62
    6     7     8     9	 9 ;      CG321     CG2R61     CG2R61     CG2R66
    6     7     8    45	 9 ;      CG321     CG2R61     CG2R61      HGR62
    7     8     9    11	 9 ;     CG2R61     CG2R61     CG2R66     CG2R61
    7     8     9    10	 9 ;     CG2R61     CG2R61     CG2R66       FGR1
   45     8     9    11	 9 ;      HGR62     CG2R61     CG2R66     CG2R61
   45     8     9    10	 9 ;      HGR62     CG2R61     CG2R66       FGR1
   10     9    11    12	 9 ;       FGR1     CG2R66     CG2R61     CG2R66
   10     9    11    46	 9 ;       FGR1     CG2R66     CG2R61      HGR62
    8     9    11    12	 9 ;     CG2R61     CG2R66     CG2R61     CG2R66
    8     9    11    46	 9 ;     CG2R61     CG2R66     CG2R61      HGR62
    9    11    12    14	 9 ;     CG2R66     CG2R61     CG2R66       FGR1
    9    11    12    13	 9 ;     CG2R66     CG2R61     CG2R66     CG2R61
   46    11    12    14	 9 ;      HGR62     CG2R61     CG2R66       FGR1
   46    11    12    13	 9 ;      HGR62     CG2R61     CG2R66     CG2R61
   14    12    13     7	 9 ;       FGR1     CG2R66     CG2R61     CG2R61
   14    12    13    47	 9 ;       FGR1     CG2R66     CG2R61      HGR62
   11    12    13     7	 9 ;     CG2R61     CG2R66     CG2R61     CG2R61
   11    12    13    47	 9 ;     CG2R61     CG2R66     CG2R61      HGR62
   19    15    16    18	 9 ;       HGP1      NG2S1      CG2O1      CG331
   19    15    16    17	 9 ;       HGP1      NG2S1      CG2O1      OG2D1
    5    15    16    18	 9 ;      CG311      NG2S1      CG2O1      CG331
    5    15    16    17	 9 ;      CG311      NG2S1      CG2O1      OG2D1
   15    16    18    66	 9 ;      NG2S1      CG2O1      CG331       HGA3
   15    16    18    67	 9 ;      NG2S1      CG2O1      CG331       HGA3
   15    16    18    68	 9 ;      NG2S1      CG2O1      CG331       HGA3
   17    16    18    66	 9 ;      OG2D1      CG2O1      CG331       HGA3
   17    16    18    67	 9 ;      OG2D1      CG2O1      CG331       HGA3
   17    16    18    68	 9 ;      OG2D1      CG2O1      CG331       HGA3
    1    20    23    29	 9 ;      CG324      NG3P2      CG301     CG2R61
    1    20    23    24	 9 ;      CG324      NG3P2      CG301      CG321
    1    20    23    28	 9 ;      CG324      NG3P2      CG301      CG321
   21    20    23    29	 9 ;       HGP2      NG3P2      CG301     CG2R61
   21    20    23    24	 9 ;       HGP2      NG3P2      CG301      CG321
   21    20    23    28	 9 ;       HGP2      NG3P2      CG301      CG321
   22    20    23    29	 9 ;       HGP2      NG3P2      CG301     CG2R61
   22    20    23    24	 9 ;       HGP2      NG3P2      CG301      CG321
   22    20    23    28	 9 ;       HGP2      NG3P2      CG301      CG321
   20    23    29    30	 9 ;      NG3P2      CG301     CG2R61     CG2R61
   20    23    29    34	 9 ;      NG3P2      CG301     CG2R61     CG2R61
   24    23    29    30	 9 ;      CG321      CG301     CG2R61     CG2R61
   24    23    29    34	 9 ;      CG321      CG301     CG2R61     CG2R61
   28    23    29    30	 9 ;      CG321      CG301     CG2R61     CG2R61
   28    23    29    34	 9 ;      CG321      CG301     CG2R61     CG2R61
   29    23    24    25	 9 ;     CG2R61      CG301      CG321      CG321
   29    23    24    48	 9 ;     CG2R61      CG301      CG321       HGA2
   29    23    24    49	 9 ;     CG2R61      CG301      CG321       HGA2
   20    23    24    25	 9 ;      NG3P2      CG301      CG321      CG321
   20    23    24    48	 9 ;      NG3P2      CG301      CG321       HGA2
   20    23    24    49	 9 ;      NG3P2      CG301      CG321       HGA2
   28    23    24    25	 9 ;      CG321      CG301      CG321      CG321
   28    23    24    48	 9 ;      CG321      CG301      CG321       HGA2
   28    23    24    49	 9 ;      CG321      CG301      CG321       HGA2
   29    23    28    27	 9 ;     CG2R61      CG301      CG321      CG321
   29    23    28    56	 9 ;     CG2R61      CG301      CG321       HGA2
   29    23    28    57	 9 ;     CG2R61      CG301      CG321       HGA2
   20    23    28    27	 9 ;      NG3P2      CG301      CG321      CG321
   20    23    28    56	 9 ;      NG3P2      CG301      CG321       HGA2
   20    23    28    57	 9 ;      NG3P2      CG301      CG321       HGA2
   24    23    28    27	 9 ;      CG321      CG301      CG321      CG321
   24    23    28    56	 9 ;      CG321      CG301      CG321       HGA2
   24    23    28    57	 9 ;      CG321      CG301      CG321       HGA2
   23    24    25    26	 9 ;      CG301      CG321      CG321      CG321
   23    24    25    50	 9 ;      CG301      CG321      CG321       HGA2
   23    24    25    51	 9 ;      CG301      CG321      CG321       HGA2
   48    24    25    26	 9 ;       HGA2      CG321      CG321      CG321
   48    24    25    50	 9 ;       HGA2      CG321      CG321       HGA2
   48    24    25    51	 9 ;       HGA2      CG321      CG321       HGA2
   49    24    25    26	 9 ;       HGA2      CG321      CG321      CG321
   49    24    25    50	 9 ;       HGA2      CG321      CG321       HGA2
   49    24    25    51	 9 ;       HGA2      CG321      CG321       HGA2
   24    25    26    27	 9 ;      CG321      CG321      CG321      CG321
   24    25    26    52	 9 ;      CG321      CG321      CG321       HGA2
   24    25    26    53	 9 ;      CG321      CG321      CG321       HGA2
   50    25    26    27	 9 ;       HGA2      CG321      CG321      CG321
   50    25    26    52	 9 ;       HGA2      CG321      CG321       HGA2
   50    25    26    53	 9 ;       HGA2      CG321      CG321       HGA2
   51    25    26    27	 9 ;       HGA2      CG321      CG321      CG321
   51    25    26    52	 9 ;       HGA2      CG321      CG321       HGA2
   51    25    26    53	 9 ;       HGA2      CG321      CG321       HGA2
   25    26    27    28	 9 ;      CG321      CG321      CG321      CG321
   25    26    27    54	 9 ;      CG321      CG321      CG321       HGA2
   25    26    27    55	 9 ;      CG321      CG321      CG321       HGA2
   52    26    27    28	 9 ;       HGA2      CG321      CG321      CG321
   52    26    27    54	 9 ;       HGA2      CG321      CG321       HGA2
   52    26    27    55	 9 ;       HGA2      CG321      CG321       HGA2
   53    26    27    28	 9 ;       HGA2      CG321      CG321      CG321
   53    26    27    54	 9 ;       HGA2      CG321      CG321       HGA2
   53    26    27    55	 9 ;       HGA2      CG321      CG321       HGA2
   26    27    28    23	 9 ;      CG321      CG321      CG321      CG301
   26    27    28    56	 9 ;      CG321      CG321      CG321       HGA2
   26    27    28    57	 9 ;      CG321      CG321      CG321       HGA2
   54    27    28    23	 9 ;       HGA2      CG321      CG321      CG301
   54    27    28    56	 9 ;       HGA2      CG321      CG321       HGA2
   54    27    28    57	 9 ;       HGA2      CG321      CG321       HGA2
   55    27    28    23	 9 ;       HGA2      CG321      CG321      CG301
   55    27    28    56	 9 ;       HGA2      CG321      CG321       HGA2
   55    27    28    57	 9 ;       HGA2      CG321      CG321       HGA2
   34    29    30    31	 9 ;     CG2R61     CG2R61     CG2R61     CG2R61
   34    29    30    58	 9 ;     CG2R61     CG2R61     CG2R61      HGR61
   23    29    30    31	 9 ;      CG301     CG2R61     CG2R61     CG2R61
   23    29    30    58	 9 ;      CG301     CG2R61     CG2R61      HGR61
   30    29    34    33	 9 ;     CG2R61     CG2R61     CG2R61     CG2R61
   30    29    34    61	 9 ;     CG2R61     CG2R61     CG2R61      HGR61
   23    29    34    33	 9 ;      CG301     CG2R61     CG2R61     CG2R61
   23    29    34    61	 9 ;      CG301     CG2R61     CG2R61      HGR61
   29    30    31    35	 9 ;     CG2R61     CG2R61     CG2R61     CG2DC1
   29    30    31    32	 9 ;     CG2R61     CG2R61     CG2R61     CG2R61
   58    30    31    35	 9 ;      HGR61     CG2R61     CG2R61     CG2DC1
   58    30    31    32	 9 ;      HGR61     CG2R61     CG2R61     CG2R61
   32    31    35    38	 9 ;     CG2R61     CG2R61     CG2DC1      CG331
   32    31    35    36	 9 ;     CG2R61     CG2R61     CG2DC1     CG2DC1
   30    31    35    38	 9 ;     CG2R61     CG2R61     CG2DC1      CG331
   30    31    35    36	 9 ;     CG2R61     CG2R61     CG2DC1     CG2DC1
   35    31    32    33	 9 ;     CG2DC1     CG2R61     CG2R61     CG2R61
   35    31    32    59	 9 ;     CG2DC1     CG2R61     CG2R61      HGR61
   30    31    32    33	 9 ;     CG2R61     CG2R61     CG2R61     CG2R61
   30    31    32    59	 9 ;     CG2R61     CG2R61     CG2R61      HGR61
   31    32    33    34	 9 ;     CG2R61     CG2R61     CG2R61     CG2R61
   31    32    33    60	 9 ;     CG2R61     CG2R61     CG2R61      HGR61
   59    32    33    34	 9 ;      HGR61     CG2R61     CG2R61     CG2R61
   59    32    33    60	 9 ;      HGR61     CG2R61     CG2R61      HGR61
   32    33    34    29	 9 ;     CG2R61     CG2R61     CG2R61     CG2R61
   32    33    34    61	 9 ;     CG2R61     CG2R61     CG2R61      HGR61
   60    33    34    29	 9 ;      HGR61     CG2R61     CG2R61     CG2R61
   60    33    34    61	 9 ;      HGR61     CG2R61     CG2R61      HGR61
   36    35    38    69	 9 ;     CG2DC1     CG2DC1      CG331       HGA3
   36    35    38    70	 9 ;     CG2DC1     CG2DC1      CG331       HGA3
   36    35    38    71	 9 ;     CG2DC1     CG2DC1      CG331       HGA3
   31    35    38    69	 9 ;     CG2R61     CG2DC1      CG331       HGA3
   31    35    38    70	 9 ;     CG2R61     CG2DC1      CG331       HGA3
   31    35    38    71	 9 ;     CG2R61     CG2DC1      CG331       HGA3
   38    35    36    37	 9 ;      CG331     CG2DC1     CG2DC1      CG331
   38    35    36    62	 9 ;      CG331     CG2DC1     CG2DC1       HGA4
   31    35    36    37	 9 ;     CG2R61     CG2DC1     CG2DC1      CG331
   31    35    36    62	 9 ;     CG2R61     CG2DC1     CG2DC1       HGA4
   35    36    37    63	 9 ;     CG2DC1     CG2DC1      CG331       HGA3
   35    36    37    64	 9 ;     CG2DC1     CG2DC1      CG331       HGA3
   35    36    37    65	 9 ;     CG2DC1     CG2DC1      CG331       HGA3
   62    36    37    63	 9 ;       HGA4     CG2DC1      CG331       HGA3
   62    36    37    64	 9 ;       HGA4     CG2DC1      CG331       HGA3
   62    36    37    65	 9 ;       HGA4     CG2DC1      CG331       HGA3

[ dihedrals ]
;	ai	  aj	ak	  al funct			  c0			c1			  c2			c3
   16    18    15    17	 2

