GROningen Mixture of Alchemy and Childrens' Stories
   71
    1LIG     C1    1  -1.773   0.741  -1.624
    1LIG     C2    2  -1.663   0.849  -1.643
    1LIG     O1    3  -1.629   0.887  -1.508
    1LIG     H1    4  -1.545   0.940  -1.517
    1LIG     C3    5  -1.535   0.803  -1.720
    1LIG     C4    6  -1.521   0.649  -1.722
    1LIG     C5    7  -1.386   0.597  -1.678
    1LIG     C6    8  -1.307   0.668  -1.586
    1LIG     C7    9  -1.182   0.618  -1.548
    1LIG     F1   10  -1.108   0.689  -1.462
    1LIG     C8   11  -1.133   0.499  -1.598
    1LIG     C9   12  -1.212   0.427  -1.687
    1LIG    C10   13  -1.337   0.475  -1.727
    1LIG     F2   14  -1.168   0.311  -1.736
    1LIG     N1   15  -1.518   0.854  -1.859
    1LIG    C11   16  -1.482   0.981  -1.900
    1LIG     O2   17  -1.458   1.072  -1.822
    1LIG    C12   18  -1.470   0.996  -2.050
    1LIG     H2   19  -1.535   0.788  -1.934
    1LIG     N2   20  -1.762   0.686  -1.483
    1LIG     H3   21  -1.665   0.685  -1.453
    1LIG     H4   22  -1.805   0.760  -1.425
    1LIG    C13   23  -1.827   0.551  -1.449
    1LIG    C14   24  -1.958   0.547  -1.533
    1LIG    C15   25  -2.049   0.429  -1.495
    1LIG    C16   26  -2.089   0.437  -1.348
    1LIG    C17   27  -1.969   0.450  -1.255
    1LIG    C18   28  -1.870   0.559  -1.300
    1LIG    C19   29  -1.733   0.435  -1.486
    1LIG    C20   30  -1.602   0.428  -1.432
    1LIG    C21   31  -1.514   0.320  -1.458
    1LIG    C22   32  -1.557   0.223  -1.549
    1LIG    C23   33  -1.683   0.228  -1.606
    1LIG    C24   34  -1.771   0.331  -1.573
    1LIG    C25   35  -1.382   0.309  -1.389
    1LIG    C26   36  -1.343   0.406  -1.304
    1LIG    C27   37  -1.219   0.413  -1.220
    1LIG    C28   38  -1.302   0.183  -1.414
    1LIG    HC2   39  -1.758   0.661  -1.696
    1LIG    HC3   40  -1.871   0.786  -1.638
    1LIG     HC   41  -1.707   0.935  -1.694
    1LIG    HC1   42  -1.450   0.841  -1.663
    1LIG    HC4   43  -1.597   0.608  -1.655
    1LIG    HC5   44  -1.541   0.613  -1.823
    1LIG    HC6   45  -1.343   0.761  -1.545
    1LIG    HC7   46  -1.036   0.462  -1.569
    1LIG    HC8   47  -1.397   0.417  -1.796
    1LIG    HC9   48  -2.013   0.640  -1.518
    1LIG   HC10   49  -1.933   0.538  -1.639
    1LIG   HC11   50  -1.996   0.336  -1.513
    1LIG   HC12   51  -2.139   0.432  -1.556
    1LIG   HC13   52  -2.143   0.346  -1.322
    1LIG   HC14   53  -2.155   0.522  -1.333
    1LIG   HC15   54  -2.005   0.474  -1.155
    1LIG   HC16   55  -1.916   0.354  -1.252
    1LIG   HC17   56  -1.917   0.656  -1.283
    1LIG   HC18   57  -1.781   0.553  -1.238
    1LIG   HC19   58  -1.569   0.508  -1.369
    1LIG   HC20   59  -1.490   0.142  -1.575
    1LIG   HC21   60  -1.713   0.153  -1.677
    1LIG   HC22   61  -1.871   0.331  -1.614
    1LIG   HC23   62  -1.411   0.489  -1.294
    1LIG   HC24   63  -1.219   0.506  -1.164
    1LIG   HC25   64  -1.216   0.329  -1.152
    1LIG   HC26   65  -1.132   0.410  -1.285
    1LIG   HC27   66  -1.442   1.098  -2.074
    1LIG   HC28   67  -1.566   0.973  -2.096
    1LIG   HC29   68  -1.394   0.927  -2.087
    1LIG   HC30   69  -1.210   0.185  -1.355
    1LIG   HC31   70  -1.277   0.176  -1.520
    1LIG   HC32   71  -1.361   0.096  -1.385
   0.00000   0.00000   0.00000
