; Created by cgenff_charmm2gmx.py

[ moleculetype ]
; Name			   nrexcl
LIG				 3

[ atoms ]
;	 nr		  type	resnr residue  atom   cgnr	   charge		mass  typeB    chargeB		massB
; residue	 1 LIG rtp LIG q	qsum
     1       FGR1      1    LIG     F1      1     -0.165     18.998   ;
     2     CG2R66      1    LIG     C1      2      0.188     12.011   ;
     3     CG2RC0      1    LIG     C2      3     -0.166     12.011   ;
     4     CG2RC0      1    LIG     C3      4     -0.723     12.011   ;
     5     CG2R61      1    LIG     C4      5     -0.199     12.011   ;
     6     CG2R61      1    LIG     C5      6     -0.288     12.011   ;
     7     CG2R61      1    LIG     C6      7     -0.088     12.011   ;
     8     CG3C50      1    LIG     C7      8      1.787     12.011   ;
     9     NG3C51      1    LIG     N1      9     -0.816     14.007   ;
    10       HGP1      1    LIG    HN1     10      0.286      1.008   ;
    11     CG3C51      1    LIG     C8     11      0.296     12.011   ;
    12      NG321      1    LIG     N2     12     -0.998     14.007   ;
    13     HGPAM2      1    LIG     H1     13      0.379      1.008   ;
    14     HGPAM2      1    LIG     H2     14      0.379      1.008   ;
    15     CG2R62      1    LIG     C9     15     -0.462     12.011   ;
    16     CG2R62      1    LIG    C10     16     -0.158     12.011   ;
    17     CG2R62      1    LIG    C11     17     -0.208     12.011   ;
    18      CG331      1    LIG    C12     18     -0.206     12.011   ;
    19     CG2R63      1    LIG    C13     19      0.391     12.011   ;
    20      OG2D4      1    LIG      O     20     -0.496     15.999   ;
    21     NG2R61      1    LIG     N3     21     -0.209     14.007   ;
    22     CG2R62      1    LIG    C14     22      0.122     12.011   ;
    23      CG321      1    LIG    C15     23      0.011     12.011   ;
    24      CG331      1    LIG    C16     24     -0.267     12.011   ;
    25     CG2R61      1    LIG    C17     25     -0.068     12.011   ;
    26     CG2R61      1    LIG    C18     26     -0.182     12.011   ;
    27     CG2R61      1    LIG    C19     27     -0.139     12.011   ;
    28     CG2R61      1    LIG    C20     28     -0.117     12.011   ;
    29     CG2R61      1    LIG    C21     29     -0.102     12.011   ;
    30     CG2R61      1    LIG    C22     30     -0.181     12.011   ;
    31     CG2DC1      1    LIG    C23     31      0.163     12.011   ;
    32     CG2DC2      1    LIG    C24     32     -0.060     12.011   ;
    33     CG2DC2      1    LIG    C25     33     -0.121     12.011   ;
    34       FGA1      1    LIG     F2     34     -0.139     18.998   ;
    35      CG321      1    LIG    C26     35      0.012     12.011   ;
    36      NG311      1    LIG     N4     36     -0.539     14.007   ;
    37     CG2D1O      1    LIG    C27     37     -0.044     12.011   ;
    38     HGPAM1      1    LIG    HN2     38      0.389      1.008   ;
    39      HGR61      1    LIG     HC     39      0.189      1.008   ;
    40      HGR61      1    LIG    HC1     40      0.134      1.008   ;
    41      HGR62      1    LIG    HC2     41      0.166      1.008   ;
    42      HGR62      1    LIG    HC3     42      0.292      1.008   ;
    43      HGR62      1    LIG    HC4     43      0.172      1.008   ;
    44       HGA2      1    LIG    HC5     44      0.090      1.008   ;
    45       HGA2      1    LIG    HC6     45      0.090      1.008   ;
    46      HGR61      1    LIG    HC7     46      0.116      1.008   ;
    47      HGR61      1    LIG    HC8     47      0.116      1.008   ;
    48      HGR61      1    LIG    HC9     48      0.116      1.008   ;
    49      HGR61      1    LIG   HC10     49      0.116      1.008   ;
    50       HGA4      1    LIG   HC11     50      0.153      1.008   ;
    51       HGA2      1    LIG   HC12     51      0.090      1.008   ;
    52       HGA4      1    LIG   HC13     52      0.152      1.008   ;
    53       HGA3      1    LIG   HC14     53      0.090      1.008   ;
    54       HGA3      1    LIG   HC15     54      0.090      1.008   ;
    55       HGA3      1    LIG   HC16     55      0.090      1.008   ;
    56       HGA3      1    LIG   HC17     56      0.090      1.008   ;
    57       HGA3      1    LIG   HC18     57      0.090      1.008   ;
    58       HGA3      1    LIG   HC19     58      0.090      1.008   ;
    59       HGA1      1    LIG    H25     59      0.116      1.008   ;
    60       HGA2      1    LIG    H26     60      0.090      1.008   ;

[ bonds ]
;	ai	  aj funct			  c0			c1			  c2			c3
    1     2	 1 ;        FGR1     CG2R66
    2     3	 1 ;      CG2R66     CG2RC0
    2     7	 1 ;      CG2R66     CG2R61
    3     4	 1 ;      CG2RC0     CG2RC0
    3    11	 1 ;      CG2RC0     CG3C51
    4     8	 1 ;      CG2RC0     CG3C50
    4     5	 1 ;      CG2RC0     CG2R61
    5     6	 1 ;      CG2R61     CG2R61
    5    39	 1 ;      CG2R61      HGR61
    6     7	 1 ;      CG2R61     CG2R61
    6    40	 1 ;      CG2R61      HGR61
    7    41	 1 ;      CG2R61      HGR62
    8    15	 1 ;      CG3C50     CG2R62
    8     9	 1 ;      CG3C50     NG3C51
    8    25	 1 ;      CG3C50     CG2R61
    9    10	 1 ;      NG3C51       HGP1
    9    11	 1 ;      NG3C51     CG3C51
   11    12	 1 ;      CG3C51      NG321
   11    59	 1 ;      CG3C51       HGA1
   12    14	 1 ;       NG321     HGPAM2
   12    13	 1 ;       NG321     HGPAM2
   15    22	 1 ;      CG2R62     CG2R62
   15    16	 1 ;      CG2R62     CG2R62
   16    17	 1 ;      CG2R62     CG2R62
   16    42	 1 ;      CG2R62      HGR62
   17    19	 1 ;      CG2R62     CG2R63
   17    18	 1 ;      CG2R62      CG331
   18    56	 1 ;       CG331       HGA3
   18    57	 1 ;       CG331       HGA3
   18    58	 1 ;       CG331       HGA3
   19    20	 1 ;      CG2R63      OG2D4
   19    21	 1 ;      CG2R63     NG2R61
   21    23	 1 ;      NG2R61      CG321
   21    22	 1 ;      NG2R61     CG2R62
   22    43	 1 ;      CG2R62      HGR62
   23    24	 1 ;       CG321      CG331
   23    44	 1 ;       CG321       HGA2
   23    45	 1 ;       CG321       HGA2
   24    53	 1 ;       CG331       HGA3
   24    54	 1 ;       CG331       HGA3
   24    55	 1 ;       CG331       HGA3
   25    26	 1 ;      CG2R61     CG2R61
   25    30	 1 ;      CG2R61     CG2R61
   26    27	 1 ;      CG2R61     CG2R61
   26    46	 1 ;      CG2R61      HGR61
   27    31	 1 ;      CG2R61     CG2DC1
   27    28	 1 ;      CG2R61     CG2R61
   28    29	 1 ;      CG2R61     CG2R61
   28    47	 1 ;      CG2R61      HGR61
   29    30	 1 ;      CG2R61     CG2R61
   29    48	 1 ;      CG2R61      HGR61
   30    49	 1 ;      CG2R61      HGR61
   31    37	 1 ;      CG2DC1     CG2D1O
   31    32	 1 ;      CG2DC1     CG2DC2
   32    33	 1 ;      CG2DC2     CG2DC2
   32    50	 1 ;      CG2DC2       HGA4
   33    35	 1 ;      CG2DC2      CG321
   33    34	 1 ;      CG2DC2       FGA1
   35    36	 1 ;       CG321      NG311
   35    51	 1 ;       CG321       HGA2
   35    60	 1 ;       CG321       HGA2
   36    38	 1 ;       NG311     HGPAM1
   36    37	 1 ;       NG311     CG2D1O
   37    52	 1 ;      CG2D1O       HGA4

[ pairs ]
;	ai	  aj funct			  c0			c1			  c2			c3
    1     4	 1
    1    11	 1
    1     6	 1
    1    41	 1
    2     8	 1
    2     5	 1
    2     9	 1
    2    12	 1
    2    59	 1
    2    40	 1
    3     6	 1
    3    41	 1
    3    15	 1
    3    25	 1
    3    39	 1
    3    10	 1
    3    14	 1
    3    13	 1
    4     7	 1
    4    12	 1
    4    59	 1
    4    40	 1
    4    22	 1
    4    16	 1
    4    10	 1
    4    26	 1
    4    30	 1
    5    11	 1
    5    15	 1
    5     9	 1
    5    25	 1
    5    41	 1
    6     8	 1
    7    11	 1
    7    39	 1
    8    39	 1
    8    12	 1
    8    59	 1
    8    21	 1
    8    43	 1
    8    17	 1
    8    42	 1
    8    27	 1
    8    46	 1
    8    29	 1
    8    49	 1
    9    22	 1
    9    16	 1
    9    26	 1
    9    30	 1
    9    14	 1
    9    13	 1
   10    15	 1
   10    25	 1
   10    12	 1
   10    59	 1
   11    15	 1
   11    25	 1
   13    59	 1
   14    59	 1
   15    26	 1
   15    30	 1
   15    19	 1
   15    18	 1
   15    23	 1
   16    25	 1
   16    21	 1
   16    43	 1
   16    20	 1
   16    56	 1
   16    57	 1
   16    58	 1
   17    22	 1
   17    23	 1
   18    42	 1
   18    20	 1
   18    21	 1
   19    42	 1
   19    56	 1
   19    57	 1
   19    58	 1
   19    24	 1
   19    44	 1
   19    45	 1
   19    43	 1
   20    23	 1
   20    22	 1
   21    53	 1
   21    54	 1
   21    55	 1
   22    25	 1
   22    42	 1
   22    24	 1
   22    44	 1
   22    45	 1
   23    43	 1
   25    31	 1
   25    28	 1
   25    48	 1
   26    29	 1
   26    49	 1
   26    37	 1
   26    32	 1
   26    47	 1
   27    30	 1
   27    48	 1
   27    36	 1
   27    52	 1
   27    33	 1
   27    50	 1
   28    46	 1
   28    37	 1
   28    32	 1
   28    49	 1
   29    31	 1
   30    46	 1
   30    47	 1
   31    46	 1
   31    47	 1
   31    35	 1
   31    34	 1
   31    38	 1
   32    36	 1
   32    52	 1
   32    51	 1
   32    60	 1
   33    37	 1
   33    38	 1
   34    50	 1
   34    36	 1
   34    51	 1
   34    60	 1
   35    50	 1
   35    52	 1
   37    50	 1
   37    51	 1
   37    60	 1
   38    51	 1
   38    60	 1
   38    52	 1
   39    40	 1
   40    41	 1
   44    53	 1
   44    54	 1
   44    55	 1
   45    53	 1
   45    54	 1
   45    55	 1
   47    48	 1
   48    49	 1

[ angles ]
;	ai	  aj	ak funct			c0			  c1			c2			  c3
    3     2     7	5 ;     CG2RC0     CG2R66     CG2R61
    3     2     1	5 ;     CG2RC0     CG2R66       FGR1
    7     2     1	5 ;     CG2R61     CG2R66       FGR1
    4     3    11	5 ;     CG2RC0     CG2RC0     CG3C51
    4     3     2	5 ;     CG2RC0     CG2RC0     CG2R66
   11     3     2	5 ;     CG3C51     CG2RC0     CG2R66
    8     4     5	5 ;     CG3C50     CG2RC0     CG2R61
    8     4     3	5 ;     CG3C50     CG2RC0     CG2RC0
    5     4     3	5 ;     CG2R61     CG2RC0     CG2RC0
    4     5     6	5 ;     CG2RC0     CG2R61     CG2R61
    4     5    39	5 ;     CG2RC0     CG2R61      HGR61
    6     5    39	5 ;     CG2R61     CG2R61      HGR61
    5     6     7	5 ;     CG2R61     CG2R61     CG2R61
    5     6    40	5 ;     CG2R61     CG2R61      HGR61
    7     6    40	5 ;     CG2R61     CG2R61      HGR61
    6     7     2	5 ;     CG2R61     CG2R61     CG2R66
    6     7    41	5 ;     CG2R61     CG2R61      HGR62
    2     7    41	5 ;     CG2R66     CG2R61      HGR62
   15     8     9	5 ;     CG2R62     CG3C50     NG3C51
   15     8     4	5 ;     CG2R62     CG3C50     CG2RC0
   15     8    25	5 ;     CG2R62     CG3C50     CG2R61
    9     8     4	5 ;     NG3C51     CG3C50     CG2RC0
    9     8    25	5 ;     NG3C51     CG3C50     CG2R61
    4     8    25	5 ;     CG2RC0     CG3C50     CG2R61
    8     9    10	5 ;     CG3C50     NG3C51       HGP1
    8     9    11	5 ;     CG3C50     NG3C51     CG3C51
   10     9    11	5 ;       HGP1     NG3C51     CG3C51
    9    11     3	5 ;     NG3C51     CG3C51     CG2RC0
    9    11    12	5 ;     NG3C51     CG3C51      NG321
    9    11    59	5 ;     NG3C51     CG3C51       HGA1
    3    11    12	5 ;     CG2RC0     CG3C51      NG321
    3    11    59	5 ;     CG2RC0     CG3C51       HGA1
   12    11    59	5 ;      NG321     CG3C51       HGA1
   11    12    14	5 ;     CG3C51      NG321     HGPAM2
   11    12    13	5 ;     CG3C51      NG321     HGPAM2
   14    12    13	5 ;     HGPAM2      NG321     HGPAM2
   22    15    16	5 ;     CG2R62     CG2R62     CG2R62
   22    15     8	5 ;     CG2R62     CG2R62     CG3C50
   16    15     8	5 ;     CG2R62     CG2R62     CG3C50
   17    16    15	5 ;     CG2R62     CG2R62     CG2R62
   17    16    42	5 ;     CG2R62     CG2R62      HGR62
   15    16    42	5 ;     CG2R62     CG2R62      HGR62
   19    17    18	5 ;     CG2R63     CG2R62      CG331
   19    17    16	5 ;     CG2R63     CG2R62     CG2R62
   18    17    16	5 ;      CG331     CG2R62     CG2R62
   17    18    56	5 ;     CG2R62      CG331       HGA3
   17    18    57	5 ;     CG2R62      CG331       HGA3
   17    18    58	5 ;     CG2R62      CG331       HGA3
   56    18    57	5 ;       HGA3      CG331       HGA3
   56    18    58	5 ;       HGA3      CG331       HGA3
   57    18    58	5 ;       HGA3      CG331       HGA3
   20    19    21	5 ;      OG2D4     CG2R63     NG2R61
   20    19    17	5 ;      OG2D4     CG2R63     CG2R62
   21    19    17	5 ;     NG2R61     CG2R63     CG2R62
   23    21    19	5 ;      CG321     NG2R61     CG2R63
   23    21    22	5 ;      CG321     NG2R61     CG2R62
   19    21    22	5 ;     CG2R63     NG2R61     CG2R62
   21    22    15	5 ;     NG2R61     CG2R62     CG2R62
   21    22    43	5 ;     NG2R61     CG2R62      HGR62
   15    22    43	5 ;     CG2R62     CG2R62      HGR62
   21    23    24	5 ;     NG2R61      CG321      CG331
   21    23    44	5 ;     NG2R61      CG321       HGA2
   21    23    45	5 ;     NG2R61      CG321       HGA2
   24    23    44	5 ;      CG331      CG321       HGA2
   24    23    45	5 ;      CG331      CG321       HGA2
   44    23    45	5 ;       HGA2      CG321       HGA2
   23    24    53	5 ;      CG321      CG331       HGA3
   23    24    54	5 ;      CG321      CG331       HGA3
   23    24    55	5 ;      CG321      CG331       HGA3
   53    24    54	5 ;       HGA3      CG331       HGA3
   53    24    55	5 ;       HGA3      CG331       HGA3
   54    24    55	5 ;       HGA3      CG331       HGA3
    8    25    26	5 ;     CG3C50     CG2R61     CG2R61
    8    25    30	5 ;     CG3C50     CG2R61     CG2R61
   26    25    30	5 ;     CG2R61     CG2R61     CG2R61
   25    26    27	5 ;     CG2R61     CG2R61     CG2R61
   25    26    46	5 ;     CG2R61     CG2R61      HGR61
   27    26    46	5 ;     CG2R61     CG2R61      HGR61
   26    27    31	5 ;     CG2R61     CG2R61     CG2DC1
   26    27    28	5 ;     CG2R61     CG2R61     CG2R61
   31    27    28	5 ;     CG2DC1     CG2R61     CG2R61
   27    28    29	5 ;     CG2R61     CG2R61     CG2R61
   27    28    47	5 ;     CG2R61     CG2R61      HGR61
   29    28    47	5 ;     CG2R61     CG2R61      HGR61
   30    29    28	5 ;     CG2R61     CG2R61     CG2R61
   30    29    48	5 ;     CG2R61     CG2R61      HGR61
   28    29    48	5 ;     CG2R61     CG2R61      HGR61
   25    30    29	5 ;     CG2R61     CG2R61     CG2R61
   25    30    49	5 ;     CG2R61     CG2R61      HGR61
   29    30    49	5 ;     CG2R61     CG2R61      HGR61
   37    31    27	5 ;     CG2D1O     CG2DC1     CG2R61
   37    31    32	5 ;     CG2D1O     CG2DC1     CG2DC2
   27    31    32	5 ;     CG2R61     CG2DC1     CG2DC2
   31    32    33	5 ;     CG2DC1     CG2DC2     CG2DC2
   31    32    50	5 ;     CG2DC1     CG2DC2       HGA4
   33    32    50	5 ;     CG2DC2     CG2DC2       HGA4
   35    33    32	5 ;      CG321     CG2DC2     CG2DC2
   35    33    34	5 ;      CG321     CG2DC2       FGA1
   32    33    34	5 ;     CG2DC2     CG2DC2       FGA1
   36    35    33	5 ;      NG311      CG321     CG2DC2
   36    35    51	5 ;      NG311      CG321       HGA2
   36    35    60	5 ;      NG311      CG321       HGA2
   33    35    51	5 ;     CG2DC2      CG321       HGA2
   33    35    60	5 ;     CG2DC2      CG321       HGA2
   51    35    60	5 ;       HGA2      CG321       HGA2
   38    36    37	5 ;     HGPAM1      NG311     CG2D1O
   38    36    35	5 ;     HGPAM1      NG311      CG321
   37    36    35	5 ;     CG2D1O      NG311      CG321
   36    37    31	5 ;      NG311     CG2D1O     CG2DC1
   36    37    52	5 ;      NG311     CG2D1O       HGA4
   31    37    52	5 ;     CG2DC1     CG2D1O       HGA4

[ dihedrals ]
;	ai	  aj	ak	  al funct			  c0			c1			  c2			c3			  c4			c5
    7     2     3     4	 9 ;     CG2R61     CG2R66     CG2RC0     CG2RC0
    7     2     3    11	 9 ;     CG2R61     CG2R66     CG2RC0     CG3C51
    1     2     3     4	 9 ;       FGR1     CG2R66     CG2RC0     CG2RC0
    1     2     3    11	 9 ;       FGR1     CG2R66     CG2RC0     CG3C51
    3     2     7     6	 9 ;     CG2RC0     CG2R66     CG2R61     CG2R61
    3     2     7    41	 9 ;     CG2RC0     CG2R66     CG2R61      HGR62
    1     2     7     6	 9 ;       FGR1     CG2R66     CG2R61     CG2R61
    1     2     7    41	 9 ;       FGR1     CG2R66     CG2R61      HGR62
   11     3     4     8	 9 ;     CG3C51     CG2RC0     CG2RC0     CG3C50
   11     3     4     5	 9 ;     CG3C51     CG2RC0     CG2RC0     CG2R61
    2     3     4     8	 9 ;     CG2R66     CG2RC0     CG2RC0     CG3C50
    2     3     4     5	 9 ;     CG2R66     CG2RC0     CG2RC0     CG2R61
    4     3    11     9	 9 ;     CG2RC0     CG2RC0     CG3C51     NG3C51
    4     3    11    12	 9 ;     CG2RC0     CG2RC0     CG3C51      NG321
    4     3    11    59	 9 ;     CG2RC0     CG2RC0     CG3C51       HGA1
    2     3    11     9	 9 ;     CG2R66     CG2RC0     CG3C51     NG3C51
    2     3    11    12	 9 ;     CG2R66     CG2RC0     CG3C51      NG321
    2     3    11    59	 9 ;     CG2R66     CG2RC0     CG3C51       HGA1
    5     4     8    15	 9 ;     CG2R61     CG2RC0     CG3C50     CG2R62
    5     4     8     9	 9 ;     CG2R61     CG2RC0     CG3C50     NG3C51
    5     4     8    25	 9 ;     CG2R61     CG2RC0     CG3C50     CG2R61
    3     4     8    15	 9 ;     CG2RC0     CG2RC0     CG3C50     CG2R62
    3     4     8     9	 9 ;     CG2RC0     CG2RC0     CG3C50     NG3C51
    3     4     8    25	 9 ;     CG2RC0     CG2RC0     CG3C50     CG2R61
    8     4     5     6	 9 ;     CG3C50     CG2RC0     CG2R61     CG2R61
    8     4     5    39	 9 ;     CG3C50     CG2RC0     CG2R61      HGR61
    3     4     5     6	 9 ;     CG2RC0     CG2RC0     CG2R61     CG2R61
    3     4     5    39	 9 ;     CG2RC0     CG2RC0     CG2R61      HGR61
    4     5     6     7	 9 ;     CG2RC0     CG2R61     CG2R61     CG2R61
    4     5     6    40	 9 ;     CG2RC0     CG2R61     CG2R61      HGR61
   39     5     6     7	 9 ;      HGR61     CG2R61     CG2R61     CG2R61
   39     5     6    40	 9 ;      HGR61     CG2R61     CG2R61      HGR61
    5     6     7     2	 9 ;     CG2R61     CG2R61     CG2R61     CG2R66
    5     6     7    41	 9 ;     CG2R61     CG2R61     CG2R61      HGR62
   40     6     7     2	 9 ;      HGR61     CG2R61     CG2R61     CG2R66
   40     6     7    41	 9 ;      HGR61     CG2R61     CG2R61      HGR62
    9     8    15    22	 9 ;     NG3C51     CG3C50     CG2R62     CG2R62
    9     8    15    16	 9 ;     NG3C51     CG3C50     CG2R62     CG2R62
    4     8    15    22	 9 ;     CG2RC0     CG3C50     CG2R62     CG2R62
    4     8    15    16	 9 ;     CG2RC0     CG3C50     CG2R62     CG2R62
   25     8    15    22	 9 ;     CG2R61     CG3C50     CG2R62     CG2R62
   25     8    15    16	 9 ;     CG2R61     CG3C50     CG2R62     CG2R62
   15     8     9    10	 9 ;     CG2R62     CG3C50     NG3C51       HGP1
   15     8     9    11	 9 ;     CG2R62     CG3C50     NG3C51     CG3C51
    4     8     9    10	 9 ;     CG2RC0     CG3C50     NG3C51       HGP1
    4     8     9    11	 9 ;     CG2RC0     CG3C50     NG3C51     CG3C51
   25     8     9    10	 9 ;     CG2R61     CG3C50     NG3C51       HGP1
   25     8     9    11	 9 ;     CG2R61     CG3C50     NG3C51     CG3C51
   15     8    25    26	 9 ;     CG2R62     CG3C50     CG2R61     CG2R61
   15     8    25    30	 9 ;     CG2R62     CG3C50     CG2R61     CG2R61
    9     8    25    26	 9 ;     NG3C51     CG3C50     CG2R61     CG2R61
    9     8    25    30	 9 ;     NG3C51     CG3C50     CG2R61     CG2R61
    4     8    25    26	 9 ;     CG2RC0     CG3C50     CG2R61     CG2R61
    4     8    25    30	 9 ;     CG2RC0     CG3C50     CG2R61     CG2R61
    8     9    11     3	 9 ;     CG3C50     NG3C51     CG3C51     CG2RC0
    8     9    11    12	 9 ;     CG3C50     NG3C51     CG3C51      NG321
    8     9    11    59	 9 ;     CG3C50     NG3C51     CG3C51       HGA1
   10     9    11     3	 9 ;       HGP1     NG3C51     CG3C51     CG2RC0
   10     9    11    12	 9 ;       HGP1     NG3C51     CG3C51      NG321
   10     9    11    59	 9 ;       HGP1     NG3C51     CG3C51       HGA1
    9    11    12    14	 9 ;     NG3C51     CG3C51      NG321     HGPAM2
    9    11    12    13	 9 ;     NG3C51     CG3C51      NG321     HGPAM2
    3    11    12    14	 9 ;     CG2RC0     CG3C51      NG321     HGPAM2
    3    11    12    13	 9 ;     CG2RC0     CG3C51      NG321     HGPAM2
   59    11    12    14	 9 ;       HGA1     CG3C51      NG321     HGPAM2
   59    11    12    13	 9 ;       HGA1     CG3C51      NG321     HGPAM2
   16    15    22    21	 9 ;     CG2R62     CG2R62     CG2R62     NG2R61
   16    15    22    43	 9 ;     CG2R62     CG2R62     CG2R62      HGR62
    8    15    22    21	 9 ;     CG3C50     CG2R62     CG2R62     NG2R61
    8    15    22    43	 9 ;     CG3C50     CG2R62     CG2R62      HGR62
   22    15    16    17	 9 ;     CG2R62     CG2R62     CG2R62     CG2R62
   22    15    16    42	 9 ;     CG2R62     CG2R62     CG2R62      HGR62
    8    15    16    17	 9 ;     CG3C50     CG2R62     CG2R62     CG2R62
    8    15    16    42	 9 ;     CG3C50     CG2R62     CG2R62      HGR62
   15    16    17    19	 9 ;     CG2R62     CG2R62     CG2R62     CG2R63
   15    16    17    18	 9 ;     CG2R62     CG2R62     CG2R62      CG331
   42    16    17    19	 9 ;      HGR62     CG2R62     CG2R62     CG2R63
   42    16    17    18	 9 ;      HGR62     CG2R62     CG2R62      CG331
   18    17    19    20	 9 ;      CG331     CG2R62     CG2R63      OG2D4
   18    17    19    21	 9 ;      CG331     CG2R62     CG2R63     NG2R61
   16    17    19    20	 9 ;     CG2R62     CG2R62     CG2R63      OG2D4
   16    17    19    21	 9 ;     CG2R62     CG2R62     CG2R63     NG2R61
   19    17    18    56	 9 ;     CG2R63     CG2R62      CG331       HGA3
   19    17    18    57	 9 ;     CG2R63     CG2R62      CG331       HGA3
   19    17    18    58	 9 ;     CG2R63     CG2R62      CG331       HGA3
   16    17    18    56	 9 ;     CG2R62     CG2R62      CG331       HGA3
   16    17    18    57	 9 ;     CG2R62     CG2R62      CG331       HGA3
   16    17    18    58	 9 ;     CG2R62     CG2R62      CG331       HGA3
   20    19    21    23	 9 ;      OG2D4     CG2R63     NG2R61      CG321
   20    19    21    22	 9 ;      OG2D4     CG2R63     NG2R61     CG2R62
   17    19    21    23	 9 ;     CG2R62     CG2R63     NG2R61      CG321
   17    19    21    22	 9 ;     CG2R62     CG2R63     NG2R61     CG2R62
   19    21    23    24	 9 ;     CG2R63     NG2R61      CG321      CG331
   19    21    23    44	 9 ;     CG2R63     NG2R61      CG321       HGA2
   19    21    23    45	 9 ;     CG2R63     NG2R61      CG321       HGA2
   22    21    23    24	 9 ;     CG2R62     NG2R61      CG321      CG331
   22    21    23    44	 9 ;     CG2R62     NG2R61      CG321       HGA2
   22    21    23    45	 9 ;     CG2R62     NG2R61      CG321       HGA2
   23    21    22    15	 9 ;      CG321     NG2R61     CG2R62     CG2R62
   23    21    22    43	 9 ;      CG321     NG2R61     CG2R62      HGR62
   19    21    22    15	 9 ;     CG2R63     NG2R61     CG2R62     CG2R62
   19    21    22    43	 9 ;     CG2R63     NG2R61     CG2R62      HGR62
   21    23    24    53	 9 ;     NG2R61      CG321      CG331       HGA3
   21    23    24    54	 9 ;     NG2R61      CG321      CG331       HGA3
   21    23    24    55	 9 ;     NG2R61      CG321      CG331       HGA3
   44    23    24    53	 9 ;       HGA2      CG321      CG331       HGA3
   44    23    24    54	 9 ;       HGA2      CG321      CG331       HGA3
   44    23    24    55	 9 ;       HGA2      CG321      CG331       HGA3
   45    23    24    53	 9 ;       HGA2      CG321      CG331       HGA3
   45    23    24    54	 9 ;       HGA2      CG321      CG331       HGA3
   45    23    24    55	 9 ;       HGA2      CG321      CG331       HGA3
    8    25    26    27	 9 ;     CG3C50     CG2R61     CG2R61     CG2R61
    8    25    26    46	 9 ;     CG3C50     CG2R61     CG2R61      HGR61
   30    25    26    27	 9 ;     CG2R61     CG2R61     CG2R61     CG2R61
   30    25    26    46	 9 ;     CG2R61     CG2R61     CG2R61      HGR61
    8    25    30    29	 9 ;     CG3C50     CG2R61     CG2R61     CG2R61
    8    25    30    49	 9 ;     CG3C50     CG2R61     CG2R61      HGR61
   26    25    30    29	 9 ;     CG2R61     CG2R61     CG2R61     CG2R61
   26    25    30    49	 9 ;     CG2R61     CG2R61     CG2R61      HGR61
   25    26    27    31	 9 ;     CG2R61     CG2R61     CG2R61     CG2DC1
   25    26    27    28	 9 ;     CG2R61     CG2R61     CG2R61     CG2R61
   46    26    27    31	 9 ;      HGR61     CG2R61     CG2R61     CG2DC1
   46    26    27    28	 9 ;      HGR61     CG2R61     CG2R61     CG2R61
   26    27    31    37	 9 ;     CG2R61     CG2R61     CG2DC1     CG2D1O
   26    27    31    32	 9 ;     CG2R61     CG2R61     CG2DC1     CG2DC2
   28    27    31    37	 9 ;     CG2R61     CG2R61     CG2DC1     CG2D1O
   28    27    31    32	 9 ;     CG2R61     CG2R61     CG2DC1     CG2DC2
   26    27    28    29	 9 ;     CG2R61     CG2R61     CG2R61     CG2R61
   26    27    28    47	 9 ;     CG2R61     CG2R61     CG2R61      HGR61
   31    27    28    29	 9 ;     CG2DC1     CG2R61     CG2R61     CG2R61
   31    27    28    47	 9 ;     CG2DC1     CG2R61     CG2R61      HGR61
   27    28    29    30	 9 ;     CG2R61     CG2R61     CG2R61     CG2R61
   27    28    29    48	 9 ;     CG2R61     CG2R61     CG2R61      HGR61
   47    28    29    30	 9 ;      HGR61     CG2R61     CG2R61     CG2R61
   47    28    29    48	 9 ;      HGR61     CG2R61     CG2R61      HGR61
   28    29    30    25	 9 ;     CG2R61     CG2R61     CG2R61     CG2R61
   28    29    30    49	 9 ;     CG2R61     CG2R61     CG2R61      HGR61
   48    29    30    25	 9 ;      HGR61     CG2R61     CG2R61     CG2R61
   48    29    30    49	 9 ;      HGR61     CG2R61     CG2R61      HGR61
   27    31    37    36	 9 ;     CG2R61     CG2DC1     CG2D1O      NG311
   27    31    37    52	 9 ;     CG2R61     CG2DC1     CG2D1O       HGA4
   32    31    37    36	 9 ;     CG2DC2     CG2DC1     CG2D1O      NG311
   32    31    37    52	 9 ;     CG2DC2     CG2DC1     CG2D1O       HGA4
   37    31    32    33	 9 ;     CG2D1O     CG2DC1     CG2DC2     CG2DC2
   37    31    32    50	 9 ;     CG2D1O     CG2DC1     CG2DC2       HGA4
   27    31    32    33	 9 ;     CG2R61     CG2DC1     CG2DC2     CG2DC2
   27    31    32    50	 9 ;     CG2R61     CG2DC1     CG2DC2       HGA4
   31    32    33    35	 9 ;     CG2DC1     CG2DC2     CG2DC2      CG321
   31    32    33    34	 9 ;     CG2DC1     CG2DC2     CG2DC2       FGA1
   50    32    33    35	 9 ;       HGA4     CG2DC2     CG2DC2      CG321
   50    32    33    34	 9 ;       HGA4     CG2DC2     CG2DC2       FGA1
   32    33    35    36	 9 ;     CG2DC2     CG2DC2      CG321      NG311
   32    33    35    51	 9 ;     CG2DC2     CG2DC2      CG321       HGA2
   32    33    35    60	 9 ;     CG2DC2     CG2DC2      CG321       HGA2
   34    33    35    36	 9 ;       FGA1     CG2DC2      CG321      NG311
   34    33    35    51	 9 ;       FGA1     CG2DC2      CG321       HGA2
   34    33    35    60	 9 ;       FGA1     CG2DC2      CG321       HGA2
   33    35    36    38	 9 ;     CG2DC2      CG321      NG311     HGPAM1
   33    35    36    37	 9 ;     CG2DC2      CG321      NG311     CG2D1O
   51    35    36    38	 9 ;       HGA2      CG321      NG311     HGPAM1
   51    35    36    37	 9 ;       HGA2      CG321      NG311     CG2D1O
   60    35    36    38	 9 ;       HGA2      CG321      NG311     HGPAM1
   60    35    36    37	 9 ;       HGA2      CG321      NG311     CG2D1O
   38    36    37    31	 9 ;     HGPAM1      NG311     CG2D1O     CG2DC1
   38    36    37    52	 9 ;     HGPAM1      NG311     CG2D1O       HGA4
   35    36    37    31	 9 ;      CG321      NG311     CG2D1O     CG2DC1
   35    36    37    52	 9 ;      CG321      NG311     CG2D1O       HGA4

[ dihedrals ]
;	ai	  aj	ak	  al funct			  c0			c1			  c2			c3
   19    17    21    20	 2
   37    31    36    52	 2

