GROup of MAchos and Cynical Suckers
   60
    1LIG     F1    1  -1.584   0.769  -1.739
    1LIG     C1    2  -1.534   0.646  -1.749
    1LIG     C2    3  -1.404   0.617  -1.713
    1LIG     C3    4  -1.350   0.491  -1.727
    1LIG     C4    5  -1.428   0.386  -1.774
    1LIG     C5    6  -1.559   0.413  -1.813
    1LIG     C6    7  -1.612   0.543  -1.801
    1LIG     C7    8  -1.203   0.498  -1.689
    1LIG     N1    9  -1.183   0.642  -1.646
    1LIG    HN1   10  -1.096   0.684  -1.614
    1LIG     C8   11  -1.298   0.701  -1.659
    1LIG     N2   12  -1.318   0.830  -1.622
    1LIG     H1   13  -1.398   0.881  -1.658
    1LIG     H2   14  -1.235   0.885  -1.605
    1LIG     C9   15  -1.108   0.475  -1.810
    1LIG    C10   16  -0.982   0.549  -1.814
    1LIG    C11   17  -0.886   0.522  -1.903
    1LIG    C12   18  -0.753   0.590  -1.906
    1LIG    C13   19  -0.910   0.416  -2.007
    1LIG      O   20  -0.821   0.386  -2.086
    1LIG     N3   21  -1.037   0.359  -2.007
    1LIG    C14   22  -1.130   0.387  -1.909
    1LIG    C15   23  -1.067   0.253  -2.103
    1LIG    C16   24  -1.152   0.143  -2.042
    1LIG    C17   25  -1.175   0.401  -1.572
    1LIG    C18   26  -1.237   0.274  -1.567
    1LIG    C19   27  -1.210   0.179  -1.467
    1LIG    C20   28  -1.123   0.219  -1.363
    1LIG    C21   29  -1.061   0.343  -1.365
    1LIG    C22   30  -1.084   0.433  -1.469
    1LIG    C23   31  -1.268   0.044  -1.473
    1LIG    C24   32  -1.214  -0.065  -1.402
    1LIG    C25   33  -1.272  -0.191  -1.415
    1LIG     F2   34  -1.220  -0.295  -1.348
    1LIG    C26   35  -1.381  -0.208  -1.497
    1LIG     N4   36  -1.437  -0.107  -1.568
    1LIG    C27   37  -1.378   0.015  -1.554
    1LIG    HN2   38  -1.518  -0.122  -1.628
    1LIG     HC   39  -1.387   0.286  -1.781
    1LIG    HC1   40  -1.621   0.333  -1.852
    1LIG    HC2   41  -1.714   0.562  -1.832
    1LIG    HC3   42  -0.966   0.628  -1.742
    1LIG    HC4   43  -1.226   0.337  -1.913
    1LIG    HC5   44  -1.122   0.297  -2.187
    1LIG    HC6   45  -0.974   0.210  -2.140
    1LIG    HC7   46  -1.307   0.249  -1.645
    1LIG    HC8   47  -1.105   0.151  -1.281
    1LIG    HC9   48  -0.994   0.371  -1.284
    1LIG   HC10   49  -1.031   0.527  -1.472
    1LIG   HC11   50  -1.129  -0.051  -1.338
    1LIG   HC12   51  -1.425  -0.306  -1.504
    1LIG   HC13   52  -1.421   0.096  -1.611
    1LIG   HC14   53  -1.150   0.055  -2.106
    1LIG   HC15   54  -1.113   0.117  -1.944
    1LIG   HC16   55  -1.255   0.177  -2.032
    1LIG   HC17   56  -0.749   0.665  -1.827
    1LIG   HC18   57  -0.674   0.516  -1.890
    1LIG   HC19   58  -0.739   0.638  -2.003
    1LIG    H25   59  -1.272   0.733  -1.759
    1LIG    H26   60  -1.315  -0.230  -1.580
   0.00000   0.00000   0.00000
