Guyana Rwanda Oman Macau Angola Cameroon Senegal
   74
    1LIG     N1    1  -1.612   0.515  -1.645
    1LIG     H1    2  -1.685   0.580  -1.612
    1LIG     H2    3  -1.525   0.567  -1.628
    1LIG     C1    4  -1.607   0.389  -1.558
    1LIG     C2    5  -1.659   0.437  -1.418
    1LIG     C3    6  -1.805   0.486  -1.420
    1LIG     C4    7  -1.899   0.380  -1.475
    1LIG     C5    8  -1.853   0.326  -1.610
    1LIG     C6    9  -1.706   0.282  -1.610
    1LIG     C7   10  -1.462   0.331  -1.555
    1LIG     C8   11  -1.385   0.315  -1.670
    1LIG     C9   12  -1.260   0.253  -1.664
    1LIG     BR   13  -1.154   0.241  -1.820
    1LIG    C10   14  -1.213   0.196  -1.545
    1LIG    C11   15  -1.286   0.207  -1.427
    1LIG    C12   16  -1.404   0.286  -1.434
    1LIG    C13   17  -1.248   0.124  -1.301
    1LIG    C14   18  -1.095   0.122  -1.275
    1LIG    C15   19  -1.314   0.190  -1.178
    1LIG    C16   20  -1.296  -0.022  -1.305
    1LIG    C17   21  -1.639   0.507  -1.792
    1LIG    C18   22  -1.553   0.609  -1.868
    1LIG     O1   23  -1.647   0.678  -1.951
    1LIG     H3   24  -1.737   0.650  -1.924
    1LIG    C19   25  -1.471   0.705  -1.774
    1LIG    C20   26  -1.318   0.705  -1.803
    1LIG    C21   27  -1.222   0.651  -1.699
    1LIG    C22   28  -1.257   0.629  -1.565
    1LIG    C23   29  -1.169   0.569  -1.476
    1LIG     F1   30  -1.209   0.547  -1.350
    1LIG    C24   31  -1.042   0.530  -1.516
    1LIG    C25   32  -1.005   0.553  -1.647
    1LIG     F2   33  -0.883   0.517  -1.688
    1LIG    C26   34  -1.093   0.612  -1.739
    1LIG     N2   35  -1.525   0.842  -1.770
    1LIG    C27   36  -1.576   0.895  -1.653
    1LIG     O2   37  -1.586   0.828  -1.549
    1LIG    C28   38  -1.616   1.040  -1.660
    1LIG     H4   39  -1.504   0.907  -1.845
    1LIG    HC2   40  -1.653   0.353  -1.349
    1LIG    HC3   41  -1.595   0.517  -1.383
    1LIG    HC4   42  -1.811   0.575  -1.483
    1LIG    HC5   43  -1.835   0.512  -1.319
    1LIG    HC6   44  -1.998   0.423  -1.486
    1LIG    HC7   45  -1.904   0.297  -1.404
    1LIG    HC8   46  -1.915   0.240  -1.636
    1LIG    HC9   47  -1.867   0.403  -1.685
    1LIG   HC10   48  -1.679   0.257  -1.713
    1LIG   HC11   49  -1.697   0.192  -1.549
    1LIG     HC   50  -1.422   0.351  -1.765
    1LIG    HC1   51  -1.119   0.142  -1.545
    1LIG   HC12   52  -1.452   0.315  -1.341
    1LIG   HC13   53  -1.744   0.529  -1.811
    1LIG   HC14   54  -1.616   0.407  -1.828
    1LIG   HC15   55  -1.483   0.555  -1.932
    1LIG   HC16   56  -1.482   0.664  -1.673
    1LIG   HC17   57  -1.289   0.808  -1.822
    1LIG   HC18   58  -1.301   0.648  -1.895
    1LIG   HC19   59  -1.355   0.660  -1.531
    1LIG   HC20   60  -0.974   0.482  -1.446
    1LIG   HC21   61  -1.061   0.627  -1.841
    1LIG   HC22   62  -1.251  -0.073  -1.390
    1LIG   HC23   63  -1.404  -0.024  -1.313
    1LIG   HC24   64  -1.266  -0.072  -1.213
    1LIG   HC25   65  -1.655   1.071  -1.563
    1LIG   HC26   66  -1.529   1.100  -1.685
    1LIG   HC27   67  -1.692   1.054  -1.736
    1LIG   HC28   68  -1.273   0.146  -1.087
    1LIG   HC29   69  -1.295   0.297  -1.179
    1LIG   HC30   70  -1.422   0.172  -1.181
    1LIG   HC31   71  -1.057   0.225  -1.272
    1LIG   HC32   72  -1.045   0.068  -1.355
    1LIG   HC33   73  -1.075   0.074  -1.180
    1LIG    LP1   74  -1.048   0.230  -1.977
   0.00000   0.00000   0.00000
