GROtesk MACabre and Sinister
   88
    1LIG     C1    1  -1.459   0.307  -1.543
    1LIG     C2    2  -1.398   0.432  -1.616
    1LIG     O1    3  -1.254   0.414  -1.613
    1LIG     H1    4  -1.211   0.486  -1.663
    1LIG     C3    5  -1.433   0.472  -1.762
    1LIG     N1    6  -1.483   0.609  -1.790
    1LIG     H2    7  -1.528   0.609  -1.883
    1LIG     H3    8  -1.553   0.640  -1.721
    1LIG     C4    9  -1.366   0.717  -1.800
    1LIG     C5   10  -1.262   0.652  -1.891
    1LIG     C6   11  -1.309   0.742  -1.658
    1LIG     O2   12  -1.188   0.721  -1.644
    1LIG     N2   13  -1.377   0.774  -1.544
    1LIG     H4   14  -1.309   0.779  -1.469
    1LIG     C7   15  -1.510   0.822  -1.498
    1LIG     C8   16  -1.608   0.713  -1.456
    1LIG     C9   17  -1.749   0.763  -1.424
    1LIG    C10   18  -1.806   0.856  -1.529
    1LIG    C11   19  -1.714   0.969  -1.572
    1LIG    C12   20  -1.565   0.935  -1.586
    1LIG    C13   21  -1.366   0.241  -1.436
    1LIG    C14   22  -1.328   0.094  -1.447
    1LIG    C15   23  -1.269   0.020  -1.343
    1LIG    C16   24  -1.245  -0.118  -1.357
    1LIG    C17   25  -1.279  -0.184  -1.475
    1LIG    C18   26  -1.337  -0.113  -1.580
    1LIG    C19   27  -1.361   0.024  -1.565
    1LIG     N3   28  -1.585   0.356  -1.481
    1LIG    C20   29  -1.708   0.310  -1.523
    1LIG     O3   30  -1.717   0.211  -1.594
    1LIG     H5   31  -1.578   0.443  -1.429
    1LIG    C21   32  -1.831   0.385  -1.482
    1LIG    C22   33  -1.867   0.408  -1.348
    1LIG    C23   34  -1.985   0.481  -1.319
    1LIG    C24   35  -2.062   0.532  -1.423
    1LIG    C25   36  -2.024   0.513  -1.556
    1LIG    C26   37  -1.909   0.439  -1.585
    1LIG     N4   38  -2.033   0.501  -1.184
    1LIG    C27   39  -2.086   0.387  -1.114
    1LIG    C28   40  -2.217   0.348  -1.140
    1LIG    C29   41  -2.273   0.243  -1.066
    1LIG    CL1   42  -2.437   0.198  -1.094
    1LIG    C30   43  -2.199   0.178  -0.967
    1LIG    C31   44  -2.068   0.218  -0.943
    1LIG    C32   45  -2.012   0.323  -1.014
    1LIG    CL2   46  -1.975   0.138  -0.821
    1LIG      S   47  -1.965   0.625  -1.087
    1LIG     O4   48  -2.039   0.635  -0.963
    1LIG     O5   49  -1.821   0.607  -1.085
    1LIG    C33   50  -2.002   0.771  -1.183
    1LIG     HC   51  -1.484   0.232  -1.618
    1LIG    HC1   52  -1.421   0.519  -1.554
    1LIG    HC2   53  -1.342   0.458  -1.821
    1LIG    HC3   54  -1.508   0.401  -1.799
    1LIG    HC4   55  -1.403   0.810  -1.843
    1LIG    HC5   56  -1.487   0.873  -1.404
    1LIG    HC6   57  -1.614   0.640  -1.536
    1LIG    HC7   58  -1.568   0.663  -1.367
    1LIG    HC8   59  -1.746   0.816  -1.329
    1LIG    HC9   60  -1.815   0.677  -1.414
    1LIG   HC10   61  -1.898   0.901  -1.489
    1LIG   HC11   62  -1.833   0.798  -1.617
    1LIG   HC12   63  -1.748   1.005  -1.669
    1LIG   HC13   64  -1.724   1.050  -1.500
    1LIG   HC14   65  -1.509   1.025  -1.563
    1LIG   HC15   66  -1.546   0.909  -1.690
    1LIG   HC16   67  -1.273   0.298  -1.437
    1LIG   HC17   68  -1.413   0.256  -1.339
    1LIG   HC18   69  -1.242   0.070  -1.251
    1LIG   HC19   70  -1.200  -0.173  -1.276
    1LIG   HC20   71  -1.260  -0.289  -1.485
    1LIG   HC21   72  -1.362  -0.163  -1.673
    1LIG   HC22   73  -1.407   0.078  -1.647
    1LIG   HC23   74  -1.805   0.372  -1.268
    1LIG   HC24   75  -2.152   0.588  -1.401
    1LIG   HC25   76  -2.083   0.554  -1.636
    1LIG   HC26   77  -1.880   0.423  -1.688
    1LIG   HC27   78  -2.275   0.397  -1.217
    1LIG   HC28   79  -2.244   0.097  -0.911
    1LIG   HC29   80  -1.911   0.355  -0.993
    1LIG   HC30   81  -2.090   0.820  -1.142
    1LIG   HC31   82  -1.917   0.839  -1.180
    1LIG   HC32   83  -2.021   0.742  -1.286
    1LIG   HC33   84  -1.200   0.730  -1.937
    1LIG   HC34   85  -1.198   0.585  -1.833
    1LIG   HC35   86  -1.312   0.595  -1.969
    1LIG    LP1   87  -2.592   0.154  -1.121
    1LIG    LP2   88  -1.887   0.063  -0.705
   0.00000   0.00000   0.00000
