; Created by cgenff_charmm2gmx.py

[ moleculetype ]
; Name			   nrexcl
LIG				 3

[ atoms ]
;	 nr		  type	resnr residue  atom   cgnr	   charge		mass  typeB    chargeB		massB
; residue	 1 LIG rtp LIG q	qsum
     1      CG311      1    LIG     C1      1      0.010     12.011   ;
     2      CG311      1    LIG     C2      2      0.089     12.011   ;
     3      OG311      1    LIG     O1      3     -0.625     15.999   ;
     4       HGP1      1    LIG     H1      4      0.415      1.008   ;
     5      CG324      1    LIG     C3      5      0.198     12.011   ;
     6      NG3P2      1    LIG     N1      6     -0.406     14.007   ;
     7       HGP2      1    LIG     H2      7      0.329      1.008   ;
     8       HGP2      1    LIG     H3      8      0.329      1.008   ;
     9      CG314      1    LIG     C4      9      0.189     12.011   ;
    10      CG331      1    LIG     C5     10     -0.216     12.011   ;
    11      CG2O1      1    LIG     C6     11      0.385     12.011   ;
    12      OG2D1      1    LIG     O2     12     -0.443     15.999   ;
    13      NG2S1      1    LIG     N2     13     -0.285     14.007   ;
    14       HGP1      1    LIG     H4     14      0.319      1.008   ;
    15      CG311      1    LIG     C7     15     -0.146     12.011   ;
    16      CG321      1    LIG     C8     16     -0.115     12.011   ;
    17      CG321      1    LIG     C9     17     -0.198     12.011   ;
    18      CG321      1    LIG    C10     18     -0.154     12.011   ;
    19      CG321      1    LIG    C11     19     -0.198     12.011   ;
    20      CG321      1    LIG    C12     20     -0.115     12.011   ;
    21      CG321      1    LIG    C13     21     -0.111     12.011   ;
    22     CG2R61      1    LIG    C14     22     -0.019     12.011   ;
    23     CG2R61      1    LIG    C15     23     -0.123     12.011   ;
    24     CG2R61      1    LIG    C16     24     -0.112     12.011   ;
    25     CG2R61      1    LIG    C17     25     -0.116     12.011   ;
    26     CG2R61      1    LIG    C18     26     -0.112     12.011   ;
    27     CG2R61      1    LIG    C19     27     -0.123     12.011   ;
    28      NG2S1      1    LIG     N3     28     -0.226     14.007   ;
    29      CG2O1      1    LIG    C20     29      0.302     12.011   ;
    30      OG2D1      1    LIG     O3     30     -0.463     15.999   ;
    31       HGP1      1    LIG     H5     31      0.262      1.008   ;
    32     CG2R61      1    LIG    C21     32     -0.103     12.011   ;
    33     CG2R61      1    LIG    C22     33     -0.067     12.011   ;
    34     CG2R61      1    LIG    C23     34      0.151     12.011   ;
    35     CG2R61      1    LIG    C24     35     -0.123     12.011   ;
    36     CG2R61      1    LIG    C25     36     -0.110     12.011   ;
    37     CG2R61      1    LIG    C26     37     -0.060     12.011   ;
    38      NG301      1    LIG     N4     38     -0.229     14.007   ;
    39     CG2R61      1    LIG    C27     39      0.239     12.011   ;
    40     CG2R61      1    LIG    C28     40     -0.144     12.011   ;
    41     CG2R61      1    LIG    C29     41      0.051     12.011   ;
    42      CLGR1      1    LIG    CL1     42     -0.200     35.453   ;
    43     CG2R61      1    LIG    C30     43     -0.028     12.011   ;
    44     CG2R61      1    LIG    C31     44      0.051     12.011   ;
    45     CG2R61      1    LIG    C32     45     -0.144     12.011   ;
    46      CLGR1      1    LIG    CL2     46     -0.200     35.453   ;
    47      SG3O2      1    LIG      S     47      0.466     32.060   ;
    48      OG2P1      1    LIG     O4     48     -0.412     15.999   ;
    49      OG2P1      1    LIG     O5     49     -0.412     15.999   ;
    50      CG331      1    LIG    C33     50      0.033     12.011   ;
    51       HGA1      1    LIG     HC     51      0.090      1.008   ;
    52       HGA1      1    LIG    HC1     52      0.090      1.008   ;
    53       HGA2      1    LIG    HC2     53      0.090      1.008   ;
    54       HGA2      1    LIG    HC3     54      0.090      1.008   ;
    55       HGA1      1    LIG    HC4     55      0.090      1.008   ;
    56       HGA1      1    LIG    HC5     56      0.090      1.008   ;
    57       HGA2      1    LIG    HC6     57      0.090      1.008   ;
    58       HGA2      1    LIG    HC7     58      0.090      1.008   ;
    59       HGA2      1    LIG    HC8     59      0.090      1.008   ;
    60       HGA2      1    LIG    HC9     60      0.090      1.008   ;
    61       HGA2      1    LIG   HC10     61      0.090      1.008   ;
    62       HGA2      1    LIG   HC11     62      0.090      1.008   ;
    63       HGA2      1    LIG   HC12     63      0.090      1.008   ;
    64       HGA2      1    LIG   HC13     64      0.090      1.008   ;
    65       HGA2      1    LIG   HC14     65      0.090      1.008   ;
    66       HGA2      1    LIG   HC15     66      0.090      1.008   ;
    67       HGA2      1    LIG   HC16     67      0.090      1.008   ;
    68       HGA2      1    LIG   HC17     68      0.090      1.008   ;
    69      HGR61      1    LIG   HC18     69      0.116      1.008   ;
    70      HGR61      1    LIG   HC19     70      0.116      1.008   ;
    71      HGR61      1    LIG   HC20     71      0.116      1.008   ;
    72      HGR61      1    LIG   HC21     72      0.116      1.008   ;
    73      HGR61      1    LIG   HC22     73      0.116      1.008   ;
    74      HGR61      1    LIG   HC23     74      0.116      1.008   ;
    75      HGR61      1    LIG   HC24     75      0.116      1.008   ;
    76      HGR61      1    LIG   HC25     76      0.116      1.008   ;
    77      HGR61      1    LIG   HC26     77      0.116      1.008   ;
    78      HGR62      1    LIG   HC27     78      0.144      1.008   ;
    79      HGR62      1    LIG   HC28     79      0.128      1.008   ;
    80      HGR62      1    LIG   HC29     80      0.144      1.008   ;
    81       HGA3      1    LIG   HC30     81      0.090      1.008   ;
    82       HGA3      1    LIG   HC31     82      0.090      1.008   ;
    83       HGA3      1    LIG   HC32     83      0.090      1.008   ;
    84       HGA3      1    LIG   HC33     84      0.090      1.008   ;
    85       HGA3      1    LIG   HC34     85      0.090      1.008   ;
    86       HGA3      1    LIG   HC35     86      0.090      1.008   ;
    87        LPH      1    LIG    LP1     87      0.050      0.000   ;
    88        LPH      1    LIG    LP2     88      0.050      0.000   ;

[ bonds ]
;	ai	  aj funct			  c0			c1			  c2			c3
    1     2	 1 ;       CG311      CG311
    1    21	 1 ;       CG311      CG321
    1    28	 1 ;       CG311      NG2S1
    1    51	 1 ;       CG311       HGA1
    2     5	 1 ;       CG311      CG324
    2     3	 1 ;       CG311      OG311
    2    52	 1 ;       CG311       HGA1
    3     4	 1 ;       OG311       HGP1
    5     6	 1 ;       CG324      NG3P2
    5    53	 1 ;       CG324       HGA2
    5    54	 1 ;       CG324       HGA2
    6     7	 1 ;       NG3P2       HGP2
    6     9	 1 ;       NG3P2      CG314
    6     8	 1 ;       NG3P2       HGP2
    9    10	 1 ;       CG314      CG331
    9    11	 1 ;       CG314      CG2O1
    9    55	 1 ;       CG314       HGA1
   10    84	 1 ;       CG331       HGA3
   10    85	 1 ;       CG331       HGA3
   10    86	 1 ;       CG331       HGA3
   11    12	 1 ;       CG2O1      OG2D1
   11    13	 1 ;       CG2O1      NG2S1
   13    14	 1 ;       NG2S1       HGP1
   13    15	 1 ;       NG2S1      CG311
   15    20	 1 ;       CG311      CG321
   15    16	 1 ;       CG311      CG321
   15    56	 1 ;       CG311       HGA1
   16    17	 1 ;       CG321      CG321
   16    57	 1 ;       CG321       HGA2
   16    58	 1 ;       CG321       HGA2
   17    18	 1 ;       CG321      CG321
   17    59	 1 ;       CG321       HGA2
   17    60	 1 ;       CG321       HGA2
   18    19	 1 ;       CG321      CG321
   18    61	 1 ;       CG321       HGA2
   18    62	 1 ;       CG321       HGA2
   19    20	 1 ;       CG321      CG321
   19    63	 1 ;       CG321       HGA2
   19    64	 1 ;       CG321       HGA2
   20    65	 1 ;       CG321       HGA2
   20    66	 1 ;       CG321       HGA2
   21    22	 1 ;       CG321     CG2R61
   21    67	 1 ;       CG321       HGA2
   21    68	 1 ;       CG321       HGA2
   22    27	 1 ;      CG2R61     CG2R61
   22    23	 1 ;      CG2R61     CG2R61
   23    24	 1 ;      CG2R61     CG2R61
   23    69	 1 ;      CG2R61      HGR61
   24    25	 1 ;      CG2R61     CG2R61
   24    70	 1 ;      CG2R61      HGR61
   25    26	 1 ;      CG2R61     CG2R61
   25    71	 1 ;      CG2R61      HGR61
   26    27	 1 ;      CG2R61     CG2R61
   26    72	 1 ;      CG2R61      HGR61
   27    73	 1 ;      CG2R61      HGR61
   28    29	 1 ;       NG2S1      CG2O1
   28    31	 1 ;       NG2S1       HGP1
   29    30	 1 ;       CG2O1      OG2D1
   29    32	 1 ;       CG2O1     CG2R61
   32    37	 1 ;      CG2R61     CG2R61
   32    33	 1 ;      CG2R61     CG2R61
   33    34	 1 ;      CG2R61     CG2R61
   33    74	 1 ;      CG2R61      HGR61
   34    35	 1 ;      CG2R61     CG2R61
   34    38	 1 ;      CG2R61      NG301
   35    36	 1 ;      CG2R61     CG2R61
   35    75	 1 ;      CG2R61      HGR61
   36    37	 1 ;      CG2R61     CG2R61
   36    76	 1 ;      CG2R61      HGR61
   37    77	 1 ;      CG2R61      HGR61
   38    47	 1 ;       NG301      SG3O2
   38    39	 1 ;       NG301     CG2R61
   39    40	 1 ;      CG2R61     CG2R61
   39    45	 1 ;      CG2R61     CG2R61
   40    41	 1 ;      CG2R61     CG2R61
   40    78	 1 ;      CG2R61      HGR62
   41    43	 1 ;      CG2R61     CG2R61
   41    42	 1 ;      CG2R61      CLGR1
   43    44	 1 ;      CG2R61     CG2R61
   43    79	 1 ;      CG2R61      HGR62
   44    45	 1 ;      CG2R61     CG2R61
   44    46	 1 ;      CG2R61      CLGR1
   45    80	 1 ;      CG2R61      HGR62
   47    49	 1 ;       SG3O2      OG2P1
   47    50	 1 ;       SG3O2      CG331
   47    48	 1 ;       SG3O2      OG2P1
   50    81	 1 ;       CG331       HGA3
   50    82	 1 ;       CG331       HGA3
   50    83	 1 ;       CG331       HGA3

[ pairs ]
;	ai	  aj funct			  c0			c1			  c2			c3
    1     6	 1
    1    53	 1
    1    54	 1
    1     4	 1
    1    27	 1
    1    23	 1
    1    30	 1
    1    32	 1
    2    22	 1
    2    67	 1
    2    68	 1
    2    29	 1
    2    31	 1
    2     7	 1
    2     9	 1
    2     8	 1
    3    21	 1
    3    28	 1
    3    51	 1
    3     6	 1
    3    53	 1
    3    54	 1
    4     5	 1
    4    52	 1
    5    21	 1
    5    28	 1
    5    51	 1
    5    10	 1
    5    11	 1
    5    55	 1
    6    52	 1
    6    84	 1
    6    85	 1
    6    86	 1
    6    12	 1
    6    13	 1
    7    53	 1
    7    54	 1
    7    10	 1
    7    11	 1
    7    55	 1
    8    53	 1
    8    54	 1
    8    10	 1
    8    11	 1
    8    55	 1
    9    53	 1
    9    54	 1
    9    14	 1
    9    15	 1
   10    12	 1
   10    13	 1
   11    84	 1
   11    85	 1
   11    86	 1
   11    20	 1
   11    16	 1
   11    56	 1
   12    55	 1
   12    14	 1
   12    15	 1
   13    55	 1
   13    19	 1
   13    65	 1
   13    66	 1
   13    17	 1
   13    57	 1
   13    58	 1
   14    20	 1
   14    16	 1
   14    56	 1
   15    18	 1
   15    59	 1
   15    60	 1
   15    63	 1
   15    64	 1
   16    19	 1
   16    65	 1
   16    66	 1
   16    61	 1
   16    62	 1
   17    20	 1
   17    56	 1
   17    63	 1
   17    64	 1
   18    57	 1
   18    58	 1
   18    65	 1
   18    66	 1
   19    56	 1
   19    59	 1
   19    60	 1
   20    57	 1
   20    58	 1
   20    61	 1
   20    62	 1
   21    52	 1
   21    29	 1
   21    31	 1
   21    26	 1
   21    73	 1
   21    24	 1
   21    69	 1
   22    28	 1
   22    51	 1
   22    25	 1
   22    70	 1
   22    72	 1
   23    67	 1
   23    68	 1
   23    26	 1
   23    73	 1
   23    71	 1
   24    27	 1
   24    72	 1
   25    69	 1
   25    73	 1
   26    70	 1
   27    67	 1
   27    68	 1
   27    69	 1
   27    71	 1
   28    52	 1
   28    67	 1
   28    68	 1
   28    37	 1
   28    33	 1
   29    51	 1
   29    36	 1
   29    77	 1
   29    34	 1
   29    74	 1
   30    31	 1
   30    37	 1
   30    33	 1
   31    51	 1
   31    32	 1
   32    35	 1
   32    38	 1
   32    76	 1
   33    36	 1
   33    77	 1
   33    75	 1
   33    47	 1
   33    39	 1
   34    37	 1
   34    76	 1
   34    49	 1
   34    50	 1
   34    48	 1
   34    40	 1
   34    45	 1
   35    74	 1
   35    47	 1
   35    39	 1
   35    77	 1
   36    38	 1
   37    74	 1
   37    75	 1
   38    74	 1
   38    75	 1
   38    41	 1
   38    78	 1
   38    44	 1
   38    80	 1
   38    81	 1
   38    82	 1
   38    83	 1
   39    49	 1
   39    50	 1
   39    48	 1
   39    43	 1
   39    42	 1
   87    39	 1
   39    46	 1
   88    39	 1
   40    47	 1
   40    44	 1
   40    80	 1
   40    79	 1
   41    45	 1
   41    46	 1
   88    41	 1
   42    78	 1
   87    78	 1
   42    44	 1
   87    44	 1
   42    79	 1
   87    79	 1
   43    78	 1
   43    80	 1
   45    47	 1
   45    78	 1
   45    79	 1
   46    79	 1
   88    79	 1
   46    80	 1
   88    80	 1
   48    81	 1
   48    82	 1
   48    83	 1
   49    81	 1
   49    82	 1
   49    83	 1
   51    52	 1
   51    67	 1
   51    68	 1
   52    53	 1
   52    54	 1
   55    84	 1
   55    85	 1
   55    86	 1
   56    65	 1
   56    66	 1
   56    57	 1
   56    58	 1
   57    59	 1
   57    60	 1
   58    59	 1
   58    60	 1
   59    61	 1
   59    62	 1
   60    61	 1
   60    62	 1
   61    63	 1
   61    64	 1
   62    63	 1
   62    64	 1
   63    65	 1
   63    66	 1
   64    65	 1
   64    66	 1
   69    70	 1
   70    71	 1
   71    72	 1
   72    73	 1
   75    76	 1
   76    77	 1

[ angles ]
;	ai	  aj	ak funct			c0			  c1			c2			  c3
    2     1    21	5 ;      CG311      CG311      CG321
    2     1    28	5 ;      CG311      CG311      NG2S1
    2     1    51	5 ;      CG311      CG311       HGA1
   21     1    28	5 ;      CG321      CG311      NG2S1
   21     1    51	5 ;      CG321      CG311       HGA1
   28     1    51	5 ;      NG2S1      CG311       HGA1
    5     2     3	5 ;      CG324      CG311      OG311
    5     2     1	5 ;      CG324      CG311      CG311
    5     2    52	5 ;      CG324      CG311       HGA1
    3     2     1	5 ;      OG311      CG311      CG311
    3     2    52	5 ;      OG311      CG311       HGA1
    1     2    52	5 ;      CG311      CG311       HGA1
    4     3     2	5 ;       HGP1      OG311      CG311
    6     5     2	5 ;      NG3P2      CG324      CG311
    6     5    53	5 ;      NG3P2      CG324       HGA2
    6     5    54	5 ;      NG3P2      CG324       HGA2
    2     5    53	5 ;      CG311      CG324       HGA2
    2     5    54	5 ;      CG311      CG324       HGA2
   53     5    54	5 ;       HGA2      CG324       HGA2
    7     6     9	5 ;       HGP2      NG3P2      CG314
    7     6     5	5 ;       HGP2      NG3P2      CG324
    7     6     8	5 ;       HGP2      NG3P2       HGP2
    9     6     5	5 ;      CG314      NG3P2      CG324
    9     6     8	5 ;      CG314      NG3P2       HGP2
    5     6     8	5 ;      CG324      NG3P2       HGP2
   10     9     6	5 ;      CG331      CG314      NG3P2
   10     9    11	5 ;      CG331      CG314      CG2O1
   10     9    55	5 ;      CG331      CG314       HGA1
    6     9    11	5 ;      NG3P2      CG314      CG2O1
    6     9    55	5 ;      NG3P2      CG314       HGA1
   11     9    55	5 ;      CG2O1      CG314       HGA1
    9    10    84	5 ;      CG314      CG331       HGA3
    9    10    85	5 ;      CG314      CG331       HGA3
    9    10    86	5 ;      CG314      CG331       HGA3
   84    10    85	5 ;       HGA3      CG331       HGA3
   84    10    86	5 ;       HGA3      CG331       HGA3
   85    10    86	5 ;       HGA3      CG331       HGA3
    9    11    12	5 ;      CG314      CG2O1      OG2D1
    9    11    13	5 ;      CG314      CG2O1      NG2S1
   12    11    13	5 ;      OG2D1      CG2O1      NG2S1
   11    13    14	5 ;      CG2O1      NG2S1       HGP1
   11    13    15	5 ;      CG2O1      NG2S1      CG311
   14    13    15	5 ;       HGP1      NG2S1      CG311
   13    15    20	5 ;      NG2S1      CG311      CG321
   13    15    16	5 ;      NG2S1      CG311      CG321
   13    15    56	5 ;      NG2S1      CG311       HGA1
   20    15    16	5 ;      CG321      CG311      CG321
   20    15    56	5 ;      CG321      CG311       HGA1
   16    15    56	5 ;      CG321      CG311       HGA1
   15    16    17	5 ;      CG311      CG321      CG321
   15    16    57	5 ;      CG311      CG321       HGA2
   15    16    58	5 ;      CG311      CG321       HGA2
   17    16    57	5 ;      CG321      CG321       HGA2
   17    16    58	5 ;      CG321      CG321       HGA2
   57    16    58	5 ;       HGA2      CG321       HGA2
   16    17    18	5 ;      CG321      CG321      CG321
   16    17    59	5 ;      CG321      CG321       HGA2
   16    17    60	5 ;      CG321      CG321       HGA2
   18    17    59	5 ;      CG321      CG321       HGA2
   18    17    60	5 ;      CG321      CG321       HGA2
   59    17    60	5 ;       HGA2      CG321       HGA2
   19    18    17	5 ;      CG321      CG321      CG321
   19    18    61	5 ;      CG321      CG321       HGA2
   19    18    62	5 ;      CG321      CG321       HGA2
   17    18    61	5 ;      CG321      CG321       HGA2
   17    18    62	5 ;      CG321      CG321       HGA2
   61    18    62	5 ;       HGA2      CG321       HGA2
   20    19    18	5 ;      CG321      CG321      CG321
   20    19    63	5 ;      CG321      CG321       HGA2
   20    19    64	5 ;      CG321      CG321       HGA2
   18    19    63	5 ;      CG321      CG321       HGA2
   18    19    64	5 ;      CG321      CG321       HGA2
   63    19    64	5 ;       HGA2      CG321       HGA2
   15    20    19	5 ;      CG311      CG321      CG321
   15    20    65	5 ;      CG311      CG321       HGA2
   15    20    66	5 ;      CG311      CG321       HGA2
   19    20    65	5 ;      CG321      CG321       HGA2
   19    20    66	5 ;      CG321      CG321       HGA2
   65    20    66	5 ;       HGA2      CG321       HGA2
    1    21    22	5 ;      CG311      CG321     CG2R61
    1    21    67	5 ;      CG311      CG321       HGA2
    1    21    68	5 ;      CG311      CG321       HGA2
   22    21    67	5 ;     CG2R61      CG321       HGA2
   22    21    68	5 ;     CG2R61      CG321       HGA2
   67    21    68	5 ;       HGA2      CG321       HGA2
   27    22    21	5 ;     CG2R61     CG2R61      CG321
   27    22    23	5 ;     CG2R61     CG2R61     CG2R61
   21    22    23	5 ;      CG321     CG2R61     CG2R61
   22    23    24	5 ;     CG2R61     CG2R61     CG2R61
   22    23    69	5 ;     CG2R61     CG2R61      HGR61
   24    23    69	5 ;     CG2R61     CG2R61      HGR61
   25    24    23	5 ;     CG2R61     CG2R61     CG2R61
   25    24    70	5 ;     CG2R61     CG2R61      HGR61
   23    24    70	5 ;     CG2R61     CG2R61      HGR61
   26    25    24	5 ;     CG2R61     CG2R61     CG2R61
   26    25    71	5 ;     CG2R61     CG2R61      HGR61
   24    25    71	5 ;     CG2R61     CG2R61      HGR61
   27    26    25	5 ;     CG2R61     CG2R61     CG2R61
   27    26    72	5 ;     CG2R61     CG2R61      HGR61
   25    26    72	5 ;     CG2R61     CG2R61      HGR61
   26    27    22	5 ;     CG2R61     CG2R61     CG2R61
   26    27    73	5 ;     CG2R61     CG2R61      HGR61
   22    27    73	5 ;     CG2R61     CG2R61      HGR61
    1    28    29	5 ;      CG311      NG2S1      CG2O1
    1    28    31	5 ;      CG311      NG2S1       HGP1
   29    28    31	5 ;      CG2O1      NG2S1       HGP1
   30    29    28	5 ;      OG2D1      CG2O1      NG2S1
   30    29    32	5 ;      OG2D1      CG2O1     CG2R61
   28    29    32	5 ;      NG2S1      CG2O1     CG2R61
   29    32    37	5 ;      CG2O1     CG2R61     CG2R61
   29    32    33	5 ;      CG2O1     CG2R61     CG2R61
   37    32    33	5 ;     CG2R61     CG2R61     CG2R61
   32    33    34	5 ;     CG2R61     CG2R61     CG2R61
   32    33    74	5 ;     CG2R61     CG2R61      HGR61
   34    33    74	5 ;     CG2R61     CG2R61      HGR61
   33    34    35	5 ;     CG2R61     CG2R61     CG2R61
   33    34    38	5 ;     CG2R61     CG2R61      NG301
   35    34    38	5 ;     CG2R61     CG2R61      NG301
   36    35    34	5 ;     CG2R61     CG2R61     CG2R61
   36    35    75	5 ;     CG2R61     CG2R61      HGR61
   34    35    75	5 ;     CG2R61     CG2R61      HGR61
   37    36    35	5 ;     CG2R61     CG2R61     CG2R61
   37    36    76	5 ;     CG2R61     CG2R61      HGR61
   35    36    76	5 ;     CG2R61     CG2R61      HGR61
   32    37    36	5 ;     CG2R61     CG2R61     CG2R61
   32    37    77	5 ;     CG2R61     CG2R61      HGR61
   36    37    77	5 ;     CG2R61     CG2R61      HGR61
   34    38    47	5 ;     CG2R61      NG301      SG3O2
   34    38    39	5 ;     CG2R61      NG301     CG2R61
   47    38    39	5 ;      SG3O2      NG301     CG2R61
   38    39    40	5 ;      NG301     CG2R61     CG2R61
   38    39    45	5 ;      NG301     CG2R61     CG2R61
   40    39    45	5 ;     CG2R61     CG2R61     CG2R61
   39    40    41	5 ;     CG2R61     CG2R61     CG2R61
   39    40    78	5 ;     CG2R61     CG2R61      HGR62
   41    40    78	5 ;     CG2R61     CG2R61      HGR62
   40    41    43	5 ;     CG2R61     CG2R61     CG2R61
   40    41    42	5 ;     CG2R61     CG2R61      CLGR1
   43    41    42	5 ;     CG2R61     CG2R61      CLGR1
   41    43    44	5 ;     CG2R61     CG2R61     CG2R61
   41    43    79	5 ;     CG2R61     CG2R61      HGR62
   44    43    79	5 ;     CG2R61     CG2R61      HGR62
   45    44    43	5 ;     CG2R61     CG2R61     CG2R61
   45    44    46	5 ;     CG2R61     CG2R61      CLGR1
   43    44    46	5 ;     CG2R61     CG2R61      CLGR1
   39    45    44	5 ;     CG2R61     CG2R61     CG2R61
   39    45    80	5 ;     CG2R61     CG2R61      HGR62
   44    45    80	5 ;     CG2R61     CG2R61      HGR62
   49    47    38	5 ;      OG2P1      SG3O2      NG301
   49    47    50	5 ;      OG2P1      SG3O2      CG331
   49    47    48	5 ;      OG2P1      SG3O2      OG2P1
   38    47    50	5 ;      NG301      SG3O2      CG331
   38    47    48	5 ;      NG301      SG3O2      OG2P1
   50    47    48	5 ;      CG331      SG3O2      OG2P1
   47    50    81	5 ;      SG3O2      CG331       HGA3
   47    50    82	5 ;      SG3O2      CG331       HGA3
   47    50    83	5 ;      SG3O2      CG331       HGA3
   81    50    82	5 ;       HGA3      CG331       HGA3
   81    50    83	5 ;       HGA3      CG331       HGA3
   82    50    83	5 ;       HGA3      CG331       HGA3

[ dihedrals ]
;	ai	  aj	ak	  al funct			  c0			c1			  c2			c3			  c4			c5
   21     1     2     5	 9 ;      CG321      CG311      CG311      CG324
   21     1     2     3	 9 ;      CG321      CG311      CG311      OG311
   21     1     2    52	 9 ;      CG321      CG311      CG311       HGA1
   28     1     2     5	 9 ;      NG2S1      CG311      CG311      CG324
   28     1     2     3	 9 ;      NG2S1      CG311      CG311      OG311
   28     1     2    52	 9 ;      NG2S1      CG311      CG311       HGA1
   51     1     2     5	 9 ;       HGA1      CG311      CG311      CG324
   51     1     2     3	 9 ;       HGA1      CG311      CG311      OG311
   51     1     2    52	 9 ;       HGA1      CG311      CG311       HGA1
    2     1    21    22	 9 ;      CG311      CG311      CG321     CG2R61
    2     1    21    67	 9 ;      CG311      CG311      CG321       HGA2
    2     1    21    68	 9 ;      CG311      CG311      CG321       HGA2
   28     1    21    22	 9 ;      NG2S1      CG311      CG321     CG2R61
   28     1    21    67	 9 ;      NG2S1      CG311      CG321       HGA2
   28     1    21    68	 9 ;      NG2S1      CG311      CG321       HGA2
   51     1    21    22	 9 ;       HGA1      CG311      CG321     CG2R61
   51     1    21    67	 9 ;       HGA1      CG311      CG321       HGA2
   51     1    21    68	 9 ;       HGA1      CG311      CG321       HGA2
    2     1    28    29	 9 ;      CG311      CG311      NG2S1      CG2O1
    2     1    28    31	 9 ;      CG311      CG311      NG2S1       HGP1
   21     1    28    29	 9 ;      CG321      CG311      NG2S1      CG2O1
   21     1    28    31	 9 ;      CG321      CG311      NG2S1       HGP1
   51     1    28    29	 9 ;       HGA1      CG311      NG2S1      CG2O1
   51     1    28    31	 9 ;       HGA1      CG311      NG2S1       HGP1
    3     2     5     6	 9 ;      OG311      CG311      CG324      NG3P2
    3     2     5    53	 9 ;      OG311      CG311      CG324       HGA2
    3     2     5    54	 9 ;      OG311      CG311      CG324       HGA2
    1     2     5     6	 9 ;      CG311      CG311      CG324      NG3P2
    1     2     5    53	 9 ;      CG311      CG311      CG324       HGA2
    1     2     5    54	 9 ;      CG311      CG311      CG324       HGA2
   52     2     5     6	 9 ;       HGA1      CG311      CG324      NG3P2
   52     2     5    53	 9 ;       HGA1      CG311      CG324       HGA2
   52     2     5    54	 9 ;       HGA1      CG311      CG324       HGA2
    5     2     3     4	 9 ;      CG324      CG311      OG311       HGP1
    1     2     3     4	 9 ;      CG311      CG311      OG311       HGP1
   52     2     3     4	 9 ;       HGA1      CG311      OG311       HGP1
    2     5     6     7	 9 ;      CG311      CG324      NG3P2       HGP2
    2     5     6     9	 9 ;      CG311      CG324      NG3P2      CG314
    2     5     6     8	 9 ;      CG311      CG324      NG3P2       HGP2
   53     5     6     7	 9 ;       HGA2      CG324      NG3P2       HGP2
   53     5     6     9	 9 ;       HGA2      CG324      NG3P2      CG314
   53     5     6     8	 9 ;       HGA2      CG324      NG3P2       HGP2
   54     5     6     7	 9 ;       HGA2      CG324      NG3P2       HGP2
   54     5     6     9	 9 ;       HGA2      CG324      NG3P2      CG314
   54     5     6     8	 9 ;       HGA2      CG324      NG3P2       HGP2
    7     6     9    10	 9 ;       HGP2      NG3P2      CG314      CG331
    7     6     9    11	 9 ;       HGP2      NG3P2      CG314      CG2O1
    7     6     9    55	 9 ;       HGP2      NG3P2      CG314       HGA1
    5     6     9    10	 9 ;      CG324      NG3P2      CG314      CG331
    5     6     9    11	 9 ;      CG324      NG3P2      CG314      CG2O1
    5     6     9    55	 9 ;      CG324      NG3P2      CG314       HGA1
    8     6     9    10	 9 ;       HGP2      NG3P2      CG314      CG331
    8     6     9    11	 9 ;       HGP2      NG3P2      CG314      CG2O1
    8     6     9    55	 9 ;       HGP2      NG3P2      CG314       HGA1
    6     9    10    84	 9 ;      NG3P2      CG314      CG331       HGA3
    6     9    10    85	 9 ;      NG3P2      CG314      CG331       HGA3
    6     9    10    86	 9 ;      NG3P2      CG314      CG331       HGA3
   11     9    10    84	 9 ;      CG2O1      CG314      CG331       HGA3
   11     9    10    85	 9 ;      CG2O1      CG314      CG331       HGA3
   11     9    10    86	 9 ;      CG2O1      CG314      CG331       HGA3
   55     9    10    84	 9 ;       HGA1      CG314      CG331       HGA3
   55     9    10    85	 9 ;       HGA1      CG314      CG331       HGA3
   55     9    10    86	 9 ;       HGA1      CG314      CG331       HGA3
   10     9    11    12	 9 ;      CG331      CG314      CG2O1      OG2D1
   10     9    11    13	 9 ;      CG331      CG314      CG2O1      NG2S1
    6     9    11    12	 9 ;      NG3P2      CG314      CG2O1      OG2D1
    6     9    11    13	 9 ;      NG3P2      CG314      CG2O1      NG2S1
   55     9    11    12	 9 ;       HGA1      CG314      CG2O1      OG2D1
   55     9    11    13	 9 ;       HGA1      CG314      CG2O1      NG2S1
    9    11    13    14	 9 ;      CG314      CG2O1      NG2S1       HGP1
    9    11    13    15	 9 ;      CG314      CG2O1      NG2S1      CG311
   12    11    13    14	 9 ;      OG2D1      CG2O1      NG2S1       HGP1
   12    11    13    15	 9 ;      OG2D1      CG2O1      NG2S1      CG311
   11    13    15    20	 9 ;      CG2O1      NG2S1      CG311      CG321
   11    13    15    16	 9 ;      CG2O1      NG2S1      CG311      CG321
   11    13    15    56	 9 ;      CG2O1      NG2S1      CG311       HGA1
   14    13    15    20	 9 ;       HGP1      NG2S1      CG311      CG321
   14    13    15    16	 9 ;       HGP1      NG2S1      CG311      CG321
   14    13    15    56	 9 ;       HGP1      NG2S1      CG311       HGA1
   13    15    20    19	 9 ;      NG2S1      CG311      CG321      CG321
   13    15    20    65	 9 ;      NG2S1      CG311      CG321       HGA2
   13    15    20    66	 9 ;      NG2S1      CG311      CG321       HGA2
   16    15    20    19	 9 ;      CG321      CG311      CG321      CG321
   16    15    20    65	 9 ;      CG321      CG311      CG321       HGA2
   16    15    20    66	 9 ;      CG321      CG311      CG321       HGA2
   56    15    20    19	 9 ;       HGA1      CG311      CG321      CG321
   56    15    20    65	 9 ;       HGA1      CG311      CG321       HGA2
   56    15    20    66	 9 ;       HGA1      CG311      CG321       HGA2
   13    15    16    17	 9 ;      NG2S1      CG311      CG321      CG321
   13    15    16    57	 9 ;      NG2S1      CG311      CG321       HGA2
   13    15    16    58	 9 ;      NG2S1      CG311      CG321       HGA2
   20    15    16    17	 9 ;      CG321      CG311      CG321      CG321
   20    15    16    57	 9 ;      CG321      CG311      CG321       HGA2
   20    15    16    58	 9 ;      CG321      CG311      CG321       HGA2
   56    15    16    17	 9 ;       HGA1      CG311      CG321      CG321
   56    15    16    57	 9 ;       HGA1      CG311      CG321       HGA2
   56    15    16    58	 9 ;       HGA1      CG311      CG321       HGA2
   15    16    17    18	 9 ;      CG311      CG321      CG321      CG321
   15    16    17    59	 9 ;      CG311      CG321      CG321       HGA2
   15    16    17    60	 9 ;      CG311      CG321      CG321       HGA2
   57    16    17    18	 9 ;       HGA2      CG321      CG321      CG321
   57    16    17    59	 9 ;       HGA2      CG321      CG321       HGA2
   57    16    17    60	 9 ;       HGA2      CG321      CG321       HGA2
   58    16    17    18	 9 ;       HGA2      CG321      CG321      CG321
   58    16    17    59	 9 ;       HGA2      CG321      CG321       HGA2
   58    16    17    60	 9 ;       HGA2      CG321      CG321       HGA2
   16    17    18    19	 9 ;      CG321      CG321      CG321      CG321
   16    17    18    61	 9 ;      CG321      CG321      CG321       HGA2
   16    17    18    62	 9 ;      CG321      CG321      CG321       HGA2
   59    17    18    19	 9 ;       HGA2      CG321      CG321      CG321
   59    17    18    61	 9 ;       HGA2      CG321      CG321       HGA2
   59    17    18    62	 9 ;       HGA2      CG321      CG321       HGA2
   60    17    18    19	 9 ;       HGA2      CG321      CG321      CG321
   60    17    18    61	 9 ;       HGA2      CG321      CG321       HGA2
   60    17    18    62	 9 ;       HGA2      CG321      CG321       HGA2
   17    18    19    20	 9 ;      CG321      CG321      CG321      CG321
   17    18    19    63	 9 ;      CG321      CG321      CG321       HGA2
   17    18    19    64	 9 ;      CG321      CG321      CG321       HGA2
   61    18    19    20	 9 ;       HGA2      CG321      CG321      CG321
   61    18    19    63	 9 ;       HGA2      CG321      CG321       HGA2
   61    18    19    64	 9 ;       HGA2      CG321      CG321       HGA2
   62    18    19    20	 9 ;       HGA2      CG321      CG321      CG321
   62    18    19    63	 9 ;       HGA2      CG321      CG321       HGA2
   62    18    19    64	 9 ;       HGA2      CG321      CG321       HGA2
   18    19    20    15	 9 ;      CG321      CG321      CG321      CG311
   18    19    20    65	 9 ;      CG321      CG321      CG321       HGA2
   18    19    20    66	 9 ;      CG321      CG321      CG321       HGA2
   63    19    20    15	 9 ;       HGA2      CG321      CG321      CG311
   63    19    20    65	 9 ;       HGA2      CG321      CG321       HGA2
   63    19    20    66	 9 ;       HGA2      CG321      CG321       HGA2
   64    19    20    15	 9 ;       HGA2      CG321      CG321      CG311
   64    19    20    65	 9 ;       HGA2      CG321      CG321       HGA2
   64    19    20    66	 9 ;       HGA2      CG321      CG321       HGA2
    1    21    22    27	 9 ;      CG311      CG321     CG2R61     CG2R61
    1    21    22    23	 9 ;      CG311      CG321     CG2R61     CG2R61
   67    21    22    27	 9 ;       HGA2      CG321     CG2R61     CG2R61
   67    21    22    23	 9 ;       HGA2      CG321     CG2R61     CG2R61
   68    21    22    27	 9 ;       HGA2      CG321     CG2R61     CG2R61
   68    21    22    23	 9 ;       HGA2      CG321     CG2R61     CG2R61
   21    22    27    26	 9 ;      CG321     CG2R61     CG2R61     CG2R61
   21    22    27    73	 9 ;      CG321     CG2R61     CG2R61      HGR61
   23    22    27    26	 9 ;     CG2R61     CG2R61     CG2R61     CG2R61
   23    22    27    73	 9 ;     CG2R61     CG2R61     CG2R61      HGR61
   27    22    23    24	 9 ;     CG2R61     CG2R61     CG2R61     CG2R61
   27    22    23    69	 9 ;     CG2R61     CG2R61     CG2R61      HGR61
   21    22    23    24	 9 ;      CG321     CG2R61     CG2R61     CG2R61
   21    22    23    69	 9 ;      CG321     CG2R61     CG2R61      HGR61
   22    23    24    25	 9 ;     CG2R61     CG2R61     CG2R61     CG2R61
   22    23    24    70	 9 ;     CG2R61     CG2R61     CG2R61      HGR61
   69    23    24    25	 9 ;      HGR61     CG2R61     CG2R61     CG2R61
   69    23    24    70	 9 ;      HGR61     CG2R61     CG2R61      HGR61
   23    24    25    26	 9 ;     CG2R61     CG2R61     CG2R61     CG2R61
   23    24    25    71	 9 ;     CG2R61     CG2R61     CG2R61      HGR61
   70    24    25    26	 9 ;      HGR61     CG2R61     CG2R61     CG2R61
   70    24    25    71	 9 ;      HGR61     CG2R61     CG2R61      HGR61
   24    25    26    27	 9 ;     CG2R61     CG2R61     CG2R61     CG2R61
   24    25    26    72	 9 ;     CG2R61     CG2R61     CG2R61      HGR61
   71    25    26    27	 9 ;      HGR61     CG2R61     CG2R61     CG2R61
   71    25    26    72	 9 ;      HGR61     CG2R61     CG2R61      HGR61
   25    26    27    22	 9 ;     CG2R61     CG2R61     CG2R61     CG2R61
   25    26    27    73	 9 ;     CG2R61     CG2R61     CG2R61      HGR61
   72    26    27    22	 9 ;      HGR61     CG2R61     CG2R61     CG2R61
   72    26    27    73	 9 ;      HGR61     CG2R61     CG2R61      HGR61
    1    28    29    30	 9 ;      CG311      NG2S1      CG2O1      OG2D1
    1    28    29    32	 9 ;      CG311      NG2S1      CG2O1     CG2R61
   31    28    29    30	 9 ;       HGP1      NG2S1      CG2O1      OG2D1
   31    28    29    32	 9 ;       HGP1      NG2S1      CG2O1     CG2R61
   30    29    32    37	 9 ;      OG2D1      CG2O1     CG2R61     CG2R61
   30    29    32    33	 9 ;      OG2D1      CG2O1     CG2R61     CG2R61
   28    29    32    37	 9 ;      NG2S1      CG2O1     CG2R61     CG2R61
   28    29    32    33	 9 ;      NG2S1      CG2O1     CG2R61     CG2R61
   29    32    37    36	 9 ;      CG2O1     CG2R61     CG2R61     CG2R61
   29    32    37    77	 9 ;      CG2O1     CG2R61     CG2R61      HGR61
   33    32    37    36	 9 ;     CG2R61     CG2R61     CG2R61     CG2R61
   33    32    37    77	 9 ;     CG2R61     CG2R61     CG2R61      HGR61
   29    32    33    34	 9 ;      CG2O1     CG2R61     CG2R61     CG2R61
   29    32    33    74	 9 ;      CG2O1     CG2R61     CG2R61      HGR61
   37    32    33    34	 9 ;     CG2R61     CG2R61     CG2R61     CG2R61
   37    32    33    74	 9 ;     CG2R61     CG2R61     CG2R61      HGR61
   32    33    34    35	 9 ;     CG2R61     CG2R61     CG2R61     CG2R61
   32    33    34    38	 9 ;     CG2R61     CG2R61     CG2R61      NG301
   74    33    34    35	 9 ;      HGR61     CG2R61     CG2R61     CG2R61
   74    33    34    38	 9 ;      HGR61     CG2R61     CG2R61      NG301
   33    34    35    36	 9 ;     CG2R61     CG2R61     CG2R61     CG2R61
   33    34    35    75	 9 ;     CG2R61     CG2R61     CG2R61      HGR61
   38    34    35    36	 9 ;      NG301     CG2R61     CG2R61     CG2R61
   38    34    35    75	 9 ;      NG301     CG2R61     CG2R61      HGR61
   33    34    38    47	 9 ;     CG2R61     CG2R61      NG301      SG3O2
   33    34    38    39	 9 ;     CG2R61     CG2R61      NG301     CG2R61
   35    34    38    47	 9 ;     CG2R61     CG2R61      NG301      SG3O2
   35    34    38    39	 9 ;     CG2R61     CG2R61      NG301     CG2R61
   34    35    36    37	 9 ;     CG2R61     CG2R61     CG2R61     CG2R61
   34    35    36    76	 9 ;     CG2R61     CG2R61     CG2R61      HGR61
   75    35    36    37	 9 ;      HGR61     CG2R61     CG2R61     CG2R61
   75    35    36    76	 9 ;      HGR61     CG2R61     CG2R61      HGR61
   35    36    37    32	 9 ;     CG2R61     CG2R61     CG2R61     CG2R61
   35    36    37    77	 9 ;     CG2R61     CG2R61     CG2R61      HGR61
   76    36    37    32	 9 ;      HGR61     CG2R61     CG2R61     CG2R61
   76    36    37    77	 9 ;      HGR61     CG2R61     CG2R61      HGR61
   34    38    47    49	 9 ;     CG2R61      NG301      SG3O2      OG2P1
   34    38    47    50	 9 ;     CG2R61      NG301      SG3O2      CG331
   34    38    47    48	 9 ;     CG2R61      NG301      SG3O2      OG2P1
   39    38    47    49	 9 ;     CG2R61      NG301      SG3O2      OG2P1
   39    38    47    50	 9 ;     CG2R61      NG301      SG3O2      CG331
   39    38    47    48	 9 ;     CG2R61      NG301      SG3O2      OG2P1
   34    38    39    40	 9 ;     CG2R61      NG301     CG2R61     CG2R61
   34    38    39    45	 9 ;     CG2R61      NG301     CG2R61     CG2R61
   47    38    39    40	 9 ;      SG3O2      NG301     CG2R61     CG2R61
   47    38    39    45	 9 ;      SG3O2      NG301     CG2R61     CG2R61
   38    39    40    41	 9 ;      NG301     CG2R61     CG2R61     CG2R61
   38    39    40    78	 9 ;      NG301     CG2R61     CG2R61      HGR62
   45    39    40    41	 9 ;     CG2R61     CG2R61     CG2R61     CG2R61
   45    39    40    78	 9 ;     CG2R61     CG2R61     CG2R61      HGR62
   38    39    45    44	 9 ;      NG301     CG2R61     CG2R61     CG2R61
   38    39    45    80	 9 ;      NG301     CG2R61     CG2R61      HGR62
   40    39    45    44	 9 ;     CG2R61     CG2R61     CG2R61     CG2R61
   40    39    45    80	 9 ;     CG2R61     CG2R61     CG2R61      HGR62
   39    40    41    43	 9 ;     CG2R61     CG2R61     CG2R61     CG2R61
   39    40    41    42	 9 ;     CG2R61     CG2R61     CG2R61      CLGR1
   78    40    41    43	 9 ;      HGR62     CG2R61     CG2R61     CG2R61
   78    40    41    42	 9 ;      HGR62     CG2R61     CG2R61      CLGR1
   40    41    43    44	 9 ;     CG2R61     CG2R61     CG2R61     CG2R61
   40    41    43    79	 9 ;     CG2R61     CG2R61     CG2R61      HGR62
   42    41    43    44	 9 ;      CLGR1     CG2R61     CG2R61     CG2R61
   42    41    43    79	 9 ;      CLGR1     CG2R61     CG2R61      HGR62
   41    43    44    45	 9 ;     CG2R61     CG2R61     CG2R61     CG2R61
   41    43    44    46	 9 ;     CG2R61     CG2R61     CG2R61      CLGR1
   79    43    44    45	 9 ;      HGR62     CG2R61     CG2R61     CG2R61
   79    43    44    46	 9 ;      HGR62     CG2R61     CG2R61      CLGR1
   43    44    45    39	 9 ;     CG2R61     CG2R61     CG2R61     CG2R61
   43    44    45    80	 9 ;     CG2R61     CG2R61     CG2R61      HGR62
   46    44    45    39	 9 ;      CLGR1     CG2R61     CG2R61     CG2R61
   46    44    45    80	 9 ;      CLGR1     CG2R61     CG2R61      HGR62
   49    47    50    81	 9 ;      OG2P1      SG3O2      CG331       HGA3
   49    47    50    82	 9 ;      OG2P1      SG3O2      CG331       HGA3
   49    47    50    83	 9 ;      OG2P1      SG3O2      CG331       HGA3
   38    47    50    81	 9 ;      NG301      SG3O2      CG331       HGA3
   38    47    50    82	 9 ;      NG301      SG3O2      CG331       HGA3
   38    47    50    83	 9 ;      NG301      SG3O2      CG331       HGA3
   48    47    50    81	 9 ;      OG2P1      SG3O2      CG331       HGA3
   48    47    50    82	 9 ;      OG2P1      SG3O2      CG331       HGA3
   48    47    50    83	 9 ;      OG2P1      SG3O2      CG331       HGA3

[ dihedrals ]
;	ai	  aj	ak	  al funct			  c0			c1			  c2			c3
   11     9    13    12	 2
   29    32    28    30	 2

[ virtual_sites2 ]
; Site   from				funct a
   87    42    41     2   -0.164
   88    46    44     2   -0.164

[ exclusions ]
;	ai	  aj
   42    87
   46    88
   87    41
   88    44
   87    40
   87    43
   88    45
   88    43
   87    39
   88    39
   88    41
   87    78
   87    44
   87    79
   88    79
   88    80

