; Created by cgenff_charmm2gmx.py

[ moleculetype ]
; Name			   nrexcl
LIG				 3

[ atoms ]
;	 nr		  type	resnr residue  atom   cgnr	   charge		mass  typeB    chargeB		massB
; residue	 1 LIG rtp LIG q	qsum
     1     CG2R67      1    LIG     C1      1      0.011     12.011   ;
     2     CG2R61      1    LIG     C2      2     -0.128     12.011   ;
     3     CG2R61      1    LIG     C3      3     -0.256     12.011   ;
     4     CG2R61      1    LIG     C4      4      0.130     12.011   ;
     5     OG3R60      1    LIG     O1      5     -0.368     15.999   ;
     6      CG301      1    LIG     C5      6      0.259     12.011   ;
     7      CG321      1    LIG     C6      7     -0.251     12.011   ;
     8     CG3C50      1    LIG     C7      8      1.516     12.011   ;
     9      NG3P2      1    LIG     N1      9     -0.588     14.007   ;
    10       HGP2      1    LIG     HN     10      0.336      1.008   ;
    11     CG3C53      1    LIG     C8     11      0.834     12.011   ;
    12     NG2R53      1    LIG     N2     12     -0.238     14.007   ;
    13     CG2R53      1    LIG     C9     13     -0.370     12.011   ;
    14      OG2D1      1    LIG     O2     14     -0.317     15.999   ;
    15      CG331      1    LIG    C10     15     -0.287     12.011   ;
    16      CG331      1    LIG    C11     16     -0.287     12.011   ;
    17     CG2R61      1    LIG    C12     17     -0.112     12.011   ;
    18     CG2R61      1    LIG    C13     18     -0.115     12.011   ;
    19      NG3P3      1    LIG     N3     19     -0.267     14.007   ;
    20       HGP2      1    LIG     H1     20      0.301      1.008   ;
    21       HGP2      1    LIG     H2     21      0.301      1.008   ;
    22      CG321      1    LIG    C14     22     -0.039     12.011   ;
    23      CG331      1    LIG    C15     23     -0.296     12.011   ;
    24     CG2R67      1    LIG    C16     24      0.017     12.011   ;
    25     CG2R61      1    LIG    C17     25     -0.105     12.011   ;
    26     CG2R61      1    LIG    C18     26      0.042     12.011   ;
    27      CLGR1      1    LIG     CL     27     -0.200     35.453   ;
    28     CG2R61      1    LIG    C19     28     -0.095     12.011   ;
    29     CG2R61      1    LIG    C20     29     -0.119     12.011   ;
    30     CG2R61      1    LIG    C21     30     -0.116     12.011   ;
    31      HGR61      1    LIG     HC     31      0.116      1.008   ;
    32       HGA2      1    LIG    HC2     32      0.090      1.008   ;
    33       HGA2      1    LIG    HC3     33      0.090      1.008   ;
    34       HGP2      1    LIG    HN2     34      0.336      1.008   ;
    35       HGA1      1    LIG    HC1     35      0.073      1.008   ;
    36      HGR61      1    LIG    HC4     36      0.116      1.008   ;
    37      HGR61      1    LIG    HC5     37      0.116      1.008   ;
    38       HGP2      1    LIG    HN1     38      0.301      1.008   ;
    39       HGA2      1    LIG    HC6     39      0.090      1.008   ;
    40       HGA2      1    LIG    HC7     40      0.090      1.008   ;
    41      HGR62      1    LIG    HC8     41      0.147      1.008   ;
    42      HGR62      1    LIG    HC9     42      0.150      1.008   ;
    43      HGR61      1    LIG   HC10     43      0.116      1.008   ;
    44      HGR61      1    LIG   HC11     44      0.116      1.008   ;
    45       HGA3      1    LIG   HC12     45      0.090      1.008   ;
    46       HGA3      1    LIG   HC13     46      0.090      1.008   ;
    47       HGA3      1    LIG   HC14     47      0.090      1.008   ;
    48       HGA3      1    LIG   HC15     48      0.090      1.008   ;
    49       HGA3      1    LIG   HC16     49      0.090      1.008   ;
    50       HGA3      1    LIG   HC17     50      0.090      1.008   ;
    51       HGA3      1    LIG   HC18     51      0.090      1.008   ;
    52       HGA3      1    LIG   HC19     52      0.090      1.008   ;
    53       HGA3      1    LIG   HC20     53      0.090      1.008   ;
    54        LPH      1    LIG    LP1     54      0.050      0.000   ;

[ bonds ]
;	ai	  aj funct			  c0			c1			  c2			c3
    1    18	 1 ;      CG2R67     CG2R61
    1     2	 1 ;      CG2R67     CG2R61
    1    24	 1 ;      CG2R67     CG2R67
    2     3	 1 ;      CG2R61     CG2R61
    2    31	 1 ;      CG2R61      HGR61
    3     4	 1 ;      CG2R61     CG2R61
    3     8	 1 ;      CG2R61     CG3C50
    4     5	 1 ;      CG2R61     OG3R60
    4    17	 1 ;      CG2R61     CG2R61
    5     6	 1 ;      OG3R60      CG301
    6    16	 1 ;       CG301      CG331
    6    15	 1 ;       CG301      CG331
    6     7	 1 ;       CG301      CG321
    7     8	 1 ;       CG321     CG3C50
    7    32	 1 ;       CG321       HGA2
    7    33	 1 ;       CG321       HGA2
    8     9	 1 ;      CG3C50      NG3P2
    8    13	 1 ;      CG3C50     CG2R53
    9    10	 1 ;       NG3P2       HGP2
    9    11	 1 ;       NG3P2     CG3C53
    9    34	 1 ;       NG3P2       HGP2
   11    12	 1 ;      CG3C53     NG2R53
   11    19	 1 ;      CG3C53      NG3P3
   11    35	 1 ;      CG3C53       HGA1
   12    13	 1 ;      NG2R53     CG2R53
   12    22	 1 ;      NG2R53      CG321
   13    14	 1 ;      CG2R53      OG2D1
   15    48	 1 ;       CG331       HGA3
   15    49	 1 ;       CG331       HGA3
   15    50	 1 ;       CG331       HGA3
   16    45	 1 ;       CG331       HGA3
   16    46	 1 ;       CG331       HGA3
   16    47	 1 ;       CG331       HGA3
   17    18	 1 ;      CG2R61     CG2R61
   17    36	 1 ;      CG2R61      HGR61
   18    37	 1 ;      CG2R61      HGR61
   19    20	 1 ;       NG3P3       HGP2
   19    21	 1 ;       NG3P3       HGP2
   19    38	 1 ;       NG3P3       HGP2
   22    23	 1 ;       CG321      CG331
   22    39	 1 ;       CG321       HGA2
   22    40	 1 ;       CG321       HGA2
   23    51	 1 ;       CG331       HGA3
   23    52	 1 ;       CG331       HGA3
   23    53	 1 ;       CG331       HGA3
   24    25	 1 ;      CG2R67     CG2R61
   24    30	 1 ;      CG2R67     CG2R61
   25    26	 1 ;      CG2R61     CG2R61
   25    41	 1 ;      CG2R61      HGR62
   26    27	 1 ;      CG2R61      CLGR1
   26    28	 1 ;      CG2R61     CG2R61
   28    29	 1 ;      CG2R61     CG2R61
   28    42	 1 ;      CG2R61      HGR62
   29    30	 1 ;      CG2R61     CG2R61
   29    43	 1 ;      CG2R61      HGR61
   30    44	 1 ;      CG2R61      HGR61

[ pairs ]
;	ai	  aj funct			  c0			c1			  c2			c3
    1     4	 1
    1     8	 1
    1    36	 1
    1    26	 1
    1    41	 1
    1    29	 1
    1    44	 1
    2    17	 1
    2    37	 1
    2    25	 1
    2    30	 1
    2     5	 1
    2     7	 1
    2     9	 1
    2    13	 1
    3    18	 1
    3    24	 1
    3     6	 1
    3    36	 1
    3    32	 1
    3    33	 1
    3    10	 1
    3    11	 1
    3    34	 1
    3    14	 1
    3    12	 1
    4    31	 1
    4     7	 1
    4     9	 1
    4    13	 1
    4    16	 1
    4    15	 1
    4    37	 1
    5     8	 1
    5    18	 1
    5    36	 1
    5    45	 1
    5    46	 1
    5    47	 1
    5    48	 1
    5    49	 1
    5    50	 1
    5    32	 1
    5    33	 1
    6    17	 1
    6     9	 1
    6    13	 1
    7    45	 1
    7    46	 1
    7    47	 1
    7    48	 1
    7    49	 1
    7    50	 1
    7    10	 1
    7    11	 1
    7    34	 1
    7    14	 1
    7    12	 1
    8    31	 1
    8    17	 1
    8    16	 1
    8    15	 1
    8    19	 1
    8    35	 1
    8    22	 1
    9    32	 1
    9    33	 1
    9    14	 1
    9    22	 1
    9    20	 1
    9    21	 1
    9    38	 1
   10    13	 1
   10    12	 1
   10    19	 1
   10    35	 1
   11    14	 1
   11    23	 1
   11    39	 1
   11    40	 1
   12    34	 1
   12    20	 1
   12    21	 1
   12    38	 1
   12    51	 1
   12    52	 1
   12    53	 1
   13    32	 1
   13    33	 1
   13    34	 1
   13    19	 1
   13    35	 1
   13    23	 1
   13    39	 1
   13    40	 1
   14    22	 1
   15    45	 1
   15    46	 1
   15    47	 1
   15    32	 1
   15    33	 1
   16    48	 1
   16    49	 1
   16    50	 1
   16    32	 1
   16    33	 1
   17    24	 1
   18    31	 1
   18    25	 1
   18    30	 1
   19    34	 1
   19    22	 1
   20    35	 1
   21    35	 1
   22    35	 1
   24    37	 1
   24    31	 1
   24    27	 1
   54    24	 1
   24    28	 1
   24    43	 1
   25    29	 1
   25    44	 1
   25    42	 1
   26    30	 1
   26    43	 1
   27    41	 1
   54    41	 1
   27    29	 1
   54    29	 1
   27    42	 1
   54    42	 1
   28    41	 1
   28    44	 1
   30    41	 1
   30    42	 1
   34    35	 1
   35    38	 1
   36    37	 1
   39    51	 1
   39    52	 1
   39    53	 1
   40    51	 1
   40    52	 1
   40    53	 1
   42    43	 1
   43    44	 1

[ angles ]
;	ai	  aj	ak funct			c0			  c1			c2			  c3
   18     1     2	5 ;     CG2R61     CG2R67     CG2R61
   18     1    24	5 ;     CG2R61     CG2R67     CG2R67
    2     1    24	5 ;     CG2R61     CG2R67     CG2R67
    3     2     1	5 ;     CG2R61     CG2R61     CG2R67
    3     2    31	5 ;     CG2R61     CG2R61      HGR61
    1     2    31	5 ;     CG2R67     CG2R61      HGR61
    4     3     8	5 ;     CG2R61     CG2R61     CG3C50
    4     3     2	5 ;     CG2R61     CG2R61     CG2R61
    8     3     2	5 ;     CG3C50     CG2R61     CG2R61
    5     4    17	5 ;     OG3R60     CG2R61     CG2R61
    5     4     3	5 ;     OG3R60     CG2R61     CG2R61
   17     4     3	5 ;     CG2R61     CG2R61     CG2R61
    6     5     4	5 ;      CG301     OG3R60     CG2R61
   16     6     5	5 ;      CG331      CG301     OG3R60
   16     6    15	5 ;      CG331      CG301      CG331
   16     6     7	5 ;      CG331      CG301      CG321
    5     6    15	5 ;     OG3R60      CG301      CG331
    5     6     7	5 ;     OG3R60      CG301      CG321
   15     6     7	5 ;      CG331      CG301      CG321
    6     7     8	5 ;      CG301      CG321     CG3C50
    6     7    32	5 ;      CG301      CG321       HGA2
    6     7    33	5 ;      CG301      CG321       HGA2
    8     7    32	5 ;     CG3C50      CG321       HGA2
    8     7    33	5 ;     CG3C50      CG321       HGA2
   32     7    33	5 ;       HGA2      CG321       HGA2
    7     8     3	5 ;      CG321     CG3C50     CG2R61
    7     8     9	5 ;      CG321     CG3C50      NG3P2
    7     8    13	5 ;      CG321     CG3C50     CG2R53
    3     8     9	5 ;     CG2R61     CG3C50      NG3P2
    3     8    13	5 ;     CG2R61     CG3C50     CG2R53
    9     8    13	5 ;      NG3P2     CG3C50     CG2R53
    8     9    10	5 ;     CG3C50      NG3P2       HGP2
    8     9    11	5 ;     CG3C50      NG3P2     CG3C53
    8     9    34	5 ;     CG3C50      NG3P2       HGP2
   10     9    11	5 ;       HGP2      NG3P2     CG3C53
   10     9    34	5 ;       HGP2      NG3P2       HGP2
   11     9    34	5 ;     CG3C53      NG3P2       HGP2
    9    11    12	5 ;      NG3P2     CG3C53     NG2R53
    9    11    19	5 ;      NG3P2     CG3C53      NG3P3
    9    11    35	5 ;      NG3P2     CG3C53       HGA1
   12    11    19	5 ;     NG2R53     CG3C53      NG3P3
   12    11    35	5 ;     NG2R53     CG3C53       HGA1
   19    11    35	5 ;      NG3P3     CG3C53       HGA1
   13    12    11	5 ;     CG2R53     NG2R53     CG3C53
   13    12    22	5 ;     CG2R53     NG2R53      CG321
   11    12    22	5 ;     CG3C53     NG2R53      CG321
    8    13    14	5 ;     CG3C50     CG2R53      OG2D1
    8    13    12	5 ;     CG3C50     CG2R53     NG2R53
   14    13    12	5 ;      OG2D1     CG2R53     NG2R53
    6    15    48	5 ;      CG301      CG331       HGA3
    6    15    49	5 ;      CG301      CG331       HGA3
    6    15    50	5 ;      CG301      CG331       HGA3
   48    15    49	5 ;       HGA3      CG331       HGA3
   48    15    50	5 ;       HGA3      CG331       HGA3
   49    15    50	5 ;       HGA3      CG331       HGA3
    6    16    45	5 ;      CG301      CG331       HGA3
    6    16    46	5 ;      CG301      CG331       HGA3
    6    16    47	5 ;      CG301      CG331       HGA3
   45    16    46	5 ;       HGA3      CG331       HGA3
   45    16    47	5 ;       HGA3      CG331       HGA3
   46    16    47	5 ;       HGA3      CG331       HGA3
    4    17    18	5 ;     CG2R61     CG2R61     CG2R61
    4    17    36	5 ;     CG2R61     CG2R61      HGR61
   18    17    36	5 ;     CG2R61     CG2R61      HGR61
   17    18     1	5 ;     CG2R61     CG2R61     CG2R67
   17    18    37	5 ;     CG2R61     CG2R61      HGR61
    1    18    37	5 ;     CG2R67     CG2R61      HGR61
   11    19    20	5 ;     CG3C53      NG3P3       HGP2
   11    19    21	5 ;     CG3C53      NG3P3       HGP2
   11    19    38	5 ;     CG3C53      NG3P3       HGP2
   20    19    21	5 ;       HGP2      NG3P3       HGP2
   20    19    38	5 ;       HGP2      NG3P3       HGP2
   21    19    38	5 ;       HGP2      NG3P3       HGP2
   12    22    23	5 ;     NG2R53      CG321      CG331
   12    22    39	5 ;     NG2R53      CG321       HGA2
   12    22    40	5 ;     NG2R53      CG321       HGA2
   23    22    39	5 ;      CG331      CG321       HGA2
   23    22    40	5 ;      CG331      CG321       HGA2
   39    22    40	5 ;       HGA2      CG321       HGA2
   22    23    51	5 ;      CG321      CG331       HGA3
   22    23    52	5 ;      CG321      CG331       HGA3
   22    23    53	5 ;      CG321      CG331       HGA3
   51    23    52	5 ;       HGA3      CG331       HGA3
   51    23    53	5 ;       HGA3      CG331       HGA3
   52    23    53	5 ;       HGA3      CG331       HGA3
    1    24    25	5 ;     CG2R67     CG2R67     CG2R61
    1    24    30	5 ;     CG2R67     CG2R67     CG2R61
   25    24    30	5 ;     CG2R61     CG2R67     CG2R61
   24    25    26	5 ;     CG2R67     CG2R61     CG2R61
   24    25    41	5 ;     CG2R67     CG2R61      HGR62
   26    25    41	5 ;     CG2R61     CG2R61      HGR62
   25    26    27	5 ;     CG2R61     CG2R61      CLGR1
   25    26    28	5 ;     CG2R61     CG2R61     CG2R61
   27    26    28	5 ;      CLGR1     CG2R61     CG2R61
   26    28    29	5 ;     CG2R61     CG2R61     CG2R61
   26    28    42	5 ;     CG2R61     CG2R61      HGR62
   29    28    42	5 ;     CG2R61     CG2R61      HGR62
   30    29    28	5 ;     CG2R61     CG2R61     CG2R61
   30    29    43	5 ;     CG2R61     CG2R61      HGR61
   28    29    43	5 ;     CG2R61     CG2R61      HGR61
   24    30    29	5 ;     CG2R67     CG2R61     CG2R61
   24    30    44	5 ;     CG2R67     CG2R61      HGR61
   29    30    44	5 ;     CG2R61     CG2R61      HGR61

[ dihedrals ]
;	ai	  aj	ak	  al funct			  c0			c1			  c2			c3			  c4			c5
    2     1    18    17	 9 ;     CG2R61     CG2R67     CG2R61     CG2R61
    2     1    18    37	 9 ;     CG2R61     CG2R67     CG2R61      HGR61
   24     1    18    17	 9 ;     CG2R67     CG2R67     CG2R61     CG2R61
   24     1    18    37	 9 ;     CG2R67     CG2R67     CG2R61      HGR61
   18     1     2     3	 9 ;     CG2R61     CG2R67     CG2R61     CG2R61
   18     1     2    31	 9 ;     CG2R61     CG2R67     CG2R61      HGR61
   24     1     2     3	 9 ;     CG2R67     CG2R67     CG2R61     CG2R61
   24     1     2    31	 9 ;     CG2R67     CG2R67     CG2R61      HGR61
   18     1    24    25	 9 ;     CG2R61     CG2R67     CG2R67     CG2R61
   18     1    24    30	 9 ;     CG2R61     CG2R67     CG2R67     CG2R61
    2     1    24    25	 9 ;     CG2R61     CG2R67     CG2R67     CG2R61
    2     1    24    30	 9 ;     CG2R61     CG2R67     CG2R67     CG2R61
    1     2     3     4	 9 ;     CG2R67     CG2R61     CG2R61     CG2R61
    1     2     3     8	 9 ;     CG2R67     CG2R61     CG2R61     CG3C50
   31     2     3     4	 9 ;      HGR61     CG2R61     CG2R61     CG2R61
   31     2     3     8	 9 ;      HGR61     CG2R61     CG2R61     CG3C50
    8     3     4     5	 9 ;     CG3C50     CG2R61     CG2R61     OG3R60
    8     3     4    17	 9 ;     CG3C50     CG2R61     CG2R61     CG2R61
    2     3     4     5	 9 ;     CG2R61     CG2R61     CG2R61     OG3R60
    2     3     4    17	 9 ;     CG2R61     CG2R61     CG2R61     CG2R61
    4     3     8     7	 9 ;     CG2R61     CG2R61     CG3C50      CG321
    4     3     8     9	 9 ;     CG2R61     CG2R61     CG3C50      NG3P2
    4     3     8    13	 9 ;     CG2R61     CG2R61     CG3C50     CG2R53
    2     3     8     7	 9 ;     CG2R61     CG2R61     CG3C50      CG321
    2     3     8     9	 9 ;     CG2R61     CG2R61     CG3C50      NG3P2
    2     3     8    13	 9 ;     CG2R61     CG2R61     CG3C50     CG2R53
   17     4     5     6	 9 ;     CG2R61     CG2R61     OG3R60      CG301
    3     4     5     6	 9 ;     CG2R61     CG2R61     OG3R60      CG301
    5     4    17    18	 9 ;     OG3R60     CG2R61     CG2R61     CG2R61
    5     4    17    36	 9 ;     OG3R60     CG2R61     CG2R61      HGR61
    3     4    17    18	 9 ;     CG2R61     CG2R61     CG2R61     CG2R61
    3     4    17    36	 9 ;     CG2R61     CG2R61     CG2R61      HGR61
    4     5     6    16	 9 ;     CG2R61     OG3R60      CG301      CG331
    4     5     6    15	 9 ;     CG2R61     OG3R60      CG301      CG331
    4     5     6     7	 9 ;     CG2R61     OG3R60      CG301      CG321
    5     6    16    45	 9 ;     OG3R60      CG301      CG331       HGA3
    5     6    16    46	 9 ;     OG3R60      CG301      CG331       HGA3
    5     6    16    47	 9 ;     OG3R60      CG301      CG331       HGA3
   15     6    16    45	 9 ;      CG331      CG301      CG331       HGA3
   15     6    16    46	 9 ;      CG331      CG301      CG331       HGA3
   15     6    16    47	 9 ;      CG331      CG301      CG331       HGA3
    7     6    16    45	 9 ;      CG321      CG301      CG331       HGA3
    7     6    16    46	 9 ;      CG321      CG301      CG331       HGA3
    7     6    16    47	 9 ;      CG321      CG301      CG331       HGA3
   16     6    15    48	 9 ;      CG331      CG301      CG331       HGA3
   16     6    15    49	 9 ;      CG331      CG301      CG331       HGA3
   16     6    15    50	 9 ;      CG331      CG301      CG331       HGA3
    5     6    15    48	 9 ;     OG3R60      CG301      CG331       HGA3
    5     6    15    49	 9 ;     OG3R60      CG301      CG331       HGA3
    5     6    15    50	 9 ;     OG3R60      CG301      CG331       HGA3
    7     6    15    48	 9 ;      CG321      CG301      CG331       HGA3
    7     6    15    49	 9 ;      CG321      CG301      CG331       HGA3
    7     6    15    50	 9 ;      CG321      CG301      CG331       HGA3
   16     6     7     8	 9 ;      CG331      CG301      CG321     CG3C50
   16     6     7    32	 9 ;      CG331      CG301      CG321       HGA2
   16     6     7    33	 9 ;      CG331      CG301      CG321       HGA2
    5     6     7     8	 9 ;     OG3R60      CG301      CG321     CG3C50
    5     6     7    32	 9 ;     OG3R60      CG301      CG321       HGA2
    5     6     7    33	 9 ;     OG3R60      CG301      CG321       HGA2
   15     6     7     8	 9 ;      CG331      CG301      CG321     CG3C50
   15     6     7    32	 9 ;      CG331      CG301      CG321       HGA2
   15     6     7    33	 9 ;      CG331      CG301      CG321       HGA2
    6     7     8     3	 9 ;      CG301      CG321     CG3C50     CG2R61
    6     7     8     9	 9 ;      CG301      CG321     CG3C50      NG3P2
    6     7     8    13	 9 ;      CG301      CG321     CG3C50     CG2R53
   32     7     8     3	 9 ;       HGA2      CG321     CG3C50     CG2R61
   32     7     8     9	 9 ;       HGA2      CG321     CG3C50      NG3P2
   32     7     8    13	 9 ;       HGA2      CG321     CG3C50     CG2R53
   33     7     8     3	 9 ;       HGA2      CG321     CG3C50     CG2R61
   33     7     8     9	 9 ;       HGA2      CG321     CG3C50      NG3P2
   33     7     8    13	 9 ;       HGA2      CG321     CG3C50     CG2R53
    7     8     9    10	 9 ;      CG321     CG3C50      NG3P2       HGP2
    7     8     9    11	 9 ;      CG321     CG3C50      NG3P2     CG3C53
    7     8     9    34	 9 ;      CG321     CG3C50      NG3P2       HGP2
    3     8     9    10	 9 ;     CG2R61     CG3C50      NG3P2       HGP2
    3     8     9    11	 9 ;     CG2R61     CG3C50      NG3P2     CG3C53
    3     8     9    34	 9 ;     CG2R61     CG3C50      NG3P2       HGP2
   13     8     9    10	 9 ;     CG2R53     CG3C50      NG3P2       HGP2
   13     8     9    11	 9 ;     CG2R53     CG3C50      NG3P2     CG3C53
   13     8     9    34	 9 ;     CG2R53     CG3C50      NG3P2       HGP2
    7     8    13    14	 9 ;      CG321     CG3C50     CG2R53      OG2D1
    7     8    13    12	 9 ;      CG321     CG3C50     CG2R53     NG2R53
    3     8    13    14	 9 ;     CG2R61     CG3C50     CG2R53      OG2D1
    3     8    13    12	 9 ;     CG2R61     CG3C50     CG2R53     NG2R53
    9     8    13    14	 9 ;      NG3P2     CG3C50     CG2R53      OG2D1
    9     8    13    12	 9 ;      NG3P2     CG3C50     CG2R53     NG2R53
    8     9    11    12	 9 ;     CG3C50      NG3P2     CG3C53     NG2R53
    8     9    11    19	 9 ;     CG3C50      NG3P2     CG3C53      NG3P3
    8     9    11    35	 9 ;     CG3C50      NG3P2     CG3C53       HGA1
   10     9    11    12	 9 ;       HGP2      NG3P2     CG3C53     NG2R53
   10     9    11    19	 9 ;       HGP2      NG3P2     CG3C53      NG3P3
   10     9    11    35	 9 ;       HGP2      NG3P2     CG3C53       HGA1
   34     9    11    12	 9 ;       HGP2      NG3P2     CG3C53     NG2R53
   34     9    11    19	 9 ;       HGP2      NG3P2     CG3C53      NG3P3
   34     9    11    35	 9 ;       HGP2      NG3P2     CG3C53       HGA1
    9    11    12    13	 9 ;      NG3P2     CG3C53     NG2R53     CG2R53
    9    11    12    22	 9 ;      NG3P2     CG3C53     NG2R53      CG321
   19    11    12    13	 9 ;      NG3P3     CG3C53     NG2R53     CG2R53
   19    11    12    22	 9 ;      NG3P3     CG3C53     NG2R53      CG321
   35    11    12    13	 9 ;       HGA1     CG3C53     NG2R53     CG2R53
   35    11    12    22	 9 ;       HGA1     CG3C53     NG2R53      CG321
    9    11    19    20	 9 ;      NG3P2     CG3C53      NG3P3       HGP2
    9    11    19    21	 9 ;      NG3P2     CG3C53      NG3P3       HGP2
    9    11    19    38	 9 ;      NG3P2     CG3C53      NG3P3       HGP2
   12    11    19    20	 9 ;     NG2R53     CG3C53      NG3P3       HGP2
   12    11    19    21	 9 ;     NG2R53     CG3C53      NG3P3       HGP2
   12    11    19    38	 9 ;     NG2R53     CG3C53      NG3P3       HGP2
   35    11    19    20	 9 ;       HGA1     CG3C53      NG3P3       HGP2
   35    11    19    21	 9 ;       HGA1     CG3C53      NG3P3       HGP2
   35    11    19    38	 9 ;       HGA1     CG3C53      NG3P3       HGP2
   11    12    13     8	 9 ;     CG3C53     NG2R53     CG2R53     CG3C50
   11    12    13    14	 9 ;     CG3C53     NG2R53     CG2R53      OG2D1
   22    12    13     8	 9 ;      CG321     NG2R53     CG2R53     CG3C50
   22    12    13    14	 9 ;      CG321     NG2R53     CG2R53      OG2D1
   13    12    22    23	 9 ;     CG2R53     NG2R53      CG321      CG331
   13    12    22    39	 9 ;     CG2R53     NG2R53      CG321       HGA2
   13    12    22    40	 9 ;     CG2R53     NG2R53      CG321       HGA2
   11    12    22    23	 9 ;     CG3C53     NG2R53      CG321      CG331
   11    12    22    39	 9 ;     CG3C53     NG2R53      CG321       HGA2
   11    12    22    40	 9 ;     CG3C53     NG2R53      CG321       HGA2
    4    17    18     1	 9 ;     CG2R61     CG2R61     CG2R61     CG2R67
    4    17    18    37	 9 ;     CG2R61     CG2R61     CG2R61      HGR61
   36    17    18     1	 9 ;      HGR61     CG2R61     CG2R61     CG2R67
   36    17    18    37	 9 ;      HGR61     CG2R61     CG2R61      HGR61
   12    22    23    51	 9 ;     NG2R53      CG321      CG331       HGA3
   12    22    23    52	 9 ;     NG2R53      CG321      CG331       HGA3
   12    22    23    53	 9 ;     NG2R53      CG321      CG331       HGA3
   39    22    23    51	 9 ;       HGA2      CG321      CG331       HGA3
   39    22    23    52	 9 ;       HGA2      CG321      CG331       HGA3
   39    22    23    53	 9 ;       HGA2      CG321      CG331       HGA3
   40    22    23    51	 9 ;       HGA2      CG321      CG331       HGA3
   40    22    23    52	 9 ;       HGA2      CG321      CG331       HGA3
   40    22    23    53	 9 ;       HGA2      CG321      CG331       HGA3
    1    24    25    26	 9 ;     CG2R67     CG2R67     CG2R61     CG2R61
    1    24    25    41	 9 ;     CG2R67     CG2R67     CG2R61      HGR62
   30    24    25    26	 9 ;     CG2R61     CG2R67     CG2R61     CG2R61
   30    24    25    41	 9 ;     CG2R61     CG2R67     CG2R61      HGR62
    1    24    30    29	 9 ;     CG2R67     CG2R67     CG2R61     CG2R61
    1    24    30    44	 9 ;     CG2R67     CG2R67     CG2R61      HGR61
   25    24    30    29	 9 ;     CG2R61     CG2R67     CG2R61     CG2R61
   25    24    30    44	 9 ;     CG2R61     CG2R67     CG2R61      HGR61
   24    25    26    27	 9 ;     CG2R67     CG2R61     CG2R61      CLGR1
   24    25    26    28	 9 ;     CG2R67     CG2R61     CG2R61     CG2R61
   41    25    26    27	 9 ;      HGR62     CG2R61     CG2R61      CLGR1
   41    25    26    28	 9 ;      HGR62     CG2R61     CG2R61     CG2R61
   25    26    28    29	 9 ;     CG2R61     CG2R61     CG2R61     CG2R61
   25    26    28    42	 9 ;     CG2R61     CG2R61     CG2R61      HGR62
   27    26    28    29	 9 ;      CLGR1     CG2R61     CG2R61     CG2R61
   27    26    28    42	 9 ;      CLGR1     CG2R61     CG2R61      HGR62
   26    28    29    30	 9 ;     CG2R61     CG2R61     CG2R61     CG2R61
   26    28    29    43	 9 ;     CG2R61     CG2R61     CG2R61      HGR61
   42    28    29    30	 9 ;      HGR62     CG2R61     CG2R61     CG2R61
   42    28    29    43	 9 ;      HGR62     CG2R61     CG2R61      HGR61
   28    29    30    24	 9 ;     CG2R61     CG2R61     CG2R61     CG2R67
   28    29    30    44	 9 ;     CG2R61     CG2R61     CG2R61      HGR61
   43    29    30    24	 9 ;      HGR61     CG2R61     CG2R61     CG2R67
   43    29    30    44	 9 ;      HGR61     CG2R61     CG2R61      HGR61

[ dihedrals ]
;	ai	  aj	ak	  al funct			  c0			c1			  c2			c3
   13     8    12    14	 2

[ virtual_sites2 ]
; Site   from				funct a
   54    27    26     2   -0.164

[ exclusions ]
;	ai	  aj
   27    54
   54    26
   54    25
   54    28
   54    24
   54    41
   54    29
   54    42

