GRoups of Organic Molecules in ACtion for Science
   54
    1LIG     C1    1  -1.177   0.261  -1.575
    1LIG     C2    2  -1.143   0.396  -1.591
    1LIG     C3    3  -1.138   0.462  -1.717
    1LIG     C4    4  -1.125   0.383  -1.830
    1LIG     O1    5  -1.085   0.430  -1.951
    1LIG     C5    6  -1.059   0.572  -1.963
    1LIG     C6    7  -1.022   0.641  -1.824
    1LIG     C7    8  -1.136   0.615  -1.728
    1LIG     N1    9  -1.249   0.697  -1.793
    1LIG     HN   10  -1.268   0.706  -1.893
    1LIG     C8   11  -1.312   0.753  -1.696
    1LIG     N2   12  -1.303   0.688  -1.579
    1LIG     C9   13  -1.164   0.669  -1.584
    1LIG     O2   14  -1.082   0.702  -1.502
    1LIG    C10   15  -1.183   0.631  -2.036
    1LIG    C11   16  -0.943   0.589  -2.062
    1LIG    C12   17  -1.147   0.245  -1.817
    1LIG    C13   18  -1.179   0.186  -1.692
    1LIG     N3   19  -1.395   0.859  -1.706
    1LIG     H1   20  -1.489   0.825  -1.727
    1LIG     H2   21  -1.407   0.905  -1.616
    1LIG    C14   22  -1.393   0.568  -1.592
    1LIG    C15   23  -1.543   0.585  -1.572
    1LIG    C16   24  -1.220   0.209  -1.440
    1LIG    C17   25  -1.179   0.082  -1.395
    1LIG    C18   26  -1.206   0.036  -1.265
    1LIG     CL   27  -1.144  -0.116  -1.214
    1LIG    C19   28  -1.279   0.115  -1.178
    1LIG    C20   29  -1.326   0.238  -1.221
    1LIG    C21   30  -1.296   0.285  -1.351
    1LIG     HC   31  -1.120   0.453  -1.502
    1LIG    HC2   32  -1.009   0.748  -1.837
    1LIG    HC3   33  -0.930   0.597  -1.784
    1LIG    HN2   34  -1.310   0.617  -1.788
    1LIG    HC1   35  -1.227   0.817  -1.671
    1LIG    HC4   36  -1.140   0.182  -1.905
    1LIG    HC5   37  -1.205   0.082  -1.688
    1LIG    HN1   38  -1.363   0.924  -1.777
    1LIG    HC6   39  -1.379   0.528  -1.693
    1LIG    HC7   40  -1.359   0.493  -1.521
    1LIG    HC8   41  -1.126   0.017  -1.463
    1LIG    HC9   42  -1.299   0.080  -1.077
    1LIG   HC10   43  -1.386   0.299  -1.155
    1LIG   HC11   44  -1.333   0.382  -1.381
    1LIG   HC12   45  -0.852   0.549  -2.017
    1LIG   HC13   46  -0.930   0.694  -2.085
    1LIG   HC14   47  -0.965   0.534  -2.153
    1LIG   HC15   48  -1.177   0.608  -2.142
    1LIG   HC16   49  -1.186   0.739  -2.022
    1LIG   HC17   50  -1.274   0.587  -1.995
    1LIG   HC18   51  -1.583   0.496  -1.523
    1LIG   HC19   52  -1.562   0.672  -1.510
    1LIG   HC20   53  -1.591   0.597  -1.669
    1LIG    LP1   54  -1.086  -0.261  -1.165
   0.00000   0.00000   0.00000
