Gallium Rubidium Oxygen Manganese Argon Carbon Silicon
   95
    1LIG     C1    1  -1.595   0.264  -1.602
    1LIG     O1    2  -1.633   0.149  -1.627
    1LIG     N1    3  -1.472   0.305  -1.648
    1LIG     H1    4  -1.422   0.228  -1.691
    1LIG     C2    5  -1.385   0.415  -1.601
    1LIG     C3    6  -1.306   0.365  -1.476
    1LIG     O2    7  -1.164   0.368  -1.494
    1LIG     C4    8  -1.093   0.252  -1.492
    1LIG     C5    9  -0.964   0.236  -1.442
    1LIG     C6   10  -0.911   0.108  -1.424
    1LIG     F1   11  -0.789   0.095  -1.369
    1LIG     C7   12  -0.983  -0.006  -1.456
    1LIG     C8   13  -1.108   0.010  -1.514
    1LIG     F2   14  -1.177  -0.098  -1.550
    1LIG     C9   15  -1.163   0.137  -1.533
    1LIG    C10   16  -1.299   0.466  -1.723
    1LIG     O3   17  -1.215   0.360  -1.770
    1LIG     H2   18  -1.216   0.365  -1.867
    1LIG    C11   19  -1.390   0.516  -1.840
    1LIG    C12   20  -1.324   0.561  -1.973
    1LIG    C13   21  -1.358   0.711  -2.004
    1LIG     O4   22  -1.248   0.801  -1.980
    1LIG    C14   23  -1.275   0.889  -1.870
    1LIG    C15   24  -1.244   0.828  -1.734
    1LIG    C16   25  -1.341   0.820  -1.632
    1LIG    C17   26  -1.308   0.768  -1.507
    1LIG    C18   27  -1.179   0.724  -1.481
    1LIG     F3   28  -1.147   0.676  -1.360
    1LIG    C19   29  -1.082   0.729  -1.580
    1LIG    C20   30  -1.114   0.781  -1.706
    1LIG     O5   31  -1.184   0.531  -1.979
    1LIG    C21   32  -1.131   0.488  -2.104
    1LIG    C22   33  -1.683   0.353  -1.523
    1LIG    C23   34  -1.747   0.297  -1.412
    1LIG    C24   35  -1.838   0.373  -1.337
    1LIG    C25   36  -1.862   0.506  -1.373
    1LIG    C26   37  -1.804   0.559  -1.487
    1LIG    C27   38  -1.715   0.483  -1.563
    1LIG    C28   39  -1.925   0.314  -1.232
    1LIG     O6   40  -1.964   0.386  -1.140
    1LIG     N2   41  -1.961   0.181  -1.245
    1LIG     H3   42  -1.904   0.121  -1.302
    1LIG    C29   43  -2.047   0.117  -1.147
    1LIG    C30   44  -2.194   0.145  -1.179
    1LIG    C31   45  -2.010  -0.030  -1.138
    1LIG    C32   46  -2.040  -0.114  -1.247
    1LIG    C33   47  -2.017  -0.251  -1.240
    1LIG    C34   48  -1.964  -0.307  -1.124
    1LIG    C35   49  -1.933  -0.225  -1.015
    1LIG    C36   50  -1.957  -0.087  -1.022
    1LIG     N3   51  -1.840   0.690  -1.533
    1LIG    C37   52  -1.981   0.712  -1.569
    1LIG      S   53  -1.750   0.821  -1.475
    1LIG     O7   54  -1.630   0.768  -1.413
    1LIG     O8   55  -1.838   0.910  -1.403
    1LIG    C38   56  -1.699   0.902  -1.626
    1LIG     HC   57  -1.449   0.496  -1.569
    1LIG    HC2   58  -1.332   0.429  -1.391
    1LIG    HC3   59  -1.336   0.263  -1.454
    1LIG    HC1   60  -0.904   0.323  -1.419
    1LIG    HC4   61  -0.943  -0.104  -1.437
    1LIG    HC5   62  -1.260   0.147  -1.578
    1LIG    HC6   63  -1.236   0.549  -1.689
    1LIG    HC7   64  -1.457   0.434  -1.865
    1LIG    HC8   65  -1.450   0.599  -1.803
    1LIG    HC9   66  -1.370   0.502  -2.052
    1LIG   HC10   67  -1.387   0.719  -2.109
    1LIG   HC11   68  -1.443   0.741  -1.942
    1LIG   HC12   69  -1.213   0.978  -1.882
    1LIG   HC13   70  -1.380   0.918  -1.872
    1LIG   HC14   71  -1.441   0.854  -1.651
    1LIG   HC15   72  -1.383   0.763  -1.429
    1LIG   HC16   73  -0.982   0.693  -1.560
    1LIG   HC17   74  -1.039   0.784  -1.783
    1LIG   HC18   75  -1.024   0.469  -2.094
    1LIG   HC19   76  -1.181   0.397  -2.135
    1LIG   HC20   77  -1.147   0.566  -2.179
    1LIG   HC21   78  -1.726   0.195  -1.383
    1LIG   HC22   79  -1.926   0.567  -1.311
    1LIG   HC23   80  -1.671   0.524  -1.653
    1LIG   HC24   81  -2.025   0.162  -1.050
    1LIG   HC25   82  -2.257   0.096  -1.105
    1LIG   HC26   83  -2.212   0.252  -1.178
    1LIG   HC27   84  -2.217   0.106  -1.278
    1LIG   HC28   85  -2.082  -0.071  -1.337
    1LIG   HC29   86  -2.041  -0.314  -1.324
    1LIG   HC30   87  -1.946  -0.413  -1.118
    1LIG   HC31   88  -1.892  -0.268  -0.926
    1LIG   HC32   89  -1.934  -0.025  -0.937
    1LIG   HC33   90  -1.994   0.815  -1.602
    1LIG   HC34   91  -2.009   0.644  -1.650
    1LIG   HC35   92  -2.044   0.694  -1.482
    1LIG   HC36   93  -1.784   0.952  -1.672
    1LIG   HC37   94  -1.622   0.976  -1.603
    1LIG   HC38   95  -1.658   0.828  -1.695
   0.00000   0.00000   0.00000
