; Created by cgenff_charmm2gmx.py

[ moleculetype ]
; Name			   nrexcl
LIG				 3

[ atoms ]
;	 nr		  type	resnr residue  atom   cgnr	   charge		mass  typeB    chargeB		massB
; residue	 1 LIG rtp LIG q	qsum
     1      CG2O1      1    LIG     C1      1      0.302     12.011   ;
     2      OG2D1      1    LIG     O1      2     -0.463     15.999   ;
     3      NG2S1      1    LIG     N1      3     -0.238     14.007   ;
     4       HGP1      1    LIG     H1      4      0.262      1.008   ;
     5      CG311      1    LIG     C2      5      0.001     12.011   ;
     6      CG321      1    LIG     C3      6      0.009     12.011   ;
     7      OG301      1    LIG     O2      7     -0.177     15.999   ;
     8     CG2R61      1    LIG     C4      8      0.384     12.011   ;
     9     CG2R61      1    LIG     C5      9     -0.410     12.011   ;
    10     CG2R66      1    LIG     C6     10      0.283     12.011   ;
    11       FGR1      1    LIG     F1     11     -0.210     18.998   ;
    12     CG2R61      1    LIG     C7     12     -0.240     12.011   ;
    13     CG2R66      1    LIG     C8     13      0.283     12.011   ;
    14       FGR1      1    LIG     F2     14     -0.210     18.998   ;
    15     CG2R61      1    LIG     C9     15     -0.410     12.011   ;
    16      CG311      1    LIG    C10     16      0.124     12.011   ;
    17      OG311      1    LIG     O3     17     -0.648     15.999   ;
    18       HGP1      1    LIG     H2     18      0.421      1.008   ;
    19      CG321      1    LIG    C11     19     -0.117     12.011   ;
    20      CG311      1    LIG    C12     20      0.086     12.011   ;
    21      CG321      1    LIG    C13     21     -0.032     12.011   ;
    22      NG311      1    LIG     N2     22     -0.573     14.007   ;
    23     HGPAM1      1    LIG     H3     23      0.363      1.008   ;
    24     CG2R61      1    LIG    C14     24      0.065     12.011   ;
    25     CG2R61      1    LIG    C15     25     -0.128     12.011   ;
    26     CG2R61      1    LIG    C16     26     -0.113     12.011   ;
    27     CG2R61      1    LIG    C17     27     -0.116     12.011   ;
    28     CG2R61      1    LIG    C18     28     -0.113     12.011   ;
    29     CG2R61      1    LIG    C19     29     -0.128     12.011   ;
    30      OG301      1    LIG     O4     30     -0.379     15.999   ;
    31      CG331      1    LIG    C20     31     -0.091     12.011   ;
    32     CG2R61      1    LIG    C21     32     -0.101     12.011   ;
    33     CG2R61      1    LIG    C22     33     -0.004     12.011   ;
    34     CG2R61      1    LIG    C23     34     -0.101     12.011   ;
    35     CG2R61      1    LIG    C24     35     -0.064     12.011   ;
    36     CG2R61      1    LIG    C25     36      0.138     12.011   ;
    37     CG2R61      1    LIG    C26     37     -0.064     12.011   ;
    38      CG2O1      1    LIG    C27     38      0.320     12.011   ;
    39      OG2D1      1    LIG     O5     39     -0.463     15.999   ;
    40      NG2S1      1    LIG     N3     40     -0.366     14.007   ;
    41       HGP1      1    LIG     H4     41      0.314      1.008   ;
    42      CG311      1    LIG    C28     42      0.138     12.011   ;
    43      CG331      1    LIG    C29     43     -0.265     12.011   ;
    44     CG2R61      1    LIG    C30     44     -0.111     12.011   ;
    45     CG2R61      1    LIG    C31     45     -0.086     12.011   ;
    46     CG2R61      1    LIG    C32     46     -0.114     12.011   ;
    47     CG2R61      1    LIG    C33     47     -0.116     12.011   ;
    48     CG2R61      1    LIG    C34     48     -0.114     12.011   ;
    49     CG2R61      1    LIG    C35     49     -0.086     12.011   ;
    50      NG301      1    LIG     N4     50     -0.228     14.007   ;
    51      CG331      1    LIG    C36     51     -0.103     12.011   ;
    52      SG3O2      1    LIG      S     52      0.397     32.060   ;
    53      OG2P1      1    LIG     O6     53     -0.388     15.999   ;
    54      OG2P1      1    LIG     O7     54     -0.388     15.999   ;
    55      CG331      1    LIG    C37     55      0.036     12.011   ;
    56       HGA1      1    LIG     H5     56      0.090      1.008   ;
    57       HGA2      1    LIG     H6     57      0.090      1.008   ;
    58       HGA2      1    LIG     H7     58      0.090      1.008   ;
    59      HGR62      1    LIG     H8     59      0.179      1.008   ;
    60      HGR62      1    LIG     H9     60      0.186      1.008   ;
    61      HGR62      1    LIG    H10     61      0.179      1.008   ;
    62       HGA1      1    LIG    H11     62      0.090      1.008   ;
    63       HGA2      1    LIG    H12     63      0.090      1.008   ;
    64       HGA2      1    LIG    H13     64      0.090      1.008   ;
    65       HGA1      1    LIG    H14     65      0.090      1.008   ;
    66       HGA2      1    LIG    H15     66      0.090      1.008   ;
    67       HGA2      1    LIG    H16     67      0.090      1.008   ;
    68      HGR61      1    LIG    H17     68      0.116      1.008   ;
    69      HGR61      1    LIG    H18     69      0.116      1.008   ;
    70      HGR61      1    LIG    H19     70      0.116      1.008   ;
    71      HGR61      1    LIG    H20     71      0.116      1.008   ;
    72      HGR61      1    LIG    H21     72      0.116      1.008   ;
    73       HGA3      1    LIG    H22     73      0.090      1.008   ;
    74       HGA3      1    LIG    H23     74      0.090      1.008   ;
    75       HGA3      1    LIG    H24     75      0.090      1.008   ;
    76      HGR61      1    LIG    H25     76      0.116      1.008   ;
    77      HGR61      1    LIG    H26     77      0.116      1.008   ;
    78      HGR61      1    LIG    H27     78      0.116      1.008   ;
    79       HGA1      1    LIG    H28     79      0.090      1.008   ;
    80       HGA3      1    LIG    H29     80      0.090      1.008   ;
    81       HGA3      1    LIG    H30     81      0.090      1.008   ;
    82       HGA3      1    LIG    H31     82      0.090      1.008   ;
    83      HGR61      1    LIG    H32     83      0.116      1.008   ;
    84      HGR61      1    LIG    H33     84      0.116      1.008   ;
    85      HGR61      1    LIG    H34     85      0.116      1.008   ;
    86      HGR61      1    LIG    H35     86      0.116      1.008   ;
    87      HGR61      1    LIG    H36     87      0.116      1.008   ;
    88       HGA3      1    LIG    H37     88      0.090      1.008   ;
    89       HGA3      1    LIG    H38     89      0.090      1.008   ;
    90       HGA3      1    LIG    H39     90      0.090      1.008   ;
    91       HGA3      1    LIG    H40     91      0.090      1.008   ;
    92       HGA3      1    LIG    H41     92      0.090      1.008   ;
    93       HGA3      1    LIG    H42     93      0.090      1.008   ;

[ bonds ]
;	ai	  aj funct			  c0			c1			  c2			c3
    1    32	 1 ;       CG2O1     CG2R61
    1     2	 1 ;       CG2O1      OG2D1
    1     3	 1 ;       CG2O1      NG2S1
    3     4	 1 ;       NG2S1       HGP1
    3     5	 1 ;       NG2S1      CG311
    5    16	 1 ;       CG311      CG311
    5     6	 1 ;       CG311      CG321
    5    56	 1 ;       CG311       HGA1
    6     7	 1 ;       CG321      OG301
    6    57	 1 ;       CG321       HGA2
    6    58	 1 ;       CG321       HGA2
    7     8	 1 ;       OG301     CG2R61
    8    15	 1 ;      CG2R61     CG2R61
    8     9	 1 ;      CG2R61     CG2R61
    9    10	 1 ;      CG2R61     CG2R66
    9    59	 1 ;      CG2R61      HGR62
   10    12	 1 ;      CG2R66     CG2R61
   10    11	 1 ;      CG2R66       FGR1
   12    13	 1 ;      CG2R61     CG2R66
   12    60	 1 ;      CG2R61      HGR62
   13    15	 1 ;      CG2R66     CG2R61
   13    14	 1 ;      CG2R66       FGR1
   15    61	 1 ;      CG2R61      HGR62
   16    19	 1 ;       CG311      CG321
   16    17	 1 ;       CG311      OG311
   16    62	 1 ;       CG311       HGA1
   17    18	 1 ;       OG311       HGP1
   19    20	 1 ;       CG321      CG311
   19    63	 1 ;       CG321       HGA2
   19    64	 1 ;       CG321       HGA2
   20    21	 1 ;       CG311      CG321
   20    30	 1 ;       CG311      OG301
   20    65	 1 ;       CG311       HGA1
   21    22	 1 ;       CG321      NG311
   21    66	 1 ;       CG321       HGA2
   21    67	 1 ;       CG321       HGA2
   22    24	 1 ;       NG311     CG2R61
   22    23	 1 ;       NG311     HGPAM1
   24    25	 1 ;      CG2R61     CG2R61
   24    29	 1 ;      CG2R61     CG2R61
   25    26	 1 ;      CG2R61     CG2R61
   25    68	 1 ;      CG2R61      HGR61
   26    27	 1 ;      CG2R61     CG2R61
   26    69	 1 ;      CG2R61      HGR61
   27    28	 1 ;      CG2R61     CG2R61
   27    70	 1 ;      CG2R61      HGR61
   28    29	 1 ;      CG2R61     CG2R61
   28    71	 1 ;      CG2R61      HGR61
   29    72	 1 ;      CG2R61      HGR61
   30    31	 1 ;       OG301      CG331
   31    73	 1 ;       CG331       HGA3
   31    74	 1 ;       CG331       HGA3
   31    75	 1 ;       CG331       HGA3
   32    33	 1 ;      CG2R61     CG2R61
   32    37	 1 ;      CG2R61     CG2R61
   33    34	 1 ;      CG2R61     CG2R61
   33    76	 1 ;      CG2R61      HGR61
   34    38	 1 ;      CG2R61      CG2O1
   34    35	 1 ;      CG2R61     CG2R61
   35    36	 1 ;      CG2R61     CG2R61
   35    77	 1 ;      CG2R61      HGR61
   36    50	 1 ;      CG2R61      NG301
   36    37	 1 ;      CG2R61     CG2R61
   37    78	 1 ;      CG2R61      HGR61
   38    40	 1 ;       CG2O1      NG2S1
   38    39	 1 ;       CG2O1      OG2D1
   40    42	 1 ;       NG2S1      CG311
   40    41	 1 ;       NG2S1       HGP1
   42    43	 1 ;       CG311      CG331
   42    44	 1 ;       CG311     CG2R61
   42    79	 1 ;       CG311       HGA1
   43    80	 1 ;       CG331       HGA3
   43    81	 1 ;       CG331       HGA3
   43    82	 1 ;       CG331       HGA3
   44    45	 1 ;      CG2R61     CG2R61
   44    49	 1 ;      CG2R61     CG2R61
   45    46	 1 ;      CG2R61     CG2R61
   45    83	 1 ;      CG2R61      HGR61
   46    47	 1 ;      CG2R61     CG2R61
   46    84	 1 ;      CG2R61      HGR61
   47    48	 1 ;      CG2R61     CG2R61
   47    85	 1 ;      CG2R61      HGR61
   48    49	 1 ;      CG2R61     CG2R61
   48    86	 1 ;      CG2R61      HGR61
   49    87	 1 ;      CG2R61      HGR61
   50    52	 1 ;       NG301      SG3O2
   50    51	 1 ;       NG301      CG331
   51    88	 1 ;       CG331       HGA3
   51    89	 1 ;       CG331       HGA3
   51    90	 1 ;       CG331       HGA3
   52    53	 1 ;       SG3O2      OG2P1
   52    54	 1 ;       SG3O2      OG2P1
   52    55	 1 ;       SG3O2      CG331
   55    91	 1 ;       CG331       HGA3
   55    92	 1 ;       CG331       HGA3
   55    93	 1 ;       CG331       HGA3

[ pairs ]
;	ai	  aj funct			  c0			c1			  c2			c3
    1    16	 1
    1     6	 1
    1    56	 1
    1    34	 1
    1    76	 1
    1    36	 1
    1    78	 1
    2    33	 1
    2    37	 1
    2     4	 1
    2     5	 1
    3    33	 1
    3    37	 1
    3    19	 1
    3    17	 1
    3    62	 1
    3     7	 1
    3    57	 1
    3    58	 1
    4    32	 1
    4    16	 1
    4     6	 1
    4    56	 1
    5    32	 1
    5     8	 1
    5    20	 1
    5    63	 1
    5    64	 1
    5    18	 1
    6    19	 1
    6    17	 1
    6    62	 1
    6    15	 1
    6     9	 1
    7    16	 1
    7    56	 1
    7    13	 1
    7    61	 1
    7    10	 1
    7    59	 1
    8    57	 1
    8    58	 1
    8    12	 1
    8    11	 1
    8    14	 1
    9    13	 1
    9    61	 1
    9    60	 1
   10    15	 1
   10    14	 1
   11    59	 1
   11    13	 1
   11    60	 1
   12    59	 1
   12    61	 1
   14    60	 1
   14    61	 1
   15    59	 1
   15    60	 1
   16    57	 1
   16    58	 1
   16    21	 1
   16    30	 1
   16    65	 1
   17    56	 1
   17    20	 1
   17    63	 1
   17    64	 1
   18    19	 1
   18    62	 1
   19    56	 1
   19    22	 1
   19    66	 1
   19    67	 1
   19    31	 1
   20    62	 1
   20    24	 1
   20    23	 1
   20    73	 1
   20    74	 1
   20    75	 1
   21    63	 1
   21    64	 1
   21    31	 1
   21    25	 1
   21    29	 1
   22    30	 1
   22    65	 1
   22    26	 1
   22    68	 1
   22    28	 1
   22    72	 1
   23    66	 1
   23    67	 1
   23    25	 1
   23    29	 1
   24    66	 1
   24    67	 1
   24    27	 1
   24    69	 1
   24    71	 1
   25    28	 1
   25    72	 1
   25    70	 1
   26    29	 1
   26    71	 1
   27    68	 1
   27    72	 1
   28    69	 1
   29    68	 1
   29    70	 1
   30    63	 1
   30    64	 1
   30    66	 1
   30    67	 1
   31    65	 1
   32    38	 1
   32    35	 1
   32    50	 1
   33    36	 1
   33    78	 1
   33    40	 1
   33    39	 1
   33    77	 1
   34    37	 1
   34    50	 1
   34    42	 1
   34    41	 1
   35    76	 1
   35    40	 1
   35    39	 1
   35    52	 1
   35    51	 1
   35    78	 1
   36    38	 1
   36    53	 1
   36    54	 1
   36    55	 1
   36    88	 1
   36    89	 1
   36    90	 1
   37    76	 1
   37    77	 1
   37    52	 1
   37    51	 1
   38    76	 1
   38    77	 1
   38    43	 1
   38    44	 1
   38    79	 1
   39    42	 1
   39    41	 1
   40    80	 1
   40    81	 1
   40    82	 1
   40    45	 1
   40    49	 1
   41    43	 1
   41    44	 1
   41    79	 1
   42    46	 1
   42    83	 1
   42    48	 1
   42    87	 1
   43    45	 1
   43    49	 1
   44    80	 1
   44    81	 1
   44    82	 1
   44    47	 1
   44    84	 1
   44    86	 1
   45    79	 1
   45    48	 1
   45    87	 1
   45    85	 1
   46    49	 1
   46    86	 1
   47    83	 1
   47    87	 1
   48    84	 1
   49    79	 1
   49    83	 1
   49    85	 1
   50    77	 1
   50    78	 1
   50    91	 1
   50    92	 1
   50    93	 1
   51    53	 1
   51    54	 1
   51    55	 1
   52    88	 1
   52    89	 1
   52    90	 1
   53    91	 1
   53    92	 1
   53    93	 1
   54    91	 1
   54    92	 1
   54    93	 1
   56    62	 1
   56    57	 1
   56    58	 1
   62    63	 1
   62    64	 1
   63    65	 1
   64    65	 1
   65    66	 1
   65    67	 1
   68    69	 1
   69    70	 1
   70    71	 1
   71    72	 1
   79    80	 1
   79    81	 1
   79    82	 1
   83    84	 1
   84    85	 1
   85    86	 1
   86    87	 1

[ angles ]
;	ai	  aj	ak funct			c0			  c1			c2			  c3
   32     1     2	5 ;     CG2R61      CG2O1      OG2D1
   32     1     3	5 ;     CG2R61      CG2O1      NG2S1
    2     1     3	5 ;      OG2D1      CG2O1      NG2S1
    1     3     4	5 ;      CG2O1      NG2S1       HGP1
    1     3     5	5 ;      CG2O1      NG2S1      CG311
    4     3     5	5 ;       HGP1      NG2S1      CG311
    3     5    16	5 ;      NG2S1      CG311      CG311
    3     5     6	5 ;      NG2S1      CG311      CG321
    3     5    56	5 ;      NG2S1      CG311       HGA1
   16     5     6	5 ;      CG311      CG311      CG321
   16     5    56	5 ;      CG311      CG311       HGA1
    6     5    56	5 ;      CG321      CG311       HGA1
    5     6     7	5 ;      CG311      CG321      OG301
    5     6    57	5 ;      CG311      CG321       HGA2
    5     6    58	5 ;      CG311      CG321       HGA2
    7     6    57	5 ;      OG301      CG321       HGA2
    7     6    58	5 ;      OG301      CG321       HGA2
   57     6    58	5 ;       HGA2      CG321       HGA2
    6     7     8	5 ;      CG321      OG301     CG2R61
    7     8    15	5 ;      OG301     CG2R61     CG2R61
    7     8     9	5 ;      OG301     CG2R61     CG2R61
   15     8     9	5 ;     CG2R61     CG2R61     CG2R61
    8     9    10	5 ;     CG2R61     CG2R61     CG2R66
    8     9    59	5 ;     CG2R61     CG2R61      HGR62
   10     9    59	5 ;     CG2R66     CG2R61      HGR62
    9    10    12	5 ;     CG2R61     CG2R66     CG2R61
    9    10    11	5 ;     CG2R61     CG2R66       FGR1
   12    10    11	5 ;     CG2R61     CG2R66       FGR1
   13    12    10	5 ;     CG2R66     CG2R61     CG2R66
   13    12    60	5 ;     CG2R66     CG2R61      HGR62
   10    12    60	5 ;     CG2R66     CG2R61      HGR62
   15    13    14	5 ;     CG2R61     CG2R66       FGR1
   15    13    12	5 ;     CG2R61     CG2R66     CG2R61
   14    13    12	5 ;       FGR1     CG2R66     CG2R61
    8    15    13	5 ;     CG2R61     CG2R61     CG2R66
    8    15    61	5 ;     CG2R61     CG2R61      HGR62
   13    15    61	5 ;     CG2R66     CG2R61      HGR62
   19    16     5	5 ;      CG321      CG311      CG311
   19    16    17	5 ;      CG321      CG311      OG311
   19    16    62	5 ;      CG321      CG311       HGA1
    5    16    17	5 ;      CG311      CG311      OG311
    5    16    62	5 ;      CG311      CG311       HGA1
   17    16    62	5 ;      OG311      CG311       HGA1
   16    17    18	5 ;      CG311      OG311       HGP1
   20    19    16	5 ;      CG311      CG321      CG311
   20    19    63	5 ;      CG311      CG321       HGA2
   20    19    64	5 ;      CG311      CG321       HGA2
   16    19    63	5 ;      CG311      CG321       HGA2
   16    19    64	5 ;      CG311      CG321       HGA2
   63    19    64	5 ;       HGA2      CG321       HGA2
   21    20    19	5 ;      CG321      CG311      CG321
   21    20    30	5 ;      CG321      CG311      OG301
   21    20    65	5 ;      CG321      CG311       HGA1
   19    20    30	5 ;      CG321      CG311      OG301
   19    20    65	5 ;      CG321      CG311       HGA1
   30    20    65	5 ;      OG301      CG311       HGA1
   22    21    20	5 ;      NG311      CG321      CG311
   22    21    66	5 ;      NG311      CG321       HGA2
   22    21    67	5 ;      NG311      CG321       HGA2
   20    21    66	5 ;      CG311      CG321       HGA2
   20    21    67	5 ;      CG311      CG321       HGA2
   66    21    67	5 ;       HGA2      CG321       HGA2
   24    22    23	5 ;     CG2R61      NG311     HGPAM1
   24    22    21	5 ;     CG2R61      NG311      CG321
   23    22    21	5 ;     HGPAM1      NG311      CG321
   25    24    29	5 ;     CG2R61     CG2R61     CG2R61
   25    24    22	5 ;     CG2R61     CG2R61      NG311
   29    24    22	5 ;     CG2R61     CG2R61      NG311
   26    25    24	5 ;     CG2R61     CG2R61     CG2R61
   26    25    68	5 ;     CG2R61     CG2R61      HGR61
   24    25    68	5 ;     CG2R61     CG2R61      HGR61
   27    26    25	5 ;     CG2R61     CG2R61     CG2R61
   27    26    69	5 ;     CG2R61     CG2R61      HGR61
   25    26    69	5 ;     CG2R61     CG2R61      HGR61
   26    27    28	5 ;     CG2R61     CG2R61     CG2R61
   26    27    70	5 ;     CG2R61     CG2R61      HGR61
   28    27    70	5 ;     CG2R61     CG2R61      HGR61
   27    28    29	5 ;     CG2R61     CG2R61     CG2R61
   27    28    71	5 ;     CG2R61     CG2R61      HGR61
   29    28    71	5 ;     CG2R61     CG2R61      HGR61
   28    29    24	5 ;     CG2R61     CG2R61     CG2R61
   28    29    72	5 ;     CG2R61     CG2R61      HGR61
   24    29    72	5 ;     CG2R61     CG2R61      HGR61
   31    30    20	5 ;      CG331      OG301      CG311
   30    31    73	5 ;      OG301      CG331       HGA3
   30    31    74	5 ;      OG301      CG331       HGA3
   30    31    75	5 ;      OG301      CG331       HGA3
   73    31    74	5 ;       HGA3      CG331       HGA3
   73    31    75	5 ;       HGA3      CG331       HGA3
   74    31    75	5 ;       HGA3      CG331       HGA3
   33    32    37	5 ;     CG2R61     CG2R61     CG2R61
   33    32     1	5 ;     CG2R61     CG2R61      CG2O1
   37    32     1	5 ;     CG2R61     CG2R61      CG2O1
   34    33    32	5 ;     CG2R61     CG2R61     CG2R61
   34    33    76	5 ;     CG2R61     CG2R61      HGR61
   32    33    76	5 ;     CG2R61     CG2R61      HGR61
   38    34    35	5 ;      CG2O1     CG2R61     CG2R61
   38    34    33	5 ;      CG2O1     CG2R61     CG2R61
   35    34    33	5 ;     CG2R61     CG2R61     CG2R61
   34    35    36	5 ;     CG2R61     CG2R61     CG2R61
   34    35    77	5 ;     CG2R61     CG2R61      HGR61
   36    35    77	5 ;     CG2R61     CG2R61      HGR61
   35    36    50	5 ;     CG2R61     CG2R61      NG301
   35    36    37	5 ;     CG2R61     CG2R61     CG2R61
   50    36    37	5 ;      NG301     CG2R61     CG2R61
   36    37    32	5 ;     CG2R61     CG2R61     CG2R61
   36    37    78	5 ;     CG2R61     CG2R61      HGR61
   32    37    78	5 ;     CG2R61     CG2R61      HGR61
   40    38    39	5 ;      NG2S1      CG2O1      OG2D1
   40    38    34	5 ;      NG2S1      CG2O1     CG2R61
   39    38    34	5 ;      OG2D1      CG2O1     CG2R61
   42    40    41	5 ;      CG311      NG2S1       HGP1
   42    40    38	5 ;      CG311      NG2S1      CG2O1
   41    40    38	5 ;       HGP1      NG2S1      CG2O1
   43    42    44	5 ;      CG331      CG311     CG2R61
   43    42    40	5 ;      CG331      CG311      NG2S1
   43    42    79	5 ;      CG331      CG311       HGA1
   44    42    40	5 ;     CG2R61      CG311      NG2S1
   44    42    79	5 ;     CG2R61      CG311       HGA1
   40    42    79	5 ;      NG2S1      CG311       HGA1
   42    43    80	5 ;      CG311      CG331       HGA3
   42    43    81	5 ;      CG311      CG331       HGA3
   42    43    82	5 ;      CG311      CG331       HGA3
   80    43    81	5 ;       HGA3      CG331       HGA3
   80    43    82	5 ;       HGA3      CG331       HGA3
   81    43    82	5 ;       HGA3      CG331       HGA3
   45    44    49	5 ;     CG2R61     CG2R61     CG2R61
   45    44    42	5 ;     CG2R61     CG2R61      CG311
   49    44    42	5 ;     CG2R61     CG2R61      CG311
   46    45    44	5 ;     CG2R61     CG2R61     CG2R61
   46    45    83	5 ;     CG2R61     CG2R61      HGR61
   44    45    83	5 ;     CG2R61     CG2R61      HGR61
   47    46    45	5 ;     CG2R61     CG2R61     CG2R61
   47    46    84	5 ;     CG2R61     CG2R61      HGR61
   45    46    84	5 ;     CG2R61     CG2R61      HGR61
   46    47    48	5 ;     CG2R61     CG2R61     CG2R61
   46    47    85	5 ;     CG2R61     CG2R61      HGR61
   48    47    85	5 ;     CG2R61     CG2R61      HGR61
   47    48    49	5 ;     CG2R61     CG2R61     CG2R61
   47    48    86	5 ;     CG2R61     CG2R61      HGR61
   49    48    86	5 ;     CG2R61     CG2R61      HGR61
   48    49    44	5 ;     CG2R61     CG2R61     CG2R61
   48    49    87	5 ;     CG2R61     CG2R61      HGR61
   44    49    87	5 ;     CG2R61     CG2R61      HGR61
   52    50    36	5 ;      SG3O2      NG301     CG2R61
   52    50    51	5 ;      SG3O2      NG301      CG331
   36    50    51	5 ;     CG2R61      NG301      CG331
   50    51    88	5 ;      NG301      CG331       HGA3
   50    51    89	5 ;      NG301      CG331       HGA3
   50    51    90	5 ;      NG301      CG331       HGA3
   88    51    89	5 ;       HGA3      CG331       HGA3
   88    51    90	5 ;       HGA3      CG331       HGA3
   89    51    90	5 ;       HGA3      CG331       HGA3
   53    52    54	5 ;      OG2P1      SG3O2      OG2P1
   53    52    50	5 ;      OG2P1      SG3O2      NG301
   53    52    55	5 ;      OG2P1      SG3O2      CG331
   54    52    50	5 ;      OG2P1      SG3O2      NG301
   54    52    55	5 ;      OG2P1      SG3O2      CG331
   50    52    55	5 ;      NG301      SG3O2      CG331
   52    55    91	5 ;      SG3O2      CG331       HGA3
   52    55    92	5 ;      SG3O2      CG331       HGA3
   52    55    93	5 ;      SG3O2      CG331       HGA3
   91    55    92	5 ;       HGA3      CG331       HGA3
   91    55    93	5 ;       HGA3      CG331       HGA3
   92    55    93	5 ;       HGA3      CG331       HGA3

[ dihedrals ]
;	ai	  aj	ak	  al funct			  c0			c1			  c2			c3			  c4			c5
    2     1    32    33	 9 ;      OG2D1      CG2O1     CG2R61     CG2R61
    2     1    32    37	 9 ;      OG2D1      CG2O1     CG2R61     CG2R61
    3     1    32    33	 9 ;      NG2S1      CG2O1     CG2R61     CG2R61
    3     1    32    37	 9 ;      NG2S1      CG2O1     CG2R61     CG2R61
   32     1     3     4	 9 ;     CG2R61      CG2O1      NG2S1       HGP1
   32     1     3     5	 9 ;     CG2R61      CG2O1      NG2S1      CG311
    2     1     3     4	 9 ;      OG2D1      CG2O1      NG2S1       HGP1
    2     1     3     5	 9 ;      OG2D1      CG2O1      NG2S1      CG311
    1     3     5    16	 9 ;      CG2O1      NG2S1      CG311      CG311
    1     3     5     6	 9 ;      CG2O1      NG2S1      CG311      CG321
    1     3     5    56	 9 ;      CG2O1      NG2S1      CG311       HGA1
    4     3     5    16	 9 ;       HGP1      NG2S1      CG311      CG311
    4     3     5     6	 9 ;       HGP1      NG2S1      CG311      CG321
    4     3     5    56	 9 ;       HGP1      NG2S1      CG311       HGA1
    3     5    16    19	 9 ;      NG2S1      CG311      CG311      CG321
    3     5    16    17	 9 ;      NG2S1      CG311      CG311      OG311
    3     5    16    62	 9 ;      NG2S1      CG311      CG311       HGA1
    6     5    16    19	 9 ;      CG321      CG311      CG311      CG321
    6     5    16    17	 9 ;      CG321      CG311      CG311      OG311
    6     5    16    62	 9 ;      CG321      CG311      CG311       HGA1
   56     5    16    19	 9 ;       HGA1      CG311      CG311      CG321
   56     5    16    17	 9 ;       HGA1      CG311      CG311      OG311
   56     5    16    62	 9 ;       HGA1      CG311      CG311       HGA1
    3     5     6     7	 9 ;      NG2S1      CG311      CG321      OG301
    3     5     6    57	 9 ;      NG2S1      CG311      CG321       HGA2
    3     5     6    58	 9 ;      NG2S1      CG311      CG321       HGA2
   16     5     6     7	 9 ;      CG311      CG311      CG321      OG301
   16     5     6    57	 9 ;      CG311      CG311      CG321       HGA2
   16     5     6    58	 9 ;      CG311      CG311      CG321       HGA2
   56     5     6     7	 9 ;       HGA1      CG311      CG321      OG301
   56     5     6    57	 9 ;       HGA1      CG311      CG321       HGA2
   56     5     6    58	 9 ;       HGA1      CG311      CG321       HGA2
    5     6     7     8	 9 ;      CG311      CG321      OG301     CG2R61
   57     6     7     8	 9 ;       HGA2      CG321      OG301     CG2R61
   58     6     7     8	 9 ;       HGA2      CG321      OG301     CG2R61
    6     7     8    15	 9 ;      CG321      OG301     CG2R61     CG2R61
    6     7     8     9	 9 ;      CG321      OG301     CG2R61     CG2R61
    7     8    15    13	 9 ;      OG301     CG2R61     CG2R61     CG2R66
    7     8    15    61	 9 ;      OG301     CG2R61     CG2R61      HGR62
    9     8    15    13	 9 ;     CG2R61     CG2R61     CG2R61     CG2R66
    9     8    15    61	 9 ;     CG2R61     CG2R61     CG2R61      HGR62
    7     8     9    10	 9 ;      OG301     CG2R61     CG2R61     CG2R66
    7     8     9    59	 9 ;      OG301     CG2R61     CG2R61      HGR62
   15     8     9    10	 9 ;     CG2R61     CG2R61     CG2R61     CG2R66
   15     8     9    59	 9 ;     CG2R61     CG2R61     CG2R61      HGR62
    8     9    10    12	 9 ;     CG2R61     CG2R61     CG2R66     CG2R61
    8     9    10    11	 9 ;     CG2R61     CG2R61     CG2R66       FGR1
   59     9    10    12	 9 ;      HGR62     CG2R61     CG2R66     CG2R61
   59     9    10    11	 9 ;      HGR62     CG2R61     CG2R66       FGR1
    9    10    12    13	 9 ;     CG2R61     CG2R66     CG2R61     CG2R66
    9    10    12    60	 9 ;     CG2R61     CG2R66     CG2R61      HGR62
   11    10    12    13	 9 ;       FGR1     CG2R66     CG2R61     CG2R66
   11    10    12    60	 9 ;       FGR1     CG2R66     CG2R61      HGR62
   10    12    13    15	 9 ;     CG2R66     CG2R61     CG2R66     CG2R61
   10    12    13    14	 9 ;     CG2R66     CG2R61     CG2R66       FGR1
   60    12    13    15	 9 ;      HGR62     CG2R61     CG2R66     CG2R61
   60    12    13    14	 9 ;      HGR62     CG2R61     CG2R66       FGR1
   14    13    15     8	 9 ;       FGR1     CG2R66     CG2R61     CG2R61
   14    13    15    61	 9 ;       FGR1     CG2R66     CG2R61      HGR62
   12    13    15     8	 9 ;     CG2R61     CG2R66     CG2R61     CG2R61
   12    13    15    61	 9 ;     CG2R61     CG2R66     CG2R61      HGR62
    5    16    19    20	 9 ;      CG311      CG311      CG321      CG311
    5    16    19    63	 9 ;      CG311      CG311      CG321       HGA2
    5    16    19    64	 9 ;      CG311      CG311      CG321       HGA2
   17    16    19    20	 9 ;      OG311      CG311      CG321      CG311
   17    16    19    63	 9 ;      OG311      CG311      CG321       HGA2
   17    16    19    64	 9 ;      OG311      CG311      CG321       HGA2
   62    16    19    20	 9 ;       HGA1      CG311      CG321      CG311
   62    16    19    63	 9 ;       HGA1      CG311      CG321       HGA2
   62    16    19    64	 9 ;       HGA1      CG311      CG321       HGA2
   19    16    17    18	 9 ;      CG321      CG311      OG311       HGP1
    5    16    17    18	 9 ;      CG311      CG311      OG311       HGP1
   62    16    17    18	 9 ;       HGA1      CG311      OG311       HGP1
   16    19    20    21	 9 ;      CG311      CG321      CG311      CG321
   16    19    20    30	 9 ;      CG311      CG321      CG311      OG301
   16    19    20    65	 9 ;      CG311      CG321      CG311       HGA1
   63    19    20    21	 9 ;       HGA2      CG321      CG311      CG321
   63    19    20    30	 9 ;       HGA2      CG321      CG311      OG301
   63    19    20    65	 9 ;       HGA2      CG321      CG311       HGA1
   64    19    20    21	 9 ;       HGA2      CG321      CG311      CG321
   64    19    20    30	 9 ;       HGA2      CG321      CG311      OG301
   64    19    20    65	 9 ;       HGA2      CG321      CG311       HGA1
   19    20    21    22	 9 ;      CG321      CG311      CG321      NG311
   19    20    21    66	 9 ;      CG321      CG311      CG321       HGA2
   19    20    21    67	 9 ;      CG321      CG311      CG321       HGA2
   30    20    21    22	 9 ;      OG301      CG311      CG321      NG311
   30    20    21    66	 9 ;      OG301      CG311      CG321       HGA2
   30    20    21    67	 9 ;      OG301      CG311      CG321       HGA2
   65    20    21    22	 9 ;       HGA1      CG311      CG321      NG311
   65    20    21    66	 9 ;       HGA1      CG311      CG321       HGA2
   65    20    21    67	 9 ;       HGA1      CG311      CG321       HGA2
   21    20    30    31	 9 ;      CG321      CG311      OG301      CG331
   19    20    30    31	 9 ;      CG321      CG311      OG301      CG331
   65    20    30    31	 9 ;       HGA1      CG311      OG301      CG331
   20    21    22    24	 9 ;      CG311      CG321      NG311     CG2R61
   20    21    22    23	 9 ;      CG311      CG321      NG311     HGPAM1
   66    21    22    24	 9 ;       HGA2      CG321      NG311     CG2R61
   66    21    22    23	 9 ;       HGA2      CG321      NG311     HGPAM1
   67    21    22    24	 9 ;       HGA2      CG321      NG311     CG2R61
   67    21    22    23	 9 ;       HGA2      CG321      NG311     HGPAM1
   23    22    24    25	 9 ;     HGPAM1      NG311     CG2R61     CG2R61
   23    22    24    29	 9 ;     HGPAM1      NG311     CG2R61     CG2R61
   21    22    24    25	 9 ;      CG321      NG311     CG2R61     CG2R61
   21    22    24    29	 9 ;      CG321      NG311     CG2R61     CG2R61
   29    24    25    26	 9 ;     CG2R61     CG2R61     CG2R61     CG2R61
   29    24    25    68	 9 ;     CG2R61     CG2R61     CG2R61      HGR61
   22    24    25    26	 9 ;      NG311     CG2R61     CG2R61     CG2R61
   22    24    25    68	 9 ;      NG311     CG2R61     CG2R61      HGR61
   25    24    29    28	 9 ;     CG2R61     CG2R61     CG2R61     CG2R61
   25    24    29    72	 9 ;     CG2R61     CG2R61     CG2R61      HGR61
   22    24    29    28	 9 ;      NG311     CG2R61     CG2R61     CG2R61
   22    24    29    72	 9 ;      NG311     CG2R61     CG2R61      HGR61
   24    25    26    27	 9 ;     CG2R61     CG2R61     CG2R61     CG2R61
   24    25    26    69	 9 ;     CG2R61     CG2R61     CG2R61      HGR61
   68    25    26    27	 9 ;      HGR61     CG2R61     CG2R61     CG2R61
   68    25    26    69	 9 ;      HGR61     CG2R61     CG2R61      HGR61
   25    26    27    28	 9 ;     CG2R61     CG2R61     CG2R61     CG2R61
   25    26    27    70	 9 ;     CG2R61     CG2R61     CG2R61      HGR61
   69    26    27    28	 9 ;      HGR61     CG2R61     CG2R61     CG2R61
   69    26    27    70	 9 ;      HGR61     CG2R61     CG2R61      HGR61
   26    27    28    29	 9 ;     CG2R61     CG2R61     CG2R61     CG2R61
   26    27    28    71	 9 ;     CG2R61     CG2R61     CG2R61      HGR61
   70    27    28    29	 9 ;      HGR61     CG2R61     CG2R61     CG2R61
   70    27    28    71	 9 ;      HGR61     CG2R61     CG2R61      HGR61
   27    28    29    24	 9 ;     CG2R61     CG2R61     CG2R61     CG2R61
   27    28    29    72	 9 ;     CG2R61     CG2R61     CG2R61      HGR61
   71    28    29    24	 9 ;      HGR61     CG2R61     CG2R61     CG2R61
   71    28    29    72	 9 ;      HGR61     CG2R61     CG2R61      HGR61
   20    30    31    73	 9 ;      CG311      OG301      CG331       HGA3
   20    30    31    74	 9 ;      CG311      OG301      CG331       HGA3
   20    30    31    75	 9 ;      CG311      OG301      CG331       HGA3
   37    32    33    34	 9 ;     CG2R61     CG2R61     CG2R61     CG2R61
   37    32    33    76	 9 ;     CG2R61     CG2R61     CG2R61      HGR61
    1    32    33    34	 9 ;      CG2O1     CG2R61     CG2R61     CG2R61
    1    32    33    76	 9 ;      CG2O1     CG2R61     CG2R61      HGR61
   33    32    37    36	 9 ;     CG2R61     CG2R61     CG2R61     CG2R61
   33    32    37    78	 9 ;     CG2R61     CG2R61     CG2R61      HGR61
    1    32    37    36	 9 ;      CG2O1     CG2R61     CG2R61     CG2R61
    1    32    37    78	 9 ;      CG2O1     CG2R61     CG2R61      HGR61
   32    33    34    38	 9 ;     CG2R61     CG2R61     CG2R61      CG2O1
   32    33    34    35	 9 ;     CG2R61     CG2R61     CG2R61     CG2R61
   76    33    34    38	 9 ;      HGR61     CG2R61     CG2R61      CG2O1
   76    33    34    35	 9 ;      HGR61     CG2R61     CG2R61     CG2R61
   35    34    38    40	 9 ;     CG2R61     CG2R61      CG2O1      NG2S1
   35    34    38    39	 9 ;     CG2R61     CG2R61      CG2O1      OG2D1
   33    34    38    40	 9 ;     CG2R61     CG2R61      CG2O1      NG2S1
   33    34    38    39	 9 ;     CG2R61     CG2R61      CG2O1      OG2D1
   38    34    35    36	 9 ;      CG2O1     CG2R61     CG2R61     CG2R61
   38    34    35    77	 9 ;      CG2O1     CG2R61     CG2R61      HGR61
   33    34    35    36	 9 ;     CG2R61     CG2R61     CG2R61     CG2R61
   33    34    35    77	 9 ;     CG2R61     CG2R61     CG2R61      HGR61
   34    35    36    50	 9 ;     CG2R61     CG2R61     CG2R61      NG301
   34    35    36    37	 9 ;     CG2R61     CG2R61     CG2R61     CG2R61
   77    35    36    50	 9 ;      HGR61     CG2R61     CG2R61      NG301
   77    35    36    37	 9 ;      HGR61     CG2R61     CG2R61     CG2R61
   35    36    50    52	 9 ;     CG2R61     CG2R61      NG301      SG3O2
   35    36    50    51	 9 ;     CG2R61     CG2R61      NG301      CG331
   37    36    50    52	 9 ;     CG2R61     CG2R61      NG301      SG3O2
   37    36    50    51	 9 ;     CG2R61     CG2R61      NG301      CG331
   35    36    37    32	 9 ;     CG2R61     CG2R61     CG2R61     CG2R61
   35    36    37    78	 9 ;     CG2R61     CG2R61     CG2R61      HGR61
   50    36    37    32	 9 ;      NG301     CG2R61     CG2R61     CG2R61
   50    36    37    78	 9 ;      NG301     CG2R61     CG2R61      HGR61
   39    38    40    42	 9 ;      OG2D1      CG2O1      NG2S1      CG311
   39    38    40    41	 9 ;      OG2D1      CG2O1      NG2S1       HGP1
   34    38    40    42	 9 ;     CG2R61      CG2O1      NG2S1      CG311
   34    38    40    41	 9 ;     CG2R61      CG2O1      NG2S1       HGP1
   41    40    42    43	 9 ;       HGP1      NG2S1      CG311      CG331
   41    40    42    44	 9 ;       HGP1      NG2S1      CG311     CG2R61
   41    40    42    79	 9 ;       HGP1      NG2S1      CG311       HGA1
   38    40    42    43	 9 ;      CG2O1      NG2S1      CG311      CG331
   38    40    42    44	 9 ;      CG2O1      NG2S1      CG311     CG2R61
   38    40    42    79	 9 ;      CG2O1      NG2S1      CG311       HGA1
   44    42    43    80	 9 ;     CG2R61      CG311      CG331       HGA3
   44    42    43    81	 9 ;     CG2R61      CG311      CG331       HGA3
   44    42    43    82	 9 ;     CG2R61      CG311      CG331       HGA3
   40    42    43    80	 9 ;      NG2S1      CG311      CG331       HGA3
   40    42    43    81	 9 ;      NG2S1      CG311      CG331       HGA3
   40    42    43    82	 9 ;      NG2S1      CG311      CG331       HGA3
   79    42    43    80	 9 ;       HGA1      CG311      CG331       HGA3
   79    42    43    81	 9 ;       HGA1      CG311      CG331       HGA3
   79    42    43    82	 9 ;       HGA1      CG311      CG331       HGA3
   43    42    44    45	 9 ;      CG331      CG311     CG2R61     CG2R61
   43    42    44    49	 9 ;      CG331      CG311     CG2R61     CG2R61
   40    42    44    45	 9 ;      NG2S1      CG311     CG2R61     CG2R61
   40    42    44    49	 9 ;      NG2S1      CG311     CG2R61     CG2R61
   79    42    44    45	 9 ;       HGA1      CG311     CG2R61     CG2R61
   79    42    44    49	 9 ;       HGA1      CG311     CG2R61     CG2R61
   49    44    45    46	 9 ;     CG2R61     CG2R61     CG2R61     CG2R61
   49    44    45    83	 9 ;     CG2R61     CG2R61     CG2R61      HGR61
   42    44    45    46	 9 ;      CG311     CG2R61     CG2R61     CG2R61
   42    44    45    83	 9 ;      CG311     CG2R61     CG2R61      HGR61
   45    44    49    48	 9 ;     CG2R61     CG2R61     CG2R61     CG2R61
   45    44    49    87	 9 ;     CG2R61     CG2R61     CG2R61      HGR61
   42    44    49    48	 9 ;      CG311     CG2R61     CG2R61     CG2R61
   42    44    49    87	 9 ;      CG311     CG2R61     CG2R61      HGR61
   44    45    46    47	 9 ;     CG2R61     CG2R61     CG2R61     CG2R61
   44    45    46    84	 9 ;     CG2R61     CG2R61     CG2R61      HGR61
   83    45    46    47	 9 ;      HGR61     CG2R61     CG2R61     CG2R61
   83    45    46    84	 9 ;      HGR61     CG2R61     CG2R61      HGR61
   45    46    47    48	 9 ;     CG2R61     CG2R61     CG2R61     CG2R61
   45    46    47    85	 9 ;     CG2R61     CG2R61     CG2R61      HGR61
   84    46    47    48	 9 ;      HGR61     CG2R61     CG2R61     CG2R61
   84    46    47    85	 9 ;      HGR61     CG2R61     CG2R61      HGR61
   46    47    48    49	 9 ;     CG2R61     CG2R61     CG2R61     CG2R61
   46    47    48    86	 9 ;     CG2R61     CG2R61     CG2R61      HGR61
   85    47    48    49	 9 ;      HGR61     CG2R61     CG2R61     CG2R61
   85    47    48    86	 9 ;      HGR61     CG2R61     CG2R61      HGR61
   47    48    49    44	 9 ;     CG2R61     CG2R61     CG2R61     CG2R61
   47    48    49    87	 9 ;     CG2R61     CG2R61     CG2R61      HGR61
   86    48    49    44	 9 ;      HGR61     CG2R61     CG2R61     CG2R61
   86    48    49    87	 9 ;      HGR61     CG2R61     CG2R61      HGR61
   36    50    52    53	 9 ;     CG2R61      NG301      SG3O2      OG2P1
   36    50    52    54	 9 ;     CG2R61      NG301      SG3O2      OG2P1
   36    50    52    55	 9 ;     CG2R61      NG301      SG3O2      CG331
   51    50    52    53	 9 ;      CG331      NG301      SG3O2      OG2P1
   51    50    52    54	 9 ;      CG331      NG301      SG3O2      OG2P1
   51    50    52    55	 9 ;      CG331      NG301      SG3O2      CG331
   52    50    51    88	 9 ;      SG3O2      NG301      CG331       HGA3
   52    50    51    89	 9 ;      SG3O2      NG301      CG331       HGA3
   52    50    51    90	 9 ;      SG3O2      NG301      CG331       HGA3
   36    50    51    88	 9 ;     CG2R61      NG301      CG331       HGA3
   36    50    51    89	 9 ;     CG2R61      NG301      CG331       HGA3
   36    50    51    90	 9 ;     CG2R61      NG301      CG331       HGA3
   53    52    55    91	 9 ;      OG2P1      SG3O2      CG331       HGA3
   53    52    55    92	 9 ;      OG2P1      SG3O2      CG331       HGA3
   53    52    55    93	 9 ;      OG2P1      SG3O2      CG331       HGA3
   54    52    55    91	 9 ;      OG2P1      SG3O2      CG331       HGA3
   54    52    55    92	 9 ;      OG2P1      SG3O2      CG331       HGA3
   54    52    55    93	 9 ;      OG2P1      SG3O2      CG331       HGA3
   50    52    55    91	 9 ;      NG301      SG3O2      CG331       HGA3
   50    52    55    92	 9 ;      NG301      SG3O2      CG331       HGA3
   50    52    55    93	 9 ;      NG301      SG3O2      CG331       HGA3

[ dihedrals ]
;	ai	  aj	ak	  al funct			  c0			c1			  c2			c3
    1    32     3     2	 2
   38    34    40    39	 2

