God Rules Over Mankind, Animals, Cosmos and Such
   93
    1LIG     C1    1  -1.582   0.378  -1.490
    1LIG     O1    2  -1.682   0.309  -1.477
    1LIG     N1    3  -1.557   0.487  -1.408
    1LIG     H1    4  -1.468   0.534  -1.416
    1LIG     C2    5  -1.648   0.535  -1.297
    1LIG     C3    6  -1.574   0.552  -1.159
    1LIG     O2    7  -1.565   0.425  -1.091
    1LIG     C4    8  -1.624   0.412  -0.967
    1LIG     C5    9  -1.681   0.514  -0.891
    1LIG     C6   10  -1.738   0.483  -0.766
    1LIG     F1   11  -1.793   0.581  -0.693
    1LIG     C7   12  -1.739   0.354  -0.716
    1LIG     C8   13  -1.680   0.254  -0.791
    1LIG     F2   14  -1.678   0.128  -0.744
    1LIG     C9   15  -1.622   0.282  -0.915
    1LIG    C10   16  -1.738   0.661  -1.330
    1LIG     O3   17  -1.731   0.760  -1.227
    1LIG     H2   18  -1.801   0.741  -1.162
    1LIG    C11   19  -1.710   0.732  -1.465
    1LIG    C12   20  -1.587   0.831  -1.464
    1LIG    C13   21  -1.512   0.846  -1.599
    1LIG     N2   22  -1.513   0.722  -1.679
    1LIG     H3   23  -1.538   0.639  -1.624
    1LIG    C14   24  -1.409   0.696  -1.770
    1LIG    C15   25  -1.424   0.705  -1.909
    1LIG    C16   26  -1.320   0.673  -1.996
    1LIG    C17   27  -1.198   0.628  -1.947
    1LIG    C18   28  -1.181   0.615  -1.810
    1LIG    C19   29  -1.286   0.649  -1.722
    1LIG     O4   30  -1.626   0.959  -1.410
    1LIG    C20   31  -1.632   1.067  -1.502
    1LIG    C21   32  -1.487   0.347  -1.605
    1LIG    C22   33  -1.521   0.358  -1.740
    1LIG    C23   34  -1.429   0.322  -1.840
    1LIG    C24   35  -1.302   0.273  -1.806
    1LIG    C25   36  -1.271   0.249  -1.672
    1LIG    C26   37  -1.361   0.289  -1.572
    1LIG    C27   38  -1.459   0.327  -1.987
    1LIG     O5   39  -1.572   0.360  -2.023
    1LIG     N3   40  -1.355   0.299  -2.073
    1LIG     H4   41  -1.262   0.284  -2.039
    1LIG    C28   42  -1.374   0.299  -2.219
    1LIG    C29   43  -1.291   0.184  -2.279
    1LIG    C30   44  -1.342   0.437  -2.276
    1LIG    C31   45  -1.441   0.529  -2.315
    1LIG    C32   46  -1.406   0.653  -2.371
    1LIG    C33   47  -1.272   0.688  -2.387
    1LIG    C34   48  -1.173   0.599  -2.347
    1LIG    C35   49  -1.208   0.475  -2.292
    1LIG     N4   50  -1.158   0.165  -1.641
    1LIG    C36   51  -1.061   0.214  -1.541
    1LIG      S   52  -1.153   0.002  -1.683
    1LIG     O6   53  -1.104  -0.007  -1.820
    1LIG     O7   54  -1.276  -0.062  -1.643
    1LIG    C37   55  -1.022  -0.059  -1.577
    1LIG     H5   56  -1.717   0.454  -1.289
    1LIG     H6   57  -1.628   0.621  -1.098
    1LIG     H7   58  -1.475   0.589  -1.176
    1LIG     H8   59  -1.682   0.611  -0.926
    1LIG     H9   60  -1.782   0.333  -0.624
    1LIG    H10   61  -1.578   0.206  -0.970
    1LIG    H11   62  -1.836   0.619  -1.337
    1LIG    H12   63  -1.691   0.657  -1.538
    1LIG    H13   64  -1.796   0.792  -1.485
    1LIG    H14   65  -1.515   0.784  -1.401
    1LIG    H15   66  -1.560   0.924  -1.656
    1LIG    H16   67  -1.410   0.871  -1.578
    1LIG    H17   68  -1.515   0.735  -1.947
    1LIG    H18   69  -1.334   0.682  -2.098
    1LIG    H19   70  -1.121   0.604  -2.012
    1LIG    H20   71  -1.091   0.581  -1.772
    1LIG    H21   72  -1.271   0.638  -1.620
    1LIG    H22   73  -1.661   1.156  -1.450
    1LIG    H23   74  -1.704   1.045  -1.578
    1LIG    H24   75  -1.536   1.082  -1.547
    1LIG    H25   76  -1.615   0.392  -1.767
    1LIG    H26   77  -1.231   0.256  -1.879
    1LIG    H27   78  -1.336   0.276  -1.473
    1LIG    H28   79  -1.475   0.280  -2.246
    1LIG    H29   80  -1.188   0.198  -2.254
    1LIG    H30   81  -1.303   0.183  -2.385
    1LIG    H31   82  -1.325   0.091  -2.238
    1LIG    H32   83  -1.540   0.506  -2.303
    1LIG    H33   84  -1.480   0.719  -2.399
    1LIG    H34   85  -1.247   0.779  -2.429
    1LIG    H35   86  -1.074   0.624  -2.358
    1LIG    H36   87  -1.133   0.411  -2.261
    1LIG    H37   88  -0.983   0.142  -1.528
    1LIG    H38   89  -1.111   0.230  -1.448
    1LIG    H39   90  -1.019   0.306  -1.575
    1LIG    H40   91  -1.008  -0.164  -1.595
    1LIG    H41   92  -1.048  -0.043  -1.475
    1LIG    H42   93  -0.931  -0.007  -1.599
   0.00000   0.00000   0.00000
