Gromacs Runs One Microsecond At Cannonball Speeds
   45
    1LIG     C2    1  -1.394   0.596  -1.717
    1LIG     O5    2  -1.129   0.527  -1.751
    1LIG     C4    3  -1.168   0.299  -1.702
    1LIG     C5    4  -1.262   0.201  -1.668
    1LIG     C6    5  -1.036   0.264  -1.728
    1LIG     C7    6  -1.222   0.066  -1.662
    1LIG     C8    7  -0.997   0.130  -1.721
    1LIG     C9    8  -1.090   0.030  -1.688
    1LIG    C10    9  -1.348   0.477  -1.672
    1LIG    C11   10  -1.418   0.378  -1.585
    1LIG    C12   11  -1.208   0.442  -1.712
    1LIG    C13   12  -1.406   0.237  -1.642
    1LIG     N1   13  -1.529   0.766  -1.623
    1LIG     O4   14  -1.631   0.589  -1.730
    1LIG     C3   15  -1.530   0.647  -1.693
    1LIG     H5   16  -1.444   0.782  -1.570
    1LIG    C14   17  -1.655   0.822  -1.571
    1LIG    C16   18  -1.683   0.966  -1.622
    1LIG    C17   19  -1.634   0.991  -1.765
    1LIG    C18   20  -1.833   0.999  -1.616
    1LIG     O2   21  -1.737   0.815  -1.340
    1LIG    C15   22  -1.643   0.825  -1.418
    1LIG     O3   23  -1.516   0.848  -1.375
    1LIG     H4   24  -1.503   0.824  -1.281
    1LIG     C1   25  -0.955  -0.130  -1.576
    1LIG     O1   26  -1.038  -0.097  -1.686
    1LIG     H1   27  -1.329   0.654  -1.773
    1LIG     H2   28  -0.967   0.336  -1.753
    1LIG     H3   29  -1.291  -0.007  -1.639
    1LIG     H6   30  -0.899   0.104  -1.741
    1LIG     H7   31  -1.521   0.404  -1.577
    1LIG     H8   32  -1.372   0.379  -1.488
    1LIG     H9   33  -1.449   0.167  -1.573
    1LIG    H10   34  -1.459   0.234  -1.735
    1LIG     HA   35  -1.736   0.762  -1.605
    1LIG     HB   36  -1.628   1.031  -1.557
    1LIG   HG11   37  -1.688   0.928  -1.833
    1LIG   HG12   38  -1.530   0.969  -1.771
    1LIG   HG13   39  -1.651   1.093  -1.791
    1LIG   HG21   40  -1.887   0.933  -1.682
    1LIG   HG22   41  -1.849   1.100  -1.646
    1LIG   HG23   42  -1.868   0.985  -1.516
    1LIG    H11   43  -0.922  -0.231  -1.586
    1LIG    H12   44  -1.010  -0.119  -1.484
    1LIG    H13   45  -0.870  -0.065  -1.574
   0.00000   0.00000   0.00000
