; Created by cgenff_charmm2gmx.py

[ moleculetype ]
; Name			   nrexcl
LIG				 3

[ atoms ]
;	 nr		  type	resnr residue  atom   cgnr	   charge		mass  typeB    chargeB		massB
; residue	 1 LIG rtp LIG q	qsum
     1      NG301      1    LIG     N1      1     -0.345     14.007   ;
     2      CG311      1    LIG     C1      2      0.055     12.011   ;
     3      CG331      1    LIG     C2      3     -0.278     12.011   ;
     4      CG311      1    LIG     C3      4      0.033     12.011   ;
     5      CG311      1    LIG     C4      5     -0.413     12.011   ;
     6     CG2DC1      1    LIG     C5      6      0.280     12.011   ;
     7     CG2D1O      1    LIG     C6      7      0.400     12.011   ;
     8      CG331      1    LIG     C7      8     -0.282     12.011   ;
     9      CG2O1      1    LIG     C8      9      0.514     12.011   ;
    10      OG2D1      1    LIG     O1     10     -0.510     15.999   ;
    11      NG2S1      1    LIG     N2     11     -0.406     14.007   ;
    12       HGP1      1    LIG     H1     12      0.269      1.008   ;
    13      CG311      1    LIG     C9     13     -0.003     12.011   ;
    14      CG321      1    LIG    C10     14     -0.111     12.011   ;
    15     CG2R61      1    LIG    C11     15     -0.019     12.011   ;
    16     CG2R61      1    LIG    C12     16     -0.123     12.011   ;
    17     CG2R61      1    LIG    C13     17     -0.112     12.011   ;
    18     CG2R61      1    LIG    C14     18     -0.116     12.011   ;
    19     CG2R61      1    LIG    C15     19     -0.112     12.011   ;
    20     CG2R61      1    LIG    C16     20     -0.123     12.011   ;
    21      CG311      1    LIG    C17     21      0.093     12.011   ;
    22      CG324      1    LIG    C18     22      0.183     12.011   ;
    23      NG3P2      1    LIG     N3     23     -0.409     14.007   ;
    24       HGP2      1    LIG     H2     24      0.335      1.008   ;
    25       HGP2      1    LIG     H3     25      0.335      1.008   ;
    26     CG3C31      1    LIG    C19     26      0.283     12.011   ;
    27     CG3C31      1    LIG    C20     27     -0.179     12.011   ;
    28     CG3C31      1    LIG    C21     28     -0.179     12.011   ;
    29      OG311      1    LIG     O2     29     -0.625     15.999   ;
    30       HGP1      1    LIG     H4     30      0.415      1.008   ;
    31      CG311      1    LIG    C22     31     -0.057     12.011   ;
    32      CG331      1    LIG    C23     32     -0.264     12.011   ;
    33      CG331      1    LIG    C24     33     -0.264     12.011   ;
    34      SG3O2      1    LIG      S     34      0.287     32.060   ;
    35      OG2P1      1    LIG     O3     35     -0.369     15.999   ;
    36      OG2P1      1    LIG     O4     36     -0.369     15.999   ;
    37      CG331      1    LIG    C25     37      0.036     12.011   ;
    38      CG2O1      1    LIG    C26     38      0.366     12.011   ;
    39      OG2D1      1    LIG     O5     39     -0.428     15.999   ;
    40      NG2S1      1    LIG     N4     40     -0.242     14.007   ;
    41       HGP1      1    LIG     H5     41      0.298      1.008   ;
    42      OG301      1    LIG     O6     42     -0.390     15.999   ;
    43      CG321      1    LIG    C27     43      0.100     12.011   ;
    44     CG2R61      1    LIG    C28     44     -0.008     12.011   ;
    45     CG2R61      1    LIG    C29     45     -0.123     12.011   ;
    46     CG2R61      1    LIG    C30     46     -0.112     12.011   ;
    47     CG2R61      1    LIG    C31     47     -0.116     12.011   ;
    48     CG2R61      1    LIG    C32     48     -0.112     12.011   ;
    49     CG2R61      1    LIG    C33     49     -0.123     12.011   ;
    50       HGA3      1    LIG    HC1     50      0.090      1.008   ;
    51       HGA3      1    LIG    HC2     51      0.090      1.008   ;
    52       HGA3      1    LIG    HC3     52      0.090      1.008   ;
    53       HGA1      1    LIG     HC     53      0.090      1.008   ;
    54       HGA3      1    LIG    HC4     54      0.090      1.008   ;
    55       HGA3      1    LIG    HC5     55      0.090      1.008   ;
    56       HGA3      1    LIG    HC6     56      0.090      1.008   ;
    57       HGA1      1    LIG    HC7     57      0.090      1.008   ;
    58       HGA2      1    LIG    HC8     58      0.090      1.008   ;
    59       HGA2      1    LIG    HC9     59      0.090      1.008   ;
    60      HGR61      1    LIG   HC10     60      0.116      1.008   ;
    61      HGR61      1    LIG   HC11     61      0.116      1.008   ;
    62      HGR61      1    LIG   HC12     62      0.116      1.008   ;
    63      HGR61      1    LIG   HC13     63      0.116      1.008   ;
    64      HGR61      1    LIG   HC14     64      0.116      1.008   ;
    65       HGA1      1    LIG   HC15     65      0.090      1.008   ;
    66       HGA2      1    LIG   HC16     66      0.090      1.008   ;
    67       HGA2      1    LIG   HC17     67      0.090      1.008   ;
    68       HGA1      1    LIG   HC18     68      0.090      1.008   ;
    69       HGA2      1    LIG   HC19     69      0.090      1.008   ;
    70       HGA2      1    LIG   HC20     70      0.090      1.008   ;
    71       HGA2      1    LIG   HC21     71      0.090      1.008   ;
    72       HGA2      1    LIG   HC22     72      0.090      1.008   ;
    73       HGA1      1    LIG   HC23     73      0.090      1.008   ;
    74       HGA3      1    LIG   HC24     74      0.090      1.008   ;
    75       HGA3      1    LIG   HC25     75      0.090      1.008   ;
    76       HGA3      1    LIG   HC26     76      0.090      1.008   ;
    77       HGA3      1    LIG   HC27     77      0.090      1.008   ;
    78       HGA3      1    LIG   HC28     78      0.090      1.008   ;
    79       HGA3      1    LIG   HC29     79      0.090      1.008   ;
    80       HGA3      1    LIG   HC30     80      0.090      1.008   ;
    81       HGA3      1    LIG   HC31     81      0.090      1.008   ;
    82       HGA3      1    LIG   HC32     82      0.090      1.008   ;
    83       HGA2      1    LIG   HC33     83      0.090      1.008   ;
    84       HGA2      1    LIG   HC34     84      0.090      1.008   ;
    85      HGR61      1    LIG   HC35     85      0.116      1.008   ;
    86      HGR61      1    LIG   HC36     86      0.116      1.008   ;
    87      HGR61      1    LIG   HC37     87      0.116      1.008   ;
    88      HGR61      1    LIG   HC38     88      0.116      1.008   ;
    89      HGR61      1    LIG   HC39     89      0.116      1.008   ;
    90       HGA1      1    LIG    H46     90      0.090      1.008   ;
    91       HGA1      1    LIG    H47     91      0.090      1.008   ;

[ bonds ]
;	ai	  aj funct			  c0			c1			  c2			c3
    1    34	 1 ;       NG301      SG3O2
    1     7	 1 ;       NG301     CG2D1O
    1     2	 1 ;       NG301      CG311
    2     3	 1 ;       CG311      CG331
    2     4	 1 ;       CG311      CG311
    2    90	 1 ;       CG311       HGA1
    3    50	 1 ;       CG331       HGA3
    3    51	 1 ;       CG331       HGA3
    3    52	 1 ;       CG331       HGA3
    4     5	 1 ;       CG311      CG311
    4     9	 1 ;       CG311      CG2O1
    4    91	 1 ;       CG311       HGA1
    5     6	 1 ;       CG311     CG2DC1
    5    31	 1 ;       CG311      CG311
    5    53	 1 ;       CG311       HGA1
    6     7	 1 ;      CG2DC1     CG2D1O
    6    38	 1 ;      CG2DC1      CG2O1
    7     8	 1 ;      CG2D1O      CG331
    8    54	 1 ;       CG331       HGA3
    8    55	 1 ;       CG331       HGA3
    8    56	 1 ;       CG331       HGA3
    9    10	 1 ;       CG2O1      OG2D1
    9    11	 1 ;       CG2O1      NG2S1
   11    12	 1 ;       NG2S1       HGP1
   11    13	 1 ;       NG2S1      CG311
   13    21	 1 ;       CG311      CG311
   13    14	 1 ;       CG311      CG321
   13    57	 1 ;       CG311       HGA1
   14    15	 1 ;       CG321     CG2R61
   14    58	 1 ;       CG321       HGA2
   14    59	 1 ;       CG321       HGA2
   15    16	 1 ;      CG2R61     CG2R61
   15    20	 1 ;      CG2R61     CG2R61
   16    17	 1 ;      CG2R61     CG2R61
   16    60	 1 ;      CG2R61      HGR61
   17    18	 1 ;      CG2R61     CG2R61
   17    61	 1 ;      CG2R61      HGR61
   18    19	 1 ;      CG2R61     CG2R61
   18    62	 1 ;      CG2R61      HGR61
   19    20	 1 ;      CG2R61     CG2R61
   19    63	 1 ;      CG2R61      HGR61
   20    64	 1 ;      CG2R61      HGR61
   21    22	 1 ;       CG311      CG324
   21    29	 1 ;       CG311      OG311
   21    65	 1 ;       CG311       HGA1
   22    23	 1 ;       CG324      NG3P2
   22    66	 1 ;       CG324       HGA2
   22    67	 1 ;       CG324       HGA2
   23    24	 1 ;       NG3P2       HGP2
   23    26	 1 ;       NG3P2     CG3C31
   23    25	 1 ;       NG3P2       HGP2
   26    28	 1 ;      CG3C31     CG3C31
   26    27	 1 ;      CG3C31     CG3C31
   26    68	 1 ;      CG3C31       HGA1
   27    28	 1 ;      CG3C31     CG3C31
   27    69	 1 ;      CG3C31       HGA2
   27    70	 1 ;      CG3C31       HGA2
   28    71	 1 ;      CG3C31       HGA2
   28    72	 1 ;      CG3C31       HGA2
   29    30	 1 ;       OG311       HGP1
   31    33	 1 ;       CG311      CG331
   31    32	 1 ;       CG311      CG331
   31    73	 1 ;       CG311       HGA1
   32    74	 1 ;       CG331       HGA3
   32    75	 1 ;       CG331       HGA3
   32    76	 1 ;       CG331       HGA3
   33    77	 1 ;       CG331       HGA3
   33    78	 1 ;       CG331       HGA3
   33    79	 1 ;       CG331       HGA3
   34    37	 1 ;       SG3O2      CG331
   34    35	 1 ;       SG3O2      OG2P1
   34    36	 1 ;       SG3O2      OG2P1
   37    80	 1 ;       CG331       HGA3
   37    81	 1 ;       CG331       HGA3
   37    82	 1 ;       CG331       HGA3
   38    39	 1 ;       CG2O1      OG2D1
   38    40	 1 ;       CG2O1      NG2S1
   40    42	 1 ;       NG2S1      OG301
   40    41	 1 ;       NG2S1       HGP1
   42    43	 1 ;       OG301      CG321
   43    44	 1 ;       CG321     CG2R61
   43    83	 1 ;       CG321       HGA2
   43    84	 1 ;       CG321       HGA2
   44    45	 1 ;      CG2R61     CG2R61
   44    49	 1 ;      CG2R61     CG2R61
   45    46	 1 ;      CG2R61     CG2R61
   45    85	 1 ;      CG2R61      HGR61
   46    47	 1 ;      CG2R61     CG2R61
   46    86	 1 ;      CG2R61      HGR61
   47    48	 1 ;      CG2R61     CG2R61
   47    87	 1 ;      CG2R61      HGR61
   48    49	 1 ;      CG2R61     CG2R61
   48    88	 1 ;      CG2R61      HGR61
   49    89	 1 ;      CG2R61      HGR61

[ pairs ]
;	ai	  aj funct			  c0			c1			  c2			c3
    1    50	 1
    1    51	 1
    1    52	 1
    1     5	 1
    1     9	 1
    1    91	 1
    1    38	 1
    1    54	 1
    1    55	 1
    1    56	 1
    1    80	 1
    1    81	 1
    1    82	 1
    2    37	 1
    2    35	 1
    2    36	 1
    2     8	 1
    2     6	 1
    2    31	 1
    2    53	 1
    2    10	 1
    2    11	 1
    3    34	 1
    3     7	 1
    3     5	 1
    3     9	 1
    3    91	 1
    4    34	 1
    4     7	 1
    4    50	 1
    4    51	 1
    4    52	 1
    4    38	 1
    4    33	 1
    4    32	 1
    4    73	 1
    4    12	 1
    4    13	 1
    5    90	 1
    5    10	 1
    5    11	 1
    5     8	 1
    5    39	 1
    5    40	 1
    5    77	 1
    5    78	 1
    5    79	 1
    5    74	 1
    5    75	 1
    5    76	 1
    6    34	 1
    6     9	 1
    6    91	 1
    6    33	 1
    6    32	 1
    6    73	 1
    6    54	 1
    6    55	 1
    6    56	 1
    6    42	 1
    6    41	 1
    7    37	 1
    7    35	 1
    7    36	 1
    7    90	 1
    7    31	 1
    7    53	 1
    7    39	 1
    7    40	 1
    8    34	 1
    8    38	 1
    9    90	 1
    9    31	 1
    9    53	 1
    9    21	 1
    9    14	 1
    9    57	 1
   10    91	 1
   10    12	 1
   10    13	 1
   11    91	 1
   11    22	 1
   11    29	 1
   11    65	 1
   11    15	 1
   11    58	 1
   11    59	 1
   12    21	 1
   12    14	 1
   12    57	 1
   13    16	 1
   13    20	 1
   13    23	 1
   13    66	 1
   13    67	 1
   13    30	 1
   14    22	 1
   14    29	 1
   14    65	 1
   14    17	 1
   14    60	 1
   14    19	 1
   14    64	 1
   15    21	 1
   15    57	 1
   15    18	 1
   15    61	 1
   15    63	 1
   16    58	 1
   16    59	 1
   16    19	 1
   16    64	 1
   16    62	 1
   17    20	 1
   17    63	 1
   18    60	 1
   18    64	 1
   19    61	 1
   20    58	 1
   20    59	 1
   20    60	 1
   20    62	 1
   21    58	 1
   21    59	 1
   21    24	 1
   21    26	 1
   21    25	 1
   22    57	 1
   22    30	 1
   22    28	 1
   22    27	 1
   22    68	 1
   23    29	 1
   23    65	 1
   23    71	 1
   23    72	 1
   23    69	 1
   23    70	 1
   24    66	 1
   24    67	 1
   24    28	 1
   24    27	 1
   24    68	 1
   25    66	 1
   25    67	 1
   25    28	 1
   25    27	 1
   25    68	 1
   26    66	 1
   26    67	 1
   29    57	 1
   29    66	 1
   29    67	 1
   30    65	 1
   31    91	 1
   31    38	 1
   32    53	 1
   32    77	 1
   32    78	 1
   32    79	 1
   33    53	 1
   33    74	 1
   33    75	 1
   33    76	 1
   34    90	 1
   35    80	 1
   35    81	 1
   35    82	 1
   36    80	 1
   36    81	 1
   36    82	 1
   38    53	 1
   38    43	 1
   39    42	 1
   39    41	 1
   40    44	 1
   40    83	 1
   40    84	 1
   41    43	 1
   42    45	 1
   42    49	 1
   43    46	 1
   43    85	 1
   43    48	 1
   43    89	 1
   44    47	 1
   44    86	 1
   44    88	 1
   45    83	 1
   45    84	 1
   45    48	 1
   45    89	 1
   45    87	 1
   46    49	 1
   46    88	 1
   47    85	 1
   47    89	 1
   48    86	 1
   49    83	 1
   49    84	 1
   49    85	 1
   49    87	 1
   50    90	 1
   51    90	 1
   52    90	 1
   53    91	 1
   53    73	 1
   57    65	 1
   57    58	 1
   57    59	 1
   60    61	 1
   61    62	 1
   62    63	 1
   63    64	 1
   65    66	 1
   65    67	 1
   68    71	 1
   68    72	 1
   68    69	 1
   68    70	 1
   69    71	 1
   69    72	 1
   70    71	 1
   70    72	 1
   73    77	 1
   73    78	 1
   73    79	 1
   73    74	 1
   73    75	 1
   73    76	 1
   85    86	 1
   86    87	 1
   87    88	 1
   88    89	 1
   90    91	 1

[ angles ]
;	ai	  aj	ak funct			c0			  c1			c2			  c3
   34     1     7	5 ;      SG3O2      NG301     CG2D1O
   34     1     2	5 ;      SG3O2      NG301      CG311
    7     1     2	5 ;     CG2D1O      NG301      CG311
    1     2     3	5 ;      NG301      CG311      CG331
    1     2     4	5 ;      NG301      CG311      CG311
    1     2    90	5 ;      NG301      CG311       HGA1
    3     2     4	5 ;      CG331      CG311      CG311
    3     2    90	5 ;      CG331      CG311       HGA1
    4     2    90	5 ;      CG311      CG311       HGA1
    2     3    50	5 ;      CG311      CG331       HGA3
    2     3    51	5 ;      CG311      CG331       HGA3
    2     3    52	5 ;      CG311      CG331       HGA3
   50     3    51	5 ;       HGA3      CG331       HGA3
   50     3    52	5 ;       HGA3      CG331       HGA3
   51     3    52	5 ;       HGA3      CG331       HGA3
    2     4     5	5 ;      CG311      CG311      CG311
    2     4     9	5 ;      CG311      CG311      CG2O1
    2     4    91	5 ;      CG311      CG311       HGA1
    5     4     9	5 ;      CG311      CG311      CG2O1
    5     4    91	5 ;      CG311      CG311       HGA1
    9     4    91	5 ;      CG2O1      CG311       HGA1
    6     5    31	5 ;     CG2DC1      CG311      CG311
    6     5     4	5 ;     CG2DC1      CG311      CG311
    6     5    53	5 ;     CG2DC1      CG311       HGA1
   31     5     4	5 ;      CG311      CG311      CG311
   31     5    53	5 ;      CG311      CG311       HGA1
    4     5    53	5 ;      CG311      CG311       HGA1
    7     6    38	5 ;     CG2D1O     CG2DC1      CG2O1
    7     6     5	5 ;     CG2D1O     CG2DC1      CG311
   38     6     5	5 ;      CG2O1     CG2DC1      CG311
    8     7     1	5 ;      CG331     CG2D1O      NG301
    8     7     6	5 ;      CG331     CG2D1O     CG2DC1
    1     7     6	5 ;      NG301     CG2D1O     CG2DC1
    7     8    54	5 ;     CG2D1O      CG331       HGA3
    7     8    55	5 ;     CG2D1O      CG331       HGA3
    7     8    56	5 ;     CG2D1O      CG331       HGA3
   54     8    55	5 ;       HGA3      CG331       HGA3
   54     8    56	5 ;       HGA3      CG331       HGA3
   55     8    56	5 ;       HGA3      CG331       HGA3
    4     9    10	5 ;      CG311      CG2O1      OG2D1
    4     9    11	5 ;      CG311      CG2O1      NG2S1
   10     9    11	5 ;      OG2D1      CG2O1      NG2S1
    9    11    12	5 ;      CG2O1      NG2S1       HGP1
    9    11    13	5 ;      CG2O1      NG2S1      CG311
   12    11    13	5 ;       HGP1      NG2S1      CG311
   11    13    21	5 ;      NG2S1      CG311      CG311
   11    13    14	5 ;      NG2S1      CG311      CG321
   11    13    57	5 ;      NG2S1      CG311       HGA1
   21    13    14	5 ;      CG311      CG311      CG321
   21    13    57	5 ;      CG311      CG311       HGA1
   14    13    57	5 ;      CG321      CG311       HGA1
   13    14    15	5 ;      CG311      CG321     CG2R61
   13    14    58	5 ;      CG311      CG321       HGA2
   13    14    59	5 ;      CG311      CG321       HGA2
   15    14    58	5 ;     CG2R61      CG321       HGA2
   15    14    59	5 ;     CG2R61      CG321       HGA2
   58    14    59	5 ;       HGA2      CG321       HGA2
   14    15    16	5 ;      CG321     CG2R61     CG2R61
   14    15    20	5 ;      CG321     CG2R61     CG2R61
   16    15    20	5 ;     CG2R61     CG2R61     CG2R61
   15    16    17	5 ;     CG2R61     CG2R61     CG2R61
   15    16    60	5 ;     CG2R61     CG2R61      HGR61
   17    16    60	5 ;     CG2R61     CG2R61      HGR61
   16    17    18	5 ;     CG2R61     CG2R61     CG2R61
   16    17    61	5 ;     CG2R61     CG2R61      HGR61
   18    17    61	5 ;     CG2R61     CG2R61      HGR61
   19    18    17	5 ;     CG2R61     CG2R61     CG2R61
   19    18    62	5 ;     CG2R61     CG2R61      HGR61
   17    18    62	5 ;     CG2R61     CG2R61      HGR61
   20    19    18	5 ;     CG2R61     CG2R61     CG2R61
   20    19    63	5 ;     CG2R61     CG2R61      HGR61
   18    19    63	5 ;     CG2R61     CG2R61      HGR61
   15    20    19	5 ;     CG2R61     CG2R61     CG2R61
   15    20    64	5 ;     CG2R61     CG2R61      HGR61
   19    20    64	5 ;     CG2R61     CG2R61      HGR61
   22    21    13	5 ;      CG324      CG311      CG311
   22    21    29	5 ;      CG324      CG311      OG311
   22    21    65	5 ;      CG324      CG311       HGA1
   13    21    29	5 ;      CG311      CG311      OG311
   13    21    65	5 ;      CG311      CG311       HGA1
   29    21    65	5 ;      OG311      CG311       HGA1
   23    22    21	5 ;      NG3P2      CG324      CG311
   23    22    66	5 ;      NG3P2      CG324       HGA2
   23    22    67	5 ;      NG3P2      CG324       HGA2
   21    22    66	5 ;      CG311      CG324       HGA2
   21    22    67	5 ;      CG311      CG324       HGA2
   66    22    67	5 ;       HGA2      CG324       HGA2
   24    23    26	5 ;       HGP2      NG3P2     CG3C31
   24    23    25	5 ;       HGP2      NG3P2       HGP2
   24    23    22	5 ;       HGP2      NG3P2      CG324
   26    23    25	5 ;     CG3C31      NG3P2       HGP2
   26    23    22	5 ;     CG3C31      NG3P2      CG324
   25    23    22	5 ;       HGP2      NG3P2      CG324
   28    26    23	5 ;     CG3C31     CG3C31      NG3P2
   28    26    27	5 ;     CG3C31     CG3C31     CG3C31
   28    26    68	5 ;     CG3C31     CG3C31       HGA1
   23    26    27	5 ;      NG3P2     CG3C31     CG3C31
   23    26    68	5 ;      NG3P2     CG3C31       HGA1
   27    26    68	5 ;     CG3C31     CG3C31       HGA1
   28    27    26	5 ;     CG3C31     CG3C31     CG3C31
   28    27    69	5 ;     CG3C31     CG3C31       HGA2
   28    27    70	5 ;     CG3C31     CG3C31       HGA2
   26    27    69	5 ;     CG3C31     CG3C31       HGA2
   26    27    70	5 ;     CG3C31     CG3C31       HGA2
   69    27    70	5 ;       HGA2     CG3C31       HGA2
   26    28    27	5 ;     CG3C31     CG3C31     CG3C31
   26    28    71	5 ;     CG3C31     CG3C31       HGA2
   26    28    72	5 ;     CG3C31     CG3C31       HGA2
   27    28    71	5 ;     CG3C31     CG3C31       HGA2
   27    28    72	5 ;     CG3C31     CG3C31       HGA2
   71    28    72	5 ;       HGA2     CG3C31       HGA2
   21    29    30	5 ;      CG311      OG311       HGP1
   33    31     5	5 ;      CG331      CG311      CG311
   33    31    32	5 ;      CG331      CG311      CG331
   33    31    73	5 ;      CG331      CG311       HGA1
    5    31    32	5 ;      CG311      CG311      CG331
    5    31    73	5 ;      CG311      CG311       HGA1
   32    31    73	5 ;      CG331      CG311       HGA1
   31    32    74	5 ;      CG311      CG331       HGA3
   31    32    75	5 ;      CG311      CG331       HGA3
   31    32    76	5 ;      CG311      CG331       HGA3
   74    32    75	5 ;       HGA3      CG331       HGA3
   74    32    76	5 ;       HGA3      CG331       HGA3
   75    32    76	5 ;       HGA3      CG331       HGA3
   31    33    77	5 ;      CG311      CG331       HGA3
   31    33    78	5 ;      CG311      CG331       HGA3
   31    33    79	5 ;      CG311      CG331       HGA3
   77    33    78	5 ;       HGA3      CG331       HGA3
   77    33    79	5 ;       HGA3      CG331       HGA3
   78    33    79	5 ;       HGA3      CG331       HGA3
   37    34    35	5 ;      CG331      SG3O2      OG2P1
   37    34    36	5 ;      CG331      SG3O2      OG2P1
   37    34     1	5 ;      CG331      SG3O2      NG301
   35    34    36	5 ;      OG2P1      SG3O2      OG2P1
   35    34     1	5 ;      OG2P1      SG3O2      NG301
   36    34     1	5 ;      OG2P1      SG3O2      NG301
   34    37    80	5 ;      SG3O2      CG331       HGA3
   34    37    81	5 ;      SG3O2      CG331       HGA3
   34    37    82	5 ;      SG3O2      CG331       HGA3
   80    37    81	5 ;       HGA3      CG331       HGA3
   80    37    82	5 ;       HGA3      CG331       HGA3
   81    37    82	5 ;       HGA3      CG331       HGA3
   39    38     6	5 ;      OG2D1      CG2O1     CG2DC1
   39    38    40	5 ;      OG2D1      CG2O1      NG2S1
    6    38    40	5 ;     CG2DC1      CG2O1      NG2S1
   38    40    42	5 ;      CG2O1      NG2S1      OG301
   38    40    41	5 ;      CG2O1      NG2S1       HGP1
   42    40    41	5 ;      OG301      NG2S1       HGP1
   40    42    43	5 ;      NG2S1      OG301      CG321
   42    43    44	5 ;      OG301      CG321     CG2R61
   42    43    83	5 ;      OG301      CG321       HGA2
   42    43    84	5 ;      OG301      CG321       HGA2
   44    43    83	5 ;     CG2R61      CG321       HGA2
   44    43    84	5 ;     CG2R61      CG321       HGA2
   83    43    84	5 ;       HGA2      CG321       HGA2
   43    44    45	5 ;      CG321     CG2R61     CG2R61
   43    44    49	5 ;      CG321     CG2R61     CG2R61
   45    44    49	5 ;     CG2R61     CG2R61     CG2R61
   44    45    46	5 ;     CG2R61     CG2R61     CG2R61
   44    45    85	5 ;     CG2R61     CG2R61      HGR61
   46    45    85	5 ;     CG2R61     CG2R61      HGR61
   45    46    47	5 ;     CG2R61     CG2R61     CG2R61
   45    46    86	5 ;     CG2R61     CG2R61      HGR61
   47    46    86	5 ;     CG2R61     CG2R61      HGR61
   46    47    48	5 ;     CG2R61     CG2R61     CG2R61
   46    47    87	5 ;     CG2R61     CG2R61      HGR61
   48    47    87	5 ;     CG2R61     CG2R61      HGR61
   49    48    47	5 ;     CG2R61     CG2R61     CG2R61
   49    48    88	5 ;     CG2R61     CG2R61      HGR61
   47    48    88	5 ;     CG2R61     CG2R61      HGR61
   44    49    48	5 ;     CG2R61     CG2R61     CG2R61
   44    49    89	5 ;     CG2R61     CG2R61      HGR61
   48    49    89	5 ;     CG2R61     CG2R61      HGR61

[ dihedrals ]
;	ai	  aj	ak	  al funct			  c0			c1			  c2			c3			  c4			c5
    7     1    34    37	 9 ;     CG2D1O      NG301      SG3O2      CG331
    7     1    34    35	 9 ;     CG2D1O      NG301      SG3O2      OG2P1
    7     1    34    36	 9 ;     CG2D1O      NG301      SG3O2      OG2P1
    2     1    34    37	 9 ;      CG311      NG301      SG3O2      CG331
    2     1    34    35	 9 ;      CG311      NG301      SG3O2      OG2P1
    2     1    34    36	 9 ;      CG311      NG301      SG3O2      OG2P1
   34     1     7     8	 9 ;      SG3O2      NG301     CG2D1O      CG331
   34     1     7     6	 9 ;      SG3O2      NG301     CG2D1O     CG2DC1
    2     1     7     8	 9 ;      CG311      NG301     CG2D1O      CG331
    2     1     7     6	 9 ;      CG311      NG301     CG2D1O     CG2DC1
   34     1     2     3	 9 ;      SG3O2      NG301      CG311      CG331
   34     1     2     4	 9 ;      SG3O2      NG301      CG311      CG311
   34     1     2    90	 9 ;      SG3O2      NG301      CG311       HGA1
    7     1     2     3	 9 ;     CG2D1O      NG301      CG311      CG331
    7     1     2     4	 9 ;     CG2D1O      NG301      CG311      CG311
    7     1     2    90	 9 ;     CG2D1O      NG301      CG311       HGA1
    1     2     3    50	 9 ;      NG301      CG311      CG331       HGA3
    1     2     3    51	 9 ;      NG301      CG311      CG331       HGA3
    1     2     3    52	 9 ;      NG301      CG311      CG331       HGA3
    4     2     3    50	 9 ;      CG311      CG311      CG331       HGA3
    4     2     3    51	 9 ;      CG311      CG311      CG331       HGA3
    4     2     3    52	 9 ;      CG311      CG311      CG331       HGA3
   90     2     3    50	 9 ;       HGA1      CG311      CG331       HGA3
   90     2     3    51	 9 ;       HGA1      CG311      CG331       HGA3
   90     2     3    52	 9 ;       HGA1      CG311      CG331       HGA3
    1     2     4     5	 9 ;      NG301      CG311      CG311      CG311
    1     2     4     9	 9 ;      NG301      CG311      CG311      CG2O1
    1     2     4    91	 9 ;      NG301      CG311      CG311       HGA1
    3     2     4     5	 9 ;      CG331      CG311      CG311      CG311
    3     2     4     9	 9 ;      CG331      CG311      CG311      CG2O1
    3     2     4    91	 9 ;      CG331      CG311      CG311       HGA1
   90     2     4     5	 9 ;       HGA1      CG311      CG311      CG311
   90     2     4     9	 9 ;       HGA1      CG311      CG311      CG2O1
   90     2     4    91	 9 ;       HGA1      CG311      CG311       HGA1
    2     4     5     6	 9 ;      CG311      CG311      CG311     CG2DC1
    2     4     5    31	 9 ;      CG311      CG311      CG311      CG311
    2     4     5    53	 9 ;      CG311      CG311      CG311       HGA1
    9     4     5     6	 9 ;      CG2O1      CG311      CG311     CG2DC1
    9     4     5    31	 9 ;      CG2O1      CG311      CG311      CG311
    9     4     5    53	 9 ;      CG2O1      CG311      CG311       HGA1
   91     4     5     6	 9 ;       HGA1      CG311      CG311     CG2DC1
   91     4     5    31	 9 ;       HGA1      CG311      CG311      CG311
   91     4     5    53	 9 ;       HGA1      CG311      CG311       HGA1
    2     4     9    10	 9 ;      CG311      CG311      CG2O1      OG2D1
    2     4     9    11	 9 ;      CG311      CG311      CG2O1      NG2S1
    5     4     9    10	 9 ;      CG311      CG311      CG2O1      OG2D1
    5     4     9    11	 9 ;      CG311      CG311      CG2O1      NG2S1
   91     4     9    10	 9 ;       HGA1      CG311      CG2O1      OG2D1
   91     4     9    11	 9 ;       HGA1      CG311      CG2O1      NG2S1
   31     5     6     7	 9 ;      CG311      CG311     CG2DC1     CG2D1O
   31     5     6    38	 9 ;      CG311      CG311     CG2DC1      CG2O1
    4     5     6     7	 9 ;      CG311      CG311     CG2DC1     CG2D1O
    4     5     6    38	 9 ;      CG311      CG311     CG2DC1      CG2O1
   53     5     6     7	 9 ;       HGA1      CG311     CG2DC1     CG2D1O
   53     5     6    38	 9 ;       HGA1      CG311     CG2DC1      CG2O1
    6     5    31    33	 9 ;     CG2DC1      CG311      CG311      CG331
    6     5    31    32	 9 ;     CG2DC1      CG311      CG311      CG331
    6     5    31    73	 9 ;     CG2DC1      CG311      CG311       HGA1
    4     5    31    33	 9 ;      CG311      CG311      CG311      CG331
    4     5    31    32	 9 ;      CG311      CG311      CG311      CG331
    4     5    31    73	 9 ;      CG311      CG311      CG311       HGA1
   53     5    31    33	 9 ;       HGA1      CG311      CG311      CG331
   53     5    31    32	 9 ;       HGA1      CG311      CG311      CG331
   53     5    31    73	 9 ;       HGA1      CG311      CG311       HGA1
   38     6     7     8	 9 ;      CG2O1     CG2DC1     CG2D1O      CG331
   38     6     7     1	 9 ;      CG2O1     CG2DC1     CG2D1O      NG301
    5     6     7     8	 9 ;      CG311     CG2DC1     CG2D1O      CG331
    5     6     7     1	 9 ;      CG311     CG2DC1     CG2D1O      NG301
    7     6    38    39	 9 ;     CG2D1O     CG2DC1      CG2O1      OG2D1
    7     6    38    40	 9 ;     CG2D1O     CG2DC1      CG2O1      NG2S1
    5     6    38    39	 9 ;      CG311     CG2DC1      CG2O1      OG2D1
    5     6    38    40	 9 ;      CG311     CG2DC1      CG2O1      NG2S1
    1     7     8    54	 9 ;      NG301     CG2D1O      CG331       HGA3
    1     7     8    55	 9 ;      NG301     CG2D1O      CG331       HGA3
    1     7     8    56	 9 ;      NG301     CG2D1O      CG331       HGA3
    6     7     8    54	 9 ;     CG2DC1     CG2D1O      CG331       HGA3
    6     7     8    55	 9 ;     CG2DC1     CG2D1O      CG331       HGA3
    6     7     8    56	 9 ;     CG2DC1     CG2D1O      CG331       HGA3
    4     9    11    12	 9 ;      CG311      CG2O1      NG2S1       HGP1
    4     9    11    13	 9 ;      CG311      CG2O1      NG2S1      CG311
   10     9    11    12	 9 ;      OG2D1      CG2O1      NG2S1       HGP1
   10     9    11    13	 9 ;      OG2D1      CG2O1      NG2S1      CG311
    9    11    13    21	 9 ;      CG2O1      NG2S1      CG311      CG311
    9    11    13    14	 9 ;      CG2O1      NG2S1      CG311      CG321
    9    11    13    57	 9 ;      CG2O1      NG2S1      CG311       HGA1
   12    11    13    21	 9 ;       HGP1      NG2S1      CG311      CG311
   12    11    13    14	 9 ;       HGP1      NG2S1      CG311      CG321
   12    11    13    57	 9 ;       HGP1      NG2S1      CG311       HGA1
   11    13    21    22	 9 ;      NG2S1      CG311      CG311      CG324
   11    13    21    29	 9 ;      NG2S1      CG311      CG311      OG311
   11    13    21    65	 9 ;      NG2S1      CG311      CG311       HGA1
   14    13    21    22	 9 ;      CG321      CG311      CG311      CG324
   14    13    21    29	 9 ;      CG321      CG311      CG311      OG311
   14    13    21    65	 9 ;      CG321      CG311      CG311       HGA1
   57    13    21    22	 9 ;       HGA1      CG311      CG311      CG324
   57    13    21    29	 9 ;       HGA1      CG311      CG311      OG311
   57    13    21    65	 9 ;       HGA1      CG311      CG311       HGA1
   11    13    14    15	 9 ;      NG2S1      CG311      CG321     CG2R61
   11    13    14    58	 9 ;      NG2S1      CG311      CG321       HGA2
   11    13    14    59	 9 ;      NG2S1      CG311      CG321       HGA2
   21    13    14    15	 9 ;      CG311      CG311      CG321     CG2R61
   21    13    14    58	 9 ;      CG311      CG311      CG321       HGA2
   21    13    14    59	 9 ;      CG311      CG311      CG321       HGA2
   57    13    14    15	 9 ;       HGA1      CG311      CG321     CG2R61
   57    13    14    58	 9 ;       HGA1      CG311      CG321       HGA2
   57    13    14    59	 9 ;       HGA1      CG311      CG321       HGA2
   13    14    15    16	 9 ;      CG311      CG321     CG2R61     CG2R61
   13    14    15    20	 9 ;      CG311      CG321     CG2R61     CG2R61
   58    14    15    16	 9 ;       HGA2      CG321     CG2R61     CG2R61
   58    14    15    20	 9 ;       HGA2      CG321     CG2R61     CG2R61
   59    14    15    16	 9 ;       HGA2      CG321     CG2R61     CG2R61
   59    14    15    20	 9 ;       HGA2      CG321     CG2R61     CG2R61
   14    15    16    17	 9 ;      CG321     CG2R61     CG2R61     CG2R61
   14    15    16    60	 9 ;      CG321     CG2R61     CG2R61      HGR61
   20    15    16    17	 9 ;     CG2R61     CG2R61     CG2R61     CG2R61
   20    15    16    60	 9 ;     CG2R61     CG2R61     CG2R61      HGR61
   14    15    20    19	 9 ;      CG321     CG2R61     CG2R61     CG2R61
   14    15    20    64	 9 ;      CG321     CG2R61     CG2R61      HGR61
   16    15    20    19	 9 ;     CG2R61     CG2R61     CG2R61     CG2R61
   16    15    20    64	 9 ;     CG2R61     CG2R61     CG2R61      HGR61
   15    16    17    18	 9 ;     CG2R61     CG2R61     CG2R61     CG2R61
   15    16    17    61	 9 ;     CG2R61     CG2R61     CG2R61      HGR61
   60    16    17    18	 9 ;      HGR61     CG2R61     CG2R61     CG2R61
   60    16    17    61	 9 ;      HGR61     CG2R61     CG2R61      HGR61
   16    17    18    19	 9 ;     CG2R61     CG2R61     CG2R61     CG2R61
   16    17    18    62	 9 ;     CG2R61     CG2R61     CG2R61      HGR61
   61    17    18    19	 9 ;      HGR61     CG2R61     CG2R61     CG2R61
   61    17    18    62	 9 ;      HGR61     CG2R61     CG2R61      HGR61
   17    18    19    20	 9 ;     CG2R61     CG2R61     CG2R61     CG2R61
   17    18    19    63	 9 ;     CG2R61     CG2R61     CG2R61      HGR61
   62    18    19    20	 9 ;      HGR61     CG2R61     CG2R61     CG2R61
   62    18    19    63	 9 ;      HGR61     CG2R61     CG2R61      HGR61
   18    19    20    15	 9 ;     CG2R61     CG2R61     CG2R61     CG2R61
   18    19    20    64	 9 ;     CG2R61     CG2R61     CG2R61      HGR61
   63    19    20    15	 9 ;      HGR61     CG2R61     CG2R61     CG2R61
   63    19    20    64	 9 ;      HGR61     CG2R61     CG2R61      HGR61
   13    21    22    23	 9 ;      CG311      CG311      CG324      NG3P2
   13    21    22    66	 9 ;      CG311      CG311      CG324       HGA2
   13    21    22    67	 9 ;      CG311      CG311      CG324       HGA2
   29    21    22    23	 9 ;      OG311      CG311      CG324      NG3P2
   29    21    22    66	 9 ;      OG311      CG311      CG324       HGA2
   29    21    22    67	 9 ;      OG311      CG311      CG324       HGA2
   65    21    22    23	 9 ;       HGA1      CG311      CG324      NG3P2
   65    21    22    66	 9 ;       HGA1      CG311      CG324       HGA2
   65    21    22    67	 9 ;       HGA1      CG311      CG324       HGA2
   22    21    29    30	 9 ;      CG324      CG311      OG311       HGP1
   13    21    29    30	 9 ;      CG311      CG311      OG311       HGP1
   65    21    29    30	 9 ;       HGA1      CG311      OG311       HGP1
   21    22    23    24	 9 ;      CG311      CG324      NG3P2       HGP2
   21    22    23    26	 9 ;      CG311      CG324      NG3P2     CG3C31
   21    22    23    25	 9 ;      CG311      CG324      NG3P2       HGP2
   66    22    23    24	 9 ;       HGA2      CG324      NG3P2       HGP2
   66    22    23    26	 9 ;       HGA2      CG324      NG3P2     CG3C31
   66    22    23    25	 9 ;       HGA2      CG324      NG3P2       HGP2
   67    22    23    24	 9 ;       HGA2      CG324      NG3P2       HGP2
   67    22    23    26	 9 ;       HGA2      CG324      NG3P2     CG3C31
   67    22    23    25	 9 ;       HGA2      CG324      NG3P2       HGP2
   24    23    26    28	 9 ;       HGP2      NG3P2     CG3C31     CG3C31
   24    23    26    27	 9 ;       HGP2      NG3P2     CG3C31     CG3C31
   24    23    26    68	 9 ;       HGP2      NG3P2     CG3C31       HGA1
   25    23    26    28	 9 ;       HGP2      NG3P2     CG3C31     CG3C31
   25    23    26    27	 9 ;       HGP2      NG3P2     CG3C31     CG3C31
   25    23    26    68	 9 ;       HGP2      NG3P2     CG3C31       HGA1
   22    23    26    28	 9 ;      CG324      NG3P2     CG3C31     CG3C31
   22    23    26    27	 9 ;      CG324      NG3P2     CG3C31     CG3C31
   22    23    26    68	 9 ;      CG324      NG3P2     CG3C31       HGA1
   23    26    28    27	 9 ;      NG3P2     CG3C31     CG3C31     CG3C31
   23    26    28    71	 9 ;      NG3P2     CG3C31     CG3C31       HGA2
   23    26    28    72	 9 ;      NG3P2     CG3C31     CG3C31       HGA2
   27    26    28    71	 9 ;     CG3C31     CG3C31     CG3C31       HGA2
   27    26    28    72	 9 ;     CG3C31     CG3C31     CG3C31       HGA2
   68    26    28    27	 9 ;       HGA1     CG3C31     CG3C31     CG3C31
   68    26    28    71	 9 ;       HGA1     CG3C31     CG3C31       HGA2
   68    26    28    72	 9 ;       HGA1     CG3C31     CG3C31       HGA2
   28    26    27    69	 9 ;     CG3C31     CG3C31     CG3C31       HGA2
   28    26    27    70	 9 ;     CG3C31     CG3C31     CG3C31       HGA2
   23    26    27    28	 9 ;      NG3P2     CG3C31     CG3C31     CG3C31
   23    26    27    69	 9 ;      NG3P2     CG3C31     CG3C31       HGA2
   23    26    27    70	 9 ;      NG3P2     CG3C31     CG3C31       HGA2
   68    26    27    28	 9 ;       HGA1     CG3C31     CG3C31     CG3C31
   68    26    27    69	 9 ;       HGA1     CG3C31     CG3C31       HGA2
   68    26    27    70	 9 ;       HGA1     CG3C31     CG3C31       HGA2
   26    27    28    71	 9 ;     CG3C31     CG3C31     CG3C31       HGA2
   26    27    28    72	 9 ;     CG3C31     CG3C31     CG3C31       HGA2
   69    27    28    26	 9 ;       HGA2     CG3C31     CG3C31     CG3C31
   69    27    28    71	 9 ;       HGA2     CG3C31     CG3C31       HGA2
   69    27    28    72	 9 ;       HGA2     CG3C31     CG3C31       HGA2
   70    27    28    26	 9 ;       HGA2     CG3C31     CG3C31     CG3C31
   70    27    28    71	 9 ;       HGA2     CG3C31     CG3C31       HGA2
   70    27    28    72	 9 ;       HGA2     CG3C31     CG3C31       HGA2
    5    31    33    77	 9 ;      CG311      CG311      CG331       HGA3
    5    31    33    78	 9 ;      CG311      CG311      CG331       HGA3
    5    31    33    79	 9 ;      CG311      CG311      CG331       HGA3
   32    31    33    77	 9 ;      CG331      CG311      CG331       HGA3
   32    31    33    78	 9 ;      CG331      CG311      CG331       HGA3
   32    31    33    79	 9 ;      CG331      CG311      CG331       HGA3
   73    31    33    77	 9 ;       HGA1      CG311      CG331       HGA3
   73    31    33    78	 9 ;       HGA1      CG311      CG331       HGA3
   73    31    33    79	 9 ;       HGA1      CG311      CG331       HGA3
   33    31    32    74	 9 ;      CG331      CG311      CG331       HGA3
   33    31    32    75	 9 ;      CG331      CG311      CG331       HGA3
   33    31    32    76	 9 ;      CG331      CG311      CG331       HGA3
    5    31    32    74	 9 ;      CG311      CG311      CG331       HGA3
    5    31    32    75	 9 ;      CG311      CG311      CG331       HGA3
    5    31    32    76	 9 ;      CG311      CG311      CG331       HGA3
   73    31    32    74	 9 ;       HGA1      CG311      CG331       HGA3
   73    31    32    75	 9 ;       HGA1      CG311      CG331       HGA3
   73    31    32    76	 9 ;       HGA1      CG311      CG331       HGA3
   35    34    37    80	 9 ;      OG2P1      SG3O2      CG331       HGA3
   35    34    37    81	 9 ;      OG2P1      SG3O2      CG331       HGA3
   35    34    37    82	 9 ;      OG2P1      SG3O2      CG331       HGA3
   36    34    37    80	 9 ;      OG2P1      SG3O2      CG331       HGA3
   36    34    37    81	 9 ;      OG2P1      SG3O2      CG331       HGA3
   36    34    37    82	 9 ;      OG2P1      SG3O2      CG331       HGA3
    1    34    37    80	 9 ;      NG301      SG3O2      CG331       HGA3
    1    34    37    81	 9 ;      NG301      SG3O2      CG331       HGA3
    1    34    37    82	 9 ;      NG301      SG3O2      CG331       HGA3
   39    38    40    42	 9 ;      OG2D1      CG2O1      NG2S1      OG301
   39    38    40    41	 9 ;      OG2D1      CG2O1      NG2S1       HGP1
    6    38    40    42	 9 ;     CG2DC1      CG2O1      NG2S1      OG301
    6    38    40    41	 9 ;     CG2DC1      CG2O1      NG2S1       HGP1
   38    40    42    43	 9 ;      CG2O1      NG2S1      OG301      CG321
   41    40    42    43	 9 ;       HGP1      NG2S1      OG301      CG321
   40    42    43    44	 9 ;      NG2S1      OG301      CG321     CG2R61
   40    42    43    83	 9 ;      NG2S1      OG301      CG321       HGA2
   40    42    43    84	 9 ;      NG2S1      OG301      CG321       HGA2
   42    43    44    45	 9 ;      OG301      CG321     CG2R61     CG2R61
   42    43    44    49	 9 ;      OG301      CG321     CG2R61     CG2R61
   83    43    44    45	 9 ;       HGA2      CG321     CG2R61     CG2R61
   83    43    44    49	 9 ;       HGA2      CG321     CG2R61     CG2R61
   84    43    44    45	 9 ;       HGA2      CG321     CG2R61     CG2R61
   84    43    44    49	 9 ;       HGA2      CG321     CG2R61     CG2R61
   43    44    45    46	 9 ;      CG321     CG2R61     CG2R61     CG2R61
   43    44    45    85	 9 ;      CG321     CG2R61     CG2R61      HGR61
   49    44    45    46	 9 ;     CG2R61     CG2R61     CG2R61     CG2R61
   49    44    45    85	 9 ;     CG2R61     CG2R61     CG2R61      HGR61
   43    44    49    48	 9 ;      CG321     CG2R61     CG2R61     CG2R61
   43    44    49    89	 9 ;      CG321     CG2R61     CG2R61      HGR61
   45    44    49    48	 9 ;     CG2R61     CG2R61     CG2R61     CG2R61
   45    44    49    89	 9 ;     CG2R61     CG2R61     CG2R61      HGR61
   44    45    46    47	 9 ;     CG2R61     CG2R61     CG2R61     CG2R61
   44    45    46    86	 9 ;     CG2R61     CG2R61     CG2R61      HGR61
   85    45    46    47	 9 ;      HGR61     CG2R61     CG2R61     CG2R61
   85    45    46    86	 9 ;      HGR61     CG2R61     CG2R61      HGR61
   45    46    47    48	 9 ;     CG2R61     CG2R61     CG2R61     CG2R61
   45    46    47    87	 9 ;     CG2R61     CG2R61     CG2R61      HGR61
   86    46    47    48	 9 ;      HGR61     CG2R61     CG2R61     CG2R61
   86    46    47    87	 9 ;      HGR61     CG2R61     CG2R61      HGR61
   46    47    48    49	 9 ;     CG2R61     CG2R61     CG2R61     CG2R61
   46    47    48    88	 9 ;     CG2R61     CG2R61     CG2R61      HGR61
   87    47    48    49	 9 ;      HGR61     CG2R61     CG2R61     CG2R61
   87    47    48    88	 9 ;      HGR61     CG2R61     CG2R61      HGR61
   47    48    49    44	 9 ;     CG2R61     CG2R61     CG2R61     CG2R61
   47    48    49    89	 9 ;     CG2R61     CG2R61     CG2R61      HGR61
   88    48    49    44	 9 ;      HGR61     CG2R61     CG2R61     CG2R61
   88    48    49    89	 9 ;      HGR61     CG2R61     CG2R61      HGR61

[ dihedrals ]
;	ai	  aj	ak	  al funct			  c0			c1			  c2			c3
    7     6     8     1	 2
    9     4    11    10	 2
   38     6    40    39	 2

