Giant Rising Ordinary Mutants for A Clerical Setup
   91
    1LIG     N1    1  -0.944   0.526  -1.890
    1LIG     C1    2  -1.032   0.440  -1.808
    1LIG     C2    3  -1.044   0.295  -1.846
    1LIG     C3    4  -1.104   0.505  -1.713
    1LIG     C4    5  -1.124   0.661  -1.727
    1LIG     C5    6  -1.093   0.707  -1.870
    1LIG     C6    7  -1.008   0.641  -1.952
    1LIG     C7    8  -0.980   0.678  -2.095
    1LIG     C8    9  -1.198   0.434  -1.610
    1LIG     O1   10  -1.153   0.403  -1.500
    1LIG     N2   11  -1.330   0.400  -1.643
    1LIG     H1   12  -1.360   0.421  -1.737
    1LIG     C9   13  -1.423   0.304  -1.568
    1LIG    C10   14  -1.543   0.264  -1.656
    1LIG    C11   15  -1.689   0.298  -1.627
    1LIG    C12   16  -1.801   0.244  -1.690
    1LIG    C13   17  -1.928   0.259  -1.632
    1LIG    C14   18  -1.944   0.328  -1.512
    1LIG    C15   19  -1.835   0.389  -1.452
    1LIG    C16   20  -1.709   0.375  -1.510
    1LIG    C17   21  -1.358   0.178  -1.499
    1LIG    C18   22  -1.255   0.101  -1.583
    1LIG     N3   23  -1.132   0.079  -1.498
    1LIG     H2   24  -1.051   0.115  -1.551
    1LIG     H3   25  -1.137   0.137  -1.413
    1LIG    C19   26  -1.111  -0.062  -1.457
    1LIG    C20   27  -1.109  -0.089  -1.309
    1LIG    C21   28  -0.983  -0.097  -1.388
    1LIG     O2   29  -1.298   0.207  -1.372
    1LIG     H4   30  -1.339   0.289  -1.336
    1LIG    C22   31  -1.063   0.756  -1.616
    1LIG    C23   32  -1.133   0.753  -1.480
    1LIG    C24   33  -0.913   0.729  -1.589
    1LIG      S   34  -0.818   0.441  -1.973
    1LIG     O3   35  -0.871   0.384  -2.095
    1LIG     O4   36  -0.754   0.354  -1.876
    1LIG    C25   37  -0.692   0.562  -2.017
    1LIG    C26   38  -1.149   0.836  -1.924
    1LIG     O5   39  -1.084   0.940  -1.916
    1LIG     N4   40  -1.276   0.833  -1.978
    1LIG     H5   41  -1.342   0.761  -1.951
    1LIG     O6   42  -1.336   0.962  -1.994
    1LIG    C27   43  -1.473   0.957  -1.953
    1LIG    C28   44  -1.490   0.865  -1.834
    1LIG    C29   45  -1.445   0.904  -1.707
    1LIG    C30   46  -1.464   0.819  -1.597
    1LIG    C31   47  -1.526   0.694  -1.612
    1LIG    C32   48  -1.569   0.655  -1.738
    1LIG    C33   49  -1.552   0.740  -1.848
    1LIG    HC1   50  -1.130   0.251  -1.795
    1LIG    HC2   51  -0.954   0.242  -1.818
    1LIG    HC3   52  -1.059   0.287  -1.954
    1LIG     HC   53  -1.232   0.675  -1.717
    1LIG    HC4   54  -1.069   0.721  -2.140
    1LIG    HC5   55  -0.899   0.751  -2.099
    1LIG    HC6   56  -0.950   0.589  -2.151
    1LIG    HC7   57  -1.464   0.363  -1.486
    1LIG    HC8   58  -1.523   0.307  -1.754
    1LIG    HC9   59  -1.539   0.156  -1.668
    1LIG   HC10   60  -1.790   0.190  -1.783
    1LIG   HC11   61  -2.015   0.218  -1.682
    1LIG   HC12   62  -2.042   0.334  -1.465
    1LIG   HC13   63  -1.847   0.447  -1.362
    1LIG   HC14   64  -1.625   0.425  -1.465
    1LIG   HC15   65  -1.440   0.109  -1.479
    1LIG   HC16   66  -1.229   0.160  -1.671
    1LIG   HC17   67  -1.297   0.005  -1.614
    1LIG   HC18   68  -1.155  -0.139  -1.520
    1LIG   HC19   69  -1.155  -0.179  -1.270
    1LIG   HC20   70  -1.119  -0.000  -1.245
    1LIG   HC21   71  -0.936  -0.193  -1.406
    1LIG   HC22   72  -0.914  -0.014  -1.373
    1LIG   HC23   73  -1.071   0.858  -1.654
    1LIG   HC24   74  -1.240   0.772  -1.493
    1LIG   HC25   75  -1.090   0.831  -1.416
    1LIG   HC26   76  -1.118   0.656  -1.433
    1LIG   HC27   77  -0.858   0.730  -1.683
    1LIG   HC28   78  -0.901   0.632  -1.541
    1LIG   HC29   79  -0.873   0.807  -1.523
    1LIG   HC30   80  -0.594   0.523  -1.991
    1LIG   HC31   81  -0.696   0.581  -2.124
    1LIG   HC32   82  -0.710   0.655  -1.963
    1LIG   HC33   83  -1.506   1.057  -1.926
    1LIG   HC34   84  -1.534   0.920  -2.035
    1LIG   HC35   85  -1.396   0.999  -1.693
    1LIG   HC36   86  -1.430   0.850  -1.499
    1LIG   HC37   87  -1.539   0.628  -1.527
    1LIG   HC38   88  -1.617   0.560  -1.752
    1LIG   HC39   89  -1.587   0.709  -1.946
    1LIG    H46   90  -0.951   0.419  -1.737
    1LIG    H47   91  -1.021   0.513  -1.643
   0.00000   0.00000   0.00000
