Getting the Right Output Means no Artefacts in Calculating Stuff
   62
    1LIG     C1    1  -1.604   0.365  -1.506
    1LIG     C2    2  -1.492   0.388  -1.419
    1LIG     C3    3  -1.364   0.331  -1.439
    1LIG     C4    4  -1.343   0.246  -1.548
    1LIG     C5    5  -1.449   0.226  -1.638
    1LIG     C6    6  -1.576   0.284  -1.618
    1LIG     C7    7  -1.257   0.360  -1.349
    1LIG     N1    8  -1.174   0.386  -1.273
    1LIG     C8    9  -1.747   0.430  -1.482
    1LIG     C9   10  -1.858   0.333  -1.533
    1LIG    C10   11  -1.862   0.200  -1.452
    1LIG    C11   12  -1.885   0.223  -1.303
    1LIG    C12   13  -1.794   0.330  -1.244
    1LIG    C13   14  -1.783   0.456  -1.332
    1LIG     N2   15  -1.758   0.575  -1.557
    1LIG     H1   16  -1.800   0.558  -1.650
    1LIG     H2   17  -1.661   0.603  -1.579
    1LIG    C14   18  -1.824   0.706  -1.493
    1LIG    C15   19  -1.718   0.809  -1.427
    1LIG    C16   20  -1.601   0.880  -1.517
    1LIG    C17   21  -1.563   0.800  -1.643
    1LIG    C18   22  -1.432   0.727  -1.632
    1LIG    C19   23  -1.348   0.753  -1.523
    1LIG    C20   24  -1.226   0.688  -1.512
    1LIG     F1   25  -1.147   0.718  -1.408
    1LIG    C21   26  -1.184   0.595  -1.606
    1LIG    C22   27  -1.269   0.565  -1.712
    1LIG    C23   28  -1.392   0.630  -1.726
    1LIG     F2   29  -1.232   0.475  -1.803
    1LIG     N3   30  -1.627   1.021  -1.553
    1LIG    C24   31  -1.722   1.079  -1.634
    1LIG     O1   32  -1.725   1.202  -1.638
    1LIG    C25   33  -1.818   0.997  -1.718
    1LIG     H3   34  -1.569   1.094  -1.511
    1LIG     O2   35  -1.793   0.911  -1.358
    1LIG     H4   36  -1.748   0.927  -1.272
    1LIG     HC   37  -1.506   0.454  -1.335
    1LIG    HC1   38  -1.248   0.197  -1.562
    1LIG    HC2   39  -1.433   0.163  -1.724
    1LIG    HC3   40  -1.654   0.267  -1.691
    1LIG    HC4   41  -1.838   0.309  -1.638
    1LIG    HC5   42  -1.955   0.382  -1.526
    1LIG    HC6   43  -1.942   0.138  -1.491
    1LIG    HC7   44  -1.767   0.148  -1.465
    1LIG    HC8   45  -1.868   0.129  -1.250
    1LIG    HC9   46  -1.989   0.253  -1.288
    1LIG   HC10   47  -1.834   0.359  -1.147
    1LIG   HC11   48  -1.695   0.288  -1.231
    1LIG   HC12   49  -1.705   0.520  -1.290
    1LIG   HC13   50  -1.877   0.510  -1.328
    1LIG   HC14   51  -1.894   0.675  -1.415
    1LIG   HC15   52  -1.880   0.759  -1.570
    1LIG   HC16   53  -1.666   0.753  -1.349
    1LIG   HC17   54  -1.512   0.881  -1.454
    1LIG   HC18   55  -1.641   0.726  -1.662
    1LIG   HC19   56  -1.558   0.868  -1.728
    1LIG   HC20   57  -1.379   0.824  -1.447
    1LIG   HC21   58  -1.088   0.546  -1.597
    1LIG   HC22   59  -1.457   0.605  -1.808
    1LIG   HC23   60  -1.904   1.058  -1.745
    1LIG   HC24   61  -1.768   0.963  -1.809
    1LIG   HC25   62  -1.852   0.910  -1.661
   0.00000   0.00000   0.00000
