; Created by cgenff_charmm2gmx.py

[ moleculetype ]
; Name			   nrexcl
LIG				 3

[ atoms ]
;	 nr		  type	resnr residue  atom   cgnr	   charge		mass  typeB    chargeB		massB
; residue	 1 LIG rtp LIG q	qsum
     1     CG2R61      1    LIG     C1      1      0.084     12.011   ;
     2     CG2R61      1    LIG     C2      2     -0.131     12.011   ;
     3     CG2R61      1    LIG     C3      3      0.102     12.011   ;
     4     CG2R61      1    LIG     C4      4     -0.118     12.011   ;
     5     CG2R61      1    LIG     C5      5     -0.111     12.011   ;
     6     CG2R61      1    LIG     C6      6     -0.129     12.011   ;
     7      CG1N1      1    LIG     C7      7      0.364     12.011   ;
     8      NG1T1      1    LIG     N1      8     -0.463     14.007   ;
     9      CG301      1    LIG     C8      9      0.295     12.011   ;
    10      CG321      1    LIG     C9     10     -0.147     12.011   ;
    11      CG321      1    LIG    C10     11     -0.202     12.011   ;
    12      CG321      1    LIG    C11     12     -0.176     12.011   ;
    13      CG321      1    LIG    C12     13     -0.202     12.011   ;
    14      CG321      1    LIG    C13     14     -0.147     12.011   ;
    15      NG3P2      1    LIG     N2     15     -0.450     14.007   ;
    16       HGP2      1    LIG     H1     16      0.341      1.008   ;
    17       HGP2      1    LIG     H2     17      0.341      1.008   ;
    18      CG324      1    LIG    C14     18      0.208     12.011   ;
    19      CG311      1    LIG    C15     19      0.089     12.011   ;
    20      CG311      1    LIG    C16     20     -0.007     12.011   ;
    21      CG321      1    LIG    C17     21     -0.153     12.011   ;
    22     CG2R61      1    LIG    C18     22      0.057     12.011   ;
    23     CG2R61      1    LIG    C19     23     -0.218     12.011   ;
    24     CG2R66      1    LIG    C20     24      0.261     12.011   ;
    25       FGR1      1    LIG     F1     25     -0.210     18.998   ;
    26     CG2R61      1    LIG    C21     26     -0.240     12.011   ;
    27     CG2R66      1    LIG    C22     27      0.261     12.011   ;
    28     CG2R61      1    LIG    C23     28     -0.218     12.011   ;
    29       FGR1      1    LIG     F2     29     -0.210     18.998   ;
    30      NG2S1      1    LIG     N3     30     -0.339     14.007   ;
    31      CG2O1      1    LIG    C24     31      0.488     12.011   ;
    32      OG2D1      1    LIG     O1     32     -0.509     15.999   ;
    33      CG331      1    LIG    C25     33     -0.270     12.011   ;
    34       HGP1      1    LIG     H3     34      0.261      1.008   ;
    35      OG311      1    LIG     O2     35     -0.625     15.999   ;
    36       HGP1      1    LIG     H4     36      0.415      1.008   ;
    37      HGR61      1    LIG     HC     37      0.116      1.008   ;
    38      HGR61      1    LIG    HC1     38      0.116      1.008   ;
    39      HGR61      1    LIG    HC2     39      0.116      1.008   ;
    40      HGR61      1    LIG    HC3     40      0.116      1.008   ;
    41       HGA2      1    LIG    HC4     41      0.090      1.008   ;
    42       HGA2      1    LIG    HC5     42      0.090      1.008   ;
    43       HGA2      1    LIG    HC6     43      0.090      1.008   ;
    44       HGA2      1    LIG    HC7     44      0.090      1.008   ;
    45       HGA2      1    LIG    HC8     45      0.090      1.008   ;
    46       HGA2      1    LIG    HC9     46      0.090      1.008   ;
    47       HGA2      1    LIG   HC10     47      0.090      1.008   ;
    48       HGA2      1    LIG   HC11     48      0.090      1.008   ;
    49       HGA2      1    LIG   HC12     49      0.090      1.008   ;
    50       HGA2      1    LIG   HC13     50      0.090      1.008   ;
    51       HGA2      1    LIG   HC14     51      0.090      1.008   ;
    52       HGA2      1    LIG   HC15     52      0.090      1.008   ;
    53       HGA1      1    LIG   HC16     53      0.090      1.008   ;
    54       HGA1      1    LIG   HC17     54      0.090      1.008   ;
    55       HGA2      1    LIG   HC18     55      0.090      1.008   ;
    56       HGA2      1    LIG   HC19     56      0.090      1.008   ;
    57      HGR62      1    LIG   HC20     57      0.174      1.008   ;
    58      HGR62      1    LIG   HC21     58      0.186      1.008   ;
    59      HGR62      1    LIG   HC22     59      0.174      1.008   ;
    60       HGA3      1    LIG   HC23     60      0.090      1.008   ;
    61       HGA3      1    LIG   HC24     61      0.090      1.008   ;
    62       HGA3      1    LIG   HC25     62      0.090      1.008   ;

[ bonds ]
;	ai	  aj funct			  c0			c1			  c2			c3
    1     6	 1 ;      CG2R61     CG2R61
    1     2	 1 ;      CG2R61     CG2R61
    1     9	 1 ;      CG2R61      CG301
    2     3	 1 ;      CG2R61     CG2R61
    2    37	 1 ;      CG2R61      HGR61
    3     4	 1 ;      CG2R61     CG2R61
    3     7	 1 ;      CG2R61      CG1N1
    4     5	 1 ;      CG2R61     CG2R61
    4    38	 1 ;      CG2R61      HGR61
    5     6	 1 ;      CG2R61     CG2R61
    5    39	 1 ;      CG2R61      HGR61
    6    40	 1 ;      CG2R61      HGR61
    7     8	 1 ;       CG1N1      NG1T1
    9    15	 1 ;       CG301      NG3P2
    9    10	 1 ;       CG301      CG321
    9    14	 1 ;       CG301      CG321
   10    11	 1 ;       CG321      CG321
   10    41	 1 ;       CG321       HGA2
   10    42	 1 ;       CG321       HGA2
   11    12	 1 ;       CG321      CG321
   11    43	 1 ;       CG321       HGA2
   11    44	 1 ;       CG321       HGA2
   12    13	 1 ;       CG321      CG321
   12    45	 1 ;       CG321       HGA2
   12    46	 1 ;       CG321       HGA2
   13    14	 1 ;       CG321      CG321
   13    47	 1 ;       CG321       HGA2
   13    48	 1 ;       CG321       HGA2
   14    49	 1 ;       CG321       HGA2
   14    50	 1 ;       CG321       HGA2
   15    17	 1 ;       NG3P2       HGP2
   15    16	 1 ;       NG3P2       HGP2
   15    18	 1 ;       NG3P2      CG324
   18    19	 1 ;       CG324      CG311
   18    51	 1 ;       CG324       HGA2
   18    52	 1 ;       CG324       HGA2
   19    20	 1 ;       CG311      CG311
   19    35	 1 ;       CG311      OG311
   19    53	 1 ;       CG311       HGA1
   20    21	 1 ;       CG311      CG321
   20    30	 1 ;       CG311      NG2S1
   20    54	 1 ;       CG311       HGA1
   21    22	 1 ;       CG321     CG2R61
   21    55	 1 ;       CG321       HGA2
   21    56	 1 ;       CG321       HGA2
   22    28	 1 ;      CG2R61     CG2R61
   22    23	 1 ;      CG2R61     CG2R61
   23    24	 1 ;      CG2R61     CG2R66
   23    57	 1 ;      CG2R61      HGR62
   24    26	 1 ;      CG2R66     CG2R61
   24    25	 1 ;      CG2R66       FGR1
   26    27	 1 ;      CG2R61     CG2R66
   26    58	 1 ;      CG2R61      HGR62
   27    29	 1 ;      CG2R66       FGR1
   27    28	 1 ;      CG2R66     CG2R61
   28    59	 1 ;      CG2R61      HGR62
   30    34	 1 ;       NG2S1       HGP1
   30    31	 1 ;       NG2S1      CG2O1
   31    32	 1 ;       CG2O1      OG2D1
   31    33	 1 ;       CG2O1      CG331
   33    60	 1 ;       CG331       HGA3
   33    61	 1 ;       CG331       HGA3
   33    62	 1 ;       CG331       HGA3
   35    36	 1 ;       OG311       HGP1

[ pairs ]
;	ai	  aj funct			  c0			c1			  c2			c3
    1     4	 1
    1     7	 1
    1    39	 1
    1    17	 1
    1    16	 1
    1    18	 1
    1    11	 1
    1    41	 1
    1    42	 1
    1    13	 1
    1    49	 1
    1    50	 1
    2     5	 1
    2    40	 1
    2    15	 1
    2    10	 1
    2    14	 1
    2    38	 1
    2     8	 1
    3     6	 1
    3     9	 1
    3    39	 1
    4    37	 1
    4     8	 1
    4    40	 1
    5     9	 1
    5     7	 1
    6    37	 1
    6    15	 1
    6    10	 1
    6    14	 1
    6    38	 1
    7    37	 1
    7    38	 1
    9    40	 1
    9    37	 1
    9    12	 1
    9    43	 1
    9    44	 1
    9    47	 1
    9    48	 1
    9    19	 1
    9    51	 1
    9    52	 1
   10    17	 1
   10    16	 1
   10    18	 1
   10    13	 1
   10    49	 1
   10    50	 1
   10    45	 1
   10    46	 1
   11    15	 1
   11    14	 1
   11    47	 1
   11    48	 1
   12    41	 1
   12    42	 1
   12    49	 1
   12    50	 1
   13    15	 1
   13    43	 1
   13    44	 1
   14    17	 1
   14    16	 1
   14    18	 1
   14    41	 1
   14    42	 1
   14    45	 1
   14    46	 1
   15    41	 1
   15    42	 1
   15    49	 1
   15    50	 1
   15    20	 1
   15    35	 1
   15    53	 1
   16    19	 1
   16    51	 1
   16    52	 1
   17    19	 1
   17    51	 1
   17    52	 1
   18    21	 1
   18    30	 1
   18    54	 1
   18    36	 1
   19    22	 1
   19    55	 1
   19    56	 1
   19    34	 1
   19    31	 1
   20    51	 1
   20    52	 1
   20    36	 1
   20    28	 1
   20    23	 1
   20    32	 1
   20    33	 1
   21    35	 1
   21    53	 1
   21    34	 1
   21    31	 1
   21    27	 1
   21    59	 1
   21    24	 1
   21    57	 1
   22    30	 1
   22    54	 1
   22    26	 1
   22    25	 1
   22    29	 1
   23    55	 1
   23    56	 1
   23    27	 1
   23    59	 1
   23    58	 1
   24    28	 1
   24    29	 1
   25    57	 1
   25    27	 1
   25    58	 1
   26    57	 1
   26    59	 1
   28    55	 1
   28    56	 1
   28    57	 1
   28    58	 1
   29    58	 1
   29    59	 1
   30    35	 1
   30    53	 1
   30    55	 1
   30    56	 1
   30    60	 1
   30    61	 1
   30    62	 1
   31    54	 1
   32    34	 1
   32    60	 1
   32    61	 1
   32    62	 1
   33    34	 1
   34    54	 1
   35    51	 1
   35    52	 1
   35    54	 1
   36    53	 1
   38    39	 1
   39    40	 1
   41    43	 1
   41    44	 1
   42    43	 1
   42    44	 1
   43    45	 1
   43    46	 1
   44    45	 1
   44    46	 1
   45    47	 1
   45    48	 1
   46    47	 1
   46    48	 1
   47    49	 1
   47    50	 1
   48    49	 1
   48    50	 1
   51    53	 1
   52    53	 1
   53    54	 1
   54    55	 1
   54    56	 1

[ angles ]
;	ai	  aj	ak funct			c0			  c1			c2			  c3
    6     1     2	5 ;     CG2R61     CG2R61     CG2R61
    6     1     9	5 ;     CG2R61     CG2R61      CG301
    2     1     9	5 ;     CG2R61     CG2R61      CG301
    3     2     1	5 ;     CG2R61     CG2R61     CG2R61
    3     2    37	5 ;     CG2R61     CG2R61      HGR61
    1     2    37	5 ;     CG2R61     CG2R61      HGR61
    4     3     7	5 ;     CG2R61     CG2R61      CG1N1
    4     3     2	5 ;     CG2R61     CG2R61     CG2R61
    7     3     2	5 ;      CG1N1     CG2R61     CG2R61
    5     4     3	5 ;     CG2R61     CG2R61     CG2R61
    5     4    38	5 ;     CG2R61     CG2R61      HGR61
    3     4    38	5 ;     CG2R61     CG2R61      HGR61
    4     5     6	5 ;     CG2R61     CG2R61     CG2R61
    4     5    39	5 ;     CG2R61     CG2R61      HGR61
    6     5    39	5 ;     CG2R61     CG2R61      HGR61
    5     6     1	5 ;     CG2R61     CG2R61     CG2R61
    5     6    40	5 ;     CG2R61     CG2R61      HGR61
    1     6    40	5 ;     CG2R61     CG2R61      HGR61
    8     7     3	5 ;      NG1T1      CG1N1     CG2R61
   15     9     1	5 ;      NG3P2      CG301     CG2R61
   15     9    10	5 ;      NG3P2      CG301      CG321
   15     9    14	5 ;      NG3P2      CG301      CG321
    1     9    10	5 ;     CG2R61      CG301      CG321
    1     9    14	5 ;     CG2R61      CG301      CG321
   10     9    14	5 ;      CG321      CG301      CG321
    9    10    11	5 ;      CG301      CG321      CG321
    9    10    41	5 ;      CG301      CG321       HGA2
    9    10    42	5 ;      CG301      CG321       HGA2
   11    10    41	5 ;      CG321      CG321       HGA2
   11    10    42	5 ;      CG321      CG321       HGA2
   41    10    42	5 ;       HGA2      CG321       HGA2
   10    11    12	5 ;      CG321      CG321      CG321
   10    11    43	5 ;      CG321      CG321       HGA2
   10    11    44	5 ;      CG321      CG321       HGA2
   12    11    43	5 ;      CG321      CG321       HGA2
   12    11    44	5 ;      CG321      CG321       HGA2
   43    11    44	5 ;       HGA2      CG321       HGA2
   11    12    13	5 ;      CG321      CG321      CG321
   11    12    45	5 ;      CG321      CG321       HGA2
   11    12    46	5 ;      CG321      CG321       HGA2
   13    12    45	5 ;      CG321      CG321       HGA2
   13    12    46	5 ;      CG321      CG321       HGA2
   45    12    46	5 ;       HGA2      CG321       HGA2
   14    13    12	5 ;      CG321      CG321      CG321
   14    13    47	5 ;      CG321      CG321       HGA2
   14    13    48	5 ;      CG321      CG321       HGA2
   12    13    47	5 ;      CG321      CG321       HGA2
   12    13    48	5 ;      CG321      CG321       HGA2
   47    13    48	5 ;       HGA2      CG321       HGA2
    9    14    13	5 ;      CG301      CG321      CG321
    9    14    49	5 ;      CG301      CG321       HGA2
    9    14    50	5 ;      CG301      CG321       HGA2
   13    14    49	5 ;      CG321      CG321       HGA2
   13    14    50	5 ;      CG321      CG321       HGA2
   49    14    50	5 ;       HGA2      CG321       HGA2
   17    15    16	5 ;       HGP2      NG3P2       HGP2
   17    15    18	5 ;       HGP2      NG3P2      CG324
   17    15     9	5 ;       HGP2      NG3P2      CG301
   16    15    18	5 ;       HGP2      NG3P2      CG324
   16    15     9	5 ;       HGP2      NG3P2      CG301
   18    15     9	5 ;      CG324      NG3P2      CG301
   19    18    15	5 ;      CG311      CG324      NG3P2
   19    18    51	5 ;      CG311      CG324       HGA2
   19    18    52	5 ;      CG311      CG324       HGA2
   15    18    51	5 ;      NG3P2      CG324       HGA2
   15    18    52	5 ;      NG3P2      CG324       HGA2
   51    18    52	5 ;       HGA2      CG324       HGA2
   20    19    18	5 ;      CG311      CG311      CG324
   20    19    35	5 ;      CG311      CG311      OG311
   20    19    53	5 ;      CG311      CG311       HGA1
   18    19    35	5 ;      CG324      CG311      OG311
   18    19    53	5 ;      CG324      CG311       HGA1
   35    19    53	5 ;      OG311      CG311       HGA1
   21    20    30	5 ;      CG321      CG311      NG2S1
   21    20    19	5 ;      CG321      CG311      CG311
   21    20    54	5 ;      CG321      CG311       HGA1
   30    20    19	5 ;      NG2S1      CG311      CG311
   30    20    54	5 ;      NG2S1      CG311       HGA1
   19    20    54	5 ;      CG311      CG311       HGA1
   22    21    20	5 ;     CG2R61      CG321      CG311
   22    21    55	5 ;     CG2R61      CG321       HGA2
   22    21    56	5 ;     CG2R61      CG321       HGA2
   20    21    55	5 ;      CG311      CG321       HGA2
   20    21    56	5 ;      CG311      CG321       HGA2
   55    21    56	5 ;       HGA2      CG321       HGA2
   28    22    23	5 ;     CG2R61     CG2R61     CG2R61
   28    22    21	5 ;     CG2R61     CG2R61      CG321
   23    22    21	5 ;     CG2R61     CG2R61      CG321
   24    23    22	5 ;     CG2R66     CG2R61     CG2R61
   24    23    57	5 ;     CG2R66     CG2R61      HGR62
   22    23    57	5 ;     CG2R61     CG2R61      HGR62
   26    24    25	5 ;     CG2R61     CG2R66       FGR1
   26    24    23	5 ;     CG2R61     CG2R66     CG2R61
   25    24    23	5 ;       FGR1     CG2R66     CG2R61
   27    26    24	5 ;     CG2R66     CG2R61     CG2R66
   27    26    58	5 ;     CG2R66     CG2R61      HGR62
   24    26    58	5 ;     CG2R66     CG2R61      HGR62
   29    27    26	5 ;       FGR1     CG2R66     CG2R61
   29    27    28	5 ;       FGR1     CG2R66     CG2R61
   26    27    28	5 ;     CG2R61     CG2R66     CG2R61
   27    28    22	5 ;     CG2R66     CG2R61     CG2R61
   27    28    59	5 ;     CG2R66     CG2R61      HGR62
   22    28    59	5 ;     CG2R61     CG2R61      HGR62
   34    30    31	5 ;       HGP1      NG2S1      CG2O1
   34    30    20	5 ;       HGP1      NG2S1      CG311
   31    30    20	5 ;      CG2O1      NG2S1      CG311
   32    31    30	5 ;      OG2D1      CG2O1      NG2S1
   32    31    33	5 ;      OG2D1      CG2O1      CG331
   30    31    33	5 ;      NG2S1      CG2O1      CG331
   31    33    60	5 ;      CG2O1      CG331       HGA3
   31    33    61	5 ;      CG2O1      CG331       HGA3
   31    33    62	5 ;      CG2O1      CG331       HGA3
   60    33    61	5 ;       HGA3      CG331       HGA3
   60    33    62	5 ;       HGA3      CG331       HGA3
   61    33    62	5 ;       HGA3      CG331       HGA3
   19    35    36	5 ;      CG311      OG311       HGP1

[ dihedrals ]
;	ai	  aj	ak	  al funct			  c0			c1			  c2			c3			  c4			c5
    2     1     6     5	 9 ;     CG2R61     CG2R61     CG2R61     CG2R61
    2     1     6    40	 9 ;     CG2R61     CG2R61     CG2R61      HGR61
    9     1     6     5	 9 ;      CG301     CG2R61     CG2R61     CG2R61
    9     1     6    40	 9 ;      CG301     CG2R61     CG2R61      HGR61
    6     1     2     3	 9 ;     CG2R61     CG2R61     CG2R61     CG2R61
    6     1     2    37	 9 ;     CG2R61     CG2R61     CG2R61      HGR61
    9     1     2     3	 9 ;      CG301     CG2R61     CG2R61     CG2R61
    9     1     2    37	 9 ;      CG301     CG2R61     CG2R61      HGR61
    6     1     9    15	 9 ;     CG2R61     CG2R61      CG301      NG3P2
    6     1     9    10	 9 ;     CG2R61     CG2R61      CG301      CG321
    6     1     9    14	 9 ;     CG2R61     CG2R61      CG301      CG321
    2     1     9    15	 9 ;     CG2R61     CG2R61      CG301      NG3P2
    2     1     9    10	 9 ;     CG2R61     CG2R61      CG301      CG321
    2     1     9    14	 9 ;     CG2R61     CG2R61      CG301      CG321
    1     2     3     4	 9 ;     CG2R61     CG2R61     CG2R61     CG2R61
    1     2     3     7	 9 ;     CG2R61     CG2R61     CG2R61      CG1N1
   37     2     3     4	 9 ;      HGR61     CG2R61     CG2R61     CG2R61
   37     2     3     7	 9 ;      HGR61     CG2R61     CG2R61      CG1N1
    7     3     4     5	 9 ;      CG1N1     CG2R61     CG2R61     CG2R61
    7     3     4    38	 9 ;      CG1N1     CG2R61     CG2R61      HGR61
    2     3     4     5	 9 ;     CG2R61     CG2R61     CG2R61     CG2R61
    2     3     4    38	 9 ;     CG2R61     CG2R61     CG2R61      HGR61
    3     4     5     6	 9 ;     CG2R61     CG2R61     CG2R61     CG2R61
    3     4     5    39	 9 ;     CG2R61     CG2R61     CG2R61      HGR61
   38     4     5     6	 9 ;      HGR61     CG2R61     CG2R61     CG2R61
   38     4     5    39	 9 ;      HGR61     CG2R61     CG2R61      HGR61
    4     5     6     1	 9 ;     CG2R61     CG2R61     CG2R61     CG2R61
    4     5     6    40	 9 ;     CG2R61     CG2R61     CG2R61      HGR61
   39     5     6     1	 9 ;      HGR61     CG2R61     CG2R61     CG2R61
   39     5     6    40	 9 ;      HGR61     CG2R61     CG2R61      HGR61
    1     9    15    17	 9 ;     CG2R61      CG301      NG3P2       HGP2
    1     9    15    16	 9 ;     CG2R61      CG301      NG3P2       HGP2
    1     9    15    18	 9 ;     CG2R61      CG301      NG3P2      CG324
   10     9    15    17	 9 ;      CG321      CG301      NG3P2       HGP2
   10     9    15    16	 9 ;      CG321      CG301      NG3P2       HGP2
   10     9    15    18	 9 ;      CG321      CG301      NG3P2      CG324
   14     9    15    17	 9 ;      CG321      CG301      NG3P2       HGP2
   14     9    15    16	 9 ;      CG321      CG301      NG3P2       HGP2
   14     9    15    18	 9 ;      CG321      CG301      NG3P2      CG324
   15     9    10    11	 9 ;      NG3P2      CG301      CG321      CG321
   15     9    10    41	 9 ;      NG3P2      CG301      CG321       HGA2
   15     9    10    42	 9 ;      NG3P2      CG301      CG321       HGA2
    1     9    10    11	 9 ;     CG2R61      CG301      CG321      CG321
    1     9    10    41	 9 ;     CG2R61      CG301      CG321       HGA2
    1     9    10    42	 9 ;     CG2R61      CG301      CG321       HGA2
   14     9    10    11	 9 ;      CG321      CG301      CG321      CG321
   14     9    10    41	 9 ;      CG321      CG301      CG321       HGA2
   14     9    10    42	 9 ;      CG321      CG301      CG321       HGA2
   15     9    14    13	 9 ;      NG3P2      CG301      CG321      CG321
   15     9    14    49	 9 ;      NG3P2      CG301      CG321       HGA2
   15     9    14    50	 9 ;      NG3P2      CG301      CG321       HGA2
    1     9    14    13	 9 ;     CG2R61      CG301      CG321      CG321
    1     9    14    49	 9 ;     CG2R61      CG301      CG321       HGA2
    1     9    14    50	 9 ;     CG2R61      CG301      CG321       HGA2
   10     9    14    13	 9 ;      CG321      CG301      CG321      CG321
   10     9    14    49	 9 ;      CG321      CG301      CG321       HGA2
   10     9    14    50	 9 ;      CG321      CG301      CG321       HGA2
    9    10    11    12	 9 ;      CG301      CG321      CG321      CG321
    9    10    11    43	 9 ;      CG301      CG321      CG321       HGA2
    9    10    11    44	 9 ;      CG301      CG321      CG321       HGA2
   41    10    11    12	 9 ;       HGA2      CG321      CG321      CG321
   41    10    11    43	 9 ;       HGA2      CG321      CG321       HGA2
   41    10    11    44	 9 ;       HGA2      CG321      CG321       HGA2
   42    10    11    12	 9 ;       HGA2      CG321      CG321      CG321
   42    10    11    43	 9 ;       HGA2      CG321      CG321       HGA2
   42    10    11    44	 9 ;       HGA2      CG321      CG321       HGA2
   10    11    12    13	 9 ;      CG321      CG321      CG321      CG321
   10    11    12    45	 9 ;      CG321      CG321      CG321       HGA2
   10    11    12    46	 9 ;      CG321      CG321      CG321       HGA2
   43    11    12    13	 9 ;       HGA2      CG321      CG321      CG321
   43    11    12    45	 9 ;       HGA2      CG321      CG321       HGA2
   43    11    12    46	 9 ;       HGA2      CG321      CG321       HGA2
   44    11    12    13	 9 ;       HGA2      CG321      CG321      CG321
   44    11    12    45	 9 ;       HGA2      CG321      CG321       HGA2
   44    11    12    46	 9 ;       HGA2      CG321      CG321       HGA2
   11    12    13    14	 9 ;      CG321      CG321      CG321      CG321
   11    12    13    47	 9 ;      CG321      CG321      CG321       HGA2
   11    12    13    48	 9 ;      CG321      CG321      CG321       HGA2
   45    12    13    14	 9 ;       HGA2      CG321      CG321      CG321
   45    12    13    47	 9 ;       HGA2      CG321      CG321       HGA2
   45    12    13    48	 9 ;       HGA2      CG321      CG321       HGA2
   46    12    13    14	 9 ;       HGA2      CG321      CG321      CG321
   46    12    13    47	 9 ;       HGA2      CG321      CG321       HGA2
   46    12    13    48	 9 ;       HGA2      CG321      CG321       HGA2
   12    13    14     9	 9 ;      CG321      CG321      CG321      CG301
   12    13    14    49	 9 ;      CG321      CG321      CG321       HGA2
   12    13    14    50	 9 ;      CG321      CG321      CG321       HGA2
   47    13    14     9	 9 ;       HGA2      CG321      CG321      CG301
   47    13    14    49	 9 ;       HGA2      CG321      CG321       HGA2
   47    13    14    50	 9 ;       HGA2      CG321      CG321       HGA2
   48    13    14     9	 9 ;       HGA2      CG321      CG321      CG301
   48    13    14    49	 9 ;       HGA2      CG321      CG321       HGA2
   48    13    14    50	 9 ;       HGA2      CG321      CG321       HGA2
   17    15    18    19	 9 ;       HGP2      NG3P2      CG324      CG311
   17    15    18    51	 9 ;       HGP2      NG3P2      CG324       HGA2
   17    15    18    52	 9 ;       HGP2      NG3P2      CG324       HGA2
   16    15    18    19	 9 ;       HGP2      NG3P2      CG324      CG311
   16    15    18    51	 9 ;       HGP2      NG3P2      CG324       HGA2
   16    15    18    52	 9 ;       HGP2      NG3P2      CG324       HGA2
    9    15    18    19	 9 ;      CG301      NG3P2      CG324      CG311
    9    15    18    51	 9 ;      CG301      NG3P2      CG324       HGA2
    9    15    18    52	 9 ;      CG301      NG3P2      CG324       HGA2
   15    18    19    20	 9 ;      NG3P2      CG324      CG311      CG311
   15    18    19    35	 9 ;      NG3P2      CG324      CG311      OG311
   15    18    19    53	 9 ;      NG3P2      CG324      CG311       HGA1
   51    18    19    20	 9 ;       HGA2      CG324      CG311      CG311
   51    18    19    35	 9 ;       HGA2      CG324      CG311      OG311
   51    18    19    53	 9 ;       HGA2      CG324      CG311       HGA1
   52    18    19    20	 9 ;       HGA2      CG324      CG311      CG311
   52    18    19    35	 9 ;       HGA2      CG324      CG311      OG311
   52    18    19    53	 9 ;       HGA2      CG324      CG311       HGA1
   18    19    20    21	 9 ;      CG324      CG311      CG311      CG321
   18    19    20    30	 9 ;      CG324      CG311      CG311      NG2S1
   18    19    20    54	 9 ;      CG324      CG311      CG311       HGA1
   35    19    20    21	 9 ;      OG311      CG311      CG311      CG321
   35    19    20    30	 9 ;      OG311      CG311      CG311      NG2S1
   35    19    20    54	 9 ;      OG311      CG311      CG311       HGA1
   53    19    20    21	 9 ;       HGA1      CG311      CG311      CG321
   53    19    20    30	 9 ;       HGA1      CG311      CG311      NG2S1
   53    19    20    54	 9 ;       HGA1      CG311      CG311       HGA1
   20    19    35    36	 9 ;      CG311      CG311      OG311       HGP1
   18    19    35    36	 9 ;      CG324      CG311      OG311       HGP1
   53    19    35    36	 9 ;       HGA1      CG311      OG311       HGP1
   30    20    21    22	 9 ;      NG2S1      CG311      CG321     CG2R61
   30    20    21    55	 9 ;      NG2S1      CG311      CG321       HGA2
   30    20    21    56	 9 ;      NG2S1      CG311      CG321       HGA2
   19    20    21    22	 9 ;      CG311      CG311      CG321     CG2R61
   19    20    21    55	 9 ;      CG311      CG311      CG321       HGA2
   19    20    21    56	 9 ;      CG311      CG311      CG321       HGA2
   54    20    21    22	 9 ;       HGA1      CG311      CG321     CG2R61
   54    20    21    55	 9 ;       HGA1      CG311      CG321       HGA2
   54    20    21    56	 9 ;       HGA1      CG311      CG321       HGA2
   21    20    30    34	 9 ;      CG321      CG311      NG2S1       HGP1
   21    20    30    31	 9 ;      CG321      CG311      NG2S1      CG2O1
   19    20    30    34	 9 ;      CG311      CG311      NG2S1       HGP1
   19    20    30    31	 9 ;      CG311      CG311      NG2S1      CG2O1
   54    20    30    34	 9 ;       HGA1      CG311      NG2S1       HGP1
   54    20    30    31	 9 ;       HGA1      CG311      NG2S1      CG2O1
   20    21    22    28	 9 ;      CG311      CG321     CG2R61     CG2R61
   20    21    22    23	 9 ;      CG311      CG321     CG2R61     CG2R61
   55    21    22    28	 9 ;       HGA2      CG321     CG2R61     CG2R61
   55    21    22    23	 9 ;       HGA2      CG321     CG2R61     CG2R61
   56    21    22    28	 9 ;       HGA2      CG321     CG2R61     CG2R61
   56    21    22    23	 9 ;       HGA2      CG321     CG2R61     CG2R61
   23    22    28    27	 9 ;     CG2R61     CG2R61     CG2R61     CG2R66
   23    22    28    59	 9 ;     CG2R61     CG2R61     CG2R61      HGR62
   21    22    28    27	 9 ;      CG321     CG2R61     CG2R61     CG2R66
   21    22    28    59	 9 ;      CG321     CG2R61     CG2R61      HGR62
   28    22    23    24	 9 ;     CG2R61     CG2R61     CG2R61     CG2R66
   28    22    23    57	 9 ;     CG2R61     CG2R61     CG2R61      HGR62
   21    22    23    24	 9 ;      CG321     CG2R61     CG2R61     CG2R66
   21    22    23    57	 9 ;      CG321     CG2R61     CG2R61      HGR62
   22    23    24    26	 9 ;     CG2R61     CG2R61     CG2R66     CG2R61
   22    23    24    25	 9 ;     CG2R61     CG2R61     CG2R66       FGR1
   57    23    24    26	 9 ;      HGR62     CG2R61     CG2R66     CG2R61
   57    23    24    25	 9 ;      HGR62     CG2R61     CG2R66       FGR1
   25    24    26    27	 9 ;       FGR1     CG2R66     CG2R61     CG2R66
   25    24    26    58	 9 ;       FGR1     CG2R66     CG2R61      HGR62
   23    24    26    27	 9 ;     CG2R61     CG2R66     CG2R61     CG2R66
   23    24    26    58	 9 ;     CG2R61     CG2R66     CG2R61      HGR62
   24    26    27    29	 9 ;     CG2R66     CG2R61     CG2R66       FGR1
   24    26    27    28	 9 ;     CG2R66     CG2R61     CG2R66     CG2R61
   58    26    27    29	 9 ;      HGR62     CG2R61     CG2R66       FGR1
   58    26    27    28	 9 ;      HGR62     CG2R61     CG2R66     CG2R61
   29    27    28    22	 9 ;       FGR1     CG2R66     CG2R61     CG2R61
   29    27    28    59	 9 ;       FGR1     CG2R66     CG2R61      HGR62
   26    27    28    22	 9 ;     CG2R61     CG2R66     CG2R61     CG2R61
   26    27    28    59	 9 ;     CG2R61     CG2R66     CG2R61      HGR62
   34    30    31    32	 9 ;       HGP1      NG2S1      CG2O1      OG2D1
   34    30    31    33	 9 ;       HGP1      NG2S1      CG2O1      CG331
   20    30    31    32	 9 ;      CG311      NG2S1      CG2O1      OG2D1
   20    30    31    33	 9 ;      CG311      NG2S1      CG2O1      CG331
   32    31    33    60	 9 ;      OG2D1      CG2O1      CG331       HGA3
   32    31    33    61	 9 ;      OG2D1      CG2O1      CG331       HGA3
   32    31    33    62	 9 ;      OG2D1      CG2O1      CG331       HGA3
   30    31    33    60	 9 ;      NG2S1      CG2O1      CG331       HGA3
   30    31    33    61	 9 ;      NG2S1      CG2O1      CG331       HGA3
   30    31    33    62	 9 ;      NG2S1      CG2O1      CG331       HGA3

[ dihedrals ]
;	ai	  aj	ak	  al funct			  c0			c1			  c2			c3
   31    33    30    32	 2

