GROtesk MACabre and Sinister
   67
    1LIG     C1    1  -1.741   0.799  -1.605
    1LIG     C2    2  -1.811   0.661  -1.616
    1LIG     N1    3  -1.765   0.582  -1.494
    1LIG     H1    4  -1.664   0.601  -1.484
    1LIG     H2    5  -1.809   0.623  -1.410
    1LIG     C3    6  -1.791   0.435  -1.503
    1LIG     C4    7  -1.934   0.400  -1.557
    1LIG     C5    8  -1.946   0.298  -1.442
    1LIG     C6    9  -1.846   0.384  -1.364
    1LIG     C7   10  -1.663   0.363  -1.564
    1LIG     C8   11  -1.538   0.369  -1.498
    1LIG     C9   12  -1.427   0.291  -1.535
    1LIG    C10   13  -1.441   0.210  -1.648
    1LIG    C11   14  -1.559   0.208  -1.722
    1LIG    C12   15  -1.668   0.283  -1.680
    1LIG    C13   16  -1.299   0.286  -1.449
    1LIG    C14   17  -1.303   0.182  -1.334
    1LIG    C15   18  -1.181   0.247  -1.541
    1LIG    C16   19  -1.270   0.423  -1.384
    1LIG     O1   20  -1.737   0.832  -1.465
    1LIG     H3   21  -1.827   0.828  -1.429
    1LIG    C17   22  -1.602   0.810  -1.675
    1LIG     N2   23  -1.595   0.932  -1.755
    1LIG    C18   24  -1.541   0.934  -1.882
    1LIG     O2   25  -1.519   0.831  -1.944
    1LIG    C19   26  -1.520   1.072  -1.937
    1LIG     H4   27  -1.602   1.022  -1.707
    1LIG    C20   28  -1.486   0.812  -1.571
    1LIG    C21   29  -1.365   0.728  -1.611
    1LIG    C22   30  -1.238   0.756  -1.559
    1LIG    C23   31  -1.127   0.681  -1.601
    1LIG     F1   32  -1.006   0.711  -1.551
    1LIG    C24   33  -1.140   0.578  -1.692
    1LIG    C25   34  -1.266   0.548  -1.741
    1LIG    C26   35  -1.378   0.621  -1.701
    1LIG     F2   36  -1.281   0.448  -1.829
    1LIG     HC   37  -1.806   0.872  -1.653
    1LIG    HC2   38  -1.919   0.674  -1.615
    1LIG    HC3   39  -1.780   0.610  -1.708
    1LIG    HC4   40  -1.935   0.356  -1.656
    1LIG    HC5   41  -2.005   0.482  -1.547
    1LIG    HC6   42  -2.046   0.292  -1.397
    1LIG    HC7   43  -1.906   0.200  -1.468
    1LIG    HC8   44  -1.774   0.328  -1.304
    1LIG    HC9   45  -1.895   0.463  -1.306
    1LIG    HC1   46  -1.527   0.437  -1.415
    1LIG   HC10   47  -1.358   0.147  -1.679
    1LIG   HC11   48  -1.566   0.148  -1.811
    1LIG   HC12   49  -1.760   0.281  -1.738
    1LIG   HC13   50  -1.324   0.083  -1.376
    1LIG   HC14   51  -1.207   0.181  -1.283
    1LIG   HC15   52  -1.382   0.209  -1.264
    1LIG   HC16   53  -1.087   0.266  -1.490
    1LIG   HC17   54  -1.189   0.141  -1.567
    1LIG   HC18   55  -1.185   0.307  -1.632
    1LIG   HC19   56  -1.266   0.500  -1.461
    1LIG   HC20   57  -1.175   0.419  -1.332
    1LIG   HC21   58  -1.349   0.447  -1.313
    1LIG   HC22   59  -1.589   0.724  -1.740
    1LIG   HC23   60  -1.476   1.065  -2.037
    1LIG   HC24   61  -1.453   1.128  -1.872
    1LIG   HC25   62  -1.616   1.124  -1.943
    1LIG   HC26   63  -1.453   0.915  -1.558
    1LIG   HC27   64  -1.523   0.775  -1.475
    1LIG   HC28   65  -1.225   0.836  -1.487
    1LIG   HC29   66  -1.053   0.522  -1.725
    1LIG   HC30   67  -1.476   0.595  -1.739
   0.00000   0.00000   0.00000
