GROningen Mixture of Alchemy and Childrens' Stories
   80
    1LIG     C1    1  -1.181   0.390  -1.572
    1LIG     C2    2  -1.081   0.288  -1.630
    1LIG     C3    3  -1.047   0.171  -1.540
    1LIG     C4    4  -1.116   0.049  -1.543
    1LIG     C5    5  -1.078  -0.059  -1.464
    1LIG     C6    6  -0.967  -0.047  -1.380
    1LIG     C7    7  -0.897   0.072  -1.376
    1LIG     C8    8  -0.936   0.180  -1.455
    1LIG     N1    9  -1.314   0.330  -1.557
    1LIG     C9   10  -1.425   0.386  -1.618
    1LIG     O1   11  -1.417   0.484  -1.690
    1LIG     H1   12  -1.326   0.250  -1.495
    1LIG    C10   13  -1.558   0.331  -1.579
    1LIG    C11   14  -1.607   0.335  -1.447
    1LIG    C12   15  -1.739   0.296  -1.419
    1LIG    C13   16  -1.819   0.251  -1.524
    1LIG    C14   17  -1.770   0.242  -1.654
    1LIG    C15   18  -1.640   0.282  -1.682
    1LIG     N2   19  -1.789   0.312  -1.288
    1LIG     H2   20  -1.730   0.364  -1.224
    1LIG    C16   21  -1.914   0.278  -1.233
    1LIG    C17   22  -2.001   0.380  -1.192
    1LIG    C18   23  -2.125   0.350  -1.135
    1LIG    C19   24  -2.164   0.218  -1.117
    1LIG    C20   25  -2.078   0.115  -1.156
    1LIG    C21   26  -1.954   0.145  -1.212
    1LIG    C22   27  -1.137   0.458  -1.439
    1LIG     O2   28  -1.207   0.415  -1.321
    1LIG     H3   29  -1.170   0.331  -1.288
    1LIG    C23   30  -1.144   0.611  -1.439
    1LIG     N3   31  -1.284   0.656  -1.473
    1LIG     H4   32  -1.335   0.586  -1.528
    1LIG     H5   33  -1.337   0.661  -1.384
    1LIG    C24   34  -1.303   0.791  -1.541
    1LIG    C25   35  -1.226   0.794  -1.672
    1LIG    C26   36  -1.454   0.818  -1.563
    1LIG     O3   37  -1.490   0.926  -1.609
    1LIG     N4   38  -1.538   0.715  -1.530
    1LIG     H6   39  -1.500   0.624  -1.507
    1LIG    C27   40  -1.684   0.719  -1.548
    1LIG    C28   41  -1.752   0.657  -1.425
    1LIG    C29   42  -1.903   0.647  -1.440
    1LIG    C30   43  -1.942   0.573  -1.568
    1LIG    C31   44  -1.877   0.637  -1.690
    1LIG    C32   45  -1.725   0.646  -1.676
    1LIG     HC   46  -1.191   0.470  -1.646
    1LIG    HC2   47  -1.124   0.249  -1.722
    1LIG    HC3   48  -0.989   0.341  -1.655
    1LIG    HC1   49  -1.202   0.038  -1.607
    1LIG    HC4   50  -1.133  -0.152  -1.468
    1LIG    HC5   51  -0.937  -0.131  -1.319
    1LIG    HC6   52  -0.811   0.082  -1.311
    1LIG    HC7   53  -0.880   0.272  -1.451
    1LIG    HC8   54  -1.543   0.368  -1.367
    1LIG    HC9   55  -1.922   0.222  -1.504
    1LIG   HC10   56  -1.833   0.204  -1.734
    1LIG   HC11   57  -1.601   0.275  -1.782
    1LIG   HC12   58  -1.972   0.483  -1.205
    1LIG   HC13   59  -2.191   0.430  -1.104
    1LIG   HC14   60  -2.260   0.195  -1.074
    1LIG   HC15   61  -2.108   0.012  -1.142
    1LIG   HC16   62  -1.887   0.065  -1.240
    1LIG   HC17   63  -1.032   0.432  -1.424
    1LIG   HC18   64  -1.117   0.649  -1.340
    1LIG   HC19   65  -1.074   0.651  -1.513
    1LIG   HC20   66  -1.264   0.869  -1.475
    1LIG   HC21   67  -1.273   0.866  -1.740
    1LIG   HC22   68  -1.123   0.824  -1.653
    1LIG   HC23   69  -1.227   0.695  -1.717
    1LIG   HC24   70  -1.714   0.823  -1.556
    1LIG   HC25   71  -1.730   0.719  -1.338
    1LIG   HC26   72  -1.711   0.557  -1.408
    1LIG   HC27   73  -1.944   0.593  -1.355
    1LIG   HC28   74  -1.946   0.747  -1.443
    1LIG   HC29   75  -2.050   0.576  -1.579
    1LIG   HC30   76  -1.909   0.469  -1.560
    1LIG   HC31   77  -1.901   0.577  -1.778
    1LIG   HC32   78  -1.918   0.738  -1.703
    1LIG   HC33   79  -1.685   0.700  -1.762
    1LIG   HC34   80  -1.684   0.545  -1.675
   0.00000   0.00000   0.00000
