; Created by cgenff_charmm2gmx.py

[ moleculetype ]
; Name			   nrexcl
LIG				 3

[ atoms ]
;	 nr		  type	resnr residue  atom   cgnr	   charge		mass  typeB    chargeB		massB
; residue	 1 LIG rtp LIG q	qsum
     1      CG311      1    LIG     C1      1      0.010     12.011   ;
     2      CG321      1    LIG     C2      2     -0.111     12.011   ;
     3     CG2R61      1    LIG     C3      3     -0.019     12.011   ;
     4     CG2R61      1    LIG     C4      4     -0.123     12.011   ;
     5     CG2R61      1    LIG     C5      5     -0.112     12.011   ;
     6     CG2R61      1    LIG     C6      6     -0.116     12.011   ;
     7     CG2R61      1    LIG     C7      7     -0.112     12.011   ;
     8     CG2R61      1    LIG     C8      8     -0.123     12.011   ;
     9      NG2S1      1    LIG     N1      9     -0.226     14.007   ;
    10      CG2O1      1    LIG     C9     10      0.302     12.011   ;
    11      OG2D1      1    LIG     O1     11     -0.463     15.999   ;
    12       HGP1      1    LIG     H1     12      0.262      1.008   ;
    13     CG2R61      1    LIG    C10     13     -0.104     12.011   ;
    14     CG2R61      1    LIG    C11     14     -0.071     12.011   ;
    15     CG2R61      1    LIG    C12     15      0.050     12.011   ;
    16     CG2R61      1    LIG    C13     16     -0.127     12.011   ;
    17     CG2R61      1    LIG    C14     17     -0.111     12.011   ;
    18     CG2R61      1    LIG    C15     18     -0.060     12.011   ;
    19      NG311      1    LIG     N2     19     -0.440     14.007   ;
    20     HGPAM1      1    LIG     H2     20      0.376      1.008   ;
    21     CG2R61      1    LIG    C16     21      0.048     12.011   ;
    22     CG2R61      1    LIG    C17     22     -0.127     12.011   ;
    23     CG2R61      1    LIG    C18     23     -0.113     12.011   ;
    24     CG2R61      1    LIG    C19     24     -0.116     12.011   ;
    25     CG2R61      1    LIG    C20     25     -0.113     12.011   ;
    26     CG2R61      1    LIG    C21     26     -0.127     12.011   ;
    27      CG311      1    LIG    C22     27      0.089     12.011   ;
    28      OG311      1    LIG     O2     28     -0.625     15.999   ;
    29       HGP1      1    LIG     H3     29      0.415      1.008   ;
    30      CG324      1    LIG    C23     30      0.198     12.011   ;
    31      NG3P2      1    LIG     N3     31     -0.406     14.007   ;
    32       HGP2      1    LIG     H4     32      0.329      1.008   ;
    33       HGP2      1    LIG     H5     33      0.329      1.008   ;
    34      CG314      1    LIG    C24     34      0.189     12.011   ;
    35      CG331      1    LIG    C25     35     -0.216     12.011   ;
    36      CG2O1      1    LIG    C26     36      0.385     12.011   ;
    37      OG2D1      1    LIG     O3     37     -0.443     15.999   ;
    38      NG2S1      1    LIG     N4     38     -0.285     14.007   ;
    39       HGP1      1    LIG     H6     39      0.319      1.008   ;
    40      CG311      1    LIG    C27     40     -0.146     12.011   ;
    41      CG321      1    LIG    C28     41     -0.115     12.011   ;
    42      CG321      1    LIG    C29     42     -0.198     12.011   ;
    43      CG321      1    LIG    C30     43     -0.154     12.011   ;
    44      CG321      1    LIG    C31     44     -0.198     12.011   ;
    45      CG321      1    LIG    C32     45     -0.115     12.011   ;
    46       HGA1      1    LIG     HC     46      0.090      1.008   ;
    47       HGA2      1    LIG    HC2     47      0.090      1.008   ;
    48       HGA2      1    LIG    HC3     48      0.090      1.008   ;
    49      HGR61      1    LIG    HC1     49      0.116      1.008   ;
    50      HGR61      1    LIG    HC4     50      0.116      1.008   ;
    51      HGR61      1    LIG    HC5     51      0.116      1.008   ;
    52      HGR61      1    LIG    HC6     52      0.116      1.008   ;
    53      HGR61      1    LIG    HC7     53      0.116      1.008   ;
    54      HGR61      1    LIG    HC8     54      0.116      1.008   ;
    55      HGR61      1    LIG    HC9     55      0.116      1.008   ;
    56      HGR61      1    LIG   HC10     56      0.116      1.008   ;
    57      HGR61      1    LIG   HC11     57      0.116      1.008   ;
    58      HGR61      1    LIG   HC12     58      0.116      1.008   ;
    59      HGR61      1    LIG   HC13     59      0.116      1.008   ;
    60      HGR61      1    LIG   HC14     60      0.116      1.008   ;
    61      HGR61      1    LIG   HC15     61      0.116      1.008   ;
    62      HGR61      1    LIG   HC16     62      0.116      1.008   ;
    63       HGA1      1    LIG   HC17     63      0.090      1.008   ;
    64       HGA2      1    LIG   HC18     64      0.090      1.008   ;
    65       HGA2      1    LIG   HC19     65      0.090      1.008   ;
    66       HGA1      1    LIG   HC20     66      0.090      1.008   ;
    67       HGA3      1    LIG   HC21     67      0.090      1.008   ;
    68       HGA3      1    LIG   HC22     68      0.090      1.008   ;
    69       HGA3      1    LIG   HC23     69      0.090      1.008   ;
    70       HGA1      1    LIG   HC24     70      0.090      1.008   ;
    71       HGA2      1    LIG   HC25     71      0.090      1.008   ;
    72       HGA2      1    LIG   HC26     72      0.090      1.008   ;
    73       HGA2      1    LIG   HC27     73      0.090      1.008   ;
    74       HGA2      1    LIG   HC28     74      0.090      1.008   ;
    75       HGA2      1    LIG   HC29     75      0.090      1.008   ;
    76       HGA2      1    LIG   HC30     76      0.090      1.008   ;
    77       HGA2      1    LIG   HC31     77      0.090      1.008   ;
    78       HGA2      1    LIG   HC32     78      0.090      1.008   ;
    79       HGA2      1    LIG   HC33     79      0.090      1.008   ;
    80       HGA2      1    LIG   HC34     80      0.090      1.008   ;

[ bonds ]
;	ai	  aj funct			  c0			c1			  c2			c3
    1     2	 1 ;       CG311      CG321
    1    27	 1 ;       CG311      CG311
    1     9	 1 ;       CG311      NG2S1
    1    46	 1 ;       CG311       HGA1
    2     3	 1 ;       CG321     CG2R61
    2    47	 1 ;       CG321       HGA2
    2    48	 1 ;       CG321       HGA2
    3     8	 1 ;      CG2R61     CG2R61
    3     4	 1 ;      CG2R61     CG2R61
    4     5	 1 ;      CG2R61     CG2R61
    4    49	 1 ;      CG2R61      HGR61
    5     6	 1 ;      CG2R61     CG2R61
    5    50	 1 ;      CG2R61      HGR61
    6     7	 1 ;      CG2R61     CG2R61
    6    51	 1 ;      CG2R61      HGR61
    7     8	 1 ;      CG2R61     CG2R61
    7    52	 1 ;      CG2R61      HGR61
    8    53	 1 ;      CG2R61      HGR61
    9    10	 1 ;       NG2S1      CG2O1
    9    12	 1 ;       NG2S1       HGP1
   10    11	 1 ;       CG2O1      OG2D1
   10    13	 1 ;       CG2O1     CG2R61
   13    18	 1 ;      CG2R61     CG2R61
   13    14	 1 ;      CG2R61     CG2R61
   14    15	 1 ;      CG2R61     CG2R61
   14    54	 1 ;      CG2R61      HGR61
   15    16	 1 ;      CG2R61     CG2R61
   15    19	 1 ;      CG2R61      NG311
   16    17	 1 ;      CG2R61     CG2R61
   16    55	 1 ;      CG2R61      HGR61
   17    18	 1 ;      CG2R61     CG2R61
   17    56	 1 ;      CG2R61      HGR61
   18    57	 1 ;      CG2R61      HGR61
   19    20	 1 ;       NG311     HGPAM1
   19    21	 1 ;       NG311     CG2R61
   21    22	 1 ;      CG2R61     CG2R61
   21    26	 1 ;      CG2R61     CG2R61
   22    23	 1 ;      CG2R61     CG2R61
   22    58	 1 ;      CG2R61      HGR61
   23    24	 1 ;      CG2R61     CG2R61
   23    59	 1 ;      CG2R61      HGR61
   24    25	 1 ;      CG2R61     CG2R61
   24    60	 1 ;      CG2R61      HGR61
   25    26	 1 ;      CG2R61     CG2R61
   25    61	 1 ;      CG2R61      HGR61
   26    62	 1 ;      CG2R61      HGR61
   27    30	 1 ;       CG311      CG324
   27    28	 1 ;       CG311      OG311
   27    63	 1 ;       CG311       HGA1
   28    29	 1 ;       OG311       HGP1
   30    31	 1 ;       CG324      NG3P2
   30    64	 1 ;       CG324       HGA2
   30    65	 1 ;       CG324       HGA2
   31    34	 1 ;       NG3P2      CG314
   31    32	 1 ;       NG3P2       HGP2
   31    33	 1 ;       NG3P2       HGP2
   34    35	 1 ;       CG314      CG331
   34    36	 1 ;       CG314      CG2O1
   34    66	 1 ;       CG314       HGA1
   35    67	 1 ;       CG331       HGA3
   35    68	 1 ;       CG331       HGA3
   35    69	 1 ;       CG331       HGA3
   36    37	 1 ;       CG2O1      OG2D1
   36    38	 1 ;       CG2O1      NG2S1
   38    39	 1 ;       NG2S1       HGP1
   38    40	 1 ;       NG2S1      CG311
   40    45	 1 ;       CG311      CG321
   40    41	 1 ;       CG311      CG321
   40    70	 1 ;       CG311       HGA1
   41    42	 1 ;       CG321      CG321
   41    71	 1 ;       CG321       HGA2
   41    72	 1 ;       CG321       HGA2
   42    43	 1 ;       CG321      CG321
   42    73	 1 ;       CG321       HGA2
   42    74	 1 ;       CG321       HGA2
   43    44	 1 ;       CG321      CG321
   43    75	 1 ;       CG321       HGA2
   43    76	 1 ;       CG321       HGA2
   44    45	 1 ;       CG321      CG321
   44    77	 1 ;       CG321       HGA2
   44    78	 1 ;       CG321       HGA2
   45    79	 1 ;       CG321       HGA2
   45    80	 1 ;       CG321       HGA2

[ pairs ]
;	ai	  aj funct			  c0			c1			  c2			c3
    1     8	 1
    1     4	 1
    1    11	 1
    1    13	 1
    1    31	 1
    1    64	 1
    1    65	 1
    1    29	 1
    2    30	 1
    2    28	 1
    2    63	 1
    2    10	 1
    2    12	 1
    2     7	 1
    2    53	 1
    2     5	 1
    2    49	 1
    3    27	 1
    3     9	 1
    3    46	 1
    3     6	 1
    3    50	 1
    3    52	 1
    4    47	 1
    4    48	 1
    4     7	 1
    4    53	 1
    4    51	 1
    5     8	 1
    5    52	 1
    6    49	 1
    6    53	 1
    7    50	 1
    8    47	 1
    8    48	 1
    8    49	 1
    8    51	 1
    9    47	 1
    9    48	 1
    9    30	 1
    9    28	 1
    9    63	 1
    9    18	 1
    9    14	 1
   10    27	 1
   10    46	 1
   10    17	 1
   10    57	 1
   10    15	 1
   10    54	 1
   11    12	 1
   11    18	 1
   11    14	 1
   12    27	 1
   12    46	 1
   12    13	 1
   13    16	 1
   13    19	 1
   13    56	 1
   14    17	 1
   14    57	 1
   14    55	 1
   14    20	 1
   14    21	 1
   15    18	 1
   15    56	 1
   15    22	 1
   15    26	 1
   16    54	 1
   16    20	 1
   16    21	 1
   16    57	 1
   17    19	 1
   18    54	 1
   18    55	 1
   19    54	 1
   19    55	 1
   19    23	 1
   19    58	 1
   19    25	 1
   19    62	 1
   20    22	 1
   20    26	 1
   21    24	 1
   21    59	 1
   21    61	 1
   22    25	 1
   22    62	 1
   22    60	 1
   23    26	 1
   23    61	 1
   24    58	 1
   24    62	 1
   25    59	 1
   26    58	 1
   26    60	 1
   27    47	 1
   27    48	 1
   27    34	 1
   27    32	 1
   27    33	 1
   28    46	 1
   28    31	 1
   28    64	 1
   28    65	 1
   29    30	 1
   29    63	 1
   30    46	 1
   30    35	 1
   30    36	 1
   30    66	 1
   31    63	 1
   31    67	 1
   31    68	 1
   31    69	 1
   31    37	 1
   31    38	 1
   32    64	 1
   32    65	 1
   32    35	 1
   32    36	 1
   32    66	 1
   33    64	 1
   33    65	 1
   33    35	 1
   33    36	 1
   33    66	 1
   34    64	 1
   34    65	 1
   34    39	 1
   34    40	 1
   35    37	 1
   35    38	 1
   36    67	 1
   36    68	 1
   36    69	 1
   36    45	 1
   36    41	 1
   36    70	 1
   37    66	 1
   37    39	 1
   37    40	 1
   38    66	 1
   38    44	 1
   38    79	 1
   38    80	 1
   38    42	 1
   38    71	 1
   38    72	 1
   39    45	 1
   39    41	 1
   39    70	 1
   40    43	 1
   40    73	 1
   40    74	 1
   40    77	 1
   40    78	 1
   41    44	 1
   41    79	 1
   41    80	 1
   41    75	 1
   41    76	 1
   42    45	 1
   42    70	 1
   42    77	 1
   42    78	 1
   43    71	 1
   43    72	 1
   43    79	 1
   43    80	 1
   44    70	 1
   44    73	 1
   44    74	 1
   45    71	 1
   45    72	 1
   45    75	 1
   45    76	 1
   46    47	 1
   46    48	 1
   46    63	 1
   49    50	 1
   50    51	 1
   51    52	 1
   52    53	 1
   55    56	 1
   56    57	 1
   58    59	 1
   59    60	 1
   60    61	 1
   61    62	 1
   63    64	 1
   63    65	 1
   66    67	 1
   66    68	 1
   66    69	 1
   70    79	 1
   70    80	 1
   70    71	 1
   70    72	 1
   71    73	 1
   71    74	 1
   72    73	 1
   72    74	 1
   73    75	 1
   73    76	 1
   74    75	 1
   74    76	 1
   75    77	 1
   75    78	 1
   76    77	 1
   76    78	 1
   77    79	 1
   77    80	 1
   78    79	 1
   78    80	 1

[ angles ]
;	ai	  aj	ak funct			c0			  c1			c2			  c3
    2     1    27	5 ;      CG321      CG311      CG311
    2     1     9	5 ;      CG321      CG311      NG2S1
    2     1    46	5 ;      CG321      CG311       HGA1
   27     1     9	5 ;      CG311      CG311      NG2S1
   27     1    46	5 ;      CG311      CG311       HGA1
    9     1    46	5 ;      NG2S1      CG311       HGA1
    1     2     3	5 ;      CG311      CG321     CG2R61
    1     2    47	5 ;      CG311      CG321       HGA2
    1     2    48	5 ;      CG311      CG321       HGA2
    3     2    47	5 ;     CG2R61      CG321       HGA2
    3     2    48	5 ;     CG2R61      CG321       HGA2
   47     2    48	5 ;       HGA2      CG321       HGA2
    2     3     8	5 ;      CG321     CG2R61     CG2R61
    2     3     4	5 ;      CG321     CG2R61     CG2R61
    8     3     4	5 ;     CG2R61     CG2R61     CG2R61
    3     4     5	5 ;     CG2R61     CG2R61     CG2R61
    3     4    49	5 ;     CG2R61     CG2R61      HGR61
    5     4    49	5 ;     CG2R61     CG2R61      HGR61
    4     5     6	5 ;     CG2R61     CG2R61     CG2R61
    4     5    50	5 ;     CG2R61     CG2R61      HGR61
    6     5    50	5 ;     CG2R61     CG2R61      HGR61
    7     6     5	5 ;     CG2R61     CG2R61     CG2R61
    7     6    51	5 ;     CG2R61     CG2R61      HGR61
    5     6    51	5 ;     CG2R61     CG2R61      HGR61
    8     7     6	5 ;     CG2R61     CG2R61     CG2R61
    8     7    52	5 ;     CG2R61     CG2R61      HGR61
    6     7    52	5 ;     CG2R61     CG2R61      HGR61
    3     8     7	5 ;     CG2R61     CG2R61     CG2R61
    3     8    53	5 ;     CG2R61     CG2R61      HGR61
    7     8    53	5 ;     CG2R61     CG2R61      HGR61
    1     9    10	5 ;      CG311      NG2S1      CG2O1
    1     9    12	5 ;      CG311      NG2S1       HGP1
   10     9    12	5 ;      CG2O1      NG2S1       HGP1
   11    10     9	5 ;      OG2D1      CG2O1      NG2S1
   11    10    13	5 ;      OG2D1      CG2O1     CG2R61
    9    10    13	5 ;      NG2S1      CG2O1     CG2R61
   10    13    18	5 ;      CG2O1     CG2R61     CG2R61
   10    13    14	5 ;      CG2O1     CG2R61     CG2R61
   18    13    14	5 ;     CG2R61     CG2R61     CG2R61
   13    14    15	5 ;     CG2R61     CG2R61     CG2R61
   13    14    54	5 ;     CG2R61     CG2R61      HGR61
   15    14    54	5 ;     CG2R61     CG2R61      HGR61
   14    15    16	5 ;     CG2R61     CG2R61     CG2R61
   14    15    19	5 ;     CG2R61     CG2R61      NG311
   16    15    19	5 ;     CG2R61     CG2R61      NG311
   17    16    15	5 ;     CG2R61     CG2R61     CG2R61
   17    16    55	5 ;     CG2R61     CG2R61      HGR61
   15    16    55	5 ;     CG2R61     CG2R61      HGR61
   18    17    16	5 ;     CG2R61     CG2R61     CG2R61
   18    17    56	5 ;     CG2R61     CG2R61      HGR61
   16    17    56	5 ;     CG2R61     CG2R61      HGR61
   13    18    17	5 ;     CG2R61     CG2R61     CG2R61
   13    18    57	5 ;     CG2R61     CG2R61      HGR61
   17    18    57	5 ;     CG2R61     CG2R61      HGR61
   15    19    20	5 ;     CG2R61      NG311     HGPAM1
   15    19    21	5 ;     CG2R61      NG311     CG2R61
   20    19    21	5 ;     HGPAM1      NG311     CG2R61
   19    21    22	5 ;      NG311     CG2R61     CG2R61
   19    21    26	5 ;      NG311     CG2R61     CG2R61
   22    21    26	5 ;     CG2R61     CG2R61     CG2R61
   21    22    23	5 ;     CG2R61     CG2R61     CG2R61
   21    22    58	5 ;     CG2R61     CG2R61      HGR61
   23    22    58	5 ;     CG2R61     CG2R61      HGR61
   22    23    24	5 ;     CG2R61     CG2R61     CG2R61
   22    23    59	5 ;     CG2R61     CG2R61      HGR61
   24    23    59	5 ;     CG2R61     CG2R61      HGR61
   23    24    25	5 ;     CG2R61     CG2R61     CG2R61
   23    24    60	5 ;     CG2R61     CG2R61      HGR61
   25    24    60	5 ;     CG2R61     CG2R61      HGR61
   26    25    24	5 ;     CG2R61     CG2R61     CG2R61
   26    25    61	5 ;     CG2R61     CG2R61      HGR61
   24    25    61	5 ;     CG2R61     CG2R61      HGR61
   21    26    25	5 ;     CG2R61     CG2R61     CG2R61
   21    26    62	5 ;     CG2R61     CG2R61      HGR61
   25    26    62	5 ;     CG2R61     CG2R61      HGR61
    1    27    30	5 ;      CG311      CG311      CG324
    1    27    28	5 ;      CG311      CG311      OG311
    1    27    63	5 ;      CG311      CG311       HGA1
   30    27    28	5 ;      CG324      CG311      OG311
   30    27    63	5 ;      CG324      CG311       HGA1
   28    27    63	5 ;      OG311      CG311       HGA1
   27    28    29	5 ;      CG311      OG311       HGP1
   27    30    31	5 ;      CG311      CG324      NG3P2
   27    30    64	5 ;      CG311      CG324       HGA2
   27    30    65	5 ;      CG311      CG324       HGA2
   31    30    64	5 ;      NG3P2      CG324       HGA2
   31    30    65	5 ;      NG3P2      CG324       HGA2
   64    30    65	5 ;       HGA2      CG324       HGA2
   34    31    30	5 ;      CG314      NG3P2      CG324
   34    31    32	5 ;      CG314      NG3P2       HGP2
   34    31    33	5 ;      CG314      NG3P2       HGP2
   30    31    32	5 ;      CG324      NG3P2       HGP2
   30    31    33	5 ;      CG324      NG3P2       HGP2
   32    31    33	5 ;       HGP2      NG3P2       HGP2
   35    34    36	5 ;      CG331      CG314      CG2O1
   35    34    31	5 ;      CG331      CG314      NG3P2
   35    34    66	5 ;      CG331      CG314       HGA1
   36    34    31	5 ;      CG2O1      CG314      NG3P2
   36    34    66	5 ;      CG2O1      CG314       HGA1
   31    34    66	5 ;      NG3P2      CG314       HGA1
   34    35    67	5 ;      CG314      CG331       HGA3
   34    35    68	5 ;      CG314      CG331       HGA3
   34    35    69	5 ;      CG314      CG331       HGA3
   67    35    68	5 ;       HGA3      CG331       HGA3
   67    35    69	5 ;       HGA3      CG331       HGA3
   68    35    69	5 ;       HGA3      CG331       HGA3
   34    36    37	5 ;      CG314      CG2O1      OG2D1
   34    36    38	5 ;      CG314      CG2O1      NG2S1
   37    36    38	5 ;      OG2D1      CG2O1      NG2S1
   36    38    39	5 ;      CG2O1      NG2S1       HGP1
   36    38    40	5 ;      CG2O1      NG2S1      CG311
   39    38    40	5 ;       HGP1      NG2S1      CG311
   38    40    45	5 ;      NG2S1      CG311      CG321
   38    40    41	5 ;      NG2S1      CG311      CG321
   38    40    70	5 ;      NG2S1      CG311       HGA1
   45    40    41	5 ;      CG321      CG311      CG321
   45    40    70	5 ;      CG321      CG311       HGA1
   41    40    70	5 ;      CG321      CG311       HGA1
   40    41    42	5 ;      CG311      CG321      CG321
   40    41    71	5 ;      CG311      CG321       HGA2
   40    41    72	5 ;      CG311      CG321       HGA2
   42    41    71	5 ;      CG321      CG321       HGA2
   42    41    72	5 ;      CG321      CG321       HGA2
   71    41    72	5 ;       HGA2      CG321       HGA2
   41    42    43	5 ;      CG321      CG321      CG321
   41    42    73	5 ;      CG321      CG321       HGA2
   41    42    74	5 ;      CG321      CG321       HGA2
   43    42    73	5 ;      CG321      CG321       HGA2
   43    42    74	5 ;      CG321      CG321       HGA2
   73    42    74	5 ;       HGA2      CG321       HGA2
   44    43    42	5 ;      CG321      CG321      CG321
   44    43    75	5 ;      CG321      CG321       HGA2
   44    43    76	5 ;      CG321      CG321       HGA2
   42    43    75	5 ;      CG321      CG321       HGA2
   42    43    76	5 ;      CG321      CG321       HGA2
   75    43    76	5 ;       HGA2      CG321       HGA2
   45    44    43	5 ;      CG321      CG321      CG321
   45    44    77	5 ;      CG321      CG321       HGA2
   45    44    78	5 ;      CG321      CG321       HGA2
   43    44    77	5 ;      CG321      CG321       HGA2
   43    44    78	5 ;      CG321      CG321       HGA2
   77    44    78	5 ;       HGA2      CG321       HGA2
   40    45    44	5 ;      CG311      CG321      CG321
   40    45    79	5 ;      CG311      CG321       HGA2
   40    45    80	5 ;      CG311      CG321       HGA2
   44    45    79	5 ;      CG321      CG321       HGA2
   44    45    80	5 ;      CG321      CG321       HGA2
   79    45    80	5 ;       HGA2      CG321       HGA2

[ dihedrals ]
;	ai	  aj	ak	  al funct			  c0			c1			  c2			c3			  c4			c5
   27     1     2     3	 9 ;      CG311      CG311      CG321     CG2R61
   27     1     2    47	 9 ;      CG311      CG311      CG321       HGA2
   27     1     2    48	 9 ;      CG311      CG311      CG321       HGA2
    9     1     2     3	 9 ;      NG2S1      CG311      CG321     CG2R61
    9     1     2    47	 9 ;      NG2S1      CG311      CG321       HGA2
    9     1     2    48	 9 ;      NG2S1      CG311      CG321       HGA2
   46     1     2     3	 9 ;       HGA1      CG311      CG321     CG2R61
   46     1     2    47	 9 ;       HGA1      CG311      CG321       HGA2
   46     1     2    48	 9 ;       HGA1      CG311      CG321       HGA2
    2     1    27    30	 9 ;      CG321      CG311      CG311      CG324
    2     1    27    28	 9 ;      CG321      CG311      CG311      OG311
    2     1    27    63	 9 ;      CG321      CG311      CG311       HGA1
    9     1    27    30	 9 ;      NG2S1      CG311      CG311      CG324
    9     1    27    28	 9 ;      NG2S1      CG311      CG311      OG311
    9     1    27    63	 9 ;      NG2S1      CG311      CG311       HGA1
   46     1    27    30	 9 ;       HGA1      CG311      CG311      CG324
   46     1    27    28	 9 ;       HGA1      CG311      CG311      OG311
   46     1    27    63	 9 ;       HGA1      CG311      CG311       HGA1
    2     1     9    10	 9 ;      CG321      CG311      NG2S1      CG2O1
    2     1     9    12	 9 ;      CG321      CG311      NG2S1       HGP1
   27     1     9    10	 9 ;      CG311      CG311      NG2S1      CG2O1
   27     1     9    12	 9 ;      CG311      CG311      NG2S1       HGP1
   46     1     9    10	 9 ;       HGA1      CG311      NG2S1      CG2O1
   46     1     9    12	 9 ;       HGA1      CG311      NG2S1       HGP1
    1     2     3     8	 9 ;      CG311      CG321     CG2R61     CG2R61
    1     2     3     4	 9 ;      CG311      CG321     CG2R61     CG2R61
   47     2     3     8	 9 ;       HGA2      CG321     CG2R61     CG2R61
   47     2     3     4	 9 ;       HGA2      CG321     CG2R61     CG2R61
   48     2     3     8	 9 ;       HGA2      CG321     CG2R61     CG2R61
   48     2     3     4	 9 ;       HGA2      CG321     CG2R61     CG2R61
    2     3     8     7	 9 ;      CG321     CG2R61     CG2R61     CG2R61
    2     3     8    53	 9 ;      CG321     CG2R61     CG2R61      HGR61
    4     3     8     7	 9 ;     CG2R61     CG2R61     CG2R61     CG2R61
    4     3     8    53	 9 ;     CG2R61     CG2R61     CG2R61      HGR61
    2     3     4     5	 9 ;      CG321     CG2R61     CG2R61     CG2R61
    2     3     4    49	 9 ;      CG321     CG2R61     CG2R61      HGR61
    8     3     4     5	 9 ;     CG2R61     CG2R61     CG2R61     CG2R61
    8     3     4    49	 9 ;     CG2R61     CG2R61     CG2R61      HGR61
    3     4     5     6	 9 ;     CG2R61     CG2R61     CG2R61     CG2R61
    3     4     5    50	 9 ;     CG2R61     CG2R61     CG2R61      HGR61
   49     4     5     6	 9 ;      HGR61     CG2R61     CG2R61     CG2R61
   49     4     5    50	 9 ;      HGR61     CG2R61     CG2R61      HGR61
    4     5     6     7	 9 ;     CG2R61     CG2R61     CG2R61     CG2R61
    4     5     6    51	 9 ;     CG2R61     CG2R61     CG2R61      HGR61
   50     5     6     7	 9 ;      HGR61     CG2R61     CG2R61     CG2R61
   50     5     6    51	 9 ;      HGR61     CG2R61     CG2R61      HGR61
    5     6     7     8	 9 ;     CG2R61     CG2R61     CG2R61     CG2R61
    5     6     7    52	 9 ;     CG2R61     CG2R61     CG2R61      HGR61
   51     6     7     8	 9 ;      HGR61     CG2R61     CG2R61     CG2R61
   51     6     7    52	 9 ;      HGR61     CG2R61     CG2R61      HGR61
    6     7     8     3	 9 ;     CG2R61     CG2R61     CG2R61     CG2R61
    6     7     8    53	 9 ;     CG2R61     CG2R61     CG2R61      HGR61
   52     7     8     3	 9 ;      HGR61     CG2R61     CG2R61     CG2R61
   52     7     8    53	 9 ;      HGR61     CG2R61     CG2R61      HGR61
    1     9    10    11	 9 ;      CG311      NG2S1      CG2O1      OG2D1
    1     9    10    13	 9 ;      CG311      NG2S1      CG2O1     CG2R61
   12     9    10    11	 9 ;       HGP1      NG2S1      CG2O1      OG2D1
   12     9    10    13	 9 ;       HGP1      NG2S1      CG2O1     CG2R61
   11    10    13    18	 9 ;      OG2D1      CG2O1     CG2R61     CG2R61
   11    10    13    14	 9 ;      OG2D1      CG2O1     CG2R61     CG2R61
    9    10    13    18	 9 ;      NG2S1      CG2O1     CG2R61     CG2R61
    9    10    13    14	 9 ;      NG2S1      CG2O1     CG2R61     CG2R61
   10    13    18    17	 9 ;      CG2O1     CG2R61     CG2R61     CG2R61
   10    13    18    57	 9 ;      CG2O1     CG2R61     CG2R61      HGR61
   14    13    18    17	 9 ;     CG2R61     CG2R61     CG2R61     CG2R61
   14    13    18    57	 9 ;     CG2R61     CG2R61     CG2R61      HGR61
   10    13    14    15	 9 ;      CG2O1     CG2R61     CG2R61     CG2R61
   10    13    14    54	 9 ;      CG2O1     CG2R61     CG2R61      HGR61
   18    13    14    15	 9 ;     CG2R61     CG2R61     CG2R61     CG2R61
   18    13    14    54	 9 ;     CG2R61     CG2R61     CG2R61      HGR61
   13    14    15    16	 9 ;     CG2R61     CG2R61     CG2R61     CG2R61
   13    14    15    19	 9 ;     CG2R61     CG2R61     CG2R61      NG311
   54    14    15    16	 9 ;      HGR61     CG2R61     CG2R61     CG2R61
   54    14    15    19	 9 ;      HGR61     CG2R61     CG2R61      NG311
   14    15    16    17	 9 ;     CG2R61     CG2R61     CG2R61     CG2R61
   14    15    16    55	 9 ;     CG2R61     CG2R61     CG2R61      HGR61
   19    15    16    17	 9 ;      NG311     CG2R61     CG2R61     CG2R61
   19    15    16    55	 9 ;      NG311     CG2R61     CG2R61      HGR61
   14    15    19    20	 9 ;     CG2R61     CG2R61      NG311     HGPAM1
   14    15    19    21	 9 ;     CG2R61     CG2R61      NG311     CG2R61
   16    15    19    20	 9 ;     CG2R61     CG2R61      NG311     HGPAM1
   16    15    19    21	 9 ;     CG2R61     CG2R61      NG311     CG2R61
   15    16    17    18	 9 ;     CG2R61     CG2R61     CG2R61     CG2R61
   15    16    17    56	 9 ;     CG2R61     CG2R61     CG2R61      HGR61
   55    16    17    18	 9 ;      HGR61     CG2R61     CG2R61     CG2R61
   55    16    17    56	 9 ;      HGR61     CG2R61     CG2R61      HGR61
   16    17    18    13	 9 ;     CG2R61     CG2R61     CG2R61     CG2R61
   16    17    18    57	 9 ;     CG2R61     CG2R61     CG2R61      HGR61
   56    17    18    13	 9 ;      HGR61     CG2R61     CG2R61     CG2R61
   56    17    18    57	 9 ;      HGR61     CG2R61     CG2R61      HGR61
   15    19    21    22	 9 ;     CG2R61      NG311     CG2R61     CG2R61
   15    19    21    26	 9 ;     CG2R61      NG311     CG2R61     CG2R61
   20    19    21    22	 9 ;     HGPAM1      NG311     CG2R61     CG2R61
   20    19    21    26	 9 ;     HGPAM1      NG311     CG2R61     CG2R61
   19    21    22    23	 9 ;      NG311     CG2R61     CG2R61     CG2R61
   19    21    22    58	 9 ;      NG311     CG2R61     CG2R61      HGR61
   26    21    22    23	 9 ;     CG2R61     CG2R61     CG2R61     CG2R61
   26    21    22    58	 9 ;     CG2R61     CG2R61     CG2R61      HGR61
   19    21    26    25	 9 ;      NG311     CG2R61     CG2R61     CG2R61
   19    21    26    62	 9 ;      NG311     CG2R61     CG2R61      HGR61
   22    21    26    25	 9 ;     CG2R61     CG2R61     CG2R61     CG2R61
   22    21    26    62	 9 ;     CG2R61     CG2R61     CG2R61      HGR61
   21    22    23    24	 9 ;     CG2R61     CG2R61     CG2R61     CG2R61
   21    22    23    59	 9 ;     CG2R61     CG2R61     CG2R61      HGR61
   58    22    23    24	 9 ;      HGR61     CG2R61     CG2R61     CG2R61
   58    22    23    59	 9 ;      HGR61     CG2R61     CG2R61      HGR61
   22    23    24    25	 9 ;     CG2R61     CG2R61     CG2R61     CG2R61
   22    23    24    60	 9 ;     CG2R61     CG2R61     CG2R61      HGR61
   59    23    24    25	 9 ;      HGR61     CG2R61     CG2R61     CG2R61
   59    23    24    60	 9 ;      HGR61     CG2R61     CG2R61      HGR61
   23    24    25    26	 9 ;     CG2R61     CG2R61     CG2R61     CG2R61
   23    24    25    61	 9 ;     CG2R61     CG2R61     CG2R61      HGR61
   60    24    25    26	 9 ;      HGR61     CG2R61     CG2R61     CG2R61
   60    24    25    61	 9 ;      HGR61     CG2R61     CG2R61      HGR61
   24    25    26    21	 9 ;     CG2R61     CG2R61     CG2R61     CG2R61
   24    25    26    62	 9 ;     CG2R61     CG2R61     CG2R61      HGR61
   61    25    26    21	 9 ;      HGR61     CG2R61     CG2R61     CG2R61
   61    25    26    62	 9 ;      HGR61     CG2R61     CG2R61      HGR61
    1    27    30    31	 9 ;      CG311      CG311      CG324      NG3P2
    1    27    30    64	 9 ;      CG311      CG311      CG324       HGA2
    1    27    30    65	 9 ;      CG311      CG311      CG324       HGA2
   28    27    30    31	 9 ;      OG311      CG311      CG324      NG3P2
   28    27    30    64	 9 ;      OG311      CG311      CG324       HGA2
   28    27    30    65	 9 ;      OG311      CG311      CG324       HGA2
   63    27    30    31	 9 ;       HGA1      CG311      CG324      NG3P2
   63    27    30    64	 9 ;       HGA1      CG311      CG324       HGA2
   63    27    30    65	 9 ;       HGA1      CG311      CG324       HGA2
    1    27    28    29	 9 ;      CG311      CG311      OG311       HGP1
   30    27    28    29	 9 ;      CG324      CG311      OG311       HGP1
   63    27    28    29	 9 ;       HGA1      CG311      OG311       HGP1
   27    30    31    34	 9 ;      CG311      CG324      NG3P2      CG314
   27    30    31    32	 9 ;      CG311      CG324      NG3P2       HGP2
   27    30    31    33	 9 ;      CG311      CG324      NG3P2       HGP2
   64    30    31    34	 9 ;       HGA2      CG324      NG3P2      CG314
   64    30    31    32	 9 ;       HGA2      CG324      NG3P2       HGP2
   64    30    31    33	 9 ;       HGA2      CG324      NG3P2       HGP2
   65    30    31    34	 9 ;       HGA2      CG324      NG3P2      CG314
   65    30    31    32	 9 ;       HGA2      CG324      NG3P2       HGP2
   65    30    31    33	 9 ;       HGA2      CG324      NG3P2       HGP2
   30    31    34    35	 9 ;      CG324      NG3P2      CG314      CG331
   30    31    34    36	 9 ;      CG324      NG3P2      CG314      CG2O1
   30    31    34    66	 9 ;      CG324      NG3P2      CG314       HGA1
   32    31    34    35	 9 ;       HGP2      NG3P2      CG314      CG331
   32    31    34    36	 9 ;       HGP2      NG3P2      CG314      CG2O1
   32    31    34    66	 9 ;       HGP2      NG3P2      CG314       HGA1
   33    31    34    35	 9 ;       HGP2      NG3P2      CG314      CG331
   33    31    34    36	 9 ;       HGP2      NG3P2      CG314      CG2O1
   33    31    34    66	 9 ;       HGP2      NG3P2      CG314       HGA1
   36    34    35    67	 9 ;      CG2O1      CG314      CG331       HGA3
   36    34    35    68	 9 ;      CG2O1      CG314      CG331       HGA3
   36    34    35    69	 9 ;      CG2O1      CG314      CG331       HGA3
   31    34    35    67	 9 ;      NG3P2      CG314      CG331       HGA3
   31    34    35    68	 9 ;      NG3P2      CG314      CG331       HGA3
   31    34    35    69	 9 ;      NG3P2      CG314      CG331       HGA3
   66    34    35    67	 9 ;       HGA1      CG314      CG331       HGA3
   66    34    35    68	 9 ;       HGA1      CG314      CG331       HGA3
   66    34    35    69	 9 ;       HGA1      CG314      CG331       HGA3
   35    34    36    37	 9 ;      CG331      CG314      CG2O1      OG2D1
   35    34    36    38	 9 ;      CG331      CG314      CG2O1      NG2S1
   31    34    36    37	 9 ;      NG3P2      CG314      CG2O1      OG2D1
   31    34    36    38	 9 ;      NG3P2      CG314      CG2O1      NG2S1
   66    34    36    37	 9 ;       HGA1      CG314      CG2O1      OG2D1
   66    34    36    38	 9 ;       HGA1      CG314      CG2O1      NG2S1
   34    36    38    39	 9 ;      CG314      CG2O1      NG2S1       HGP1
   34    36    38    40	 9 ;      CG314      CG2O1      NG2S1      CG311
   37    36    38    39	 9 ;      OG2D1      CG2O1      NG2S1       HGP1
   37    36    38    40	 9 ;      OG2D1      CG2O1      NG2S1      CG311
   36    38    40    45	 9 ;      CG2O1      NG2S1      CG311      CG321
   36    38    40    41	 9 ;      CG2O1      NG2S1      CG311      CG321
   36    38    40    70	 9 ;      CG2O1      NG2S1      CG311       HGA1
   39    38    40    45	 9 ;       HGP1      NG2S1      CG311      CG321
   39    38    40    41	 9 ;       HGP1      NG2S1      CG311      CG321
   39    38    40    70	 9 ;       HGP1      NG2S1      CG311       HGA1
   38    40    45    44	 9 ;      NG2S1      CG311      CG321      CG321
   38    40    45    79	 9 ;      NG2S1      CG311      CG321       HGA2
   38    40    45    80	 9 ;      NG2S1      CG311      CG321       HGA2
   41    40    45    44	 9 ;      CG321      CG311      CG321      CG321
   41    40    45    79	 9 ;      CG321      CG311      CG321       HGA2
   41    40    45    80	 9 ;      CG321      CG311      CG321       HGA2
   70    40    45    44	 9 ;       HGA1      CG311      CG321      CG321
   70    40    45    79	 9 ;       HGA1      CG311      CG321       HGA2
   70    40    45    80	 9 ;       HGA1      CG311      CG321       HGA2
   38    40    41    42	 9 ;      NG2S1      CG311      CG321      CG321
   38    40    41    71	 9 ;      NG2S1      CG311      CG321       HGA2
   38    40    41    72	 9 ;      NG2S1      CG311      CG321       HGA2
   45    40    41    42	 9 ;      CG321      CG311      CG321      CG321
   45    40    41    71	 9 ;      CG321      CG311      CG321       HGA2
   45    40    41    72	 9 ;      CG321      CG311      CG321       HGA2
   70    40    41    42	 9 ;       HGA1      CG311      CG321      CG321
   70    40    41    71	 9 ;       HGA1      CG311      CG321       HGA2
   70    40    41    72	 9 ;       HGA1      CG311      CG321       HGA2
   40    41    42    43	 9 ;      CG311      CG321      CG321      CG321
   40    41    42    73	 9 ;      CG311      CG321      CG321       HGA2
   40    41    42    74	 9 ;      CG311      CG321      CG321       HGA2
   71    41    42    43	 9 ;       HGA2      CG321      CG321      CG321
   71    41    42    73	 9 ;       HGA2      CG321      CG321       HGA2
   71    41    42    74	 9 ;       HGA2      CG321      CG321       HGA2
   72    41    42    43	 9 ;       HGA2      CG321      CG321      CG321
   72    41    42    73	 9 ;       HGA2      CG321      CG321       HGA2
   72    41    42    74	 9 ;       HGA2      CG321      CG321       HGA2
   41    42    43    44	 9 ;      CG321      CG321      CG321      CG321
   41    42    43    75	 9 ;      CG321      CG321      CG321       HGA2
   41    42    43    76	 9 ;      CG321      CG321      CG321       HGA2
   73    42    43    44	 9 ;       HGA2      CG321      CG321      CG321
   73    42    43    75	 9 ;       HGA2      CG321      CG321       HGA2
   73    42    43    76	 9 ;       HGA2      CG321      CG321       HGA2
   74    42    43    44	 9 ;       HGA2      CG321      CG321      CG321
   74    42    43    75	 9 ;       HGA2      CG321      CG321       HGA2
   74    42    43    76	 9 ;       HGA2      CG321      CG321       HGA2
   42    43    44    45	 9 ;      CG321      CG321      CG321      CG321
   42    43    44    77	 9 ;      CG321      CG321      CG321       HGA2
   42    43    44    78	 9 ;      CG321      CG321      CG321       HGA2
   75    43    44    45	 9 ;       HGA2      CG321      CG321      CG321
   75    43    44    77	 9 ;       HGA2      CG321      CG321       HGA2
   75    43    44    78	 9 ;       HGA2      CG321      CG321       HGA2
   76    43    44    45	 9 ;       HGA2      CG321      CG321      CG321
   76    43    44    77	 9 ;       HGA2      CG321      CG321       HGA2
   76    43    44    78	 9 ;       HGA2      CG321      CG321       HGA2
   43    44    45    40	 9 ;      CG321      CG321      CG321      CG311
   43    44    45    79	 9 ;      CG321      CG321      CG321       HGA2
   43    44    45    80	 9 ;      CG321      CG321      CG321       HGA2
   77    44    45    40	 9 ;       HGA2      CG321      CG321      CG311
   77    44    45    79	 9 ;       HGA2      CG321      CG321       HGA2
   77    44    45    80	 9 ;       HGA2      CG321      CG321       HGA2
   78    44    45    40	 9 ;       HGA2      CG321      CG321      CG311
   78    44    45    79	 9 ;       HGA2      CG321      CG321       HGA2
   78    44    45    80	 9 ;       HGA2      CG321      CG321       HGA2

[ dihedrals ]
;	ai	  aj	ak	  al funct			  c0			c1			  c2			c3
   10    13     9    11	 2
   36    34    38    37	 2

