GROningen Mixture of Alchemy and Childrens' Stories
   64
    1LIG     C1    1  -1.638   0.782  -1.493
    1LIG     C2    2  -1.633   0.870  -1.621
    1LIG     O1    3  -1.659   1.004  -1.579
    1LIG     H1    4  -1.706   1.052  -1.650
    1LIG     C3    5  -1.500   0.854  -1.699
    1LIG     N1    6  -1.457   0.988  -1.743
    1LIG     C4    7  -1.458   1.043  -1.867
    1LIG     O2    8  -1.439   1.164  -1.875
    1LIG     C5    9  -1.486   0.957  -1.985
    1LIG     H2   10  -1.430   1.056  -1.673
    1LIG     C6   11  -1.388   0.781  -1.619
    1LIG     C7   12  -1.348   0.644  -1.669
    1LIG     C8   13  -1.437   0.567  -1.746
    1LIG     C9   14  -1.400   0.439  -1.789
    1LIG     F1   15  -1.487   0.367  -1.862
    1LIG    C10   16  -1.278   0.384  -1.755
    1LIG    C11   17  -1.188   0.461  -1.683
    1LIG    C12   18  -1.221   0.591  -1.643
    1LIG     F2   19  -1.069   0.411  -1.649
    1LIG     N2   20  -1.708   0.658  -1.533
    1LIG     H3   21  -1.800   0.686  -1.572
    1LIG     H4   22  -1.659   0.620  -1.615
    1LIG    C13   23  -1.729   0.542  -1.444
    1LIG    C14   24  -1.872   0.513  -1.406
    1LIG    C15   25  -1.774   0.557  -1.301
    1LIG    C16   26  -1.636   0.429  -1.485
    1LIG    C17   27  -1.512   0.416  -1.421
    1LIG    C18   28  -1.434   0.298  -1.429
    1LIG    C19   29  -1.484   0.194  -1.509
    1LIG    C20   30  -1.605   0.207  -1.577
    1LIG    C21   31  -1.681   0.324  -1.565
    1LIG    C22   32  -1.304   0.286  -1.347
    1LIG    C23   33  -1.194   0.207  -1.419
    1LIG    C24   34  -1.248   0.426  -1.315
    1LIG     F3   35  -1.257   0.452  -1.182
    1LIG    C25   36  -1.334   0.215  -1.213
    1LIG     F4   37  -1.220   0.157  -1.165
    1LIG    HC2   38  -1.692   0.834  -1.414
    1LIG    HC3   39  -1.536   0.759  -1.460
    1LIG     HC   40  -1.714   0.839  -1.686
    1LIG    HC1   41  -1.521   0.795  -1.788
    1LIG    HC4   42  -1.423   0.770  -1.516
    1LIG    HC5   43  -1.300   0.845  -1.618
    1LIG    HC6   44  -1.533   0.607  -1.773
    1LIG    HC7   45  -1.252   0.283  -1.785
    1LIG    HC8   46  -1.148   0.651  -1.591
    1LIG    HC9   47  -1.910   0.411  -1.406
    1LIG   HC10   48  -1.944   0.589  -1.436
    1LIG   HC11   49  -1.782   0.656  -1.257
    1LIG   HC12   50  -1.740   0.478  -1.234
    1LIG   HC13   51  -1.473   0.499  -1.364
    1LIG   HC14   52  -1.428   0.102  -1.517
    1LIG   HC15   53  -1.641   0.126  -1.639
    1LIG   HC16   54  -1.774   0.333  -1.618
    1LIG   HC17   55  -1.143   0.431  -1.346
    1LIG   HC18   56  -1.305   0.502  -1.370
    1LIG   HC19   57  -1.410   0.138  -1.229
    1LIG   HC20   58  -1.371   0.287  -1.140
    1LIG   HC21   59  -1.230   0.107  -1.442
    1LIG   HC22   60  -1.106   0.199  -1.354
    1LIG   HC23   61  -1.166   0.258  -1.511
    1LIG   HC24   62  -1.475   1.015  -2.077
    1LIG   HC25   63  -1.416   0.873  -1.987
    1LIG   HC26   64  -1.588   0.918  -1.979
   0.00000   0.00000   0.00000
