Guyana Rwanda Oman Macau Angola Cameroon Senegal
   63
    1LIG     C1    1  -1.217   0.260  -1.593
    1LIG     N1    2  -1.313   0.363  -1.602
    1LIG     C2    3  -1.274   0.456  -1.700
    1LIG     C3    4  -1.157   0.409  -1.755
    1LIG     C4    5  -1.124   0.287  -1.692
    1LIG     C5    6  -1.342   0.584  -1.732
    1LIG     C6    7  -1.437   0.588  -1.835
    1LIG     C7    8  -1.497   0.709  -1.873
    1LIG     C8    9  -1.461   0.829  -1.811
    1LIG     C9   10  -1.371   0.824  -1.705
    1LIG    C10   11  -1.316   0.702  -1.663
    1LIG      O   12  -1.501   0.954  -1.849
    1LIG    C11   13  -1.566   1.032  -1.748
    1LIG    C12   14  -1.702   0.971  -1.713
    1LIG    C13   15  -1.722   0.934  -1.566
    1LIG    C14   16  -1.701   0.785  -1.536
    1LIG    C15   17  -1.776   0.697  -1.634
    1LIG    C16   18  -1.426   0.382  -1.511
    1LIG    C17   19  -1.561   0.336  -1.566
    1LIG     N2   20  -1.676   0.370  -1.503
    1LIG    C18   21  -1.793   0.336  -1.558
    1LIG     HN   22  -1.673   0.421  -1.414
    1LIG    C19   23  -1.802   0.269  -1.679
    1LIG    C20   24  -1.685   0.231  -1.742
    1LIG    C21   25  -1.562   0.263  -1.685
    1LIG     N3   26  -1.909   0.376  -1.491
    1LIG     H1   27  -1.880   0.439  -1.416
    1LIG     H2   28  -1.961   0.296  -1.455
    1LIG    C22   29  -1.217   0.142  -1.502
    1LIG    C23   30  -1.222   0.011  -1.554
    1LIG    C24   31  -1.211  -0.103  -1.474
    1LIG    C25   32  -1.186  -0.091  -1.339
    1LIG    C26   33  -1.180   0.036  -1.282
    1LIG    C27   34  -1.199   0.151  -1.362
    1LIG     CL   35  -1.201   0.301  -1.274
    1LIG     HC   36  -1.099   0.457  -1.832
    1LIG    HC1   37  -1.040   0.225  -1.718
    1LIG    HC2   38  -1.465   0.497  -1.885
    1LIG    HC3   39  -1.571   0.710  -1.952
    1LIG    HC4   40  -1.343   0.915  -1.654
    1LIG    HC5   41  -1.252   0.700  -1.576
    1LIG    HC6   42  -1.579   1.134  -1.785
    1LIG    HC7   43  -1.503   1.034  -1.658
    1LIG    HC8   44  -1.778   1.044  -1.740
    1LIG    HC9   45  -1.716   0.882  -1.774
    1LIG   HC10   46  -1.651   0.991  -1.506
    1LIG   HC11   47  -1.823   0.961  -1.536
    1LIG   HC12   48  -1.736   0.764  -1.435
    1LIG   HC13   49  -1.594   0.762  -1.542
    1LIG   HC14   50  -1.795   0.600  -1.589
    1LIG   HC15   51  -1.716   0.684  -1.725
    1LIG   HC16   52  -1.871   0.744  -1.660
    1LIG   HC17   53  -1.434   0.489  -1.488
    1LIG   HC18   54  -1.406   0.329  -1.418
    1LIG   HC19   55  -1.898   0.248  -1.723
    1LIG   HC20   56  -1.689   0.176  -1.835
    1LIG   HC21   57  -1.470   0.233  -1.732
    1LIG   HC22   58  -1.237  -0.001  -1.661
    1LIG   HC23   59  -1.221  -0.201  -1.519
    1LIG   HC24   60  -1.172  -0.178  -1.278
    1LIG   HC25   61  -1.161   0.047  -1.177
    1LIG    H30   62  -1.554   0.244  -1.508
    1LIG    LP1   63  -1.204   0.443  -1.191
   0.00000   0.00000   0.00000
