; Created by cgenff_charmm2gmx.py

[ moleculetype ]
; Name			   nrexcl
LIG				 3

[ atoms ]
;	 nr		  type	resnr residue  atom   cgnr	   charge		mass  typeB    chargeB		massB
; residue	 1 LIG rtp LIG q	qsum
     1     CG2R51      1    LIG     C1      1     -0.204     12.011   ;
     2     NG2R51      1    LIG     N1      2     -0.093     14.007   ;
     3     CG2R51      1    LIG     C2      3     -0.202     12.011   ;
     4     CG2R51      1    LIG     C3      4     -0.231     12.011   ;
     5     CG2R51      1    LIG     C4      5     -0.231     12.011   ;
     6     CG2R61      1    LIG     C5      6      0.129     12.011   ;
     7     CG2R61      1    LIG     C6      7     -0.118     12.011   ;
     8     CG2R61      1    LIG     C7      8     -0.118     12.011   ;
     9     CG2R61      1    LIG     C8      9      0.222     12.011   ;
    10     CG2R61      1    LIG     C9     10     -0.118     12.011   ;
    11     CG2R61      1    LIG    C10     11     -0.118     12.011   ;
    12      OG301      1    LIG      O     12     -0.398     15.999   ;
    13      CG321      1    LIG    C11     13     -0.008     12.011   ;
    14      CG321      1    LIG    C12     14     -0.178     12.011   ;
    15      CG321      1    LIG    C13     15     -0.178     12.011   ;
    16      CG321      1    LIG    C14     16     -0.180     12.011   ;
    17      CG331      1    LIG    C15     17     -0.270     12.011   ;
    18      CG321      1    LIG    C16     18      0.137     12.011   ;
    19      CG311      1    LIG    C17     19      0.189     12.011   ;
    20      NG311      1    LIG     N2     20     -0.486     14.007   ;
    21     CG2D1O      1    LIG    C18     21      0.215     12.011   ;
    22     HGPAM1      1    LIG     HN     22      0.358      1.008   ;
    23     CG2DC1      1    LIG    C19     23     -0.435     12.011   ;
    24     CG2DC2      1    LIG    C20     24     -0.142     12.011   ;
    25     CG2DC2      1    LIG    C21     25     -0.306     12.011   ;
    26      NG321      1    LIG     N3     26     -0.745     14.007   ;
    27     HGPAM2      1    LIG     H1     27      0.404      1.008   ;
    28     HGPAM2      1    LIG     H2     28      0.404      1.008   ;
    29     CG2R61      1    LIG    C22     29      0.182     12.011   ;
    30     CG2R61      1    LIG    C23     30     -0.118     12.011   ;
    31     CG2R61      1    LIG    C24     31     -0.111     12.011   ;
    32     CG2R61      1    LIG    C25     32     -0.116     12.011   ;
    33     CG2R61      1    LIG    C26     33     -0.104     12.011   ;
    34     CG2R61      1    LIG    C27     34      0.032     12.011   ;
    35      CLGR1      1    LIG     CL     35     -0.190     35.453   ;
    36      HGR51      1    LIG     HC     36      0.202      1.008   ;
    37      HGR51      1    LIG    HC1     37      0.202      1.008   ;
    38      HGR61      1    LIG    HC2     38      0.116      1.008   ;
    39      HGR61      1    LIG    HC3     39      0.116      1.008   ;
    40      HGR61      1    LIG    HC4     40      0.116      1.008   ;
    41      HGR61      1    LIG    HC5     41      0.116      1.008   ;
    42       HGA2      1    LIG    HC6     42      0.090      1.008   ;
    43       HGA2      1    LIG    HC7     43      0.090      1.008   ;
    44       HGA2      1    LIG    HC8     44      0.090      1.008   ;
    45       HGA2      1    LIG    HC9     45      0.090      1.008   ;
    46       HGA2      1    LIG   HC10     46      0.090      1.008   ;
    47       HGA2      1    LIG   HC11     47      0.090      1.008   ;
    48       HGA2      1    LIG   HC12     48      0.090      1.008   ;
    49       HGA2      1    LIG   HC13     49      0.090      1.008   ;
    50       HGA3      1    LIG   HC14     50      0.090      1.008   ;
    51       HGA3      1    LIG   HC15     51      0.090      1.008   ;
    52       HGA3      1    LIG   HC16     52      0.090      1.008   ;
    53       HGA2      1    LIG   HC17     53      0.090      1.008   ;
    54       HGA2      1    LIG   HC18     54      0.090      1.008   ;
    55       HGA4      1    LIG   HC19     55      0.150      1.008   ;
    56       HGA4      1    LIG   HC20     56      0.150      1.008   ;
    57       HGA4      1    LIG   HC21     57      0.150      1.008   ;
    58      HGR61      1    LIG   HC22     58      0.116      1.008   ;
    59      HGR61      1    LIG   HC23     59      0.116      1.008   ;
    60      HGR61      1    LIG   HC24     60      0.116      1.008   ;
    61      HGR62      1    LIG   HC25     61      0.150      1.008   ;
    62       HGA1      1    LIG    H30     62      0.090      1.008   ;
    63        LPH      1    LIG    LP1     63      0.050      0.000   ;

[ bonds ]
;	ai	  aj funct			  c0			c1			  c2			c3
    1     5	 1 ;      CG2R51     CG2R51
    1     2	 1 ;      CG2R51     NG2R51
    1    29	 1 ;      CG2R51     CG2R61
    2     3	 1 ;      NG2R51     CG2R51
    2    18	 1 ;      NG2R51      CG321
    3     4	 1 ;      CG2R51     CG2R51
    3     6	 1 ;      CG2R51     CG2R61
    4     5	 1 ;      CG2R51     CG2R51
    4    36	 1 ;      CG2R51      HGR51
    5    37	 1 ;      CG2R51      HGR51
    6    11	 1 ;      CG2R61     CG2R61
    6     7	 1 ;      CG2R61     CG2R61
    7     8	 1 ;      CG2R61     CG2R61
    7    38	 1 ;      CG2R61      HGR61
    8     9	 1 ;      CG2R61     CG2R61
    8    39	 1 ;      CG2R61      HGR61
    9    12	 1 ;      CG2R61      OG301
    9    10	 1 ;      CG2R61     CG2R61
   10    11	 1 ;      CG2R61     CG2R61
   10    40	 1 ;      CG2R61      HGR61
   11    41	 1 ;      CG2R61      HGR61
   12    13	 1 ;       OG301      CG321
   13    14	 1 ;       CG321      CG321
   13    42	 1 ;       CG321       HGA2
   13    43	 1 ;       CG321       HGA2
   14    15	 1 ;       CG321      CG321
   14    44	 1 ;       CG321       HGA2
   14    45	 1 ;       CG321       HGA2
   15    16	 1 ;       CG321      CG321
   15    46	 1 ;       CG321       HGA2
   15    47	 1 ;       CG321       HGA2
   16    17	 1 ;       CG321      CG331
   16    48	 1 ;       CG321       HGA2
   16    49	 1 ;       CG321       HGA2
   17    50	 1 ;       CG331       HGA3
   17    51	 1 ;       CG331       HGA3
   17    52	 1 ;       CG331       HGA3
   18    19	 1 ;       CG321      CG311
   18    53	 1 ;       CG321       HGA2
   18    54	 1 ;       CG321       HGA2
   19    25	 1 ;       CG311     CG2DC2
   19    20	 1 ;       CG311      NG311
   19    62	 1 ;       CG311       HGA1
   20    22	 1 ;       NG311     HGPAM1
   20    21	 1 ;       NG311     CG2D1O
   21    23	 1 ;      CG2D1O     CG2DC1
   21    26	 1 ;      CG2D1O      NG321
   23    24	 1 ;      CG2DC1     CG2DC2
   23    55	 1 ;      CG2DC1       HGA4
   24    25	 1 ;      CG2DC2     CG2DC2
   24    56	 1 ;      CG2DC2       HGA4
   25    57	 1 ;      CG2DC2       HGA4
   26    27	 1 ;       NG321     HGPAM2
   26    28	 1 ;       NG321     HGPAM2
   29    30	 1 ;      CG2R61     CG2R61
   29    34	 1 ;      CG2R61     CG2R61
   30    31	 1 ;      CG2R61     CG2R61
   30    58	 1 ;      CG2R61      HGR61
   31    32	 1 ;      CG2R61     CG2R61
   31    59	 1 ;      CG2R61      HGR61
   32    33	 1 ;      CG2R61     CG2R61
   32    60	 1 ;      CG2R61      HGR61
   33    34	 1 ;      CG2R61     CG2R61
   33    61	 1 ;      CG2R61      HGR62
   34    35	 1 ;      CG2R61      CLGR1

[ pairs ]
;	ai	  aj funct			  c0			c1			  c2			c3
    1     6	 1
    1    19	 1
    1    53	 1
    1    54	 1
    1    36	 1
    1    31	 1
    1    58	 1
    1    35	 1
   63     1	 1
    1    33	 1
    2    37	 1
    2    30	 1
    2    34	 1
    2    36	 1
    2    11	 1
    2     7	 1
    2    25	 1
    2    20	 1
    2    62	 1
    3    29	 1
    3    19	 1
    3    53	 1
    3    54	 1
    3    37	 1
    3    10	 1
    3    41	 1
    3     8	 1
    3    38	 1
    4    29	 1
    4    18	 1
    4    11	 1
    4     7	 1
    5    18	 1
    5    30	 1
    5    34	 1
    5     6	 1
    6    18	 1
    6    36	 1
    6     9	 1
    6    39	 1
    6    40	 1
    7    10	 1
    7    41	 1
    7    12	 1
    8    11	 1
    8    13	 1
    8    40	 1
    9    38	 1
    9    41	 1
    9    14	 1
    9    42	 1
    9    43	 1
   10    39	 1
   10    13	 1
   11    38	 1
   11    12	 1
   12    39	 1
   12    40	 1
   12    15	 1
   12    44	 1
   12    45	 1
   13    16	 1
   13    46	 1
   13    47	 1
   14    17	 1
   14    48	 1
   14    49	 1
   15    42	 1
   15    43	 1
   15    50	 1
   15    51	 1
   15    52	 1
   16    44	 1
   16    45	 1
   17    46	 1
   17    47	 1
   18    29	 1
   18    24	 1
   18    57	 1
   18    22	 1
   18    21	 1
   19    23	 1
   19    26	 1
   19    56	 1
   20    53	 1
   20    54	 1
   20    24	 1
   20    57	 1
   20    55	 1
   20    27	 1
   20    28	 1
   21    25	 1
   21    62	 1
   21    56	 1
   22    25	 1
   22    62	 1
   22    23	 1
   22    26	 1
   23    27	 1
   23    28	 1
   23    57	 1
   24    62	 1
   24    26	 1
   25    53	 1
   25    54	 1
   25    55	 1
   26    55	 1
   29    37	 1
   29    32	 1
   29    59	 1
   29    61	 1
   30    35	 1
   63    30	 1
   30    33	 1
   30    60	 1
   31    34	 1
   31    61	 1
   32    58	 1
   32    35	 1
   63    32	 1
   33    59	 1
   34    58	 1
   34    60	 1
   35    61	 1
   63    61	 1
   36    37	 1
   38    39	 1
   40    41	 1
   42    44	 1
   42    45	 1
   43    44	 1
   43    45	 1
   44    46	 1
   44    47	 1
   45    46	 1
   45    47	 1
   46    48	 1
   46    49	 1
   47    48	 1
   47    49	 1
   48    50	 1
   48    51	 1
   48    52	 1
   49    50	 1
   49    51	 1
   49    52	 1
   53    62	 1
   54    62	 1
   55    56	 1
   56    57	 1
   57    62	 1
   58    59	 1
   59    60	 1
   60    61	 1

[ angles ]
;	ai	  aj	ak funct			c0			  c1			c2			  c3
    5     1     2	5 ;     CG2R51     CG2R51     NG2R51
    5     1    29	5 ;     CG2R51     CG2R51     CG2R61
    2     1    29	5 ;     NG2R51     CG2R51     CG2R61
    3     2     1	5 ;     CG2R51     NG2R51     CG2R51
    3     2    18	5 ;     CG2R51     NG2R51      CG321
    1     2    18	5 ;     CG2R51     NG2R51      CG321
    4     3     6	5 ;     CG2R51     CG2R51     CG2R61
    4     3     2	5 ;     CG2R51     CG2R51     NG2R51
    6     3     2	5 ;     CG2R61     CG2R51     NG2R51
    5     4     3	5 ;     CG2R51     CG2R51     CG2R51
    5     4    36	5 ;     CG2R51     CG2R51      HGR51
    3     4    36	5 ;     CG2R51     CG2R51      HGR51
    4     5     1	5 ;     CG2R51     CG2R51     CG2R51
    4     5    37	5 ;     CG2R51     CG2R51      HGR51
    1     5    37	5 ;     CG2R51     CG2R51      HGR51
    3     6    11	5 ;     CG2R51     CG2R61     CG2R61
    3     6     7	5 ;     CG2R51     CG2R61     CG2R61
   11     6     7	5 ;     CG2R61     CG2R61     CG2R61
    6     7     8	5 ;     CG2R61     CG2R61     CG2R61
    6     7    38	5 ;     CG2R61     CG2R61      HGR61
    8     7    38	5 ;     CG2R61     CG2R61      HGR61
    9     8     7	5 ;     CG2R61     CG2R61     CG2R61
    9     8    39	5 ;     CG2R61     CG2R61      HGR61
    7     8    39	5 ;     CG2R61     CG2R61      HGR61
   12     9    10	5 ;      OG301     CG2R61     CG2R61
   12     9     8	5 ;      OG301     CG2R61     CG2R61
   10     9     8	5 ;     CG2R61     CG2R61     CG2R61
   11    10     9	5 ;     CG2R61     CG2R61     CG2R61
   11    10    40	5 ;     CG2R61     CG2R61      HGR61
    9    10    40	5 ;     CG2R61     CG2R61      HGR61
   10    11     6	5 ;     CG2R61     CG2R61     CG2R61
   10    11    41	5 ;     CG2R61     CG2R61      HGR61
    6    11    41	5 ;     CG2R61     CG2R61      HGR61
    9    12    13	5 ;     CG2R61      OG301      CG321
   12    13    14	5 ;      OG301      CG321      CG321
   12    13    42	5 ;      OG301      CG321       HGA2
   12    13    43	5 ;      OG301      CG321       HGA2
   14    13    42	5 ;      CG321      CG321       HGA2
   14    13    43	5 ;      CG321      CG321       HGA2
   42    13    43	5 ;       HGA2      CG321       HGA2
   13    14    15	5 ;      CG321      CG321      CG321
   13    14    44	5 ;      CG321      CG321       HGA2
   13    14    45	5 ;      CG321      CG321       HGA2
   15    14    44	5 ;      CG321      CG321       HGA2
   15    14    45	5 ;      CG321      CG321       HGA2
   44    14    45	5 ;       HGA2      CG321       HGA2
   14    15    16	5 ;      CG321      CG321      CG321
   14    15    46	5 ;      CG321      CG321       HGA2
   14    15    47	5 ;      CG321      CG321       HGA2
   16    15    46	5 ;      CG321      CG321       HGA2
   16    15    47	5 ;      CG321      CG321       HGA2
   46    15    47	5 ;       HGA2      CG321       HGA2
   15    16    17	5 ;      CG321      CG321      CG331
   15    16    48	5 ;      CG321      CG321       HGA2
   15    16    49	5 ;      CG321      CG321       HGA2
   17    16    48	5 ;      CG331      CG321       HGA2
   17    16    49	5 ;      CG331      CG321       HGA2
   48    16    49	5 ;       HGA2      CG321       HGA2
   16    17    50	5 ;      CG321      CG331       HGA3
   16    17    51	5 ;      CG321      CG331       HGA3
   16    17    52	5 ;      CG321      CG331       HGA3
   50    17    51	5 ;       HGA3      CG331       HGA3
   50    17    52	5 ;       HGA3      CG331       HGA3
   51    17    52	5 ;       HGA3      CG331       HGA3
    2    18    19	5 ;     NG2R51      CG321      CG311
    2    18    53	5 ;     NG2R51      CG321       HGA2
    2    18    54	5 ;     NG2R51      CG321       HGA2
   19    18    53	5 ;      CG311      CG321       HGA2
   19    18    54	5 ;      CG311      CG321       HGA2
   53    18    54	5 ;       HGA2      CG321       HGA2
   18    19    25	5 ;      CG321      CG311     CG2DC2
   18    19    20	5 ;      CG321      CG311      NG311
   18    19    62	5 ;      CG321      CG311       HGA1
   25    19    20	5 ;     CG2DC2      CG311      NG311
   25    19    62	5 ;     CG2DC2      CG311       HGA1
   20    19    62	5 ;      NG311      CG311       HGA1
   19    20    22	5 ;      CG311      NG311     HGPAM1
   19    20    21	5 ;      CG311      NG311     CG2D1O
   22    20    21	5 ;     HGPAM1      NG311     CG2D1O
   20    21    23	5 ;      NG311     CG2D1O     CG2DC1
   20    21    26	5 ;      NG311     CG2D1O      NG321
   23    21    26	5 ;     CG2DC1     CG2D1O      NG321
   24    23    21	5 ;     CG2DC2     CG2DC1     CG2D1O
   24    23    55	5 ;     CG2DC2     CG2DC1       HGA4
   21    23    55	5 ;     CG2D1O     CG2DC1       HGA4
   25    24    23	5 ;     CG2DC2     CG2DC2     CG2DC1
   25    24    56	5 ;     CG2DC2     CG2DC2       HGA4
   23    24    56	5 ;     CG2DC1     CG2DC2       HGA4
   19    25    24	5 ;      CG311     CG2DC2     CG2DC2
   19    25    57	5 ;      CG311     CG2DC2       HGA4
   24    25    57	5 ;     CG2DC2     CG2DC2       HGA4
   21    26    27	5 ;     CG2D1O      NG321     HGPAM2
   21    26    28	5 ;     CG2D1O      NG321     HGPAM2
   27    26    28	5 ;     HGPAM2      NG321     HGPAM2
    1    29    30	5 ;     CG2R51     CG2R61     CG2R61
    1    29    34	5 ;     CG2R51     CG2R61     CG2R61
   30    29    34	5 ;     CG2R61     CG2R61     CG2R61
   29    30    31	5 ;     CG2R61     CG2R61     CG2R61
   29    30    58	5 ;     CG2R61     CG2R61      HGR61
   31    30    58	5 ;     CG2R61     CG2R61      HGR61
   30    31    32	5 ;     CG2R61     CG2R61     CG2R61
   30    31    59	5 ;     CG2R61     CG2R61      HGR61
   32    31    59	5 ;     CG2R61     CG2R61      HGR61
   31    32    33	5 ;     CG2R61     CG2R61     CG2R61
   31    32    60	5 ;     CG2R61     CG2R61      HGR61
   33    32    60	5 ;     CG2R61     CG2R61      HGR61
   34    33    32	5 ;     CG2R61     CG2R61     CG2R61
   34    33    61	5 ;     CG2R61     CG2R61      HGR62
   32    33    61	5 ;     CG2R61     CG2R61      HGR62
   29    34    35	5 ;     CG2R61     CG2R61      CLGR1
   29    34    33	5 ;     CG2R61     CG2R61     CG2R61
   35    34    33	5 ;      CLGR1     CG2R61     CG2R61

[ dihedrals ]
;	ai	  aj	ak	  al funct			  c0			c1			  c2			c3			  c4			c5
    2     1     5     4	 9 ;     NG2R51     CG2R51     CG2R51     CG2R51
    2     1     5    37	 9 ;     NG2R51     CG2R51     CG2R51      HGR51
   29     1     5     4	 9 ;     CG2R61     CG2R51     CG2R51     CG2R51
   29     1     5    37	 9 ;     CG2R61     CG2R51     CG2R51      HGR51
    5     1     2     3	 9 ;     CG2R51     CG2R51     NG2R51     CG2R51
    5     1     2    18	 9 ;     CG2R51     CG2R51     NG2R51      CG321
   29     1     2     3	 9 ;     CG2R61     CG2R51     NG2R51     CG2R51
   29     1     2    18	 9 ;     CG2R61     CG2R51     NG2R51      CG321
    5     1    29    30	 9 ;     CG2R51     CG2R51     CG2R61     CG2R61
    5     1    29    34	 9 ;     CG2R51     CG2R51     CG2R61     CG2R61
    2     1    29    30	 9 ;     NG2R51     CG2R51     CG2R61     CG2R61
    2     1    29    34	 9 ;     NG2R51     CG2R51     CG2R61     CG2R61
    1     2     3     4	 9 ;     CG2R51     NG2R51     CG2R51     CG2R51
    1     2     3     6	 9 ;     CG2R51     NG2R51     CG2R51     CG2R61
   18     2     3     4	 9 ;      CG321     NG2R51     CG2R51     CG2R51
   18     2     3     6	 9 ;      CG321     NG2R51     CG2R51     CG2R61
    3     2    18    19	 9 ;     CG2R51     NG2R51      CG321      CG311
    3     2    18    53	 9 ;     CG2R51     NG2R51      CG321       HGA2
    3     2    18    54	 9 ;     CG2R51     NG2R51      CG321       HGA2
    1     2    18    19	 9 ;     CG2R51     NG2R51      CG321      CG311
    1     2    18    53	 9 ;     CG2R51     NG2R51      CG321       HGA2
    1     2    18    54	 9 ;     CG2R51     NG2R51      CG321       HGA2
    6     3     4     5	 9 ;     CG2R61     CG2R51     CG2R51     CG2R51
    6     3     4    36	 9 ;     CG2R61     CG2R51     CG2R51      HGR51
    2     3     4     5	 9 ;     NG2R51     CG2R51     CG2R51     CG2R51
    2     3     4    36	 9 ;     NG2R51     CG2R51     CG2R51      HGR51
    4     3     6    11	 9 ;     CG2R51     CG2R51     CG2R61     CG2R61
    4     3     6     7	 9 ;     CG2R51     CG2R51     CG2R61     CG2R61
    2     3     6    11	 9 ;     NG2R51     CG2R51     CG2R61     CG2R61
    2     3     6     7	 9 ;     NG2R51     CG2R51     CG2R61     CG2R61
    3     4     5     1	 9 ;     CG2R51     CG2R51     CG2R51     CG2R51
    3     4     5    37	 9 ;     CG2R51     CG2R51     CG2R51      HGR51
   36     4     5     1	 9 ;      HGR51     CG2R51     CG2R51     CG2R51
   36     4     5    37	 9 ;      HGR51     CG2R51     CG2R51      HGR51
    3     6    11    10	 9 ;     CG2R51     CG2R61     CG2R61     CG2R61
    3     6    11    41	 9 ;     CG2R51     CG2R61     CG2R61      HGR61
    7     6    11    10	 9 ;     CG2R61     CG2R61     CG2R61     CG2R61
    7     6    11    41	 9 ;     CG2R61     CG2R61     CG2R61      HGR61
    3     6     7     8	 9 ;     CG2R51     CG2R61     CG2R61     CG2R61
    3     6     7    38	 9 ;     CG2R51     CG2R61     CG2R61      HGR61
   11     6     7     8	 9 ;     CG2R61     CG2R61     CG2R61     CG2R61
   11     6     7    38	 9 ;     CG2R61     CG2R61     CG2R61      HGR61
    6     7     8     9	 9 ;     CG2R61     CG2R61     CG2R61     CG2R61
    6     7     8    39	 9 ;     CG2R61     CG2R61     CG2R61      HGR61
   38     7     8     9	 9 ;      HGR61     CG2R61     CG2R61     CG2R61
   38     7     8    39	 9 ;      HGR61     CG2R61     CG2R61      HGR61
    7     8     9    12	 9 ;     CG2R61     CG2R61     CG2R61      OG301
    7     8     9    10	 9 ;     CG2R61     CG2R61     CG2R61     CG2R61
   39     8     9    12	 9 ;      HGR61     CG2R61     CG2R61      OG301
   39     8     9    10	 9 ;      HGR61     CG2R61     CG2R61     CG2R61
   10     9    12    13	 9 ;     CG2R61     CG2R61      OG301      CG321
    8     9    12    13	 9 ;     CG2R61     CG2R61      OG301      CG321
   12     9    10    11	 9 ;      OG301     CG2R61     CG2R61     CG2R61
   12     9    10    40	 9 ;      OG301     CG2R61     CG2R61      HGR61
    8     9    10    11	 9 ;     CG2R61     CG2R61     CG2R61     CG2R61
    8     9    10    40	 9 ;     CG2R61     CG2R61     CG2R61      HGR61
    9    10    11     6	 9 ;     CG2R61     CG2R61     CG2R61     CG2R61
    9    10    11    41	 9 ;     CG2R61     CG2R61     CG2R61      HGR61
   40    10    11     6	 9 ;      HGR61     CG2R61     CG2R61     CG2R61
   40    10    11    41	 9 ;      HGR61     CG2R61     CG2R61      HGR61
    9    12    13    14	 9 ;     CG2R61      OG301      CG321      CG321
    9    12    13    42	 9 ;     CG2R61      OG301      CG321       HGA2
    9    12    13    43	 9 ;     CG2R61      OG301      CG321       HGA2
   12    13    14    15	 9 ;      OG301      CG321      CG321      CG321
   12    13    14    44	 9 ;      OG301      CG321      CG321       HGA2
   12    13    14    45	 9 ;      OG301      CG321      CG321       HGA2
   42    13    14    15	 9 ;       HGA2      CG321      CG321      CG321
   42    13    14    44	 9 ;       HGA2      CG321      CG321       HGA2
   42    13    14    45	 9 ;       HGA2      CG321      CG321       HGA2
   43    13    14    15	 9 ;       HGA2      CG321      CG321      CG321
   43    13    14    44	 9 ;       HGA2      CG321      CG321       HGA2
   43    13    14    45	 9 ;       HGA2      CG321      CG321       HGA2
   13    14    15    16	 9 ;      CG321      CG321      CG321      CG321
   13    14    15    46	 9 ;      CG321      CG321      CG321       HGA2
   13    14    15    47	 9 ;      CG321      CG321      CG321       HGA2
   44    14    15    16	 9 ;       HGA2      CG321      CG321      CG321
   44    14    15    46	 9 ;       HGA2      CG321      CG321       HGA2
   44    14    15    47	 9 ;       HGA2      CG321      CG321       HGA2
   45    14    15    16	 9 ;       HGA2      CG321      CG321      CG321
   45    14    15    46	 9 ;       HGA2      CG321      CG321       HGA2
   45    14    15    47	 9 ;       HGA2      CG321      CG321       HGA2
   14    15    16    17	 9 ;      CG321      CG321      CG321      CG331
   14    15    16    48	 9 ;      CG321      CG321      CG321       HGA2
   14    15    16    49	 9 ;      CG321      CG321      CG321       HGA2
   46    15    16    17	 9 ;       HGA2      CG321      CG321      CG331
   46    15    16    48	 9 ;       HGA2      CG321      CG321       HGA2
   46    15    16    49	 9 ;       HGA2      CG321      CG321       HGA2
   47    15    16    17	 9 ;       HGA2      CG321      CG321      CG331
   47    15    16    48	 9 ;       HGA2      CG321      CG321       HGA2
   47    15    16    49	 9 ;       HGA2      CG321      CG321       HGA2
   15    16    17    50	 9 ;      CG321      CG321      CG331       HGA3
   15    16    17    51	 9 ;      CG321      CG321      CG331       HGA3
   15    16    17    52	 9 ;      CG321      CG321      CG331       HGA3
   48    16    17    50	 9 ;       HGA2      CG321      CG331       HGA3
   48    16    17    51	 9 ;       HGA2      CG321      CG331       HGA3
   48    16    17    52	 9 ;       HGA2      CG321      CG331       HGA3
   49    16    17    50	 9 ;       HGA2      CG321      CG331       HGA3
   49    16    17    51	 9 ;       HGA2      CG321      CG331       HGA3
   49    16    17    52	 9 ;       HGA2      CG321      CG331       HGA3
    2    18    19    25	 9 ;     NG2R51      CG321      CG311     CG2DC2
    2    18    19    20	 9 ;     NG2R51      CG321      CG311      NG311
    2    18    19    62	 9 ;     NG2R51      CG321      CG311       HGA1
   53    18    19    25	 9 ;       HGA2      CG321      CG311     CG2DC2
   53    18    19    20	 9 ;       HGA2      CG321      CG311      NG311
   53    18    19    62	 9 ;       HGA2      CG321      CG311       HGA1
   54    18    19    25	 9 ;       HGA2      CG321      CG311     CG2DC2
   54    18    19    20	 9 ;       HGA2      CG321      CG311      NG311
   54    18    19    62	 9 ;       HGA2      CG321      CG311       HGA1
   18    19    25    24	 9 ;      CG321      CG311     CG2DC2     CG2DC2
   18    19    25    57	 9 ;      CG321      CG311     CG2DC2       HGA4
   20    19    25    24	 9 ;      NG311      CG311     CG2DC2     CG2DC2
   20    19    25    57	 9 ;      NG311      CG311     CG2DC2       HGA4
   62    19    25    24	 9 ;       HGA1      CG311     CG2DC2     CG2DC2
   62    19    25    57	 9 ;       HGA1      CG311     CG2DC2       HGA4
   18    19    20    22	 9 ;      CG321      CG311      NG311     HGPAM1
   18    19    20    21	 9 ;      CG321      CG311      NG311     CG2D1O
   25    19    20    22	 9 ;     CG2DC2      CG311      NG311     HGPAM1
   25    19    20    21	 9 ;     CG2DC2      CG311      NG311     CG2D1O
   62    19    20    22	 9 ;       HGA1      CG311      NG311     HGPAM1
   62    19    20    21	 9 ;       HGA1      CG311      NG311     CG2D1O
   19    20    21    23	 9 ;      CG311      NG311     CG2D1O     CG2DC1
   19    20    21    26	 9 ;      CG311      NG311     CG2D1O      NG321
   22    20    21    23	 9 ;     HGPAM1      NG311     CG2D1O     CG2DC1
   22    20    21    26	 9 ;     HGPAM1      NG311     CG2D1O      NG321
   20    21    23    24	 9 ;      NG311     CG2D1O     CG2DC1     CG2DC2
   20    21    23    55	 9 ;      NG311     CG2D1O     CG2DC1       HGA4
   26    21    23    24	 9 ;      NG321     CG2D1O     CG2DC1     CG2DC2
   26    21    23    55	 9 ;      NG321     CG2D1O     CG2DC1       HGA4
   20    21    26    27	 9 ;      NG311     CG2D1O      NG321     HGPAM2
   20    21    26    28	 9 ;      NG311     CG2D1O      NG321     HGPAM2
   23    21    26    27	 9 ;     CG2DC1     CG2D1O      NG321     HGPAM2
   23    21    26    28	 9 ;     CG2DC1     CG2D1O      NG321     HGPAM2
   21    23    24    25	 9 ;     CG2D1O     CG2DC1     CG2DC2     CG2DC2
   21    23    24    56	 9 ;     CG2D1O     CG2DC1     CG2DC2       HGA4
   55    23    24    25	 9 ;       HGA4     CG2DC1     CG2DC2     CG2DC2
   55    23    24    56	 9 ;       HGA4     CG2DC1     CG2DC2       HGA4
   23    24    25    19	 9 ;     CG2DC1     CG2DC2     CG2DC2      CG311
   23    24    25    57	 9 ;     CG2DC1     CG2DC2     CG2DC2       HGA4
   56    24    25    19	 9 ;       HGA4     CG2DC2     CG2DC2      CG311
   56    24    25    57	 9 ;       HGA4     CG2DC2     CG2DC2       HGA4
    1    29    30    31	 9 ;     CG2R51     CG2R61     CG2R61     CG2R61
    1    29    30    58	 9 ;     CG2R51     CG2R61     CG2R61      HGR61
   34    29    30    31	 9 ;     CG2R61     CG2R61     CG2R61     CG2R61
   34    29    30    58	 9 ;     CG2R61     CG2R61     CG2R61      HGR61
    1    29    34    35	 9 ;     CG2R51     CG2R61     CG2R61      CLGR1
    1    29    34    33	 9 ;     CG2R51     CG2R61     CG2R61     CG2R61
   30    29    34    35	 9 ;     CG2R61     CG2R61     CG2R61      CLGR1
   30    29    34    33	 9 ;     CG2R61     CG2R61     CG2R61     CG2R61
   29    30    31    32	 9 ;     CG2R61     CG2R61     CG2R61     CG2R61
   29    30    31    59	 9 ;     CG2R61     CG2R61     CG2R61      HGR61
   58    30    31    32	 9 ;      HGR61     CG2R61     CG2R61     CG2R61
   58    30    31    59	 9 ;      HGR61     CG2R61     CG2R61      HGR61
   30    31    32    33	 9 ;     CG2R61     CG2R61     CG2R61     CG2R61
   30    31    32    60	 9 ;     CG2R61     CG2R61     CG2R61      HGR61
   59    31    32    33	 9 ;      HGR61     CG2R61     CG2R61     CG2R61
   59    31    32    60	 9 ;      HGR61     CG2R61     CG2R61      HGR61
   31    32    33    34	 9 ;     CG2R61     CG2R61     CG2R61     CG2R61
   31    32    33    61	 9 ;     CG2R61     CG2R61     CG2R61      HGR62
   60    32    33    34	 9 ;      HGR61     CG2R61     CG2R61     CG2R61
   60    32    33    61	 9 ;      HGR61     CG2R61     CG2R61      HGR62
   32    33    34    29	 9 ;     CG2R61     CG2R61     CG2R61     CG2R61
   32    33    34    35	 9 ;     CG2R61     CG2R61     CG2R61      CLGR1
   61    33    34    29	 9 ;      HGR62     CG2R61     CG2R61     CG2R61
   61    33    34    35	 9 ;      HGR62     CG2R61     CG2R61      CLGR1

[ dihedrals ]
;	ai	  aj	ak	  al funct			  c0			c1			  c2			c3
   21    23    20    26	 2

[ virtual_sites2 ]
; Site   from				funct a
   63    35    34     2   -0.164

[ exclusions ]
;	ai	  aj
   35    63
   63    34
   63    29
   63    33
   63     1
   63    30
   63    32
   63    61

