Giant Rising Ordinary Mutants for A Clerical Setup
   75
    1LIG     C1    1  -1.273   0.388  -1.511
    1LIG     C2    2  -1.236   0.349  -1.362
    1LIG     C3    3  -1.231   0.204  -1.320
    1LIG     C4    4  -1.329   0.113  -1.362
    1LIG     C5    5  -1.316  -0.023  -1.333
    1LIG     F1    6  -1.410  -0.108  -1.378
    1LIG     C6    7  -1.208  -0.072  -1.262
    1LIG     C7    8  -1.110   0.017  -1.222
    1LIG     C8    9  -1.120   0.154  -1.250
    1LIG     F2   10  -1.002  -0.028  -1.156
    1LIG     N1   11  -1.414   0.441  -1.511
    1LIG     C9   12  -1.526   0.384  -1.568
    1LIG     O1   13  -1.511   0.288  -1.643
    1LIG     H1   14  -1.440   0.495  -1.427
    1LIG    C10   15  -1.664   0.459  -1.558
    1LIG    C11   16  -1.717   0.494  -1.698
    1LIG     N2   17  -1.776   0.412  -1.472
    1LIG    C12   18  -1.888   0.336  -1.526
    1LIG    C13   19  -2.011   0.415  -1.483
    1LIG    C14   20  -1.972   0.470  -1.345
    1LIG    C15   21  -1.822   0.498  -1.370
    1LIG     O2   22  -1.754   0.581  -1.314
    1LIG    C16   23  -2.057   0.592  -1.301
    1LIG    C17   24  -2.067   0.697  -1.412
    1LIG    C18   25  -2.200   0.554  -1.259
    1LIG    C19   26  -1.150   0.483  -1.562
    1LIG    C20   27  -1.122   0.511  -1.714
    1LIG     N3   28  -1.209   0.425  -1.801
    1LIG    C21   29  -1.322   0.501  -1.861
    1LIG     H2   30  -1.150   0.376  -1.870
    1LIG     H3   31  -1.243   0.347  -1.743
    1LIG    C22   32  -1.306   0.646  -1.814
    1LIG    C23   33  -1.158   0.650  -1.773
    1LIG     O3   34  -1.398   0.676  -1.708
    1LIG    C24   35  -1.388   0.810  -1.658
    1LIG    C25   36  -1.526   0.878  -1.657
    1LIG    C26   37  -1.626   0.830  -1.553
    1LIG     O4   38  -1.156   0.608  -1.494
    1LIG     H4   39  -1.090   0.611  -1.423
    1LIG     HC   40  -1.271   0.297  -1.571
    1LIG    HC2   41  -1.137   0.391  -1.343
    1LIG    HC3   42  -1.307   0.400  -1.297
    1LIG    HC1   43  -1.415   0.149  -1.417
    1LIG    HC4   44  -1.200  -0.177  -1.238
    1LIG    HC5   45  -1.041   0.221  -1.218
    1LIG    HC6   46  -1.638   0.556  -1.515
    1LIG    HC7   47  -1.882   0.330  -1.635
    1LIG    HC8   48  -1.890   0.236  -1.483
    1LIG    HC9   49  -2.098   0.350  -1.475
    1LIG   HC10   50  -2.030   0.496  -1.553
    1LIG   HC11   51  -1.981   0.391  -1.271
    1LIG   HC12   52  -2.009   0.638  -1.215
    1LIG   HC13   53  -1.060   0.435  -1.525
    1LIG   HC14   54  -1.018   0.489  -1.736
    1LIG   HC15   55  -1.418   0.461  -1.827
    1LIG   HC16   56  -1.317   0.496  -1.970
    1LIG   HC17   57  -1.323   0.714  -1.898
    1LIG   HC18   58  -1.143   0.727  -1.697
    1LIG   HC19   59  -1.096   0.670  -1.860
    1LIG   HC20   60  -1.349   0.808  -1.557
    1LIG   HC21   61  -1.321   0.867  -1.722
    1LIG   HC22   62  -1.571   0.864  -1.755
    1LIG   HC23   63  -1.510   0.985  -1.641
    1LIG   HC24   64  -1.642   0.554  -1.750
    1LIG   HC25   65  -1.736   0.403  -1.753
    1LIG   HC26   66  -1.809   0.552  -1.689
    1LIG   HC27   67  -1.679   0.915  -1.510
    1LIG   HC28   68  -1.574   0.776  -1.474
    1LIG   HC29   69  -1.698   0.763  -1.601
    1LIG   HC30   70  -2.196   0.479  -1.180
    1LIG   HC31   71  -2.252   0.642  -1.223
    1LIG   HC32   72  -2.253   0.513  -1.345
    1LIG   HC33   73  -2.088   0.795  -1.368
    1LIG   HC34   74  -1.973   0.702  -1.466
    1LIG   HC35   75  -2.147   0.670  -1.481
   0.00000   0.00000   0.00000
