; Created by cgenff_charmm2gmx.py

[ moleculetype ]
; Name			   nrexcl
LIG				 3

[ atoms ]
;	 nr		  type	resnr residue  atom   cgnr	   charge		mass  typeB    chargeB		massB
; residue	 1 LIG rtp LIG q	qsum
     1      CG311      1    LIG     C1      1      0.112     12.011   ;
     2      CG321      1    LIG     C2      2     -0.149     12.011   ;
     3     CG2R61      1    LIG     C3      3      0.057     12.011   ;
     4     CG2R61      1    LIG     C4      4     -0.218     12.011   ;
     5     CG2R66      1    LIG     C5      5      0.261     12.011   ;
     6       FGR1      1    LIG     F1      6     -0.210     18.998   ;
     7     CG2R61      1    LIG     C6      7     -0.240     12.011   ;
     8     CG2R66      1    LIG     C7      8      0.261     12.011   ;
     9     CG2R61      1    LIG     C8      9     -0.218     12.011   ;
    10       FGR1      1    LIG     F2     10     -0.210     18.998   ;
    11      NG2S1      1    LIG     N1     11     -0.371     14.007   ;
    12      CG2O1      1    LIG     C9     12      0.510     12.011   ;
    13      OG2D1      1    LIG     O1     13     -0.511     15.999   ;
    14       HGP1      1    LIG     H1     14      0.269      1.008   ;
    15      CG311      1    LIG    C10     15     -0.013     12.011   ;
    16      CG331      1    LIG    C11     16     -0.232     12.011   ;
    17     NG2R53      1    LIG     N2     17     -0.088     14.007   ;
    18     CG3C52      1    LIG    C12     18     -0.127     12.011   ;
    19     CG3C52      1    LIG    C13     19     -0.211     12.011   ;
    20     CG3C51      1    LIG    C14     20     -0.095     12.011   ;
    21     CG2R53      1    LIG    C15     21      0.412     12.011   ;
    22      OG2D1      1    LIG     O2     22     -0.496     15.999   ;
    23      CG311      1    LIG    C16     23     -0.073     12.011   ;
    24      CG331      1    LIG    C17     24     -0.271     12.011   ;
    25      CG331      1    LIG    C18     25     -0.271     12.011   ;
    26      CG311      1    LIG    C19     26     -0.216     12.011   ;
    27     CG3C53      1    LIG    C20     27      0.379     12.011   ;
    28      NG3P2      1    LIG     N3     28     -0.259     14.007   ;
    29     CG3C54      1    LIG    C21     29     -0.434     12.011   ;
    30       HGP2      1    LIG     H2     30      0.302      1.008   ;
    31       HGP2      1    LIG     H3     31      0.302      1.008   ;
    32     CG3C51      1    LIG    C22     32      0.195     12.011   ;
    33     CG3C52      1    LIG    C23     33     -0.111     12.011   ;
    34      OG301      1    LIG     O3     34     -0.378     15.999   ;
    35      CG321      1    LIG    C24     35      0.110     12.011   ;
    36      CG321      1    LIG    C25     36     -0.196     12.011   ;
    37      CG331      1    LIG    C26     37     -0.270     12.011   ;
    38      OG311      1    LIG     O4     38     -0.593     15.999   ;
    39       HGP1      1    LIG     H4     39      0.422      1.008   ;
    40       HGA1      1    LIG     HC     40      0.090      1.008   ;
    41       HGA2      1    LIG    HC2     41      0.090      1.008   ;
    42       HGA2      1    LIG    HC3     42      0.090      1.008   ;
    43      HGR62      1    LIG    HC1     43      0.174      1.008   ;
    44      HGR62      1    LIG    HC4     44      0.186      1.008   ;
    45      HGR62      1    LIG    HC5     45      0.174      1.008   ;
    46       HGA1      1    LIG    HC6     46      0.090      1.008   ;
    47       HGA2      1    LIG    HC7     47      0.090      1.008   ;
    48       HGA2      1    LIG    HC8     48      0.090      1.008   ;
    49       HGA2      1    LIG    HC9     49      0.090      1.008   ;
    50       HGA2      1    LIG   HC10     50      0.090      1.008   ;
    51       HGA1      1    LIG   HC11     51      0.115      1.008   ;
    52       HGA1      1    LIG   HC12     52      0.090      1.008   ;
    53       HGA1      1    LIG   HC13     53      0.090      1.008   ;
    54       HGA1      1    LIG   HC14     54      0.090      1.008   ;
    55       HGA2      1    LIG   HC15     55      0.260      1.008   ;
    56       HGA2      1    LIG   HC16     56      0.260      1.008   ;
    57       HGA1      1    LIG   HC17     57      0.090      1.008   ;
    58       HGA2      1    LIG   HC18     58      0.090      1.008   ;
    59       HGA2      1    LIG   HC19     59      0.090      1.008   ;
    60       HGA2      1    LIG   HC20     60      0.090      1.008   ;
    61       HGA2      1    LIG   HC21     61      0.090      1.008   ;
    62       HGA2      1    LIG   HC22     62      0.090      1.008   ;
    63       HGA2      1    LIG   HC23     63      0.090      1.008   ;
    64       HGA3      1    LIG   HC24     64      0.090      1.008   ;
    65       HGA3      1    LIG   HC25     65      0.090      1.008   ;
    66       HGA3      1    LIG   HC26     66      0.090      1.008   ;
    67       HGA3      1    LIG   HC27     67      0.090      1.008   ;
    68       HGA3      1    LIG   HC28     68      0.090      1.008   ;
    69       HGA3      1    LIG   HC29     69      0.090      1.008   ;
    70       HGA3      1    LIG   HC30     70      0.090      1.008   ;
    71       HGA3      1    LIG   HC31     71      0.090      1.008   ;
    72       HGA3      1    LIG   HC32     72      0.090      1.008   ;
    73       HGA3      1    LIG   HC33     73      0.090      1.008   ;
    74       HGA3      1    LIG   HC34     74      0.090      1.008   ;
    75       HGA3      1    LIG   HC35     75      0.090      1.008   ;

[ bonds ]
;	ai	  aj funct			  c0			c1			  c2			c3
    1    26	 1 ;       CG311      CG311
    1     2	 1 ;       CG311      CG321
    1    11	 1 ;       CG311      NG2S1
    1    40	 1 ;       CG311       HGA1
    2     3	 1 ;       CG321     CG2R61
    2    41	 1 ;       CG321       HGA2
    2    42	 1 ;       CG321       HGA2
    3     9	 1 ;      CG2R61     CG2R61
    3     4	 1 ;      CG2R61     CG2R61
    4     5	 1 ;      CG2R61     CG2R66
    4    43	 1 ;      CG2R61      HGR62
    5     7	 1 ;      CG2R66     CG2R61
    5     6	 1 ;      CG2R66       FGR1
    7     8	 1 ;      CG2R61     CG2R66
    7    44	 1 ;      CG2R61      HGR62
    8    10	 1 ;      CG2R66       FGR1
    8     9	 1 ;      CG2R66     CG2R61
    9    45	 1 ;      CG2R61      HGR62
   11    12	 1 ;       NG2S1      CG2O1
   11    14	 1 ;       NG2S1       HGP1
   12    13	 1 ;       CG2O1      OG2D1
   12    15	 1 ;       CG2O1      CG311
   15    16	 1 ;       CG311      CG331
   15    17	 1 ;       CG311     NG2R53
   15    46	 1 ;       CG311       HGA1
   16    64	 1 ;       CG331       HGA3
   16    65	 1 ;       CG331       HGA3
   16    66	 1 ;       CG331       HGA3
   17    18	 1 ;      NG2R53     CG3C52
   17    21	 1 ;      NG2R53     CG2R53
   18    19	 1 ;      CG3C52     CG3C52
   18    47	 1 ;      CG3C52       HGA2
   18    48	 1 ;      CG3C52       HGA2
   19    20	 1 ;      CG3C52     CG3C51
   19    49	 1 ;      CG3C52       HGA2
   19    50	 1 ;      CG3C52       HGA2
   20    21	 1 ;      CG3C51     CG2R53
   20    23	 1 ;      CG3C51      CG311
   20    51	 1 ;      CG3C51       HGA1
   21    22	 1 ;      CG2R53      OG2D1
   23    24	 1 ;       CG311      CG331
   23    25	 1 ;       CG311      CG331
   23    52	 1 ;       CG311       HGA1
   24    73	 1 ;       CG331       HGA3
   24    74	 1 ;       CG331       HGA3
   24    75	 1 ;       CG331       HGA3
   25    70	 1 ;       CG331       HGA3
   25    71	 1 ;       CG331       HGA3
   25    72	 1 ;       CG331       HGA3
   26    27	 1 ;       CG311     CG3C53
   26    38	 1 ;       CG311      OG311
   26    53	 1 ;       CG311       HGA1
   27    28	 1 ;      CG3C53      NG3P2
   27    33	 1 ;      CG3C53     CG3C52
   27    54	 1 ;      CG3C53       HGA1
   28    30	 1 ;       NG3P2       HGP2
   28    31	 1 ;       NG3P2       HGP2
   28    29	 1 ;       NG3P2     CG3C54
   29    32	 1 ;      CG3C54     CG3C51
   29    55	 1 ;      CG3C54       HGA2
   29    56	 1 ;      CG3C54       HGA2
   32    33	 1 ;      CG3C51     CG3C52
   32    34	 1 ;      CG3C51      OG301
   32    57	 1 ;      CG3C51       HGA1
   33    58	 1 ;      CG3C52       HGA2
   33    59	 1 ;      CG3C52       HGA2
   34    35	 1 ;       OG301      CG321
   35    36	 1 ;       CG321      CG321
   35    60	 1 ;       CG321       HGA2
   35    61	 1 ;       CG321       HGA2
   36    37	 1 ;       CG321      CG331
   36    62	 1 ;       CG321       HGA2
   36    63	 1 ;       CG321       HGA2
   37    67	 1 ;       CG331       HGA3
   37    68	 1 ;       CG331       HGA3
   37    69	 1 ;       CG331       HGA3
   38    39	 1 ;       OG311       HGP1

[ pairs ]
;	ai	  aj funct			  c0			c1			  c2			c3
    1     9	 1
    1     4	 1
    1    13	 1
    1    15	 1
    1    28	 1
    1    33	 1
    1    54	 1
    1    39	 1
    2    27	 1
    2    38	 1
    2    53	 1
    2    12	 1
    2    14	 1
    2     8	 1
    2    45	 1
    2     5	 1
    2    43	 1
    3    26	 1
    3    11	 1
    3    40	 1
    3     7	 1
    3     6	 1
    3    10	 1
    4    41	 1
    4    42	 1
    4     8	 1
    4    45	 1
    4    44	 1
    5     9	 1
    5    10	 1
    6    43	 1
    6     8	 1
    6    44	 1
    7    43	 1
    7    45	 1
    9    41	 1
    9    42	 1
    9    43	 1
    9    44	 1
   10    44	 1
   10    45	 1
   11    27	 1
   11    38	 1
   11    53	 1
   11    41	 1
   11    42	 1
   11    16	 1
   11    17	 1
   11    46	 1
   12    26	 1
   12    40	 1
   12    64	 1
   12    65	 1
   12    66	 1
   12    18	 1
   12    21	 1
   13    14	 1
   13    16	 1
   13    17	 1
   13    46	 1
   14    26	 1
   14    40	 1
   14    15	 1
   15    19	 1
   15    47	 1
   15    48	 1
   15    22	 1
   15    20	 1
   16    18	 1
   16    21	 1
   17    64	 1
   17    65	 1
   17    66	 1
   17    49	 1
   17    50	 1
   17    23	 1
   17    51	 1
   18    46	 1
   18    22	 1
   18    23	 1
   18    51	 1
   19    22	 1
   19    24	 1
   19    25	 1
   19    52	 1
   20    47	 1
   20    48	 1
   20    73	 1
   20    74	 1
   20    75	 1
   20    70	 1
   20    71	 1
   20    72	 1
   21    46	 1
   21    47	 1
   21    48	 1
   21    49	 1
   21    50	 1
   21    24	 1
   21    25	 1
   21    52	 1
   22    23	 1
   22    51	 1
   23    49	 1
   23    50	 1
   24    51	 1
   24    70	 1
   24    71	 1
   24    72	 1
   25    51	 1
   25    73	 1
   25    74	 1
   25    75	 1
   26    41	 1
   26    42	 1
   26    30	 1
   26    31	 1
   26    29	 1
   26    32	 1
   26    58	 1
   26    59	 1
   27    40	 1
   27    39	 1
   27    55	 1
   27    56	 1
   27    34	 1
   27    57	 1
   28    38	 1
   28    53	 1
   28    58	 1
   28    59	 1
   28    34	 1
   28    57	 1
   29    54	 1
   29    58	 1
   29    59	 1
   29    35	 1
   30    33	 1
   30    54	 1
   30    32	 1
   30    55	 1
   30    56	 1
   31    33	 1
   31    54	 1
   31    32	 1
   31    55	 1
   31    56	 1
   32    54	 1
   32    36	 1
   32    60	 1
   32    61	 1
   33    38	 1
   33    53	 1
   33    55	 1
   33    56	 1
   33    35	 1
   34    55	 1
   34    56	 1
   34    58	 1
   34    59	 1
   34    37	 1
   34    62	 1
   34    63	 1
   35    57	 1
   35    67	 1
   35    68	 1
   35    69	 1
   37    60	 1
   37    61	 1
   38    40	 1
   38    54	 1
   39    53	 1
   40    53	 1
   40    41	 1
   40    42	 1
   46    64	 1
   46    65	 1
   46    66	 1
   47    49	 1
   47    50	 1
   48    49	 1
   48    50	 1
   49    51	 1
   50    51	 1
   51    52	 1
   52    73	 1
   52    74	 1
   52    75	 1
   52    70	 1
   52    71	 1
   52    72	 1
   53    54	 1
   54    58	 1
   54    59	 1
   55    57	 1
   56    57	 1
   57    58	 1
   57    59	 1
   60    62	 1
   60    63	 1
   61    62	 1
   61    63	 1
   62    67	 1
   62    68	 1
   62    69	 1
   63    67	 1
   63    68	 1
   63    69	 1

[ angles ]
;	ai	  aj	ak funct			c0			  c1			c2			  c3
   26     1     2	5 ;      CG311      CG311      CG321
   26     1    11	5 ;      CG311      CG311      NG2S1
   26     1    40	5 ;      CG311      CG311       HGA1
    2     1    11	5 ;      CG321      CG311      NG2S1
    2     1    40	5 ;      CG321      CG311       HGA1
   11     1    40	5 ;      NG2S1      CG311       HGA1
    1     2     3	5 ;      CG311      CG321     CG2R61
    1     2    41	5 ;      CG311      CG321       HGA2
    1     2    42	5 ;      CG311      CG321       HGA2
    3     2    41	5 ;     CG2R61      CG321       HGA2
    3     2    42	5 ;     CG2R61      CG321       HGA2
   41     2    42	5 ;       HGA2      CG321       HGA2
    9     3     2	5 ;     CG2R61     CG2R61      CG321
    9     3     4	5 ;     CG2R61     CG2R61     CG2R61
    2     3     4	5 ;      CG321     CG2R61     CG2R61
    3     4     5	5 ;     CG2R61     CG2R61     CG2R66
    3     4    43	5 ;     CG2R61     CG2R61      HGR62
    5     4    43	5 ;     CG2R66     CG2R61      HGR62
    7     5     4	5 ;     CG2R61     CG2R66     CG2R61
    7     5     6	5 ;     CG2R61     CG2R66       FGR1
    4     5     6	5 ;     CG2R61     CG2R66       FGR1
    8     7     5	5 ;     CG2R66     CG2R61     CG2R66
    8     7    44	5 ;     CG2R66     CG2R61      HGR62
    5     7    44	5 ;     CG2R66     CG2R61      HGR62
   10     8     9	5 ;       FGR1     CG2R66     CG2R61
   10     8     7	5 ;       FGR1     CG2R66     CG2R61
    9     8     7	5 ;     CG2R61     CG2R66     CG2R61
    8     9     3	5 ;     CG2R66     CG2R61     CG2R61
    8     9    45	5 ;     CG2R66     CG2R61      HGR62
    3     9    45	5 ;     CG2R61     CG2R61      HGR62
    1    11    12	5 ;      CG311      NG2S1      CG2O1
    1    11    14	5 ;      CG311      NG2S1       HGP1
   12    11    14	5 ;      CG2O1      NG2S1       HGP1
   13    12    11	5 ;      OG2D1      CG2O1      NG2S1
   13    12    15	5 ;      OG2D1      CG2O1      CG311
   11    12    15	5 ;      NG2S1      CG2O1      CG311
   12    15    16	5 ;      CG2O1      CG311      CG331
   12    15    17	5 ;      CG2O1      CG311     NG2R53
   12    15    46	5 ;      CG2O1      CG311       HGA1
   16    15    17	5 ;      CG331      CG311     NG2R53
   16    15    46	5 ;      CG331      CG311       HGA1
   17    15    46	5 ;     NG2R53      CG311       HGA1
   15    16    64	5 ;      CG311      CG331       HGA3
   15    16    65	5 ;      CG311      CG331       HGA3
   15    16    66	5 ;      CG311      CG331       HGA3
   64    16    65	5 ;       HGA3      CG331       HGA3
   64    16    66	5 ;       HGA3      CG331       HGA3
   65    16    66	5 ;       HGA3      CG331       HGA3
   15    17    18	5 ;      CG311     NG2R53     CG3C52
   15    17    21	5 ;      CG311     NG2R53     CG2R53
   18    17    21	5 ;     CG3C52     NG2R53     CG2R53
   17    18    19	5 ;     NG2R53     CG3C52     CG3C52
   17    18    47	5 ;     NG2R53     CG3C52       HGA2
   17    18    48	5 ;     NG2R53     CG3C52       HGA2
   19    18    47	5 ;     CG3C52     CG3C52       HGA2
   19    18    48	5 ;     CG3C52     CG3C52       HGA2
   47    18    48	5 ;       HGA2     CG3C52       HGA2
   18    19    20	5 ;     CG3C52     CG3C52     CG3C51
   18    19    49	5 ;     CG3C52     CG3C52       HGA2
   18    19    50	5 ;     CG3C52     CG3C52       HGA2
   20    19    49	5 ;     CG3C51     CG3C52       HGA2
   20    19    50	5 ;     CG3C51     CG3C52       HGA2
   49    19    50	5 ;       HGA2     CG3C52       HGA2
   21    20    19	5 ;     CG2R53     CG3C51     CG3C52
   21    20    23	5 ;     CG2R53     CG3C51      CG311
   21    20    51	5 ;     CG2R53     CG3C51       HGA1
   19    20    23	5 ;     CG3C52     CG3C51      CG311
   19    20    51	5 ;     CG3C52     CG3C51       HGA1
   23    20    51	5 ;      CG311     CG3C51       HGA1
   17    21    22	5 ;     NG2R53     CG2R53      OG2D1
   17    21    20	5 ;     NG2R53     CG2R53     CG3C51
   22    21    20	5 ;      OG2D1     CG2R53     CG3C51
   20    23    24	5 ;     CG3C51      CG311      CG331
   20    23    25	5 ;     CG3C51      CG311      CG331
   20    23    52	5 ;     CG3C51      CG311       HGA1
   24    23    25	5 ;      CG331      CG311      CG331
   24    23    52	5 ;      CG331      CG311       HGA1
   25    23    52	5 ;      CG331      CG311       HGA1
   23    24    73	5 ;      CG311      CG331       HGA3
   23    24    74	5 ;      CG311      CG331       HGA3
   23    24    75	5 ;      CG311      CG331       HGA3
   73    24    74	5 ;       HGA3      CG331       HGA3
   73    24    75	5 ;       HGA3      CG331       HGA3
   74    24    75	5 ;       HGA3      CG331       HGA3
   23    25    70	5 ;      CG311      CG331       HGA3
   23    25    71	5 ;      CG311      CG331       HGA3
   23    25    72	5 ;      CG311      CG331       HGA3
   70    25    71	5 ;       HGA3      CG331       HGA3
   70    25    72	5 ;       HGA3      CG331       HGA3
   71    25    72	5 ;       HGA3      CG331       HGA3
   27    26    38	5 ;     CG3C53      CG311      OG311
   27    26     1	5 ;     CG3C53      CG311      CG311
   27    26    53	5 ;     CG3C53      CG311       HGA1
   38    26     1	5 ;      OG311      CG311      CG311
   38    26    53	5 ;      OG311      CG311       HGA1
    1    26    53	5 ;      CG311      CG311       HGA1
   28    27    33	5 ;      NG3P2     CG3C53     CG3C52
   28    27    26	5 ;      NG3P2     CG3C53      CG311
   28    27    54	5 ;      NG3P2     CG3C53       HGA1
   33    27    26	5 ;     CG3C52     CG3C53      CG311
   33    27    54	5 ;     CG3C52     CG3C53       HGA1
   26    27    54	5 ;      CG311     CG3C53       HGA1
   30    28    27	5 ;       HGP2      NG3P2     CG3C53
   30    28    31	5 ;       HGP2      NG3P2       HGP2
   30    28    29	5 ;       HGP2      NG3P2     CG3C54
   27    28    31	5 ;     CG3C53      NG3P2       HGP2
   27    28    29	5 ;     CG3C53      NG3P2     CG3C54
   31    28    29	5 ;       HGP2      NG3P2     CG3C54
   28    29    32	5 ;      NG3P2     CG3C54     CG3C51
   28    29    55	5 ;      NG3P2     CG3C54       HGA2
   28    29    56	5 ;      NG3P2     CG3C54       HGA2
   32    29    55	5 ;     CG3C51     CG3C54       HGA2
   32    29    56	5 ;     CG3C51     CG3C54       HGA2
   55    29    56	5 ;       HGA2     CG3C54       HGA2
   33    32    29	5 ;     CG3C52     CG3C51     CG3C54
   33    32    34	5 ;     CG3C52     CG3C51      OG301
   33    32    57	5 ;     CG3C52     CG3C51       HGA1
   29    32    34	5 ;     CG3C54     CG3C51      OG301
   29    32    57	5 ;     CG3C54     CG3C51       HGA1
   34    32    57	5 ;      OG301     CG3C51       HGA1
   27    33    32	5 ;     CG3C53     CG3C52     CG3C51
   27    33    58	5 ;     CG3C53     CG3C52       HGA2
   27    33    59	5 ;     CG3C53     CG3C52       HGA2
   32    33    58	5 ;     CG3C51     CG3C52       HGA2
   32    33    59	5 ;     CG3C51     CG3C52       HGA2
   58    33    59	5 ;       HGA2     CG3C52       HGA2
   32    34    35	5 ;     CG3C51      OG301      CG321
   34    35    36	5 ;      OG301      CG321      CG321
   34    35    60	5 ;      OG301      CG321       HGA2
   34    35    61	5 ;      OG301      CG321       HGA2
   36    35    60	5 ;      CG321      CG321       HGA2
   36    35    61	5 ;      CG321      CG321       HGA2
   60    35    61	5 ;       HGA2      CG321       HGA2
   35    36    37	5 ;      CG321      CG321      CG331
   35    36    62	5 ;      CG321      CG321       HGA2
   35    36    63	5 ;      CG321      CG321       HGA2
   37    36    62	5 ;      CG331      CG321       HGA2
   37    36    63	5 ;      CG331      CG321       HGA2
   62    36    63	5 ;       HGA2      CG321       HGA2
   36    37    67	5 ;      CG321      CG331       HGA3
   36    37    68	5 ;      CG321      CG331       HGA3
   36    37    69	5 ;      CG321      CG331       HGA3
   67    37    68	5 ;       HGA3      CG331       HGA3
   67    37    69	5 ;       HGA3      CG331       HGA3
   68    37    69	5 ;       HGA3      CG331       HGA3
   26    38    39	5 ;      CG311      OG311       HGP1

[ dihedrals ]
;	ai	  aj	ak	  al funct			  c0			c1			  c2			c3			  c4			c5
    2     1    26    27	 9 ;      CG321      CG311      CG311     CG3C53
    2     1    26    38	 9 ;      CG321      CG311      CG311      OG311
    2     1    26    53	 9 ;      CG321      CG311      CG311       HGA1
   11     1    26    27	 9 ;      NG2S1      CG311      CG311     CG3C53
   11     1    26    38	 9 ;      NG2S1      CG311      CG311      OG311
   11     1    26    53	 9 ;      NG2S1      CG311      CG311       HGA1
   40     1    26    27	 9 ;       HGA1      CG311      CG311     CG3C53
   40     1    26    38	 9 ;       HGA1      CG311      CG311      OG311
   40     1    26    53	 9 ;       HGA1      CG311      CG311       HGA1
   26     1     2     3	 9 ;      CG311      CG311      CG321     CG2R61
   26     1     2    41	 9 ;      CG311      CG311      CG321       HGA2
   26     1     2    42	 9 ;      CG311      CG311      CG321       HGA2
   11     1     2     3	 9 ;      NG2S1      CG311      CG321     CG2R61
   11     1     2    41	 9 ;      NG2S1      CG311      CG321       HGA2
   11     1     2    42	 9 ;      NG2S1      CG311      CG321       HGA2
   40     1     2     3	 9 ;       HGA1      CG311      CG321     CG2R61
   40     1     2    41	 9 ;       HGA1      CG311      CG321       HGA2
   40     1     2    42	 9 ;       HGA1      CG311      CG321       HGA2
   26     1    11    12	 9 ;      CG311      CG311      NG2S1      CG2O1
   26     1    11    14	 9 ;      CG311      CG311      NG2S1       HGP1
    2     1    11    12	 9 ;      CG321      CG311      NG2S1      CG2O1
    2     1    11    14	 9 ;      CG321      CG311      NG2S1       HGP1
   40     1    11    12	 9 ;       HGA1      CG311      NG2S1      CG2O1
   40     1    11    14	 9 ;       HGA1      CG311      NG2S1       HGP1
    1     2     3     9	 9 ;      CG311      CG321     CG2R61     CG2R61
    1     2     3     4	 9 ;      CG311      CG321     CG2R61     CG2R61
   41     2     3     9	 9 ;       HGA2      CG321     CG2R61     CG2R61
   41     2     3     4	 9 ;       HGA2      CG321     CG2R61     CG2R61
   42     2     3     9	 9 ;       HGA2      CG321     CG2R61     CG2R61
   42     2     3     4	 9 ;       HGA2      CG321     CG2R61     CG2R61
    2     3     9     8	 9 ;      CG321     CG2R61     CG2R61     CG2R66
    2     3     9    45	 9 ;      CG321     CG2R61     CG2R61      HGR62
    4     3     9     8	 9 ;     CG2R61     CG2R61     CG2R61     CG2R66
    4     3     9    45	 9 ;     CG2R61     CG2R61     CG2R61      HGR62
    9     3     4     5	 9 ;     CG2R61     CG2R61     CG2R61     CG2R66
    9     3     4    43	 9 ;     CG2R61     CG2R61     CG2R61      HGR62
    2     3     4     5	 9 ;      CG321     CG2R61     CG2R61     CG2R66
    2     3     4    43	 9 ;      CG321     CG2R61     CG2R61      HGR62
    3     4     5     7	 9 ;     CG2R61     CG2R61     CG2R66     CG2R61
    3     4     5     6	 9 ;     CG2R61     CG2R61     CG2R66       FGR1
   43     4     5     7	 9 ;      HGR62     CG2R61     CG2R66     CG2R61
   43     4     5     6	 9 ;      HGR62     CG2R61     CG2R66       FGR1
    4     5     7     8	 9 ;     CG2R61     CG2R66     CG2R61     CG2R66
    4     5     7    44	 9 ;     CG2R61     CG2R66     CG2R61      HGR62
    6     5     7     8	 9 ;       FGR1     CG2R66     CG2R61     CG2R66
    6     5     7    44	 9 ;       FGR1     CG2R66     CG2R61      HGR62
    5     7     8    10	 9 ;     CG2R66     CG2R61     CG2R66       FGR1
    5     7     8     9	 9 ;     CG2R66     CG2R61     CG2R66     CG2R61
   44     7     8    10	 9 ;      HGR62     CG2R61     CG2R66       FGR1
   44     7     8     9	 9 ;      HGR62     CG2R61     CG2R66     CG2R61
   10     8     9     3	 9 ;       FGR1     CG2R66     CG2R61     CG2R61
   10     8     9    45	 9 ;       FGR1     CG2R66     CG2R61      HGR62
    7     8     9     3	 9 ;     CG2R61     CG2R66     CG2R61     CG2R61
    7     8     9    45	 9 ;     CG2R61     CG2R66     CG2R61      HGR62
    1    11    12    13	 9 ;      CG311      NG2S1      CG2O1      OG2D1
    1    11    12    15	 9 ;      CG311      NG2S1      CG2O1      CG311
   14    11    12    13	 9 ;       HGP1      NG2S1      CG2O1      OG2D1
   14    11    12    15	 9 ;       HGP1      NG2S1      CG2O1      CG311
   13    12    15    16	 9 ;      OG2D1      CG2O1      CG311      CG331
   13    12    15    17	 9 ;      OG2D1      CG2O1      CG311     NG2R53
   13    12    15    46	 9 ;      OG2D1      CG2O1      CG311       HGA1
   11    12    15    16	 9 ;      NG2S1      CG2O1      CG311      CG331
   11    12    15    17	 9 ;      NG2S1      CG2O1      CG311     NG2R53
   11    12    15    46	 9 ;      NG2S1      CG2O1      CG311       HGA1
   12    15    16    64	 9 ;      CG2O1      CG311      CG331       HGA3
   12    15    16    65	 9 ;      CG2O1      CG311      CG331       HGA3
   12    15    16    66	 9 ;      CG2O1      CG311      CG331       HGA3
   17    15    16    64	 9 ;     NG2R53      CG311      CG331       HGA3
   17    15    16    65	 9 ;     NG2R53      CG311      CG331       HGA3
   17    15    16    66	 9 ;     NG2R53      CG311      CG331       HGA3
   46    15    16    64	 9 ;       HGA1      CG311      CG331       HGA3
   46    15    16    65	 9 ;       HGA1      CG311      CG331       HGA3
   46    15    16    66	 9 ;       HGA1      CG311      CG331       HGA3
   12    15    17    18	 9 ;      CG2O1      CG311     NG2R53     CG3C52
   12    15    17    21	 9 ;      CG2O1      CG311     NG2R53     CG2R53
   16    15    17    18	 9 ;      CG331      CG311     NG2R53     CG3C52
   16    15    17    21	 9 ;      CG331      CG311     NG2R53     CG2R53
   46    15    17    18	 9 ;       HGA1      CG311     NG2R53     CG3C52
   46    15    17    21	 9 ;       HGA1      CG311     NG2R53     CG2R53
   15    17    18    19	 9 ;      CG311     NG2R53     CG3C52     CG3C52
   15    17    18    47	 9 ;      CG311     NG2R53     CG3C52       HGA2
   15    17    18    48	 9 ;      CG311     NG2R53     CG3C52       HGA2
   21    17    18    19	 9 ;     CG2R53     NG2R53     CG3C52     CG3C52
   21    17    18    47	 9 ;     CG2R53     NG2R53     CG3C52       HGA2
   21    17    18    48	 9 ;     CG2R53     NG2R53     CG3C52       HGA2
   15    17    21    22	 9 ;      CG311     NG2R53     CG2R53      OG2D1
   15    17    21    20	 9 ;      CG311     NG2R53     CG2R53     CG3C51
   18    17    21    22	 9 ;     CG3C52     NG2R53     CG2R53      OG2D1
   18    17    21    20	 9 ;     CG3C52     NG2R53     CG2R53     CG3C51
   17    18    19    20	 9 ;     NG2R53     CG3C52     CG3C52     CG3C51
   17    18    19    49	 9 ;     NG2R53     CG3C52     CG3C52       HGA2
   17    18    19    50	 9 ;     NG2R53     CG3C52     CG3C52       HGA2
   47    18    19    20	 9 ;       HGA2     CG3C52     CG3C52     CG3C51
   47    18    19    49	 9 ;       HGA2     CG3C52     CG3C52       HGA2
   47    18    19    50	 9 ;       HGA2     CG3C52     CG3C52       HGA2
   48    18    19    20	 9 ;       HGA2     CG3C52     CG3C52     CG3C51
   48    18    19    49	 9 ;       HGA2     CG3C52     CG3C52       HGA2
   48    18    19    50	 9 ;       HGA2     CG3C52     CG3C52       HGA2
   18    19    20    21	 9 ;     CG3C52     CG3C52     CG3C51     CG2R53
   18    19    20    23	 9 ;     CG3C52     CG3C52     CG3C51      CG311
   18    19    20    51	 9 ;     CG3C52     CG3C52     CG3C51       HGA1
   49    19    20    21	 9 ;       HGA2     CG3C52     CG3C51     CG2R53
   49    19    20    23	 9 ;       HGA2     CG3C52     CG3C51      CG311
   49    19    20    51	 9 ;       HGA2     CG3C52     CG3C51       HGA1
   50    19    20    21	 9 ;       HGA2     CG3C52     CG3C51     CG2R53
   50    19    20    23	 9 ;       HGA2     CG3C52     CG3C51      CG311
   50    19    20    51	 9 ;       HGA2     CG3C52     CG3C51       HGA1
   19    20    21    17	 9 ;     CG3C52     CG3C51     CG2R53     NG2R53
   19    20    21    22	 9 ;     CG3C52     CG3C51     CG2R53      OG2D1
   23    20    21    17	 9 ;      CG311     CG3C51     CG2R53     NG2R53
   23    20    21    22	 9 ;      CG311     CG3C51     CG2R53      OG2D1
   51    20    21    17	 9 ;       HGA1     CG3C51     CG2R53     NG2R53
   51    20    21    22	 9 ;       HGA1     CG3C51     CG2R53      OG2D1
   21    20    23    24	 9 ;     CG2R53     CG3C51      CG311      CG331
   21    20    23    25	 9 ;     CG2R53     CG3C51      CG311      CG331
   21    20    23    52	 9 ;     CG2R53     CG3C51      CG311       HGA1
   19    20    23    24	 9 ;     CG3C52     CG3C51      CG311      CG331
   19    20    23    25	 9 ;     CG3C52     CG3C51      CG311      CG331
   19    20    23    52	 9 ;     CG3C52     CG3C51      CG311       HGA1
   51    20    23    24	 9 ;       HGA1     CG3C51      CG311      CG331
   51    20    23    25	 9 ;       HGA1     CG3C51      CG311      CG331
   51    20    23    52	 9 ;       HGA1     CG3C51      CG311       HGA1
   20    23    24    73	 9 ;     CG3C51      CG311      CG331       HGA3
   20    23    24    74	 9 ;     CG3C51      CG311      CG331       HGA3
   20    23    24    75	 9 ;     CG3C51      CG311      CG331       HGA3
   25    23    24    73	 9 ;      CG331      CG311      CG331       HGA3
   25    23    24    74	 9 ;      CG331      CG311      CG331       HGA3
   25    23    24    75	 9 ;      CG331      CG311      CG331       HGA3
   52    23    24    73	 9 ;       HGA1      CG311      CG331       HGA3
   52    23    24    74	 9 ;       HGA1      CG311      CG331       HGA3
   52    23    24    75	 9 ;       HGA1      CG311      CG331       HGA3
   20    23    25    70	 9 ;     CG3C51      CG311      CG331       HGA3
   20    23    25    71	 9 ;     CG3C51      CG311      CG331       HGA3
   20    23    25    72	 9 ;     CG3C51      CG311      CG331       HGA3
   24    23    25    70	 9 ;      CG331      CG311      CG331       HGA3
   24    23    25    71	 9 ;      CG331      CG311      CG331       HGA3
   24    23    25    72	 9 ;      CG331      CG311      CG331       HGA3
   52    23    25    70	 9 ;       HGA1      CG311      CG331       HGA3
   52    23    25    71	 9 ;       HGA1      CG311      CG331       HGA3
   52    23    25    72	 9 ;       HGA1      CG311      CG331       HGA3
   38    26    27    28	 9 ;      OG311      CG311     CG3C53      NG3P2
   38    26    27    33	 9 ;      OG311      CG311     CG3C53     CG3C52
   38    26    27    54	 9 ;      OG311      CG311     CG3C53       HGA1
    1    26    27    28	 9 ;      CG311      CG311     CG3C53      NG3P2
    1    26    27    33	 9 ;      CG311      CG311     CG3C53     CG3C52
    1    26    27    54	 9 ;      CG311      CG311     CG3C53       HGA1
   53    26    27    28	 9 ;       HGA1      CG311     CG3C53      NG3P2
   53    26    27    33	 9 ;       HGA1      CG311     CG3C53     CG3C52
   53    26    27    54	 9 ;       HGA1      CG311     CG3C53       HGA1
   27    26    38    39	 9 ;     CG3C53      CG311      OG311       HGP1
    1    26    38    39	 9 ;      CG311      CG311      OG311       HGP1
   53    26    38    39	 9 ;       HGA1      CG311      OG311       HGP1
   33    27    28    30	 9 ;     CG3C52     CG3C53      NG3P2       HGP2
   33    27    28    31	 9 ;     CG3C52     CG3C53      NG3P2       HGP2
   33    27    28    29	 9 ;     CG3C52     CG3C53      NG3P2     CG3C54
   26    27    28    30	 9 ;      CG311     CG3C53      NG3P2       HGP2
   26    27    28    31	 9 ;      CG311     CG3C53      NG3P2       HGP2
   26    27    28    29	 9 ;      CG311     CG3C53      NG3P2     CG3C54
   54    27    28    30	 9 ;       HGA1     CG3C53      NG3P2       HGP2
   54    27    28    31	 9 ;       HGA1     CG3C53      NG3P2       HGP2
   54    27    28    29	 9 ;       HGA1     CG3C53      NG3P2     CG3C54
   28    27    33    32	 9 ;      NG3P2     CG3C53     CG3C52     CG3C51
   28    27    33    58	 9 ;      NG3P2     CG3C53     CG3C52       HGA2
   28    27    33    59	 9 ;      NG3P2     CG3C53     CG3C52       HGA2
   26    27    33    32	 9 ;      CG311     CG3C53     CG3C52     CG3C51
   26    27    33    58	 9 ;      CG311     CG3C53     CG3C52       HGA2
   26    27    33    59	 9 ;      CG311     CG3C53     CG3C52       HGA2
   54    27    33    32	 9 ;       HGA1     CG3C53     CG3C52     CG3C51
   54    27    33    58	 9 ;       HGA1     CG3C53     CG3C52       HGA2
   54    27    33    59	 9 ;       HGA1     CG3C53     CG3C52       HGA2
   30    28    29    32	 9 ;       HGP2      NG3P2     CG3C54     CG3C51
   30    28    29    55	 9 ;       HGP2      NG3P2     CG3C54       HGA2
   30    28    29    56	 9 ;       HGP2      NG3P2     CG3C54       HGA2
   27    28    29    32	 9 ;     CG3C53      NG3P2     CG3C54     CG3C51
   27    28    29    55	 9 ;     CG3C53      NG3P2     CG3C54       HGA2
   27    28    29    56	 9 ;     CG3C53      NG3P2     CG3C54       HGA2
   31    28    29    32	 9 ;       HGP2      NG3P2     CG3C54     CG3C51
   31    28    29    55	 9 ;       HGP2      NG3P2     CG3C54       HGA2
   31    28    29    56	 9 ;       HGP2      NG3P2     CG3C54       HGA2
   28    29    32    33	 9 ;      NG3P2     CG3C54     CG3C51     CG3C52
   28    29    32    34	 9 ;      NG3P2     CG3C54     CG3C51      OG301
   28    29    32    57	 9 ;      NG3P2     CG3C54     CG3C51       HGA1
   55    29    32    33	 9 ;       HGA2     CG3C54     CG3C51     CG3C52
   55    29    32    34	 9 ;       HGA2     CG3C54     CG3C51      OG301
   55    29    32    57	 9 ;       HGA2     CG3C54     CG3C51       HGA1
   56    29    32    33	 9 ;       HGA2     CG3C54     CG3C51     CG3C52
   56    29    32    34	 9 ;       HGA2     CG3C54     CG3C51      OG301
   56    29    32    57	 9 ;       HGA2     CG3C54     CG3C51       HGA1
   29    32    33    27	 9 ;     CG3C54     CG3C51     CG3C52     CG3C53
   29    32    33    58	 9 ;     CG3C54     CG3C51     CG3C52       HGA2
   29    32    33    59	 9 ;     CG3C54     CG3C51     CG3C52       HGA2
   34    32    33    27	 9 ;      OG301     CG3C51     CG3C52     CG3C53
   34    32    33    58	 9 ;      OG301     CG3C51     CG3C52       HGA2
   34    32    33    59	 9 ;      OG301     CG3C51     CG3C52       HGA2
   57    32    33    27	 9 ;       HGA1     CG3C51     CG3C52     CG3C53
   57    32    33    58	 9 ;       HGA1     CG3C51     CG3C52       HGA2
   57    32    33    59	 9 ;       HGA1     CG3C51     CG3C52       HGA2
   33    32    34    35	 9 ;     CG3C52     CG3C51      OG301      CG321
   29    32    34    35	 9 ;     CG3C54     CG3C51      OG301      CG321
   57    32    34    35	 9 ;       HGA1     CG3C51      OG301      CG321
   32    34    35    36	 9 ;     CG3C51      OG301      CG321      CG321
   32    34    35    60	 9 ;     CG3C51      OG301      CG321       HGA2
   32    34    35    61	 9 ;     CG3C51      OG301      CG321       HGA2
   34    35    36    37	 9 ;      OG301      CG321      CG321      CG331
   34    35    36    62	 9 ;      OG301      CG321      CG321       HGA2
   34    35    36    63	 9 ;      OG301      CG321      CG321       HGA2
   60    35    36    37	 9 ;       HGA2      CG321      CG321      CG331
   60    35    36    62	 9 ;       HGA2      CG321      CG321       HGA2
   60    35    36    63	 9 ;       HGA2      CG321      CG321       HGA2
   61    35    36    37	 9 ;       HGA2      CG321      CG321      CG331
   61    35    36    62	 9 ;       HGA2      CG321      CG321       HGA2
   61    35    36    63	 9 ;       HGA2      CG321      CG321       HGA2
   35    36    37    67	 9 ;      CG321      CG321      CG331       HGA3
   35    36    37    68	 9 ;      CG321      CG321      CG331       HGA3
   35    36    37    69	 9 ;      CG321      CG321      CG331       HGA3
   62    36    37    67	 9 ;       HGA2      CG321      CG331       HGA3
   62    36    37    68	 9 ;       HGA2      CG321      CG331       HGA3
   62    36    37    69	 9 ;       HGA2      CG321      CG331       HGA3
   63    36    37    67	 9 ;       HGA2      CG321      CG331       HGA3
   63    36    37    68	 9 ;       HGA2      CG321      CG331       HGA3
   63    36    37    69	 9 ;       HGA2      CG321      CG331       HGA3

[ dihedrals ]
;	ai	  aj	ak	  al funct			  c0			c1			  c2			c3
   12    15    11    13	 2
   21    20    17    22	 2

