Giant Rising Ordinary Mutants for A Clerical Setup
   95
    1LIG     C1    1  -1.793   0.578  -1.362
    1LIG     O1    2  -1.757   0.554  -1.248
    1LIG     N1    3  -1.924   0.604  -1.394
    1LIG     H1    4  -1.951   0.592  -1.491
    1LIG     C2    5  -2.037   0.596  -1.299
    1LIG     C3    6  -2.103   0.456  -1.284
    1LIG     O2    7  -2.191   0.451  -1.170
    1LIG     C4    8  -2.219   0.326  -1.122
    1LIG     C5    9  -2.273   0.235  -1.213
    1LIG     C6   10  -2.305   0.105  -1.173
    1LIG     F1   11  -2.360   0.020  -1.261
    1LIG     C7   12  -2.280   0.062  -1.044
    1LIG     C8   13  -2.221   0.150  -0.955
    1LIG     F2   14  -2.192   0.109  -0.831
    1LIG     C9   15  -2.191   0.281  -0.992
    1LIG    C10   16  -2.139   0.711  -1.327
    1LIG    C11   17  -2.241   0.683  -1.439
    1LIG    C12   18  -2.230   0.773  -1.565
    1LIG    C13   19  -2.178   0.696  -1.689
    1LIG     O3   20  -2.043   0.650  -1.674
    1LIG    C14   21  -2.011   0.560  -1.781
    1LIG    C15   22  -1.916   0.447  -1.747
    1LIG    C16   23  -1.798   0.424  -1.817
    1LIG    C17   24  -1.702   0.334  -1.768
    1LIG    C18   25  -1.725   0.266  -1.648
    1LIG    C19   26  -1.844   0.284  -1.580
    1LIG    C20   27  -1.939   0.373  -1.629
    1LIG     O4   28  -2.355   0.841  -1.589
    1LIG    C21   29  -2.418   0.902  -1.478
    1LIG     O5   30  -2.212   0.737  -1.206
    1LIG     H2   31  -2.225   0.834  -1.198
    1LIG    C22   32  -1.691   0.586  -1.472
    1LIG    C23   33  -1.580   0.501  -1.458
    1LIG    C24   34  -1.465   0.520  -1.536
    1LIG    C25   35  -1.467   0.615  -1.640
    1LIG    C26   36  -1.582   0.692  -1.661
    1LIG    C27   37  -1.693   0.679  -1.577
    1LIG    C28   38  -1.336   0.451  -1.505
    1LIG     O6   39  -1.234   0.517  -1.495
    1LIG     N2   40  -1.339   0.313  -1.489
    1LIG     H3   41  -1.421   0.261  -1.514
    1LIG    C29   42  -1.215   0.237  -1.482
    1LIG    C30   43  -1.181   0.187  -1.623
    1LIG    C31   44  -1.216   0.122  -1.381
    1LIG    C32   45  -1.114   0.119  -1.285
    1LIG    C33   46  -1.109   0.019  -1.187
    1LIG    C34   47  -1.206  -0.080  -1.184
    1LIG    C35   48  -1.308  -0.079  -1.279
    1LIG    C36   49  -1.313   0.021  -1.377
    1LIG     N3   50  -1.587   0.787  -1.768
    1LIG    C37   51  -1.576   0.739  -1.906
    1LIG      S   52  -1.666   0.935  -1.740
    1LIG     O7   53  -1.606   0.995  -1.623
    1LIG     O8   54  -1.810   0.913  -1.747
    1LIG    C38   55  -1.618   1.032  -1.881
    1LIG     HC   56  -1.995   0.618  -1.201
    1LIG    HC2   57  -2.161   0.434  -1.374
    1LIG    HC3   58  -2.026   0.380  -1.273
    1LIG    HC1   59  -2.290   0.265  -1.316
    1LIG    HC4   60  -2.306  -0.038  -1.014
    1LIG    HC5   61  -2.145   0.349  -0.921
    1LIG    HC6   62  -2.083   0.801  -1.353
    1LIG    HC7   63  -2.228   0.579  -1.470
    1LIG    HC8   64  -2.342   0.694  -1.398
    1LIG    HC9   65  -2.156   0.850  -1.542
    1LIG   HC10   66  -2.243   0.610  -1.706
    1LIG   HC11   67  -2.184   0.762  -1.776
    1LIG   HC12   68  -2.105   0.515  -1.816
    1LIG   HC13   69  -1.968   0.617  -1.863
    1LIG   HC14   70  -1.779   0.476  -1.910
    1LIG   HC15   71  -1.611   0.317  -1.823
    1LIG   HC16   72  -1.650   0.199  -1.609
    1LIG   HC17   73  -1.864   0.228  -1.489
    1LIG   HC18   74  -2.032   0.387  -1.575
    1LIG   HC19   75  -1.583   0.421  -1.386
    1LIG   HC20   76  -1.381   0.628  -1.702
    1LIG   HC21   77  -1.780   0.741  -1.592
    1LIG   HC22   78  -1.136   0.306  -1.452
    1LIG   HC23   79  -1.038   0.195  -1.286
    1LIG   HC24   80  -1.029   0.018  -1.115
    1LIG   HC25   81  -1.203  -0.157  -1.109
    1LIG   HC26   82  -1.383  -0.157  -1.277
    1LIG   HC27   83  -1.393   0.020  -1.450
    1LIG   HC28   84  -1.561   0.631  -1.906
    1LIG   HC29   85  -1.668   0.762  -1.961
    1LIG   HC30   86  -1.491   0.787  -1.955
    1LIG   HC31   87  -2.481   0.984  -1.513
    1LIG   HC32   88  -2.342   0.942  -1.410
    1LIG   HC33   89  -2.479   0.829  -1.426
    1LIG   HC34   90  -1.089   0.130  -1.620
    1LIG   HC35   91  -1.169   0.272  -1.690
    1LIG   HC36   92  -1.262   0.123  -1.659
    1LIG   HC37   93  -1.638   1.137  -1.861
    1LIG   HC38   94  -1.512   1.018  -1.900
    1LIG   HC39   95  -1.675   1.000  -1.968
   0.00000   0.00000   0.00000
