GROup of MAchos and Cynical Suckers
   49
    1LIG      O    1  -1.135   0.309  -1.765
    1LIG     C1    2  -1.176   0.370  -1.668
    1LIG     N1    3  -1.143   0.497  -1.631
    1LIG     C2    4  -1.074   0.591  -1.717
    1LIG     C3    5  -1.199   0.523  -1.511
    1LIG     N2    6  -1.274   0.430  -1.461
    1LIG     HN    7  -1.317   0.428  -1.369
    1LIG     C4    8  -1.284   0.325  -1.569
    1LIG     N3    9  -1.179   0.640  -1.447
    1LIG     H1   10  -1.207   0.638  -1.349
    1LIG     H2   11  -1.092   0.689  -1.464
    1LIG     C5   12  -1.427   0.342  -1.638
    1LIG     C6   13  -1.528   0.420  -1.549
    1LIG     C7   14  -1.673   0.417  -1.597
    1LIG     C8   15  -1.721   0.277  -1.633
    1LIG     C9   16  -1.630   0.217  -1.739
    1LIG    C10   17  -1.488   0.206  -1.685
    1LIG    C11   18  -1.256   0.184  -1.507
    1LIG    C12   19  -1.269   0.182  -1.353
    1LIG    C13   20  -1.241   0.045  -1.291
    1LIG    C14   21  -1.105  -0.009  -1.333
    1LIG    C15   22  -1.093  -0.013  -1.484
    1LIG    C16   23  -1.118   0.124  -1.547
    1LIG    HC1   24  -1.059   0.684  -1.664
    1LIG    HC2   25  -0.977   0.549  -1.746
    1LIG    HC3   26  -1.134   0.609  -1.806
    1LIG     HC   27  -1.412   0.402  -1.727
    1LIG    HC4   28  -1.496   0.524  -1.546
    1LIG    HC5   29  -1.524   0.379  -1.449
    1LIG    HC6   30  -1.737   0.456  -1.518
    1LIG    HC7   31  -1.683   0.481  -1.685
    1LIG    HC8   32  -1.823   0.282  -1.672
    1LIG    HC9   33  -1.719   0.214  -1.544
    1LIG   HC10   34  -1.666   0.118  -1.765
    1LIG   HC11   35  -1.630   0.281  -1.827
    1LIG   HC12   36  -1.424   0.166  -1.764
    1LIG   HC13   37  -1.487   0.137  -1.601
    1LIG   HC14   38  -1.332   0.116  -1.546
    1LIG   HC15   39  -1.370   0.213  -1.326
    1LIG   HC16   40  -1.199   0.254  -1.311
    1LIG   HC17   41  -1.244   0.054  -1.183
    1LIG   HC18   42  -1.319  -0.025  -1.324
    1LIG   HC19   43  -1.093  -0.110  -1.293
    1LIG   HC20   44  -1.027   0.055  -1.292
    1LIG   HC21   45  -0.993  -0.046  -1.511
    1LIG   HC22   46  -1.166  -0.084  -1.524
    1LIG   HC23   47  -1.114   0.115  -1.656
    1LIG   HC24   48  -1.040   0.193  -1.515
    1LIG    H29   49  -1.112   0.480  -1.461
   0.00000   0.00000   0.00000
