; Created by cgenff_charmm2gmx.py

[ moleculetype ]
; Name			   nrexcl
LIG				 3

[ atoms ]
;	 nr		  type	resnr residue  atom   cgnr	   charge		mass  typeB    chargeB		massB
; residue	 1 LIG rtp LIG q	qsum
     1      OG2D1      1    LIG      O      1     -0.385     15.999   ;
     2     CG2R53      1    LIG     C1      2     -0.010     12.011   ;
     3     NG2R53      1    LIG     N1      3     -0.372     14.007   ;
     4      CG331      1    LIG     C2      4     -0.126     12.011   ;
     5     CG3C51      1    LIG     C3      5      0.338     12.011   ;
     6     NG3C51      1    LIG     N2      6     -0.492     14.007   ;
     7       HGP1      1    LIG     HN      7      0.244      1.008   ;
     8     CG3C50      1    LIG     C4      8      0.576     12.011   ;
     9      NG321      1    LIG     N3      9     -0.877     14.007   ;
    10     HGPAM2      1    LIG     H1     10      0.349      1.008   ;
    11     HGPAM2      1    LIG     H2     11      0.349      1.008   ;
    12      CG311      1    LIG     C5     12     -0.075     12.011   ;
    13      CG321      1    LIG     C6     13     -0.133     12.011   ;
    14      CG321      1    LIG     C7     14     -0.241     12.011   ;
    15      CG321      1    LIG     C8     15     -0.154     12.011   ;
    16      CG321      1    LIG     C9     16     -0.241     12.011   ;
    17      CG321      1    LIG    C10     17     -0.133     12.011   ;
    18      CG311      1    LIG    C11     18     -0.075     12.011   ;
    19      CG321      1    LIG    C12     19     -0.133     12.011   ;
    20      CG321      1    LIG    C13     20     -0.241     12.011   ;
    21      CG321      1    LIG    C14     21     -0.154     12.011   ;
    22      CG321      1    LIG    C15     22     -0.241     12.011   ;
    23      CG321      1    LIG    C16     23     -0.133     12.011   ;
    24       HGA3      1    LIG    HC1     24      0.090      1.008   ;
    25       HGA3      1    LIG    HC2     25      0.090      1.008   ;
    26       HGA3      1    LIG    HC3     26      0.090      1.008   ;
    27       HGA1      1    LIG     HC     27      0.090      1.008   ;
    28       HGA2      1    LIG    HC4     28      0.090      1.008   ;
    29       HGA2      1    LIG    HC5     29      0.090      1.008   ;
    30       HGA2      1    LIG    HC6     30      0.090      1.008   ;
    31       HGA2      1    LIG    HC7     31      0.090      1.008   ;
    32       HGA2      1    LIG    HC8     32      0.090      1.008   ;
    33       HGA2      1    LIG    HC9     33      0.090      1.008   ;
    34       HGA2      1    LIG   HC10     34      0.090      1.008   ;
    35       HGA2      1    LIG   HC11     35      0.090      1.008   ;
    36       HGA2      1    LIG   HC12     36      0.090      1.008   ;
    37       HGA2      1    LIG   HC13     37      0.090      1.008   ;
    38       HGA1      1    LIG   HC14     38      0.090      1.008   ;
    39       HGA2      1    LIG   HC15     39      0.090      1.008   ;
    40       HGA2      1    LIG   HC16     40      0.090      1.008   ;
    41       HGA2      1    LIG   HC17     41      0.090      1.008   ;
    42       HGA2      1    LIG   HC18     42      0.090      1.008   ;
    43       HGA2      1    LIG   HC19     43      0.090      1.008   ;
    44       HGA2      1    LIG   HC20     44      0.090      1.008   ;
    45       HGA2      1    LIG   HC21     45      0.090      1.008   ;
    46       HGA2      1    LIG   HC22     46      0.090      1.008   ;
    47       HGA2      1    LIG   HC23     47      0.090      1.008   ;
    48       HGA2      1    LIG   HC24     48      0.090      1.008   ;
    49       HGA1      1    LIG    H29     49      0.110      1.008   ;

[ bonds ]
;	ai	  aj funct			  c0			c1			  c2			c3
    1     2	 1 ;       OG2D1     CG2R53
    2     3	 1 ;      CG2R53     NG2R53
    2     8	 1 ;      CG2R53     CG3C50
    3     4	 1 ;      NG2R53      CG331
    3     5	 1 ;      NG2R53     CG3C51
    4    24	 1 ;       CG331       HGA3
    4    25	 1 ;       CG331       HGA3
    4    26	 1 ;       CG331       HGA3
    5     9	 1 ;      CG3C51      NG321
    5     6	 1 ;      CG3C51     NG3C51
    5    49	 1 ;      CG3C51       HGA1
    6     8	 1 ;      NG3C51     CG3C50
    6     7	 1 ;      NG3C51       HGP1
    8    18	 1 ;      CG3C50      CG311
    8    12	 1 ;      CG3C50      CG311
    9    11	 1 ;       NG321     HGPAM2
    9    10	 1 ;       NG321     HGPAM2
   12    17	 1 ;       CG311      CG321
   12    13	 1 ;       CG311      CG321
   12    27	 1 ;       CG311       HGA1
   13    14	 1 ;       CG321      CG321
   13    28	 1 ;       CG321       HGA2
   13    29	 1 ;       CG321       HGA2
   14    15	 1 ;       CG321      CG321
   14    30	 1 ;       CG321       HGA2
   14    31	 1 ;       CG321       HGA2
   15    16	 1 ;       CG321      CG321
   15    32	 1 ;       CG321       HGA2
   15    33	 1 ;       CG321       HGA2
   16    17	 1 ;       CG321      CG321
   16    34	 1 ;       CG321       HGA2
   16    35	 1 ;       CG321       HGA2
   17    36	 1 ;       CG321       HGA2
   17    37	 1 ;       CG321       HGA2
   18    23	 1 ;       CG311      CG321
   18    19	 1 ;       CG311      CG321
   18    38	 1 ;       CG311       HGA1
   19    20	 1 ;       CG321      CG321
   19    39	 1 ;       CG321       HGA2
   19    40	 1 ;       CG321       HGA2
   20    21	 1 ;       CG321      CG321
   20    41	 1 ;       CG321       HGA2
   20    42	 1 ;       CG321       HGA2
   21    22	 1 ;       CG321      CG321
   21    43	 1 ;       CG321       HGA2
   21    44	 1 ;       CG321       HGA2
   22    23	 1 ;       CG321      CG321
   22    45	 1 ;       CG321       HGA2
   22    46	 1 ;       CG321       HGA2
   23    47	 1 ;       CG321       HGA2
   23    48	 1 ;       CG321       HGA2

[ pairs ]
;	ai	  aj funct			  c0			c1			  c2			c3
    1     4	 1
    1     5	 1
    1     6	 1
    1    18	 1
    1    12	 1
    2    24	 1
    2    25	 1
    2    26	 1
    2     9	 1
    2    49	 1
    2     7	 1
    2    23	 1
    2    19	 1
    2    38	 1
    2    17	 1
    2    13	 1
    2    27	 1
    3    18	 1
    3    12	 1
    3    11	 1
    3    10	 1
    3     7	 1
    4     8	 1
    4     9	 1
    4     6	 1
    4    49	 1
    5    24	 1
    5    25	 1
    5    26	 1
    5    18	 1
    5    12	 1
    6    11	 1
    6    10	 1
    6    23	 1
    6    19	 1
    6    38	 1
    6    17	 1
    6    13	 1
    6    27	 1
    7     9	 1
    7    49	 1
    7    18	 1
    7    12	 1
    8     9	 1
    8    49	 1
    8    16	 1
    8    36	 1
    8    37	 1
    8    14	 1
    8    28	 1
    8    29	 1
    8    22	 1
    8    47	 1
    8    48	 1
    8    20	 1
    8    39	 1
    8    40	 1
   10    49	 1
   11    49	 1
   12    23	 1
   12    19	 1
   12    38	 1
   12    15	 1
   12    30	 1
   12    31	 1
   12    34	 1
   12    35	 1
   13    18	 1
   13    16	 1
   13    36	 1
   13    37	 1
   13    32	 1
   13    33	 1
   14    17	 1
   14    27	 1
   14    34	 1
   14    35	 1
   15    28	 1
   15    29	 1
   15    36	 1
   15    37	 1
   16    27	 1
   16    30	 1
   16    31	 1
   17    18	 1
   17    28	 1
   17    29	 1
   17    32	 1
   17    33	 1
   18    27	 1
   18    21	 1
   18    41	 1
   18    42	 1
   18    45	 1
   18    46	 1
   19    22	 1
   19    47	 1
   19    48	 1
   19    43	 1
   19    44	 1
   20    23	 1
   20    38	 1
   20    45	 1
   20    46	 1
   21    39	 1
   21    40	 1
   21    47	 1
   21    48	 1
   22    38	 1
   22    41	 1
   22    42	 1
   23    39	 1
   23    40	 1
   23    43	 1
   23    44	 1
   27    36	 1
   27    37	 1
   27    28	 1
   27    29	 1
   28    30	 1
   28    31	 1
   29    30	 1
   29    31	 1
   30    32	 1
   30    33	 1
   31    32	 1
   31    33	 1
   32    34	 1
   32    35	 1
   33    34	 1
   33    35	 1
   34    36	 1
   34    37	 1
   35    36	 1
   35    37	 1
   38    47	 1
   38    48	 1
   38    39	 1
   38    40	 1
   39    41	 1
   39    42	 1
   40    41	 1
   40    42	 1
   41    43	 1
   41    44	 1
   42    43	 1
   42    44	 1
   43    45	 1
   43    46	 1
   44    45	 1
   44    46	 1
   45    47	 1
   45    48	 1
   46    47	 1
   46    48	 1

[ angles ]
;	ai	  aj	ak funct			c0			  c1			c2			  c3
    1     2     3	5 ;      OG2D1     CG2R53     NG2R53
    1     2     8	5 ;      OG2D1     CG2R53     CG3C50
    3     2     8	5 ;     NG2R53     CG2R53     CG3C50
    4     3     2	5 ;      CG331     NG2R53     CG2R53
    4     3     5	5 ;      CG331     NG2R53     CG3C51
    2     3     5	5 ;     CG2R53     NG2R53     CG3C51
    3     4    24	5 ;     NG2R53      CG331       HGA3
    3     4    25	5 ;     NG2R53      CG331       HGA3
    3     4    26	5 ;     NG2R53      CG331       HGA3
   24     4    25	5 ;       HGA3      CG331       HGA3
   24     4    26	5 ;       HGA3      CG331       HGA3
   25     4    26	5 ;       HGA3      CG331       HGA3
    3     5     9	5 ;     NG2R53     CG3C51      NG321
    3     5     6	5 ;     NG2R53     CG3C51     NG3C51
    3     5    49	5 ;     NG2R53     CG3C51       HGA1
    9     5     6	5 ;      NG321     CG3C51     NG3C51
    9     5    49	5 ;      NG321     CG3C51       HGA1
    6     5    49	5 ;     NG3C51     CG3C51       HGA1
    5     6     8	5 ;     CG3C51     NG3C51     CG3C50
    5     6     7	5 ;     CG3C51     NG3C51       HGP1
    8     6     7	5 ;     CG3C50     NG3C51       HGP1
    2     8     6	5 ;     CG2R53     CG3C50     NG3C51
    2     8    18	5 ;     CG2R53     CG3C50      CG311
    2     8    12	5 ;     CG2R53     CG3C50      CG311
    6     8    18	5 ;     NG3C51     CG3C50      CG311
    6     8    12	5 ;     NG3C51     CG3C50      CG311
   18     8    12	5 ;      CG311     CG3C50      CG311
   11     9     5	5 ;     HGPAM2      NG321     CG3C51
   11     9    10	5 ;     HGPAM2      NG321     HGPAM2
    5     9    10	5 ;     CG3C51      NG321     HGPAM2
    8    12    17	5 ;     CG3C50      CG311      CG321
    8    12    13	5 ;     CG3C50      CG311      CG321
    8    12    27	5 ;     CG3C50      CG311       HGA1
   17    12    13	5 ;      CG321      CG311      CG321
   17    12    27	5 ;      CG321      CG311       HGA1
   13    12    27	5 ;      CG321      CG311       HGA1
   12    13    14	5 ;      CG311      CG321      CG321
   12    13    28	5 ;      CG311      CG321       HGA2
   12    13    29	5 ;      CG311      CG321       HGA2
   14    13    28	5 ;      CG321      CG321       HGA2
   14    13    29	5 ;      CG321      CG321       HGA2
   28    13    29	5 ;       HGA2      CG321       HGA2
   13    14    15	5 ;      CG321      CG321      CG321
   13    14    30	5 ;      CG321      CG321       HGA2
   13    14    31	5 ;      CG321      CG321       HGA2
   15    14    30	5 ;      CG321      CG321       HGA2
   15    14    31	5 ;      CG321      CG321       HGA2
   30    14    31	5 ;       HGA2      CG321       HGA2
   16    15    14	5 ;      CG321      CG321      CG321
   16    15    32	5 ;      CG321      CG321       HGA2
   16    15    33	5 ;      CG321      CG321       HGA2
   14    15    32	5 ;      CG321      CG321       HGA2
   14    15    33	5 ;      CG321      CG321       HGA2
   32    15    33	5 ;       HGA2      CG321       HGA2
   17    16    15	5 ;      CG321      CG321      CG321
   17    16    34	5 ;      CG321      CG321       HGA2
   17    16    35	5 ;      CG321      CG321       HGA2
   15    16    34	5 ;      CG321      CG321       HGA2
   15    16    35	5 ;      CG321      CG321       HGA2
   34    16    35	5 ;       HGA2      CG321       HGA2
   12    17    16	5 ;      CG311      CG321      CG321
   12    17    36	5 ;      CG311      CG321       HGA2
   12    17    37	5 ;      CG311      CG321       HGA2
   16    17    36	5 ;      CG321      CG321       HGA2
   16    17    37	5 ;      CG321      CG321       HGA2
   36    17    37	5 ;       HGA2      CG321       HGA2
   23    18     8	5 ;      CG321      CG311     CG3C50
   23    18    19	5 ;      CG321      CG311      CG321
   23    18    38	5 ;      CG321      CG311       HGA1
    8    18    19	5 ;     CG3C50      CG311      CG321
    8    18    38	5 ;     CG3C50      CG311       HGA1
   19    18    38	5 ;      CG321      CG311       HGA1
   18    19    20	5 ;      CG311      CG321      CG321
   18    19    39	5 ;      CG311      CG321       HGA2
   18    19    40	5 ;      CG311      CG321       HGA2
   20    19    39	5 ;      CG321      CG321       HGA2
   20    19    40	5 ;      CG321      CG321       HGA2
   39    19    40	5 ;       HGA2      CG321       HGA2
   21    20    19	5 ;      CG321      CG321      CG321
   21    20    41	5 ;      CG321      CG321       HGA2
   21    20    42	5 ;      CG321      CG321       HGA2
   19    20    41	5 ;      CG321      CG321       HGA2
   19    20    42	5 ;      CG321      CG321       HGA2
   41    20    42	5 ;       HGA2      CG321       HGA2
   22    21    20	5 ;      CG321      CG321      CG321
   22    21    43	5 ;      CG321      CG321       HGA2
   22    21    44	5 ;      CG321      CG321       HGA2
   20    21    43	5 ;      CG321      CG321       HGA2
   20    21    44	5 ;      CG321      CG321       HGA2
   43    21    44	5 ;       HGA2      CG321       HGA2
   23    22    21	5 ;      CG321      CG321      CG321
   23    22    45	5 ;      CG321      CG321       HGA2
   23    22    46	5 ;      CG321      CG321       HGA2
   21    22    45	5 ;      CG321      CG321       HGA2
   21    22    46	5 ;      CG321      CG321       HGA2
   45    22    46	5 ;       HGA2      CG321       HGA2
   22    23    18	5 ;      CG321      CG321      CG311
   22    23    47	5 ;      CG321      CG321       HGA2
   22    23    48	5 ;      CG321      CG321       HGA2
   18    23    47	5 ;      CG311      CG321       HGA2
   18    23    48	5 ;      CG311      CG321       HGA2
   47    23    48	5 ;       HGA2      CG321       HGA2

[ dihedrals ]
;	ai	  aj	ak	  al funct			  c0			c1			  c2			c3			  c4			c5
    1     2     3     4	 9 ;      OG2D1     CG2R53     NG2R53      CG331
    1     2     3     5	 9 ;      OG2D1     CG2R53     NG2R53     CG3C51
    8     2     3     4	 9 ;     CG3C50     CG2R53     NG2R53      CG331
    8     2     3     5	 9 ;     CG3C50     CG2R53     NG2R53     CG3C51
    1     2     8     6	 9 ;      OG2D1     CG2R53     CG3C50     NG3C51
    1     2     8    18	 9 ;      OG2D1     CG2R53     CG3C50      CG311
    1     2     8    12	 9 ;      OG2D1     CG2R53     CG3C50      CG311
    3     2     8     6	 9 ;     NG2R53     CG2R53     CG3C50     NG3C51
    3     2     8    18	 9 ;     NG2R53     CG2R53     CG3C50      CG311
    3     2     8    12	 9 ;     NG2R53     CG2R53     CG3C50      CG311
    2     3     4    24	 9 ;     CG2R53     NG2R53      CG331       HGA3
    2     3     4    25	 9 ;     CG2R53     NG2R53      CG331       HGA3
    2     3     4    26	 9 ;     CG2R53     NG2R53      CG331       HGA3
    5     3     4    24	 9 ;     CG3C51     NG2R53      CG331       HGA3
    5     3     4    25	 9 ;     CG3C51     NG2R53      CG331       HGA3
    5     3     4    26	 9 ;     CG3C51     NG2R53      CG331       HGA3
    4     3     5     9	 9 ;      CG331     NG2R53     CG3C51      NG321
    4     3     5     6	 9 ;      CG331     NG2R53     CG3C51     NG3C51
    4     3     5    49	 9 ;      CG331     NG2R53     CG3C51       HGA1
    2     3     5     9	 9 ;     CG2R53     NG2R53     CG3C51      NG321
    2     3     5     6	 9 ;     CG2R53     NG2R53     CG3C51     NG3C51
    2     3     5    49	 9 ;     CG2R53     NG2R53     CG3C51       HGA1
    3     5     9    11	 9 ;     NG2R53     CG3C51      NG321     HGPAM2
    3     5     9    10	 9 ;     NG2R53     CG3C51      NG321     HGPAM2
    6     5     9    11	 9 ;     NG3C51     CG3C51      NG321     HGPAM2
    6     5     9    10	 9 ;     NG3C51     CG3C51      NG321     HGPAM2
   49     5     9    11	 9 ;       HGA1     CG3C51      NG321     HGPAM2
   49     5     9    10	 9 ;       HGA1     CG3C51      NG321     HGPAM2
    3     5     6     8	 9 ;     NG2R53     CG3C51     NG3C51     CG3C50
    3     5     6     7	 9 ;     NG2R53     CG3C51     NG3C51       HGP1
    9     5     6     8	 9 ;      NG321     CG3C51     NG3C51     CG3C50
    9     5     6     7	 9 ;      NG321     CG3C51     NG3C51       HGP1
   49     5     6     8	 9 ;       HGA1     CG3C51     NG3C51     CG3C50
   49     5     6     7	 9 ;       HGA1     CG3C51     NG3C51       HGP1
    5     6     8     2	 9 ;     CG3C51     NG3C51     CG3C50     CG2R53
    5     6     8    18	 9 ;     CG3C51     NG3C51     CG3C50      CG311
    5     6     8    12	 9 ;     CG3C51     NG3C51     CG3C50      CG311
    7     6     8     2	 9 ;       HGP1     NG3C51     CG3C50     CG2R53
    7     6     8    18	 9 ;       HGP1     NG3C51     CG3C50      CG311
    7     6     8    12	 9 ;       HGP1     NG3C51     CG3C50      CG311
    2     8    18    23	 9 ;     CG2R53     CG3C50      CG311      CG321
    2     8    18    19	 9 ;     CG2R53     CG3C50      CG311      CG321
    2     8    18    38	 9 ;     CG2R53     CG3C50      CG311       HGA1
    6     8    18    23	 9 ;     NG3C51     CG3C50      CG311      CG321
    6     8    18    19	 9 ;     NG3C51     CG3C50      CG311      CG321
    6     8    18    38	 9 ;     NG3C51     CG3C50      CG311       HGA1
   12     8    18    23	 9 ;      CG311     CG3C50      CG311      CG321
   12     8    18    19	 9 ;      CG311     CG3C50      CG311      CG321
   12     8    18    38	 9 ;      CG311     CG3C50      CG311       HGA1
    2     8    12    17	 9 ;     CG2R53     CG3C50      CG311      CG321
    2     8    12    13	 9 ;     CG2R53     CG3C50      CG311      CG321
    2     8    12    27	 9 ;     CG2R53     CG3C50      CG311       HGA1
    6     8    12    17	 9 ;     NG3C51     CG3C50      CG311      CG321
    6     8    12    13	 9 ;     NG3C51     CG3C50      CG311      CG321
    6     8    12    27	 9 ;     NG3C51     CG3C50      CG311       HGA1
   18     8    12    17	 9 ;      CG311     CG3C50      CG311      CG321
   18     8    12    13	 9 ;      CG311     CG3C50      CG311      CG321
   18     8    12    27	 9 ;      CG311     CG3C50      CG311       HGA1
    8    12    17    16	 9 ;     CG3C50      CG311      CG321      CG321
    8    12    17    36	 9 ;     CG3C50      CG311      CG321       HGA2
    8    12    17    37	 9 ;     CG3C50      CG311      CG321       HGA2
   13    12    17    16	 9 ;      CG321      CG311      CG321      CG321
   13    12    17    36	 9 ;      CG321      CG311      CG321       HGA2
   13    12    17    37	 9 ;      CG321      CG311      CG321       HGA2
   27    12    17    16	 9 ;       HGA1      CG311      CG321      CG321
   27    12    17    36	 9 ;       HGA1      CG311      CG321       HGA2
   27    12    17    37	 9 ;       HGA1      CG311      CG321       HGA2
    8    12    13    14	 9 ;     CG3C50      CG311      CG321      CG321
    8    12    13    28	 9 ;     CG3C50      CG311      CG321       HGA2
    8    12    13    29	 9 ;     CG3C50      CG311      CG321       HGA2
   17    12    13    14	 9 ;      CG321      CG311      CG321      CG321
   17    12    13    28	 9 ;      CG321      CG311      CG321       HGA2
   17    12    13    29	 9 ;      CG321      CG311      CG321       HGA2
   27    12    13    14	 9 ;       HGA1      CG311      CG321      CG321
   27    12    13    28	 9 ;       HGA1      CG311      CG321       HGA2
   27    12    13    29	 9 ;       HGA1      CG311      CG321       HGA2
   12    13    14    15	 9 ;      CG311      CG321      CG321      CG321
   12    13    14    30	 9 ;      CG311      CG321      CG321       HGA2
   12    13    14    31	 9 ;      CG311      CG321      CG321       HGA2
   28    13    14    15	 9 ;       HGA2      CG321      CG321      CG321
   28    13    14    30	 9 ;       HGA2      CG321      CG321       HGA2
   28    13    14    31	 9 ;       HGA2      CG321      CG321       HGA2
   29    13    14    15	 9 ;       HGA2      CG321      CG321      CG321
   29    13    14    30	 9 ;       HGA2      CG321      CG321       HGA2
   29    13    14    31	 9 ;       HGA2      CG321      CG321       HGA2
   13    14    15    16	 9 ;      CG321      CG321      CG321      CG321
   13    14    15    32	 9 ;      CG321      CG321      CG321       HGA2
   13    14    15    33	 9 ;      CG321      CG321      CG321       HGA2
   30    14    15    16	 9 ;       HGA2      CG321      CG321      CG321
   30    14    15    32	 9 ;       HGA2      CG321      CG321       HGA2
   30    14    15    33	 9 ;       HGA2      CG321      CG321       HGA2
   31    14    15    16	 9 ;       HGA2      CG321      CG321      CG321
   31    14    15    32	 9 ;       HGA2      CG321      CG321       HGA2
   31    14    15    33	 9 ;       HGA2      CG321      CG321       HGA2
   14    15    16    17	 9 ;      CG321      CG321      CG321      CG321
   14    15    16    34	 9 ;      CG321      CG321      CG321       HGA2
   14    15    16    35	 9 ;      CG321      CG321      CG321       HGA2
   32    15    16    17	 9 ;       HGA2      CG321      CG321      CG321
   32    15    16    34	 9 ;       HGA2      CG321      CG321       HGA2
   32    15    16    35	 9 ;       HGA2      CG321      CG321       HGA2
   33    15    16    17	 9 ;       HGA2      CG321      CG321      CG321
   33    15    16    34	 9 ;       HGA2      CG321      CG321       HGA2
   33    15    16    35	 9 ;       HGA2      CG321      CG321       HGA2
   15    16    17    12	 9 ;      CG321      CG321      CG321      CG311
   15    16    17    36	 9 ;      CG321      CG321      CG321       HGA2
   15    16    17    37	 9 ;      CG321      CG321      CG321       HGA2
   34    16    17    12	 9 ;       HGA2      CG321      CG321      CG311
   34    16    17    36	 9 ;       HGA2      CG321      CG321       HGA2
   34    16    17    37	 9 ;       HGA2      CG321      CG321       HGA2
   35    16    17    12	 9 ;       HGA2      CG321      CG321      CG311
   35    16    17    36	 9 ;       HGA2      CG321      CG321       HGA2
   35    16    17    37	 9 ;       HGA2      CG321      CG321       HGA2
    8    18    23    22	 9 ;     CG3C50      CG311      CG321      CG321
    8    18    23    47	 9 ;     CG3C50      CG311      CG321       HGA2
    8    18    23    48	 9 ;     CG3C50      CG311      CG321       HGA2
   19    18    23    22	 9 ;      CG321      CG311      CG321      CG321
   19    18    23    47	 9 ;      CG321      CG311      CG321       HGA2
   19    18    23    48	 9 ;      CG321      CG311      CG321       HGA2
   38    18    23    22	 9 ;       HGA1      CG311      CG321      CG321
   38    18    23    47	 9 ;       HGA1      CG311      CG321       HGA2
   38    18    23    48	 9 ;       HGA1      CG311      CG321       HGA2
   23    18    19    20	 9 ;      CG321      CG311      CG321      CG321
   23    18    19    39	 9 ;      CG321      CG311      CG321       HGA2
   23    18    19    40	 9 ;      CG321      CG311      CG321       HGA2
    8    18    19    20	 9 ;     CG3C50      CG311      CG321      CG321
    8    18    19    39	 9 ;     CG3C50      CG311      CG321       HGA2
    8    18    19    40	 9 ;     CG3C50      CG311      CG321       HGA2
   38    18    19    20	 9 ;       HGA1      CG311      CG321      CG321
   38    18    19    39	 9 ;       HGA1      CG311      CG321       HGA2
   38    18    19    40	 9 ;       HGA1      CG311      CG321       HGA2
   18    19    20    21	 9 ;      CG311      CG321      CG321      CG321
   18    19    20    41	 9 ;      CG311      CG321      CG321       HGA2
   18    19    20    42	 9 ;      CG311      CG321      CG321       HGA2
   39    19    20    21	 9 ;       HGA2      CG321      CG321      CG321
   39    19    20    41	 9 ;       HGA2      CG321      CG321       HGA2
   39    19    20    42	 9 ;       HGA2      CG321      CG321       HGA2
   40    19    20    21	 9 ;       HGA2      CG321      CG321      CG321
   40    19    20    41	 9 ;       HGA2      CG321      CG321       HGA2
   40    19    20    42	 9 ;       HGA2      CG321      CG321       HGA2
   19    20    21    22	 9 ;      CG321      CG321      CG321      CG321
   19    20    21    43	 9 ;      CG321      CG321      CG321       HGA2
   19    20    21    44	 9 ;      CG321      CG321      CG321       HGA2
   41    20    21    22	 9 ;       HGA2      CG321      CG321      CG321
   41    20    21    43	 9 ;       HGA2      CG321      CG321       HGA2
   41    20    21    44	 9 ;       HGA2      CG321      CG321       HGA2
   42    20    21    22	 9 ;       HGA2      CG321      CG321      CG321
   42    20    21    43	 9 ;       HGA2      CG321      CG321       HGA2
   42    20    21    44	 9 ;       HGA2      CG321      CG321       HGA2
   20    21    22    23	 9 ;      CG321      CG321      CG321      CG321
   20    21    22    45	 9 ;      CG321      CG321      CG321       HGA2
   20    21    22    46	 9 ;      CG321      CG321      CG321       HGA2
   43    21    22    23	 9 ;       HGA2      CG321      CG321      CG321
   43    21    22    45	 9 ;       HGA2      CG321      CG321       HGA2
   43    21    22    46	 9 ;       HGA2      CG321      CG321       HGA2
   44    21    22    23	 9 ;       HGA2      CG321      CG321      CG321
   44    21    22    45	 9 ;       HGA2      CG321      CG321       HGA2
   44    21    22    46	 9 ;       HGA2      CG321      CG321       HGA2
   21    22    23    18	 9 ;      CG321      CG321      CG321      CG311
   21    22    23    47	 9 ;      CG321      CG321      CG321       HGA2
   21    22    23    48	 9 ;      CG321      CG321      CG321       HGA2
   45    22    23    18	 9 ;       HGA2      CG321      CG321      CG311
   45    22    23    47	 9 ;       HGA2      CG321      CG321       HGA2
   45    22    23    48	 9 ;       HGA2      CG321      CG321       HGA2
   46    22    23    18	 9 ;       HGA2      CG321      CG321      CG311
   46    22    23    47	 9 ;       HGA2      CG321      CG321       HGA2
   46    22    23    48	 9 ;       HGA2      CG321      CG321       HGA2

[ dihedrals ]
;	ai	  aj	ak	  al funct			  c0			c1			  c2			c3
    2     8     3     1	 2

