Gravel Rubs Often Many Awfully Cauterized Sores
   83
    1LIG     C1    1  -1.965   0.223  -1.186
    1LIG     C2    2  -2.049   0.086  -1.178
    1LIG     C3    3  -2.002  -0.053  -1.135
    1LIG     C4    4  -1.939  -0.085  -1.014
    1LIG     C5    5  -1.922  -0.220  -0.974
    1LIG     C6    6  -1.960  -0.325  -1.056
    1LIG     C7    7  -2.010  -0.296  -1.183
    1LIG     C8    8  -2.029  -0.162  -1.222
    1LIG     N1    9  -1.848   0.219  -1.288
    1LIG     C9   10  -1.778   0.331  -1.337
    1LIG     O1   11  -1.816   0.444  -1.304
    1LIG     H1   12  -1.804   0.130  -1.306
    1LIG    C10   13  -1.656   0.318  -1.435
    1LIG    C11   14  -1.527   0.375  -1.419
    1LIG    C12   15  -1.422   0.351  -1.514
    1LIG    C13   16  -1.445   0.273  -1.627
    1LIG    C14   17  -1.571   0.216  -1.646
    1LIG    C15   18  -1.674   0.239  -1.552
    1LIG     N2   19  -1.299   0.422  -1.515
    1LIG     H2   20  -1.287   0.500  -1.580
    1LIG      S   21  -1.179   0.410  -1.399
    1LIG     O2   22  -1.238   0.419  -1.267
    1LIG     O3   23  -1.075   0.501  -1.441
    1LIG    C16   24  -1.115   0.244  -1.423
    1LIG    C17   25  -1.106   0.158  -1.312
    1LIG    C18   26  -1.058   0.028  -1.329
    1LIG    C19   27  -1.022  -0.017  -1.456
    1LIG    C20   28  -1.036   0.068  -1.566
    1LIG    C21   29  -1.084   0.199  -1.550
    1LIG    C22   30  -2.060   0.358  -1.188
    1LIG    C23   31  -2.165   0.379  -1.306
    1LIG     N3   32  -2.123   0.494  -1.404
    1LIG     H3   33  -2.197   0.566  -1.401
    1LIG     H4   34  -2.038   0.536  -1.365
    1LIG    C24   35  -2.100   0.466  -1.554
    1LIG    C25   36  -2.056   0.319  -1.571
    1LIG    C26   37  -1.991   0.556  -1.619
    1LIG     O4   38  -1.997   0.581  -1.739
    1LIG     N4   39  -1.892   0.603  -1.533
    1LIG     H5   40  -1.903   0.590  -1.434
    1LIG    C27   41  -1.777   0.689  -1.572
    1LIG    C28   42  -1.677   0.615  -1.662
    1LIG    C29   43  -1.532   0.662  -1.664
    1LIG    C30   44  -1.481   0.733  -1.539
    1LIG    C31   45  -1.582   0.826  -1.473
    1LIG    C32   46  -1.719   0.763  -1.452
    1LIG     O5   47  -2.143   0.366  -1.070
    1LIG     H6   48  -2.178   0.276  -1.051
    1LIG     HC   49  -1.915   0.229  -1.090
    1LIG    HC2   50  -2.131   0.109  -1.110
    1LIG    HC3   51  -2.095   0.073  -1.276
    1LIG    HC1   52  -1.904  -0.006  -0.950
    1LIG    HC4   53  -1.878  -0.241  -0.878
    1LIG    HC5   54  -1.952  -0.427  -1.022
    1LIG    HC6   55  -2.034  -0.376  -1.251
    1LIG    HC7   56  -2.066  -0.142  -1.321
    1LIG    HC8   57  -1.507   0.438  -1.334
    1LIG    HC9   58  -1.366   0.256  -1.699
    1LIG   HC10   59  -1.589   0.155  -1.733
    1LIG   HC11   60  -1.771   0.195  -1.570
    1LIG   HC12   61  -1.137   0.192  -1.214
    1LIG   HC13   62  -1.048  -0.038  -1.243
    1LIG   HC14   63  -0.984  -0.117  -1.469
    1LIG   HC15   64  -1.010   0.032  -1.664
    1LIG   HC16   65  -1.095   0.263  -1.636
    1LIG   HC17   66  -1.994   0.444  -1.188
    1LIG   HC18   67  -2.262   0.405  -1.262
    1LIG   HC19   68  -2.175   0.286  -1.362
    1LIG   HC20   69  -2.194   0.480  -1.608
    1LIG   HC21   70  -2.016   0.304  -1.671
    1LIG   HC22   71  -2.141   0.254  -1.555
    1LIG   HC23   72  -1.979   0.296  -1.497
    1LIG   HC24   73  -1.820   0.766  -1.635
    1LIG   HC25   74  -1.715   0.622  -1.764
    1LIG   HC26   75  -1.678   0.509  -1.633
    1LIG   HC27   76  -1.469   0.575  -1.680
    1LIG   HC28   77  -1.519   0.730  -1.748
    1LIG   HC29   78  -1.394   0.792  -1.567
    1LIG   HC30   79  -1.451   0.658  -1.466
    1LIG   HC31   80  -1.542   0.855  -1.376
    1LIG   HC32   81  -1.593   0.914  -1.535
    1LIG   HC33   82  -1.788   0.843  -1.425
    1LIG   HC34   83  -1.712   0.694  -1.368
   0.00000   0.00000   0.00000
